ITEM: TIMESTEP
0
ITEM: NUMBER OF ATOMS
48
ITEM: BOX BOUNDS xy xz yz pp pp pp
-3.7461689710617065e+00 8.6067802309989929e+00 2.5094206929206848e+00
-9.4973444938659668e-03 9.3236122131347656e+00 -3.7341318726539612e+00
-2.8691649436950684e-02 1.9545819282531738e+01 7.1304261684417725e-02
ITEM: ATOMS id type xs ys zs fx fy fz
5 1 0.271405 0.157156 0.802805 0 0 0.004179
6 1 0.0187605 0.0420026 0.90702 0 0 -0.359415
13 1 0.237874 0.292053 0.157025 0 0 -0.00418282
19 1 0.271405 0.49049 0.802805 0 0 0.00418091
20 1 0.0187606 0.375336 0.90702 0 0 -0.359398
22 1 0.128415 0.333676 0.532027 0 0 0.000324249
26 1 0.0840019 0.323895 0.302807 0 0 -0.00140381
29 1 0.237874 0.625387 0.157025 0 0 -0.00418091
35 1 0.271405 0.823823 0.802805 0 0 0.00418282
36 1 0.0187605 0.708669 0.90702 0 0 -0.359411
38 1 0.128414 0.667009 0.532027 0 0 0.000322342
42 1 0.0840018 0.657228 0.302807 0 0 -0.00140762
45 1 0.237874 0.95872 0.157026 0 0 -0.00418472
47 1 0.128414 0.000342385 0.532027 0 0 0.000322342
48 1 0.084002 0.990562 0.302807 0 0 -0.00140381
1 1 0.941172 0.16703 0.0320218 0 0 0.867538
2 1 0.490518 0.0738739 0.0528103 0 0 0.359417
3 1 0.425277 0.125314 0.657023 0 0 0.00140572
4 1 0.568107 0.948847 0.927808 0 0 -0.867537
7 1 0.722055 0.250315 0.78202 0 0 -0.00831604
8 1 0.831512 0.208712 0.407029 0 0 0.00117683
9 1 0.97463 0.0321465 0.677802 0 0 -0.000534058
10 1 0.677768 0.240498 0.552801 0 0 -0.0011692
11 1 0.787224 0.198895 0.17781 0 0 0.00831223
12 1 0.53465 0.0837297 0.282028 0 0 0.000534058
14 1 0.380865 0.115534 0.427803 0 0 -0.000328064
15 1 0.941172 0.500363 0.0320219 0 0 0.867519
16 1 0.490518 0.407207 0.0528103 0 0 0.359413
17 1 0.425277 0.458648 0.657023 0 0 0.00140953
18 1 0.568107 0.28218 0.927808 0 0 -0.867538
21 1 0.722055 0.583648 0.78202 0 0 -0.00831985
23 1 0.831512 0.542046 0.407029 0 0 0.00117111
24 1 0.97463 0.36548 0.677802 0 0 -0.000530243
25 1 0.677768 0.573831 0.552801 0 0 -0.00117302
27 1 0.787224 0.532228 0.17781 0 0 0.00831795
28 1 0.534649 0.417063 0.282028 0 0 0.000537872
30 1 0.380865 0.448867 0.427803 0 0 -0.000328064
31 1 0.941172 0.833696 0.0320219 0 0 0.867529
32 1 0.490518 0.740541 0.0528104 0 0 0.359413
33 1 0.425277 0.791981 0.657023 0 0 0.00140572
34 1 0.568107 0.615514 0.927808 0 0 -0.867529
37 1 0.722055 0.916981 0.78202 0 0 -0.00831604
39 1 0.831512 0.875379 0.407029 0 0 0.00117111
40 1 0.974629 0.698813 0.677802 0 0 -0.000537872
41 1 0.677767 0.907164 0.552801 0 0 -0.0011673
43 1 0.787224 0.865562 0.17781 0 0 0.00831604
44 1 0.53465 0.750396 0.282028 0 0 0.000534058
46 1 0.380865 0.782201 0.427803 0 0 -0.000322342
ITEM: TIMESTEP
1
ITEM: NUMBER OF ATOMS
48
ITEM: BOX BOUNDS xy xz yz pp pp pp
-3.7461689710617065e+00 8.6067802309989929e+00 2.5094206929206848e+00
-9.4973444938659668e-03 9.3236122131347656e+00 -3.7341318726539612e+00
-2.8691649436950684e-02 1.9545819282531738e+01 7.1304261684417725e-02
ITEM: ATOMS id type xs ys zs fx fy fz
5 1 0.271421 0.157156 0.802829 0 0 -0.0958118
6 1 0.0174601 0.0420189 0.904903 0 0 -0.0564137
13 1 0.237859 0.292053 0.157001 0 0 0.0958118
19 1 0.27142 0.49049 0.802829 0 0 -0.0958061
20 1 0.0174603 0.375352 0.904903 0 0 -0.0564194
22 1 0.128416 0.333676 0.532029 0 0 0.00165558
26 1 0.0839968 0.323895 0.302799 0 0 0.00235939
29 1 0.237859 0.625387 0.157001 0 0 0.095808
35 1 0.271421 0.823823 0.802829 0 0 -0.0958004
36 1 0.0174602 0.708686 0.904903 0 0 -0.0564117
38 1 0.128416 0.667009 0.532029 0 0 0.00165558
42 1 0.0839967 0.657229 0.302799 0 0 0.00236511
45 1 0.237859 0.95872 0.157001 0 0 0.0958061
47 1 0.128415 0.000342371 0.532029 0 0 0.00165939
48 1 0.0839969 0.990562 0.302799 0 0 0.00235748
1 1 0.94431 0.16699 0.0371305 0 0 0.257433
2 1 0.491819 0.0738576 0.0549268 0 0 0.0564098
3 1 0.425282 0.125314 0.657031 0 0 -0.00236511
4 1 0.564968 0.948886 0.9227 0 0 -0.257423
7 1 0.722025 0.250315 0.781971 0 0 -0.0907917
8 1 0.831516 0.208712 0.407036 0 0 -0.00108337
9 1 0.974628 0.0321465 0.677799 0 0 -0.00474548
10 1 0.677763 0.240498 0.552794 0 0 0.00109291
11 1 0.787254 0.198894 0.177859 0 0 0.0907955
12 1 0.534652 0.0837296 0.282031 0 0 0.00473976
14 1 0.380864 0.115534 0.427801 0 0 -0.00165749
15 1 0.944311 0.500324 0.0371305 0 0 0.257437
16 1 0.491819 0.407191 0.0549268 0 0 0.0564137
17 1 0.425282 0.458648 0.657031 0 0 -0.0023613
18 1 0.564968 0.28222 0.9227 0 0 -0.257431
21 1 0.722025 0.583649 0.781971 0 0 -0.0907955
23 1 0.831516 0.542045 0.407036 0 0 -0.0010891
24 1 0.974628 0.36548 0.677799 0 0 -0.00474358
25 1 0.677763 0.573831 0.552794 0 0 0.00108528
27 1 0.787254 0.532228 0.177859 0 0 0.0907936
28 1 0.534651 0.417063 0.282031 0 0 0.00474739
30 1 0.380863 0.448867 0.427801 0 0 -0.00165176
31 1 0.944311 0.833657 0.0371306 0 0 0.257429
32 1 0.491819 0.740524 0.0549269 0 0 0.0564079
33 1 0.425282 0.791981 0.657031 0 0 -0.00235939
34 1 0.564968 0.615553 0.9227 0 0 -0.257435
37 1 0.722025 0.916982 0.781971 0 0 -0.0907993
39 1 0.831516 0.875379 0.407036 0 0 -0.0010891
40 1 0.974627 0.698813 0.677799 0 0 -0.00474358
41 1 0.677763 0.907164 0.552794 0 0 0.0010891
43 1 0.787254 0.865561 0.177859 0 0 0.0907936
44 1 0.534652 0.750396 0.282031 0 0 0.00474167
46 1 0.380864 0.782201 0.427801 0 0 -0.00165939
ITEM: TIMESTEP
2
ITEM: NUMBER OF ATOMS
48
ITEM: BOX BOUNDS xy xz yz pp pp pp
-3.7461689710617065e+00 8.6067802309989929e+00 2.5094206929206848e+00
-9.4973444938659668e-03 9.3236122131347656e+00 -3.7341318726539612e+00
-2.8691649436950684e-02 1.9545819282531738e+01 7.1304261684417725e-02
ITEM: ATOMS id type xs ys zs fx fy fz
5 1 0.270566 0.157167 0.801438 0 0 -0.100065
6 1 0.0169569 0.0420252 0.904084 0 0 0.054327
13 1 0.238713 0.292043 0.158392 0 0 0.10006
19 1 0.270566 0.490501 0.801438 0 0 -0.100063
20 1 0.0169571 0.375359 0.904084 0 0 0.0543365
22 1 0.128431 0.333675 0.532053 0 0 -0.00169754
26 1 0.0840179 0.323895 0.302833 0 0 0.0320435
29 1 0.238713 0.625376 0.158392 0 0 0.100063
35 1 0.270566 0.823834 0.801438 0 0 -0.100067
36 1 0.016957 0.708692 0.904084 0 0 0.054327
38 1 0.12843 0.667009 0.532053 0 0 -0.00170326
42 1 0.0840178 0.657228 0.302833 0 0 0.0320339
45 1 0.238713 0.958709 0.158392 0 0 0.100061
47 1 0.12843 0.000342185 0.532053 0 0 -0.00170517
48 1 0.084018 0.990562 0.302833 0 0 0.0320396
1 1 0.946607 0.166961 0.0408681 0 0 -0.0650215
2 1 0.492322 0.0738513 0.0557458 0 0 -0.0543194
3 1 0.425261 0.125315 0.656997 0 0 -0.0320377
4 1 0.562672 0.948915 0.918962 0 0 0.0650139
7 1 0.721215 0.250325 0.780653 0 0 -0.084713
8 1 0.831506 0.208712 0.40702 0 0 0.00108147
9 1 0.974586 0.032147 0.67773 0 0 -0.0338116
10 1 0.677773 0.240497 0.55281 0 0 -0.00107956
11 1 0.788064 0.198884 0.179177 0 0 0.0847111
12 1 0.534694 0.0837291 0.2821 0 0 0.0338116
14 1 0.380849 0.115534 0.427777 0 0 0.00170517
15 1 0.946607 0.500295 0.0408681 0 0 -0.0650311
16 1 0.492322 0.407185 0.0557459 0 0 -0.054327
17 1 0.425261 0.458648 0.656997 0 0 -0.0320358
18 1 0.562672 0.282248 0.918962 0 0 0.0650234
21 1 0.721215 0.583659 0.780653 0 0 -0.0847206
23 1 0.831506 0.542046 0.40702 0 0 0.00107574
24 1 0.974586 0.36548 0.67773 0 0 -0.0338135
25 1 0.677773 0.57383 0.55281 0 0 -0.00107956
27 1 0.788064 0.532218 0.179177 0 0 0.0847149
28 1 0.534694 0.417063 0.2821 0 0 0.0338135
30 1 0.380849 0.448868 0.427777 0 0 0.00169754
31 1 0.946607 0.833628 0.0408681 0 0 -0.0650272
32 1 0.492322 0.740518 0.0557458 0 0 -0.0543194
33 1 0.425261 0.791981 0.656997 0 0 -0.0320358
34 1 0.562672 0.615582 0.918962 0 0 0.0650253
37 1 0.721215 0.916992 0.780653 0 0 -0.0847092
39 1 0.831506 0.875379 0.40702 0 0 0.00107956
40 1 0.974585 0.698814 0.67773 0 0 -0.0338039
41 1 0.677773 0.907164 0.55281 0 0 -0.00107956
43 1 0.788064 0.865551 0.179177 0 0 0.0847111
44 1 0.534694 0.750396 0.2821 0 0 0.0338097
46 1 0.380849 0.782201 0.427777 0 0 0.00170135
ITEM: TIMESTEP
3
ITEM: NUMBER OF ATOMS
48
ITEM: BOX BOUNDS xy xz yz pp pp pp
-3.7461689710617065e+00 8.6067802309989929e+00 2.5094206929206848e+00
-9.4973444938659668e-03 9.3236122131347656e+00 -3.7341318726539612e+00
-2.8691649436950684e-02 1.9545819282531738e+01 7.1304261684417725e-02
ITEM: ATOMS id type xs ys zs fx fy fz
5 1 0.269088 0.157185 0.799032 0 0 0.0157356
6 1 0.0173561 0.0420202 0.904734 0 0 -0.0172367
13 1 0.240191 0.292024 0.160798 0 0 -0.0157299
19 1 0.269088 0.490519 0.799033 0 0 0.0157299
20 1 0.0173564 0.375354 0.904734 0 0 -0.0172482
22 1 0.128418 0.333676 0.532032 0 0 -0.0153332
26 1 0.0843859 0.32389 0.303432 0 0 0.057375
29 1 0.240191 0.625358 0.160798 0 0 -0.0157375
35 1 0.269088 0.823852 0.799033 0 0 0.0157356
36 1 0.0173562 0.708687 0.904734 0 0 -0.0172424
38 1 0.128417 0.667009 0.532032 0 0 -0.015337
42 1 0.0843857 0.657224 0.303432 0 0 0.0573902
45 1 0.240192 0.958691 0.160798 0 0 -0.0157337
47 1 0.128417 0.000342347 0.532032 0 0 -0.0153332
48 1 0.0843859 0.990557 0.303432 0 0 0.0573807
1 1 0.946835 0.166959 0.0412402 0 0 -0.00689316
2 1 0.491923 0.0738563 0.0550962 0 0 0.017231
3 1 0.424893 0.125319 0.656398 0 0 -0.0573826
4 1 0.562444 0.948918 0.91859 0 0 0.00688744
7 1 0.719928 0.250342 0.778558 0 0 0.0149288
8 1 0.831514 0.208712 0.407034 0 0 0.0137405
9 1 0.974189 0.032152 0.677084 0 0 -0.0573502
10 1 0.677765 0.240498 0.552797 0 0 -0.0137386
11 1 0.789351 0.198868 0.181273 0 0 -0.014925
12 1 0.53509 0.0837241 0.282746 0 0 0.0573635
14 1 0.380862 0.115534 0.427798 0 0 0.0153294
15 1 0.946835 0.500292 0.0412401 0 0 -0.0068779
16 1 0.491923 0.40719 0.0550961 0 0 0.0172367
17 1 0.424893 0.458653 0.656398 0 0 -0.0573769
18 1 0.562443 0.282251 0.91859 0 0 0.00688744
21 1 0.719928 0.583675 0.778557 0 0 0.0149384
23 1 0.831514 0.542045 0.407033 0 0 0.0137405
24 1 0.974189 0.365485 0.677084 0 0 -0.0573502
25 1 0.677765 0.573831 0.552797 0 0 -0.0137367
27 1 0.789351 0.532201 0.181273 0 0 -0.0149307
28 1 0.535091 0.417058 0.282746 0 0 0.0573502
30 1 0.380862 0.448867 0.427798 0 0 0.0153332
31 1 0.946835 0.833625 0.0412401 0 0 -0.00687599
32 1 0.491923 0.740523 0.0550962 0 0 0.0172386
33 1 0.424893 0.791986 0.656398 0 0 -0.0573883
34 1 0.562443 0.615585 0.91859 0 0 0.0068779
37 1 0.719928 0.917008 0.778558 0 0 0.0149307
39 1 0.831514 0.875379 0.407034 0 0 0.0137386
40 1 0.974189 0.698819 0.677084 0 0 -0.0573597
41 1 0.677765 0.907164 0.552797 0 0 -0.0137405
43 1 0.789351 0.865535 0.181273 0 0 -0.0149326
44 1 0.53509 0.750391 0.282746 0 0 0.0573559
46 1 0.380862 0.782201 0.427798 0 0 0.0153351
ITEM: TIMESTEP
4
ITEM: NUMBER OF ATOMS
48
ITEM: BOX BOUNDS xy xz yz pp pp pp
-3.7461689710617065e+00 8.6067802309989929e+00 2.5094206929206848e+00
-9.4973444938659668e-03 9.3236122131347656e+00 -3.7341318726539612e+00
-2.8691649436950684e-02 1.9545819282531738e+01 7.1304261684417725e-02
ITEM: ATOMS id type xs ys zs fx fy fz
5 1 0.26874 0.15719 0.798466 0 0 -0.000226974
6 1 0.0172315 0.0420217 0.904531 0 0 -0.0206623
13 1 0.24054 0.29202 0.161365 0 0 0.000225067
19 1 0.268739 0.490523 0.798466 0 0 -0.000217438
20 1 0.0172316 0.375355 0.904531 0 0 -0.0206528
22 1 0.128154 0.333679 0.531603 0 0 -0.0292263
26 1 0.0855044 0.323876 0.305253 0 0 -0.00754166
29 1 0.24054 0.625353 0.161364 0 0 0.000232697
35 1 0.26874 0.823857 0.798466 0 0 -0.000236511
36 1 0.0172315 0.708688 0.904531 0 0 -0.0206604
38 1 0.128154 0.667012 0.531603 0 0 -0.0292225
42 1 0.0855044 0.65721 0.305253 0 0 -0.00755882
45 1 0.24054 0.958686 0.161364 0 0 0.000225067
47 1 0.128154 0.000345649 0.531603 0 0 -0.0292225
48 1 0.0855045 0.990543 0.305253 0 0 -0.00753784
1 1 0.946814 0.166959 0.0412056 0 0 0.00905418
2 1 0.492047 0.0738548 0.0552989 0 0 0.0206623
3 1 0.423775 0.125333 0.654577 0 0 0.00754738
4 1 0.562465 0.948918 0.918624 0 0 -0.00903893
7 1 0.719645 0.250345 0.778098 0 0 -0.00581169
8 1 0.831749 0.208709 0.407416 0 0 0.0271683
9 1 0.973059 0.0321662 0.675245 0 0 0.00895119
10 1 0.67753 0.240501 0.552415 0 0 -0.027174
11 1 0.789634 0.198865 0.181733 0 0 0.00580406
12 1 0.536221 0.08371 0.284586 0 0 -0.00896263
14 1 0.381125 0.115531 0.428227 0 0 0.0292301
15 1 0.946814 0.500292 0.0412059 0 0 0.0090332
16 1 0.492047 0.407188 0.0552989 0 0 0.0206642
17 1 0.423775 0.458667 0.654577 0 0 0.00754547
18 1 0.562465 0.282251 0.918624 0 0 -0.00904655
21 1 0.719645 0.583678 0.778098 0 0 -0.00581932
23 1 0.831749 0.542043 0.407415 0 0 0.027174
24 1 0.973059 0.365499 0.675245 0 0 0.008955
25 1 0.67753 0.573834 0.552415 0 0 -0.0271702
27 1 0.789634 0.532198 0.181733 0 0 0.00581741
28 1 0.536221 0.417043 0.284585 0 0 -0.00895691
30 1 0.381125 0.448864 0.428227 0 0 0.0292225
31 1 0.946814 0.833626 0.0412059 0 0 0.0090313
32 1 0.492047 0.740521 0.0552991 0 0 0.020647
33 1 0.423775 0.792 0.654577 0 0 0.00755119
34 1 0.562464 0.615584 0.918624 0 0 -0.00902557
37 1 0.719645 0.917012 0.778098 0 0 -0.0058136
39 1 0.831749 0.875376 0.407415 0 0 0.0271683
40 1 0.973058 0.698833 0.675245 0 0 0.00895309
41 1 0.67753 0.907167 0.552415 0 0 -0.0271702
43 1 0.789634 0.865531 0.181733 0 0 0.00582504
44 1 0.536221 0.750377 0.284585 0 0 -0.00895882
46 1 0.381125 0.782198 0.428227 0 0 0.0292263
ITEM: TIMESTEP
5
ITEM: NUMBER OF ATOMS
48
ITEM: BOX BOUNDS xy xz yz pp pp pp
-3.7461689710617065e+00 8.6067802309989929e+00 2.5094206929206848e+00
-9.4973444938659668e-03 9.3236122131347656e+00 -3.7341318726539612e+00
-2.8691649436950684e-02 1.9545819282531738e+01 7.1304261684417725e-02
ITEM: ATOMS id type xs ys zs fx fy fz
5 1 0.268685 0.157191 0.798377 0 0 -0.00437737
6 1 0.0170253 0.0420243 0.904196 0 0 -0.0050869
13 1 0.240594 0.292019 0.161453 0 0 0.00437164
19 1 0.268685 0.490524 0.798377 0 0 -0.00438118
20 1 0.0170255 0.375358 0.904196 0 0 -0.00508881
22 1 0.127849 0.333683 0.531107 0 0 0.000331879
26 1 0.085605 0.323875 0.305417 0 0 -0.000991821
29 1 0.240594 0.625352 0.161453 0 0 0.00437546
35 1 0.268685 0.823857 0.798377 0 0 -0.00437355
36 1 0.0170253 0.708691 0.904196 0 0 -0.00508118
38 1 0.127849 0.667016 0.531107 0 0 0.000339508
42 1 0.0856049 0.657208 0.305417 0 0 -0.000997543
45 1 0.240594 0.958686 0.161453 0 0 0.00437927
47 1 0.127849 0.000349469 0.531107 0 0 0.000333786
48 1 0.0856051 0.990542 0.305417 0 0 -0.00100136
1 1 0.946893 0.166958 0.0413341 0 0 -0.0062542
2 1 0.492253 0.0738522 0.0556344 0 0 0.00509262
3 1 0.423674 0.125335 0.654414 0 0 0.00100327
4 1 0.562386 0.948919 0.918496 0 0 0.00625801
7 1 0.71955 0.250346 0.777942 0 0 -0.0078373
8 1 0.832031 0.208706 0.407874 0 0 -0.00152016
9 1 0.972969 0.0321673 0.675099 0 0 0.00212479
10 1 0.677249 0.240504 0.551956 0 0 0.00152016
11 1 0.789729 0.198863 0.181888 0 0 0.0078392
12 1 0.53631 0.0837089 0.284731 0 0 -0.00213432
14 1 0.38143 0.115527 0.428723 0 0 -0.000331879
15 1 0.946893 0.500291 0.041334 0 0 -0.00625801
16 1 0.492254 0.407185 0.0556346 0 0 0.00509262
17 1 0.423674 0.458668 0.654414 0 0 0.000988007
18 1 0.562386 0.282252 0.918496 0 0 0.00625801
21 1 0.71955 0.58368 0.777942 0 0 -0.00783157
23 1 0.832031 0.542039 0.407874 0 0 -0.00151825
24 1 0.972969 0.365501 0.675099 0 0 0.00212669
25 1 0.677248 0.573837 0.551956 0 0 0.00151443
27 1 0.789729 0.532197 0.181888 0 0 0.00783157
28 1 0.53631 0.417042 0.284731 0 0 -0.00212479
30 1 0.38143 0.44886 0.428723 0 0 -0.000335693
31 1 0.946893 0.833625 0.0413341 0 0 -0.00626373
32 1 0.492253 0.740519 0.0556345 0 0 0.0050869
33 1 0.423674 0.792001 0.654413 0 0 0.000995636
34 1 0.562386 0.615585 0.918496 0 0 0.00626183
37 1 0.71955 0.917013 0.777942 0 0 -0.0078373
39 1 0.832031 0.875372 0.407874 0 0 -0.00151443
40 1 0.972969 0.698834 0.675099 0 0 0.00213051
41 1 0.677248 0.907171 0.551956 0 0 0.00151634
43 1 0.789729 0.86553 0.181888 0 0 0.00783348
44 1 0.53631 0.750376 0.284731 0 0 -0.0021286
46 1 0.38143 0.782194 0.428723 0 0 -0.000335693
ITEM: TIMESTEP
6
ITEM: NUMBER OF ATOMS
48
ITEM: BOX BOUNDS xy xz yz pp pp pp
-3.7461689710617065e+00 8.6067802309989929e+00 2.5094206929206848e+00
-9.4973444938659668e-03 9.3236122131347656e+00 -3.7341318726539612e+00
-2.8691649436950684e-02 1.9545819282531738e+01 7.1304261684417725e-02
ITEM: ATOMS id type xs ys zs fx fy fz
5 1 0.268632 0.157191 0.798291 0 0 0.00162125
6 1 0.0169572 0.0420252 0.904085 0 0 -0.00553322
13 1 0.240647 0.292018 0.16154 0 0 -0.00161552
19 1 0.268632 0.490525 0.798291 0 0 0.00162125
20 1 0.0169573 0.375359 0.904085 0 0 -0.00553513
22 1 0.127839 0.333683 0.53109 0 0 0.0015049
26 1 0.0855982 0.323875 0.305406 0 0 0.00263596
29 1 0.240647 0.625352 0.16154 0 0 -0.00162315
35 1 0.268632 0.823858 0.798291 0 0 0.00161743
36 1 0.0169572 0.708692 0.904085 0 0 -0.00553513
38 1 0.127839 0.667016 0.53109 0 0 0.00149918
42 1 0.0855981 0.657208 0.305406 0 0 0.00263596
45 1 0.240647 0.958685 0.16154 0 0 -0.00162506
47 1 0.127839 0.000349598 0.53109 0 0 0.00150108
48 1 0.0855983 0.990542 0.305405 0 0 0.00263596
1 1 0.946825 0.166959 0.0412227 0 0 0.00333595
2 1 0.492322 0.0738513 0.0557455 0 0 0.00553703
3 1 0.423681 0.125334 0.654425 0 0 -0.00263596
4 1 0.562454 0.948918 0.918608 0 0 -0.00334167
7 1 0.719455 0.250347 0.777788 0 0 4.76837e-05
8 1 0.832026 0.208706 0.407867 0 0 -0.00187302
9 1 0.97299 0.032167 0.675132 0 0 -0.00190544
10 1 0.677253 0.240504 0.551963 0 0 0.00186539
11 1 0.789824 0.198862 0.182042 0 0 -5.34058e-05
12 1 0.53629 0.0837091 0.284698 0 0 0.00190353
14 1 0.381441 0.115527 0.42874 0 0 -0.00150299
15 1 0.946825 0.500292 0.0412226 0 0 0.00333786
16 1 0.492322 0.407185 0.0557456 0 0 0.00553513
17 1 0.423681 0.458668 0.654425 0 0 -0.00262833
18 1 0.562454 0.282251 0.918608 0 0 -0.00333595
21 1 0.719455 0.583681 0.777788 0 0 4.76837e-05
23 1 0.832026 0.542039 0.407867 0 0 -0.0018692
24 1 0.97299 0.3655 0.675132 0 0 -0.00190735
25 1 0.677253 0.573837 0.551963 0 0 0.0018692
27 1 0.789824 0.532196 0.182042 0 0 -4.95911e-05
28 1 0.53629 0.417043 0.284698 0 0 0.00189781
30 1 0.38144 0.44886 0.42874 0 0 -0.00149727
31 1 0.946825 0.833625 0.0412226 0 0 0.00334549
32 1 0.492322 0.740518 0.0557454 0 0 0.00554085
33 1 0.423681 0.792001 0.654425 0 0 -0.00262451
34 1 0.562454 0.615585 0.918608 0 0 -0.00334358
37 1 0.719455 0.917014 0.777788 0 0 5.14984e-05
39 1 0.832026 0.875372 0.407867 0 0 -0.00187111
40 1 0.972989 0.698834 0.675132 0 0 -0.00190353
41 1 0.677253 0.907171 0.551963 0 0 0.00187302
43 1 0.789824 0.865529 0.182042 0 0 -5.91278e-05
44 1 0.53629 0.750376 0.284698 0 0 0.00191116
46 1 0.38144 0.782194 0.42874 0 0 -0.00150299
ITEM: TIMESTEP
7
ITEM: NUMBER OF ATOMS
48
ITEM: BOX BOUNDS xy xz yz pp pp pp
-3.7461689710617065e+00 8.6067802309989929e+00 2.5094206929206848e+00
-9.4973444938659668e-03 9.3236122131347656e+00 -3.7341318726539612e+00
-2.8691649436950684e-02 1.9545819282531738e+01 7.1304261684417725e-02
ITEM: ATOMS id type xs ys zs fx fy fz
5 1 0.268629 0.157191 0.798285 0 0 -0.000116348
6 1 0.0168736 0.0420262 0.903949 0 0 4.00543e-05
13 1 0.24065 0.292018 0.161545 0 0 0.00012207
19 1 0.268629 0.490525 0.798285 0 0 -0.000114441
20 1 0.0168737 0.37536 0.903949 0 0 3.62396e-05
22 1 0.127851 0.333683 0.531109 0 0 -0.000778198
26 1 0.0856232 0.323875 0.305446 0 0 0.00110626
29 1 0.24065 0.625352 0.161545 0 0 0.000118256
35 1 0.268629 0.823858 0.798285 0 0 -0.000116348
36 1 0.0168737 0.708693 0.903949 0 0 4.00543e-05
38 1 0.127851 0.667016 0.531109 0 0 -0.000772476
42 1 0.085623 0.657208 0.305446 0 0 0.00110626
45 1 0.24065 0.958685 0.161545 0 0 0.000123978
47 1 0.12785 0.00034945 0.531109 0 0 -0.000774384
48 1 0.0856232 0.990541 0.305446 0 0 0.00111008
1 1 0.946833 0.166959 0.0412371 0 0 -0.000278473
2 1 0.492405 0.0738503 0.0558816 0 0 -4.3869e-05
3 1 0.423656 0.125335 0.654384 0 0 -0.00111771
4 1 0.562446 0.948918 0.918593 0 0 0.000278473
7 1 0.71942 0.250348 0.77773 0 0 0.000240326
8 1 0.832005 0.208706 0.407832 0 0 0.00087738
9 1 0.972977 0.0321672 0.675112 0 0 -0.00094223
10 1 0.677274 0.240504 0.551998 0 0 -0.000871658
11 1 0.789859 0.198862 0.1821 0 0 -0.000238419
12 1 0.536302 0.083709 0.284718 0 0 0.000944138
14 1 0.381429 0.115527 0.428721 0 0 0.000770569
15 1 0.946834 0.500292 0.0412371 0 0 -0.000270844
16 1 0.492405 0.407184 0.0558817 0 0 -3.62396e-05
17 1 0.423656 0.458668 0.654384 0 0 -0.00111389
18 1 0.562445 0.282251 0.918593 0 0 0.000268936
21 1 0.71942 0.583681 0.777731 0 0 0.000234604
23 1 0.832005 0.542039 0.407832 0 0 0.000875473
24 1 0.972978 0.365501 0.675112 0 0 -0.000938416
25 1 0.677274 0.573837 0.551998 0 0 -0.000871658
27 1 0.789859 0.532195 0.1821 0 0 -0.000242233
28 1 0.536302 0.417042 0.284718 0 0 0.000944138
30 1 0.381428 0.44886 0.428721 0 0 0.000778198
31 1 0.946834 0.833625 0.0412371 0 0 -0.000272751
32 1 0.492405 0.740517 0.0558815 0 0 -4.00543e-05
33 1 0.423656 0.792001 0.654384 0 0 -0.00111198
34 1 0.562445 0.615585 0.918593 0 0 0.000272751
37 1 0.71942 0.917014 0.777731 0 0 0.000236511
39 1 0.832005 0.875373 0.407832 0 0 0.000875473
40 1 0.972977 0.698834 0.675112 0 0 -0.00094223
41 1 0.677274 0.90717 0.551998 0 0 -0.00087738
43 1 0.789859 0.865528 0.182099 0 0 -0.000236511
44 1 0.536302 0.750376 0.284718 0 0 0.000944138
46 1 0.381429 0.782194 0.428721 0 0 0.000774384
ITEM: TIMESTEP
8
ITEM: NUMBER OF ATOMS
48
ITEM: BOX BOUNDS xy xz yz pp pp pp
-3.7461689710617065e+00 8.6067802309989929e+00 2.5094206929206848e+00
-9.4973444938659668e-03 9.3236122131347656e+00 -3.7341318726539612e+00
-2.8691649436950684e-02 1.9545819282531738e+01 7.1304261684417725e-02
ITEM: ATOMS id type xs ys zs fx fy fz
5 1 0.268626 0.157191 0.798281 0 0 -0.00066185
6 1 0.0168671 0.0420263 0.903938 0 0 0.000331879
13 1 0.240653 0.292018 0.161549 0 0 0.000650406
19 1 0.268626 0.490525 0.798282 0 0 -0.000663757
20 1 0.0168671 0.37536 0.903938 0 0 0.000343323
22 1 0.127838 0.333683 0.531088 0 0 -9.34601e-05
26 1 0.0856453 0.323875 0.305482 0 0 -5.72205e-05
29 1 0.240653 0.625352 0.161549 0 0 0.000663757
35 1 0.268626 0.823858 0.798281 0 0 -0.000656128
36 1 0.0168672 0.708693 0.903938 0 0 0.000329971
38 1 0.127838 0.667016 0.531088 0 0 -9.34601e-05
42 1 0.0856451 0.657208 0.305482 0 0 -6.10352e-05
45 1 0.240653 0.958685 0.161549 0 0 0.000646591
47 1 0.127837 0.000349613 0.531088 0 0 -0.000101089
48 1 0.0856454 0.990541 0.305482 0 0 -5.72205e-05
1 1 0.946829 0.166959 0.0412302 0 0 0.000102997
2 1 0.492412 0.0738502 0.0558921 0 0 -0.000329971
3 1 0.423634 0.125335 0.654348 0 0 6.48499e-05
4 1 0.56245 0.948918 0.9186 0 0 -0.000104904
7 1 0.719421 0.250348 0.777733 0 0 -0.000684738
8 1 0.832019 0.208706 0.407855 0 0 2.86102e-05
9 1 0.972959 0.0321674 0.675083 0 0 -9.91821e-05
10 1 0.67726 0.240504 0.551975 0 0 -3.62396e-05
11 1 0.789858 0.198862 0.182098 0 0 0.000679016
12 1 0.53632 0.0837087 0.284747 0 0 0.000104904
14 1 0.381442 0.115527 0.428742 0 0 9.91821e-05
15 1 0.946829 0.500292 0.0412303 0 0 8.39233e-05
16 1 0.492412 0.407183 0.0558924 0 0 -0.00034523
17 1 0.423634 0.458668 0.654348 0 0 6.48499e-05
18 1 0.562449 0.282251 0.9186 0 0 -8.39233e-05
21 1 0.719421 0.583681 0.777732 0 0 -0.000673294
23 1 0.832019 0.542039 0.407855 0 0 3.24249e-05
24 1 0.97296 0.365501 0.675083 0 0 -0.000108719
25 1 0.67726 0.573837 0.551975 0 0 -2.86102e-05
27 1 0.789858 0.532195 0.182097 0 0 0.000688553
28 1 0.53632 0.417042 0.284747 0 0 0.000106812
30 1 0.381441 0.44886 0.428742 0 0 9.15527e-05
31 1 0.946829 0.833625 0.0412303 0 0 0.000101089
32 1 0.492412 0.740517 0.0558921 0 0 -0.000329971
33 1 0.423634 0.792002 0.654348 0 0 5.72205e-05
34 1 0.562449 0.615585 0.9186 0 0 -9.72748e-05
37 1 0.719421 0.917014 0.777733 0 0 -0.000671387
39 1 0.832019 0.875372 0.407855 0 0 3.05176e-05
40 1 0.972959 0.698834 0.675083 0 0 -9.91821e-05
41 1 0.67726 0.90717 0.551975 0 0 -3.24249e-05
43 1 0.789858 0.865528 0.182097 0 0 0.000680923
44 1 0.53632 0.750375 0.284747 0 0 9.15527e-05
46 1 0.381442 0.782194 0.428742 0 0 9.53674e-05
ITEM: TIMESTEP
9
ITEM: NUMBER OF ATOMS
48
ITEM: BOX BOUNDS xy xz yz pp pp pp
-3.7461689710617065e+00 8.6067802309989929e+00 2.5094206929206848e+00
-9.4973444938659668e-03 9.3236122131347656e+00 -3.7341318726539612e+00
-2.8691649436950684e-02 1.9545819282531738e+01 7.1304261684417725e-02
ITEM: ATOMS id type xs ys zs fx fy fz
5 1 0.268626 0.157191 0.798281 0 0 -0.00066185
6 1 0.0168671 0.0420263 0.903938 0 0 0.000331879
13 1 0.240653 0.292018 0.161549 0 0 0.000650406
19 1 0.268626 0.490525 0.798282 0 0 -0.000663757
20 1 0.0168671 0.37536 0.903938 0 0 0.000343323
22 1 0.127838 0.333683 0.531088 0 0 -9.34601e-05
26 1 0.0856453 0.323875 0.305482 0 0 -5.72205e-05
29 1 0.240653 0.625352 0.161549 0 0 0.000663757
35 1 0.268626 0.823858 0.798281 0 0 -0.000656128
36 1 0.0168672 0.708693 0.903938 0 0 0.000329971
38 1 0.127838 0.667016 0.531088 0 0 -9.34601e-05
42 1 0.0856451 0.657208 0.305482 0 0 -6.10352e-05
45 1 0.240653 0.958685 0.161549 0 0 0.000646591
47 1 0.127837 0.000349613 0.531088 0 0 -0.000101089
48 1 0.0856454 0.990541 0.305482 0 0 -5.72205e-05
1 1 0.946829 0.166959 0.0412302 0 0 0.000102997
2 1 0.492412 0.0738502 0.0558921 0 0 -0.000329971
3 1 0.423634 0.125335 0.654348 0 0 6.48499e-05
4 1 0.56245 0.948918 0.9186 0 0 -0.000104904
7 1 0.719421 0.250348 0.777733 0 0 -0.000684738
8 1 0.832019 0.208706 0.407855 0 0 2.86102e-05
9 1 0.972959 0.0321674 0.675083 0 0 -9.91821e-05
10 1 0.67726 0.240504 0.551975 0 0 -3.62396e-05
11 1 0.789858 0.198862 0.182098 0 0 0.000679016
12 1 0.53632 0.0837087 0.284747 0 0 0.000104904
14 1 0.381442 0.115527 0.428742 0 0 9.91821e-05
15 1 0.946829 0.500292 0.0412303 0 0 8.39233e-05
16 1 0.492412 0.407183 0.0558924 0 0 -0.00034523
17 1 0.423634 0.458668 0.654348 0 0 6.48499e-05
18 1 0.562449 0.282251 0.9186 0 0 -8.39233e-05
21 1 0.719421 0.583681 0.777732 0 0 -0.000673294
23 1 0.832019 0.542039 0.407855 0 0 3.24249e-05
24 1 0.97296 0.365501 0.675083 0 0 -0.000108719
25 1 0.67726 0.573837 0.551975 0 0 -2.86102e-05
27 1 0.789858 0.532195 0.182097 0 0 0.000688553
28 1 0.53632 0.417042 0.284747 0 0 0.000106812
30 1 0.381441 0.44886 0.428742 0 0 9.15527e-05
31 1 0.946829 0.833625 0.0412303 0 0 0.000101089
32 1 0.492412 0.740517 0.0558921 0 0 -0.000329971
33 1 0.423634 0.792002 0.654348 0 0 5.72205e-05
34 1 0.562449 0.615585 0.9186 0 0 -9.72748e-05
37 1 0.719421 0.917014 0.777733 0 0 -0.000671387
39 1 0.832019 0.875372 0.407855 0 0 3.05176e-05
40 1 0.972959 0.698834 0.675083 0 0 -9.91821e-05
41 1 0.67726 0.90717 0.551975 0 0 -3.24249e-05
43 1 0.789858 0.865528 0.182097 0 0 0.000680923
44 1 0.53632 0.750375 0.284747 0 0 9.15527e-05
46 1 0.381442 0.782194 0.428742 0 0 9.53674e-05
