LAMMPS (23 Jun 2022 - Update 1)
OMP_NUM_THREADS environment is not set. Defaulting to 1 thread. (src/comm.cpp:98)
  using 1 OpenMP thread(s) per MPI task
Loaded 1 plugins from /software/deepmd-kit/2.1.5/gpu/lib/deepmd_lmp
Loaded 0 plugins from 
## variable
variable        temp            equal 400
variable        eql_step        equal 500000
variable        rd_seed         equal 3

variable        temp_damp       equal 0.2 # tau_NVT = timestep * 100
variable        t_step          equal 0.002
variable        rlx_step        equal 2000

variable        thermo_freq     equal 100
variable        dump_freq       equal 100

## units
dimension       3
boundary        p p p
units           metal
atom_style      atomic
neighbor        1.0 bin
neigh_modify    every 10 delay 0 check no

## data.lmp, potential
read_data       data.lmp
Reading data file ...
  orthogonal box = (0 0 0) to (26.16621 26.16621 25.2548)
  1 by 1 by 1 MPI processor grid
  reading atoms ...
  900 atoms
  read_data CPU = 0.006 seconds
pair_style      deepmd model.pb
Summary of lammps deepmd module ...
  >>> Info of deepmd-kit:
  installed to:       /software/deepmd-kit/2.1.5/gpu
  source:             v2.1.5
  source branch:       HEAD
  source commit:      6e3d4a62
  source commit at:   2022-09-23 16:10:28 +0800
  surpport model ver.:1.1 
  build float prec:   double
  build variant:      cuda
  build with tf inc:  /software/deepmd-kit/2.1.5/gpu/include;/software/deepmd-kit/2.1.5/gpu/include
  build with tf lib:  /software/deepmd-kit/2.1.5/gpu/lib/libtensorflow_cc.so;/software/deepmd-kit/2.1.5/gpu/lib/libtensorflow_framework.so
  set tf intra_op_parallelism_threads: 0
  set tf inter_op_parallelism_threads: 0
  >>> Info of lammps module:
  use deepmd-kit at:  /software/deepmd-kit/2.1.5/gpupair_coeff      * *

## velocity, timestep
velocity        all create ${temp} ${rd_seed} loop geom
velocity        all create 400 ${rd_seed} loop geom
velocity        all create 400 3 loop geom
timestep        ${t_step}
timestep        0.002

## nvt-relax
fix             equil all nvt temp ${temp} ${temp} ${temp_damp}
fix             equil all nvt temp 400 ${temp} ${temp_damp}
fix             equil all nvt temp 400 400 ${temp_damp}
fix             equil all nvt temp 400 400 0.2
run             ${rlx_step}
run             2000

CITE-CITE-CITE-CITE-CITE-CITE-CITE-CITE-CITE-CITE-CITE-CITE-CITE

Your simulation uses code contributions which should be cited:

- USER-DEEPMD package:

@article{Wang_ComputPhysCommun_2018_v228_p178,
  author = {Wang, Han and Zhang, Linfeng and Han, Jiequn and E, Weinan},
  doi = {10.1016/j.cpc.2018.03.016},
  url = {https://doi.org/10.1016/j.cpc.2018.03.016},
  year = 2018,
  month = {jul},
  publisher = {Elsevier {BV}},
  volume = 228,
  journal = {Comput. Phys. Commun.},
  title = {{DeePMD-kit: A deep learning package for many-body potential energy representation and molecular dynamics}},
  pages = {178--184}
}

CITE-CITE-CITE-CITE-CITE-CITE-CITE-CITE-CITE-CITE-CITE-CITE-CITE

Generated 0 of 6 mixed pair_coeff terms from geometric mixing rule
Neighbor list info ...
  update every 10 steps, delay 0 steps, check no
  max neighbors/atom: 2000, page size: 100000
  master list distance cutoff = 7
  ghost atom cutoff = 7
  binsize = 3.5, bins = 8 8 8
  1 neighbor lists, perpetual/occasional/extra = 1 0 0
  (1) pair deepmd, perpetual
      attributes: full, newton on
      pair build: full/bin/atomonly
      stencil: full/bin/3d
      bin: standard
Per MPI rank memory allocation (min/avg/max) = 2.658 | 2.658 | 2.658 Mbytes
   Step          Temp          E_pair         E_mol          TotEng         Press     
         0   400           -3888.4767      0             -3841.9947      14656.634    
      2000   421.79419     -3849.5993      0             -3800.5848      14542.545    
Loop time of 111.202 on 1 procs for 2000 steps with 900 atoms

Performance: 3.108 ns/day, 7.722 hours/ns, 17.985 timesteps/s
57.3% CPU use with 1 MPI tasks x 1 OpenMP threads

MPI task timing breakdown:
Section |  min time  |  avg time  |  max time  |%varavg| %total
---------------------------------------------------------------
Pair    | 110.19     | 110.19     | 110.19     |   0.0 | 99.09
Neigh   | 0.90766    | 0.90766    | 0.90766    |   0.0 |  0.82
Comm    | 0.040252   | 0.040252   | 0.040252   |   0.0 |  0.04
Output  | 0.00032931 | 0.00032931 | 0.00032931 |   0.0 |  0.00
Modify  | 0.045117   | 0.045117   | 0.045117   |   0.0 |  0.04
Other   |            | 0.01483    |            |       |  0.01

Nlocal:            900 ave         900 max         900 min
Histogram: 1 0 0 0 0 0 0 0 0 0
Nghost:           2488 ave        2488 max        2488 min
Histogram: 1 0 0 0 0 0 0 0 0 0
Neighs:              0 ave           0 max           0 min
Histogram: 1 0 0 0 0 0 0 0 0 0
FullNghs:        66362 ave       66362 max       66362 min
Histogram: 1 0 0 0 0 0 0 0 0 0

Total # of neighbors = 66362
Ave neighs/atom = 73.735556
Neighbor list builds = 200
Dangerous builds not checked
unfix           equil

## nvt-equal
reset_timestep  0
fix             equil all nvt temp ${temp} ${temp} ${temp_damp}
fix             equil all nvt temp 400 ${temp} ${temp_damp}
fix             equil all nvt temp 400 400 ${temp_damp}
fix             equil all nvt temp 400 400 0.2
fix             com all recenter INIT INIT INIT

## thermo_style
thermo_style    custom step time temp ke etotal press
thermo          ${thermo_freq}
thermo          100
thermo_modify   flush yes
dump            1 all custom ${dump_freq} dump.lammpstraj id type x y z
dump            1 all custom 100 dump.lammpstraj id type x y z
run             500000
Generated 0 of 6 mixed pair_coeff terms from geometric mixing rule
Per MPI rank memory allocation (min/avg/max) = 3.942 | 3.942 | 3.942 Mbytes
   Step          Time           Temp          KinEng         TotEng         Press     
         0   0              421.79419      49.014539     -3800.5848      14542.545    
       100   0.2            418.96159      48.685378     -3802.2426      16551.827    
       200   0.4            388.46907      45.141998     -3804.6203      13927.772    
       300   0.6            398.23655      46.277027     -3804.3922      15832.979    
       400   0.8            401.6309       46.671467     -3803.612       14844.954    
       500   1              409.0005       47.52785      -3802.883       14968.657    
       600   1.2            404.9145       47.053037     -3801.8777      15199.577    
       700   1.4            410.90687      47.74938      -3800.8853      15324.403    
       800   1.6            399.47268      46.420671     -3802.2603      15193.956    
       900   1.8            393.12888      45.68349      -3805.0025      14207.13     
      1000   2              384.22739      44.649094     -3805.4826      14869.393    
      1100   2.2            399.07857      46.374873     -3804.3421      15035.466    
      1200   2.4            403.01471      46.832272     -3801.7933      16096.508    
      1300   2.6            398.18395      46.270915     -3800.8214      14261.179    
      1400   2.8            403.27362      46.862358     -3803.4816      14937.722    
      1500   3              384.98981      44.737691     -3806.0111      13385.971    
      1600   3.2            392.10936      45.565018     -3805.914       13492.904    
      1700   3.4            388.82269      45.18309      -3803.8436      15750.18     
      1800   3.6            414.13726      48.124766     -3802.0024      12087.829    
      1900   3.8            400.67899      46.560851     -3802.8465      16110.554    
      2000   4              396.06299      46.024449     -3805.1661      15761.963    
      2100   4.2            386.32297      44.892611     -3806.0778      16103.768    
      2200   4.4            386.02403      44.857872     -3805.3534      15356.557    
      2300   4.6            412.92664      47.984087     -3803.9802      14994.536    
      2400   4.8            408.37214      47.454832     -3802.7017      14765.603    
      2500   5              402.59089      46.783022     -3801.4701      16346.448    
      2600   5.2            405.10693      47.075398     -3802.5076      15912.801    
      2700   5.4            411.55433      47.824618     -3805.4893      14873.531    
      2800   5.6            380.71661      44.241124     -3806.2157      15988.444    
      2900   5.8            403.29586      46.864943     -3804.9938      14789.745    
      3000   6              406.50918      47.238346     -3802.0841      15538.165    
      3100   6.2            409.97601      47.641209     -3801.2597      15163.068    
      3200   6.4            419.07525      48.698585     -3802.4939      14016.831    
      3300   6.6            390.75573      45.407719     -3804.0279      15349.395    
      3400   6.8            397.18495      46.154825     -3804.4061      13059.682    
      3500   7              394.69847      45.865885     -3804.0363      13458.63     
      3600   7.2            396.47381      46.072188     -3802.1796      14847.059    
      3700   7.4            418.18371      48.594984     -3800.5959      14995.006    
      3800   7.6            411.17394      47.780414     -3802.1118      15516.593    
      3900   7.8            411.30213      47.795311     -3804.8766      14805.85     
      4000   8              395.87413      46.002502     -3805.2619      14026.806    
      4100   8.2            395.96872      46.013494     -3804.1972      14924.161    
      4200   8.4            402.96451      46.826439     -3802.4604      13307.199    
      4300   8.6            421.53379      48.984279     -3799.2291      15087.915    
      4400   8.8            419.2167       48.715022     -3799.4981      14379.427    
      4500   9              407.14463      47.312189     -3801.4103      13937.802    
      4600   9.2            406.42094      47.228092     -3803.4         13947.987    
      4700   9.4            395.4581       45.954157     -3805.4305      14327.356    
      4800   9.6            401.15025      46.615613     -3806.1356      13777.177    
      4900   9.8            404.44251      46.99819      -3804.9199      14689.205    
      5000   10             411.78666      47.851615     -3801.8738      13391.131    
      5100   10.2           421.21581      48.947329     -3801.5684      14347.099    
      5200   10.4           404.76462      47.03562      -3803.1829      14788.268    
      5300   10.6           392.98585      45.66687      -3804.1255      13200.532    
      5400   10.8           387.91171      45.077229     -3804.5285      15235.998    
      5500   11             399.42581      46.415224     -3804.5523      15120.833    
      5600   11.2           418.81948      48.668864     -3802.5916      13749.52     
      5700   11.4           420.87378      48.907583     -3800.079       16581.063    
      5800   11.6           422.13918      49.054629     -3802.0491      14434.315    
      5900   11.8           390.72949      45.40467      -3804.3929      15282.215    
      6000   12             402.93551      46.823069     -3805.0811      14329.169    
      6100   12.2           385.31995      44.776054     -3804.7298      16363.524    
      6200   12.4           408.96965      47.524266     -3802.2718      13793.828    
      6300   12.6           409.08993      47.538243     -3800.5         15960.319    
      6400   12.8           403.28708      46.863923     -3802.2312      15336.4      
      6500   13             398.20224      46.27304      -3805.3199      13582.439    
      6600   13.2           389.47408      45.258785     -3805.1145      14784.274    
      6700   13.4           404.83076      47.043306     -3804.0034      14820.216    
      6800   13.6           402.78508      46.805588     -3802.788       13187.722    
      6900   13.8           405.79491      47.155345     -3801.956       15806.411    
      7000   14             411.90757      47.865666     -3802.3008      14921.627    
      7100   14.2           414.61709      48.180526     -3805.5262      14069.806    
      7200   14.4           389.28065      45.236308     -3806.4908      14392.037    
      7300   14.6           398.94836      46.359743     -3805.4579      13569.761    
      7400   14.8           401.95802      46.70948      -3803.0039      15187.001    
      7500   15             413.29748      48.02718      -3801.9661      13438.779    
      7600   15.2           413.49735      48.050406     -3802.9492      14973.807    
      7700   15.4           404.65374      47.022736     -3803.8122      16063.562    
      7800   15.6           394.1078       45.797246     -3805.0667      12846.49     
      7900   15.8           389.35003      45.24437      -3805.8997      16515.661    
      8000   16             397.10349      46.145359     -3805.1212      15514.457    
      8100   16.2           404.44662      46.998667     -3802.3875      14212.175    
      8200   16.4           401.60759      46.668758     -3801.6198      16201.722    
      8300   16.6           397.95185      46.243943     -3804.088       15732.859    
      8400   16.8           379.71039      44.124197     -3806.1413      13619.019    
      8500   17             410.36156      47.686011     -3805.5594      13694.689    
      8600   17.2           411.65316      47.836102     -3804.1828      14405.388    
      8700   17.4           425.41399      49.435178     -3802.8113      13618.268    
      8800   17.6           417.32776      48.495518     -3802.8872      15484.011    
      8900   17.8           407.53367      47.357398     -3805.2222      14384.145    
      9000   18             398.92136      46.356604     -3806.9989      15531.018    
      9100   18.2           387.63809      45.045434     -3806.2457      16353.723    
      9200   18.4           402.4518       46.766859     -3803.3586      14264.668    
      9300   18.6           392.56126      45.61753      -3802.8302      15065.022    
      9400   18.8           409.04457      47.532971     -3803.2242      15109.248    
      9500   19             399.28041      46.398328     -3804.5521      13902.392    
      9600   19.2           384.60759      44.693275     -3807.0195      14672.557    
      9700   19.4           367.94573      42.757086     -3809.0005      14611.321    
      9800   19.6           401.98468      46.712577     -3805.877       14504.22     
      9900   19.8           394.54247      45.847756     -3803.8768      13519.936    
     10000   20             407.85325      47.394534     -3802.8029      16137.467    
     10100   20.2           399.77782      46.45613      -3802.5931      14354.052    
     10200   20.4           397.54535      46.196706     -3804.277       14152.26     
     10300   20.6           392.32383      45.589939     -3806.4837      13368.701    
     10400   20.8           386.77782      44.945467     -3806.3415      13712.604    
     10500   21             395.62171      45.973169     -3804.2212      16262.34     
     10600   21.2           402.25988      46.744557     -3802.3789      13503.771    
     10700   21.4           409.25136      47.557002     -3802.6208      16345.613    
     10800   21.6           396.17773      46.037782     -3804.0862      14152.786    
     10900   21.8           401.68796      46.678098     -3805.3332      15232.106    
     11000   22             389.12147      45.21781      -3805.8385      15669.37     
     11100   22.2           400.00786      46.482861     -3805.0436      14875.585    
     11200   22.4           407.02561      47.298358     -3802.4446      15208.828    
     11300   22.6           411.45458      47.813026     -3801.6793      13885.478    
     11400   22.8           391.73806      45.521871     -3803.7034      15075.089    
     11500   23             384.18626      44.644314     -3805.9005      13595.557    
     11600   23.2           408.64592      47.486646     -3805.4296      14334.587    
     11700   23.4           392.00229      45.552576     -3804.5274      13599.442    
     11800   23.6           397.0105       46.134554     -3803.3         13885.796    
     11900   23.8           406.11385      47.192407     -3801.4329      14022.366    
     12000   24             419.36316      48.732042     -3798.9823      16264.444    
     12100   24.2           422.03364      49.042364     -3799.4908      14994.622    
     12200   24.4           417.56418      48.522991     -3803.3011      12957.187    
     12300   24.6           402.28453      46.747421     -3804.8693      16085.242    
     12400   24.8           400.80156      46.575093     -3805.668       13707.726    
     12500   25             389.12473      45.218189     -3805.5975      15224.234    
     12600   25.2           408.7185       47.49508      -3803.3337      15188.322    
     12700   25.4           400.59087      46.55061      -3801.4108      14263.46     
     12800   25.6           421.40749      48.969603     -3802.0567      13996.354    
     12900   25.8           397.83384      46.230229     -3805.5745      15870.024    
     13000   26             394.91419      45.890952     -3805.7795      13455.179    
     13100   26.2           400.91981      46.588835     -3804.9         15313.389    
     13200   26.4           402.1661       46.73366      -3803.1898      14503.146    
     13300   26.6           423.01294      49.156164     -3801.5429      15488.031    
     13400   26.8           411.22843      47.786747     -3802.4312      14030.176    
     13500   27             390.55923      45.384885     -3805.9898      15332.28     
     13600   27.2           384.38448      44.667349     -3806.6142      13711.289    
     13700   27.4           411.3655       47.802675     -3804.6993      15452.327    
     13800   27.6           404.62779      47.01972      -3802.9554      14939.491    
     13900   27.8           411.72651      47.844626     -3802.8446      12372.848    
     14000   28             399.77765      46.45611      -3803.8102      14411.576    
     14100   28.2           405.68518      47.142594     -3804.2706      13693.518    
     14200   28.4           397.47878      46.18897      -3804.6896      13119.504    
     14300   28.6           400.34745      46.522324     -3804.8536      14939.103    
     14400   28.8           402.84776      46.812872     -3804.0837      14170.636    
     14500   29             405.51558      47.122886     -3801.7711      14780.823    
     14600   29.2           404.77524      47.036854     -3801.5277      15791.372    
     14700   29.4           393.48881      45.725316     -3804.4737      14079.142    
     14800   29.6           386.57421      44.921806     -3805.5365      13659.186    
     14900   29.8           389.06623      45.211391     -3804.7853      16218.594    
     15000   30             401.83036      46.694645     -3803.5297      13825.824    
     15100   30.2           400.26485      46.512725     -3802.6824      14578.556    
     15200   30.4           404.63571      47.02064      -3803.2939      14062.783    
     15300   30.6           405.14149      47.079414     -3805.2713      13334.735    
     15400   30.8           390.86414      45.420317     -3806.818       13769.09     
     15500   31             390.39737      45.366076     -3806.2928      15436.969    
     15600   31.2           408.35778      47.453163     -3803.4631      13231.043    
     15700   31.4           402.89761      46.818664     -3802.4731      15757.906    
     15800   31.6           400.38555      46.52675      -3803.2222      14336.506    
     15900   31.8           391.2079       45.460264     -3804.6837      11747.725    
     16000   32             394.24803      45.813541     -3805.0605      15134.208    
     16100   32.2           402.70979      46.796839     -3804.7508      13239.354    
     16200   32.4           389.14565      45.220619     -3804.4438      14886.662    
     16300   32.6           411.92463      47.867648     -3803.6324      14828.776    
     16400   32.8           420.10283      48.817995     -3801.1336      13400.566    
     16500   33             401.72086      46.68192      -3800.9476      15965.26     
     16600   33.2           406.64297      47.253894     -3803.6511      14007.681    
     16700   33.4           398.62245      46.32187      -3805.0576      13100.663    
     16800   33.6           398.59614      46.318813     -3805.1689      16105.68     
     16900   33.8           400.67221      46.560062     -3804.2117      14246.487    
     17000   34             406.92626      47.286814     -3800.855       15651.779    
     17100   34.2           414.85227      48.207854     -3800.6879      15927.836    
     17200   34.4           404.31549      46.983429     -3803.1813      14732.907    
     17300   34.6           404.37054      46.989826     -3803.9983      14538.393    
     17400   34.8           400.57145      46.548354     -3804.4669      15361.065    
     17500   35             397.46158      46.186972     -3804.1484      14060.047    
     17600   35.2           403.92358      46.937888     -3802.2091      16290.762    
     17700   35.4           406.72804      47.26378      -3800.7708      16675.771    
     17800   35.6           407.63215      47.368841     -3802.9158      13150.809    
     17900   35.8           397.73086      46.218264     -3805.6989      14679.221    
     18000   36             396.09644      46.028336     -3806.0326      15237.408    
     18100   36.2           390.02891      45.323259     -3804.874       12843.66     
     18200   36.4           395.57483      45.967722     -3802.2414      16318.864    
     18300   36.6           403.53173      46.892352     -3801.9487      13046.078    
     18400   36.8           397.32225      46.170781     -3803.0449      13347.721    
     18500   37             411.21665      47.785378     -3803.6335      14997.247    
     18600   37.2           390.47373      45.374949     -3804.0577      12569.024    
     18700   37.4           393.60214      45.738486     -3803.901       14141.493    
     18800   37.6           406.32917      47.217428     -3802.8163      13763.091    
     18900   37.8           415.89414      48.328925     -3801.1547      14115.769    
     19000   38             410.71612      47.727214     -3801.1677      15904.891    
     19100   38.2           406.97087      47.291998     -3804.2157      14265.827    
     19200   38.4           390.89778      45.424226     -3805.7303      14755.622    
     19300   38.6           395.87382      46.002466     -3805.2275      15191.717    
     19400   38.8           414.11494      48.122173     -3803.7988      14674.223    
     19500   39             424.35386      49.311985     -3800.892       15209.547    
     19600   39.2           422.73549      49.123923     -3799.8845      14597.201    
     19700   39.4           398.06986      46.257657     -3803.8835      15823.277    
     19800   39.6           401.63131      46.671515     -3805.4683      13722.829    
     19900   39.8           390.41242      45.367824     -3805.9614      14321.819    
     20000   40             393.2405       45.696461     -3805.0001      14143.927    
     20100   40.2           415.99516      48.340663     -3802.7146      14720.384    
     20200   40.4           412.9774       47.989985     -3802.2661      15733.972    
     20300   40.6           399.86424      46.466172     -3804.8575      14402.362    
     20400   40.8           392.76168      45.64082      -3807.0821      14014.81     
     20500   41             386.44084      44.906308     -3806.0814      13959.18     
     20600   41.2           399.62108      46.437916     -3804.0982      13709.476    
     20700   41.4           393.19329      45.690976     -3802.8715      14132.532    
     20800   41.6           414.24379      48.137146     -3803.3619      15052.655    
     20900   41.8           395.73576      45.986423     -3807.346       13597.332    
     21000   42             388.98171      45.20157      -3807.7006      12764.476    
     21100   42.2           394.12413      45.799143     -3805.5619      14335.417    
     21200   42.4           406.2296       47.205858     -3803.9876      14881.396    
     21300   42.6           412.44934      47.928622     -3803.1826      13399.434    
     21400   42.8           404.57855      47.013998     -3803.5632      14084.453    
     21500   43             392.74967      45.639424     -3806.425       15219.523    
     21600   43.2           395.01349      45.902491     -3807.395       13722.9      
     21700   43.4           395.11392      45.914162     -3805.6226      13567.946    
     21800   43.6           403.96958      46.943233     -3803.4207      15014.829    
     21900   43.8           402.58122      46.781899     -3803.3625      14543.303    
     22000   44             416.9304       48.449344     -3803.8828      13781.707    
     22100   44.2           404.6566       47.023068     -3804.829       14593.882    
     22200   44.4           414.97157      48.221718     -3804.6525      11820.189    
     22300   44.6           399.17283      46.385827     -3801.8134      14924.754    
     22400   44.8           416.87573      48.44299      -3800.5117      13782.343    
     22500   45             408.38013      47.45576      -3802.4684      12733.548    
     22600   45.2           391.06681      45.443868     -3804.6989      15656.761    
     22700   45.4           388.16621      45.106804     -3805.0711      13824.428    
     22800   45.6           409.68615      47.607526     -3803.889       15203.76     
     22900   45.8           410.57771      47.71113      -3802.2252      16322.016    
     23000   46             402.00588      46.715041     -3800.8216      13473.938    
     23100   46.2           421.54505      48.985588     -3800.6169      15514.316    
     23200   46.4           397.60449      46.203578     -3803.5579      14087.536    
     23300   46.6           391.39666      45.482199     -3805.6463      14964.363    
     23400   46.8           392.65914      45.628905     -3805.9659      14841.054    
     23500   47             411.46347      47.814059     -3804.0594      14875.373    
     23600   47.2           414.0798       48.118089     -3801.7337      16895.678    
     23700   47.4           405.42804      47.112713     -3801.0918      14019.789    
     23800   47.6           397.88677      46.23638      -3804.4762      15904.155    
     23900   47.8           402.20019      46.737621     -3806.5148      14015.019    
     24000   48             387.05686      44.977892     -3805.9211      15921.762    
     24100   48.2           387.24373      44.999608     -3803.4719      13548.361    
     24200   48.4           411.96413      47.872238     -3802.1011      16503.25     
     24300   48.6           405.16701      47.08238      -3803.2813      13799.37     
     24400   48.8           397.03507      46.137408     -3805.551       14396.116    
     24500   49             388.54249      45.15053      -3806.2924      14817.821    
     24600   49.2           398.79931      46.342422     -3805.7018      13452.714    
     24700   49.4           390.75363      45.407475     -3804.8154      14132.748    
     24800   49.6           407.90787      47.400881     -3803.1757      14616.251    
     24900   49.8           412.22125      47.902117     -3801.6088      13782.663    
     25000   50             398.24475      46.27798      -3802.7045      12684.737    
     25100   50.2           393.30671      45.704155     -3806.3104      14796.356    
     25200   50.4           401.477        46.653582     -3805.9993      12513.288    
     25300   50.6           398.8024       46.342781     -3804.361       14188.026    
     25400   50.8           411.02792      47.763447     -3802.5786      15429.102    
     25500   51             409.12967      47.54286      -3802.2799      13828.365    
     25600   51.2           393.77581      45.758666     -3805.8173      14266.61     
     25700   51.4           393.95076      45.778997     -3807.3311      13714.214    
     25800   51.6           400.55598      46.546556     -3805.8969      13764.516    
     25900   51.8           409.90136      47.632534     -3803.6604      13174.807    
     26000   52             404.60174      47.016693     -3803.2539      14308.202    
     26100   52.2           414.22755      48.135259     -3803.5831      14106.427    
     26200   52.4           400.15297      46.499724     -3806.0045      13775.299    
     26300   52.6           374.15226      43.478315     -3808.949       14581.844    
     26400   52.8           387.99657      45.087091     -3807.0021      12992.911    
     26500   53             401.00063      46.598226     -3804.9043      15419.794    
     26600   53.2           390.43174      45.37007      -3803.7781      13520.084    
     26700   53.4           408.24406      47.439948     -3803.0184      13193.109    
     26800   53.6           418.17951      48.594496     -3802.3953      15019.582    
     26900   53.8           397.22224      46.159159     -3803.3771      15133.284    
     27000   54             388.58211      45.155133     -3805.675       13803.189    
     27100   54.2           401.19642      46.620977     -3805.8035      15502.959    
     27200   54.4           394.23001      45.811447     -3803.984       14131.795    
     27300   54.6           401.79293      46.690295     -3801.2669      13471.206    
     27400   54.8           415.49498      48.28254      -3801.6674      15325.682    
     27500   55             396.8          46.110093     -3803.0983      13450.885    
     27600   55.2           401.7247       46.682367     -3804.2773      15609.14     
     27700   55.4           393.5104       45.727825     -3805.0111      14563.494    
     27800   55.6           401.8954       46.702203     -3805.4853      13072.119    
     27900   55.8           384.50276      44.681093     -3806.0646      15146.35     
     28000   56             402.48597      46.770829     -3805.5463      13955.876    
     28100   56.2           419.24924      48.718804     -3803.6527      15194.22     
     28200   56.4           399.65481      46.441836     -3802.7202      14556.848    
     28300   56.6           400.82449      46.577758     -3803.6229      14228.648    
     28400   56.8           382.96582      44.502494     -3806.5164      15009.762    
     28500   57             378.14918      43.942776     -3807.022       11984.81     
     28600   57.2           403.71377      46.913506     -3804.744       14654.396    
     28700   57.4           398.40356      46.296434     -3803.5464      14856.366    
     28800   57.6           413.41846      48.041239     -3803.3657      12914.399    
     28900   57.8           407.85105      47.394278     -3803.2257      15880.671    
     29000   58             402.78203      46.805233     -3803.4387      14417.592    
     29100   58.2           390.00773      45.320798     -3805.1432      14784.781    
     29200   58.4           386.32711      44.893091     -3806.5094      14991.083    
     29300   58.6           382.76388      44.479028     -3806.1559      15560.904    
     29400   58.8           396.55694      46.081847     -3802.8382      14541.507    
     29500   59             405.8932       47.166766     -3801.9642      15411.497    
     29600   59.2           402.36083      46.756288     -3803.2173      14346.409    
     29700   59.4           404.88512      47.049622     -3804.9404      14877.785    
     29800   59.6           390.89945      45.42442      -3806.4477      14234.685    
     29900   59.8           376.74592      43.779711     -3808.8139      13028.733    
     30000   60             377.06662      43.816977     -3809.3199      14209.575    
     30100   60.2           403.54396      46.893774     -3805.9813      15477.42     
     30200   60.4           409.24203      47.555917     -3804.305       15396.684    
     30300   60.6           398.77799      46.339944     -3803.7557      15133.81     
     30400   60.8           409.49707      47.585554     -3803.414       17778.686    
     30500   61             398.56929      46.315693     -3805.1142      12441.777    
     30600   61.2           395.58015      45.96834      -3807.436       16116.22     
     30700   61.4           379.66326      44.11872      -3807.2083      14032.453    
     30800   61.6           404.5298       47.008333     -3803.8824      13444.632    
     30900   61.8           404.62981      47.019955     -3803.0814      14339.31     
     31000   62             409.60144      47.597682     -3803.9662      13239.972    
     31100   62.2           395.92052      46.007892     -3805.1452      14100.908    
     31200   62.4           392.79089      45.644215     -3806.6816      14416.427    
     31300   62.6           390.77217      45.409629     -3807.8874      12509.319    
     31400   62.8           396.92981      46.125178     -3805.8559      15459.068    
     31500   63             406.17661      47.1997       -3803.203       14538.679    
     31600   63.2           402.66587      46.791735     -3802.5762      13356.806    
     31700   63.4           421.27674      48.954409     -3802.5272      16060.48     
     31800   63.6           395.47211      45.955785     -3804.7435      12196.858    
     31900   63.8           388.96178      45.199253     -3806.8102      15074.372    
     32000   64             380.51139      44.217277     -3805.5328      13288.847    
     32100   64.2           399.88611      46.468713     -3803.6218      13248.464    
     32200   64.4           410.96191      47.755775     -3803.4627      13741.216    
     32300   64.6           397.4799       46.189101     -3803.8387      13710.756    
     32400   64.8           394.13909      45.800882     -3805.7336      13265.61     
     32500   65             397.21389      46.158189     -3807.5634      13730.636    
     32600   65.2           387.99804      45.087262     -3805.5853      13667.729    
     32700   65.4           406.55701      47.243905     -3802.3779      13484.309    
     32800   65.6           399.29779      46.400348     -3802.1157      15257.692    
     32900   65.8           389.16388      45.222738     -3803.7352      15191.072    
     33000   66             385.64327      44.813626     -3805.7335      14686.565    
     33100   66.2           399.45823      46.418991     -3806.0177      12340.964    
     33200   66.4           404.09343      46.957625     -3802.7495      14939.855    
     33300   66.6           412.58076      47.943894     -3801.3451      14527.397    
     33400   66.8           396.88182      46.119601     -3802.8532      14201.434    
     33500   67             402.80905      46.808373     -3804.3049      13602.588    
     33600   67.2           388.62737      45.160393     -3805.551       16289.809    
     33700   67.4           402.94854      46.824583     -3805.3952      14911.41     
     33800   67.6           414.01138      48.110139     -3802.532       14684.232    
     33900   67.8           424.88363      49.373547     -3801.2596      15425.47     
     34000   68             398.14251      46.266099     -3803.0455      13790.182    
     34100   68.2           412.55794      47.941242     -3805.0671      14032.107    
     34200   68.4           398.28191      46.282298     -3805.1593      13723.176    
     34300   68.6           388.14487      45.104324     -3804.6659      13970.111    
     34400   68.8           398.94817      46.35972      -3802.6953      14735.03     
     34500   69             423.63595      49.228561     -3799.4274      15551.855    
     34600   69.2           402.7153       46.79748      -3801.4615      14888.903    
     34700   69.4           402.3681       46.757132     -3804.02        13562.274    
     34800   69.6           395.60394      45.971104     -3805.0726      15005.47     
     34900   69.8           384.37365      44.666091     -3805.3666      14020.192    
     35000   70             406.56455      47.244781     -3804.069       13378.118    
     35100   70.2           400.01301      46.48346      -3801.4974      13511.126    
     35200   70.4           407.97738      47.408959     -3801.6237      13358.67     
     35300   70.6           392.63251      45.62581      -3804.8574      14800.566    
     35400   70.8           389.28662      45.237001     -3805.9621      14732.915    
     35500   71             387.33465      45.010173     -3804.953       13512.471    
     35600   71.2           406.71061      47.261754     -3803.3452      13714.821    
     35700   71.4           402.23602      46.741785     -3802.3669      16607.814    
     35800   71.6           412.26239      47.906898     -3802.9707      14390.369    
     35900   71.8           398.92752      46.357321     -3805.7435      14862.071    
     36000   72             397.38094      46.177601     -3806.8416      14842.125    
     36100   72.2           389.95285      45.31442      -3805.7624      14199.296    
     36200   72.4           413.21039      48.017059     -3802.7743      13099.003    
     36300   72.6           419.55956      48.754864     -3802.1721      15356.38     
     36400   72.8           408.94537      47.521444     -3803.0883      14985.521    
     36500   73             405.12734      47.07777      -3804.9781      14881.227    
     36600   73.2           399.76211      46.454304     -3805.7899      14420.149    
     36700   73.4           388.73911      45.173378     -3803.6752      16173.292    
     36800   73.6           410.77041      47.733522     -3800.8792      15993.642    
     36900   73.8           411.94783      47.870344     -3801.1614      14347.482    
     37000   74             409.60831      47.59848      -3803.5802      15123.558    
     37100   74.2           397.84073      46.231031     -3805.2964      13566.856    
     37200   74.4           377.07513      43.817967     -3806.0372      14690.765    
     37300   74.6           399.7493       46.452816     -3805.466       16106.72     
     37400   74.8           409.92582      47.635377     -3801.7585      13678.116    
     37500   75             409.10572      47.540077     -3801.2573      14579.749    
     37600   75.2           415.95186      48.335632     -3803.2639      15942.162    
     37700   75.4           391.70364      45.517871     -3805.3116      13270.682    
     37800   75.6           392.06303      45.559634     -3805.7417      16559.291    
     37900   75.8           394.91288      45.8908       -3805.3755      14833.015    
     38000   76             397.07244      46.141751     -3804.0328      12859.994    
     38100   76.2           427.11001      49.632263     -3800.1569      16493.977    
     38200   76.4           409.33681      47.566931     -3801.0356      14744.744    
     38300   76.6           407.27168      47.326953     -3803.2322      14788.286    
     38400   76.8           411.70778      47.84245      -3804.6977      15912.458    
     38500   77             393.93413      45.777064     -3805.6017      13116.688    
     38600   77.2           413.92543      48.100152     -3805.154       13618.785    
     38700   77.4           406.6941       47.259835     -3802.1906      14971.243    
     38800   77.6           416.48764      48.397892     -3800.8085      14085.029    
     38900   77.8           409.01805      47.529889     -3802.9211      14726.486    
     39000   78             391.45208      45.488638     -3804.264       14050.149    
     39100   78.2           397.40003      46.17982      -3804.3427      14507.535    
     39200   78.4           393.32353      45.706109     -3803.8179      15376.318    
     39300   78.6           406.17206      47.199172     -3802.6065      15251.106    
     39400   78.8           422.56448      49.104051     -3800.6371      15472.755    
     39500   79             398.15666      46.267743     -3801.1752      14142.524    
     39600   79.2           400.09421      46.492896     -3804.4515      13822.808    
     39700   79.4           384.34417      44.662664     -3805.419       14383.785    
     39800   79.6           406.28079      47.211807     -3804.6547      13804.126    
     39900   79.8           413.67559      48.071118     -3802.758       15765.404    
     40000   80             410.90106      47.748704     -3800.7127      16278.542    
     40100   80.2           425.42237      49.436151     -3798.7153      15763.066    
     40200   80.4           415.22872      48.251599     -3801.2413      15675.093    
     40300   80.6           392.09563      45.563422     -3804.0203      14158.591    
     40400   80.8           387.16655      44.990639     -3804.7068      13713.155    
     40500   81             406.10143      47.190964     -3804.5326      14227.887    
     40600   81.2           394.27936      45.817182     -3804.0394      13596.968    
     40700   81.4           410.36481      47.686389     -3802.8515      17999.028    
     40800   81.6           413.45816      48.045852     -3802.5047      15144.117    
     40900   81.8           389.01144      45.205024     -3805.0946      13651.704    
     41000   82             394.22221      45.81054      -3806.4191      15417.403    
     41100   82.2           401.49497      46.655671     -3805.6783      14177.719    
     41200   82.4           416.60592      48.411637     -3803.1761      15152.888    
     41300   82.6           400.71911      46.565513     -3802.2511      15687.17     
     41400   82.8           403.98355      46.944856     -3802.9257      15058.325    
     41500   83             399.7362       46.451293     -3803.9031      13838.866    
     41600   83.2           386.8191       44.950264     -3805.0901      15360.218    
     41700   83.4           392.82404      45.648067     -3806.0899      14924.155    
     41800   83.6           402.01677      46.716307     -3806.4459      13511.544    
     41900   83.8           393.60417      45.738721     -3804.6067      14753.667    
     42000   84             405.36712      47.105634     -3802.1632      14949.008    
     42100   84.2           404.75287      47.034255     -3802.303       13696.377    
     42200   84.4           390.13357      45.33542      -3804.7956      13213.249    
     42300   84.6           389.7301       45.288536     -3805.9173      14091.433    
     42400   84.8           396.7926       46.109233     -3805.3395      14790.428    
     42500   85             405.49784      47.120823     -3804.2665      16428.574    
     42600   85.2           399.49583      46.423362     -3802.6256      14634.303    
     42700   85.4           407.00776      47.296284     -3799.9519      16261.305    
     42800   85.6           429.85228      49.950928     -3798.4452      15488.81     
     42900   85.8           425.76636      49.476125     -3802.0572      13324.093    
     43000   86             402.60206      46.784321     -3803.795       16480.893    
     43100   86.2           400.12836      46.496865     -3805.083       12649.176    
     43200   86.4           386.95729      44.966322     -3805.7671      13433.23     
     43300   86.6           410.07863      47.653134     -3804.0379      14832.519    
     43400   86.8           416.25292      48.370617     -3801.6282      12729.85     
     43500   87             411.24733      47.788942     -3802.0085      14530.19     
     43600   87.2           410.35196      47.684896     -3803.3697      13787.725    
     43700   87.4           385.06311      44.746208     -3803.9913      13766.456    
     43800   87.6           409.9954       47.643463     -3803.6774      14466.99     
     43900   87.8           414.74155      48.194988     -3803.3583      15782.348    
     44000   88             389.9229       45.310941     -3804.7384      13610.417    
     44100   88.2           398.51473      46.309353     -3807.0879      15249.78     
     44200   88.4           390.80379      45.413304     -3806.6077      15304.966    
     44300   88.6           406.53868      47.241774     -3803.5763      14383.998    
     44400   88.8           399.567        46.431631     -3802.9143      16755.045    
     44500   89             406.94826      47.28937      -3803.8066      16194.136    
     44600   89.2           377.70958      43.891693     -3804.5728      14616.602    
     44700   89.4           402.20687      46.738397     -3805.3053      14080.655    
     44800   89.6           397.10769      46.145848     -3805.5516      14826.763    
     44900   89.8           396.38407      46.06176      -3804.4456      14290.5      
     45000   90             409.60619      47.598234     -3802.3824      16275.495    
     45100   90.2           401.58948      46.666653     -3801.5336      14875.079    
     45200   90.4           414.22208      48.134623     -3802.9742      16081.107    
     45300   90.6           383.27124      44.537985     -3806.1329      15198.223    
     45400   90.8           389.79044      45.295548     -3805.8099      15135.358    
     45500   91             400.42662      46.531523     -3803.8075      14296.415    
     45600   91.2           402.623        46.786754     -3802.55        14349.646    
     45700   91.4           406.01051      47.180398     -3802.5353      14391.432    
     45800   91.6           399.65841      46.442253     -3803.2102      15421.951    
     45900   91.8           391.24912      45.465053     -3804.4414      14797.326    
     46000   92             395.76126      45.989386     -3807.0936      13201.797    
     46100   92.2           374.4534       43.513309     -3808.7727      15017.557    
     46200   92.4           380.62443      44.230412     -3806.552       12992.289    
     46300   92.6           403.56689      46.896438     -3804.7171      16172.875    
     46400   92.8           406.72889      47.263877     -3803.3732      14870.07     
     46500   93             407.22735      47.321802     -3802.575       12995.43     
     46600   93.2           411.08926      47.770575     -3802.3883      14492.645    
     46700   93.4           397.13795      46.149364     -3804.6575      13496.923    
     46800   93.6           378.04559      43.930739     -3806.3602      13514.11     
     46900   93.8           388.6902       45.167694     -3805.4243      15787.403    
     47000   94             400.25669      46.511777     -3802.7237      14008.808    
     47100   94.2           407.72171      47.379248     -3801.7916      14842.215    
     47200   94.4           403.57826      46.897759     -3802.862       12773.193    
     47300   94.6           395.24388      45.929263     -3803.9924      13564.505    
     47400   94.8           395.37814      45.944865     -3804.4382      13767.192    
     47500   95             396.32         46.054314     -3804.5075      13548.907    
     47600   95.2           418.85099      48.672525     -3802.4414      15649.24     
     47700   95.4           403.04815      46.836158     -3801.1255      16174.816    
     47800   95.6           389.18671      45.225392     -3802.3121      13842.82     
     47900   95.8           396.13263      46.032541     -3805.1617      16027.89     
     48000   96             399.75603      46.453597     -3805.5332      12333.391    
     48100   96.2           400.36973      46.524913     -3804.5161      16162.749    
     48200   96.4           404.94038      47.056044     -3803.3428      14168.66     
     48300   96.6           411.4091       47.807742     -3802.4459      14011.46     
     48400   96.8           424.67681      49.349514     -3800.4275      14633.53     
     48500   97             415.96414      48.337059     -3800.1996      15680.452    
     48600   97.2           415.2745       48.256919     -3802.8742      14016.776    
     48700   97.4           386.96683      44.967431     -3804.6704      13902.073    
     48800   97.6           390.25849      45.349937     -3804.7588      13805.417    
     48900   97.8           399.82641      46.461776     -3802.9952      13323.293    
     49000   98             409.92547      47.635337     -3800.135       12724.41     
     49100   98.2           405.50575      47.121743     -3800.3391      13641.055    
     49200   98.4           407.63727      47.369436     -3801.5806      14386.033    
     49300   98.6           397.05627      46.139872     -3802.9456      13701.116    
     49400   98.8           389.33939      45.243133     -3804.2933      13166.966    
     49500   99             397.8083       46.227262     -3804.9163      13964.244    
     49600   99.2           394.07831      45.793818     -3804.9111      15407.156    
     49700   99.4           408.0282       47.414864     -3803.4617      14604.927    
     49800   99.6           394.50172      45.843021     -3801.845       15547.605    
     49900   99.8           400.48807      46.538665     -3801.6384      13993.392    
     50000   100            389.0588       45.210528     -3804.1983      16044.465    
     50100   100.2          388.75568      45.175303     -3806.1438      14935.304    
     50200   100.4          386.25809      44.885071     -3805.6282      14593.368    
     50300   100.6          408.90863      47.517174     -3804.636       14758.979    
     50400   100.8          411.15116      47.777767     -3803.3955      15952.888    
     50500   101            402.24378      46.742687     -3803.1227      16397.992    
     50600   101.2          383.34034      44.546015     -3803.4305      14621.538    
     50700   101.4          397.57493      46.200144     -3803.6922      16292.408    
     50800   101.6          392.46405      45.606234     -3803.6154      14839.912    
     50900   101.8          396.81128      46.111403     -3802.7964      16432.855    
     51000   102            397.26717      46.16438      -3802.1113      15507.468    
     51100   102.2          418.9867       48.688296     -3802.4634      14354.238    
     51200   102.4          408.71927      47.49517      -3804.3868      13990.796    
     51300   102.6          387.52676      45.032497     -3805.678       16918.689    
     51400   102.8          382.02147      44.392755     -3804.706       13347.389    
     51500   103            415.2759       48.257082     -3801.2504      17291.539    
     51600   103.2          409.59663      47.597124     -3801.2755      14489.185    
     51700   103.4          395.95854      46.012311     -3803.2631      15451.672    
     51800   103.6          395.38593      45.945771     -3804.5172      15975.368    
     51900   103.8          397.92942      46.241337     -3804.4555      13658.502    
     52000   104            413.96272      48.104484     -3801.1687      15346.231    
     52100   104.2          426.93399      49.611808     -3799.0274      14386.648    
     52200   104.4          417.54126      48.520328     -3801.5684      15291.351    
     52300   104.6          422.9217       49.145562     -3803.4208      15244.615    
     52400   104.8          399.64704      46.440932     -3804.4568      15837.03     
     52500   105            406.11258      47.192259     -3805.0503      16579.032    
     52600   105.2          397.21294      46.158078     -3805.4311      13832.849    
     52700   105.4          390.7625       45.408505     -3804.2945      16073.408    
     52800   105.6          398.57808      46.316714     -3802.0012      14140.553    
     52900   105.8          423.34087      49.194271     -3801.5255      15511.913    
     53000   106            399.47911      46.421418     -3804.069       15154.98     
     53100   106.2          394.36165      45.826745     -3806.0429      14012.768    
     53200   106.4          386.32557      44.892913     -3805.3813      14299.403    
     53300   106.6          395.48479      45.957259     -3803.7888      14871.174    
     53400   106.8          398.64747      46.324777     -3802.805       14220.041    
     53500   107            412.29845      47.911088     -3802.9773      14939.558    
     53600   107.2          390.15706      45.338151     -3805.9909      14429.32     
     53700   107.4          384.34334      44.662568     -3806.5808      15444.533    
     53800   107.6          400.24418      46.510324     -3804.5877      13748.189    
     53900   107.8          414.59671      48.178157     -3802.4899      14475.775    
     54000   108            413.01634      47.994511     -3802.3331      14665.385    
     54100   108.2          396.39383      46.062893     -3803.3405      15349.549    
     54200   108.4          389.37363      45.247112     -3805.8199      14103.236    
     54300   108.6          394.85543      45.884124     -3807.8397      14780.669    
     54400   108.8          375.11471      43.590157     -3806.275       13018.688    
     54500   109            414.35702      48.150304     -3804.2507      16057.93     
     54600   109.2          406.66796      47.256798     -3803.6444      12802.793    
     54700   109.4          398.03548      46.253662     -3803.2864      14118.395    
     54800   109.6          408.24119      47.439615     -3802.8987      15202.427    
     54900   109.8          416.46592      48.395369     -3802.3341      12793.72     
     55000   110            387.6763       45.049874     -3803.7766      13852.417    
     55100   110.2          405.02106      47.06542      -3805.574       14487.274    
     55200   110.4          391.45624      45.489121     -3806.2037      13748.652    
     55300   110.6          403.41825      46.879165     -3803.7346      14286.604    
     55400   110.8          405.89054      47.166457     -3801.4264      14995.044    
     55500   111            407.73133      47.380366     -3801.8446      14863.434    
     55600   111.2          406.55336      47.24348      -3804.0279      15315.566    
     55700   111.4          399.73676      46.451358     -3805.4239      14783.263    
     55800   111.6          403.74423      46.917046     -3805.206       14310.772    
     55900   111.8          388.52304      45.148269     -3804.5769      14738.266    
     56000   112            406.30629      47.21477      -3803.119       14325.538    
     56100   112.2          410.47263      47.698919     -3800.958       15052.831    
     56200   112.4          431.51476      50.144117     -3798.1161      15250.706    
     56300   112.6          426.94079      49.612599     -3800.566       15221.432    
     56400   112.8          398.14858      46.266804     -3803.1839      14014.088    
     56500   113            394.61191      45.855825     -3804.5828      14358.738    
     56600   113.2          394.08708      45.794838     -3804.7218      14421.609    
     56700   113.4          387.34036      45.010836     -3804.1985      15898.949    
     56800   113.6          392.39842      45.598607     -3802.2826      14967.47     
     56900   113.8          419.57065      48.756153     -3801.2684      15124.251    
     57000   114            396.79789      46.109848     -3803.2959      13943.052    
     57100   114.2          388.63974      45.16183      -3806.0389      14968.828    
     57200   114.4          387.0632       44.978629     -3805.8931      15094.371    
     57300   114.6          393.04105      45.673285     -3804.0099      14749.144    
     57400   114.8          411.72072      47.843953     -3802.4354      14282.077    
     57500   115            396.91059      46.122944     -3803.1368      14435.045    
     57600   115.2          393.11065      45.681372     -3803.6026      15782.796    
     57700   115.4          401.68114      46.677305     -3804.2168      15201.68     
     57800   115.6          405.92181      47.170091     -3805.5536      13318.861    
     57900   115.8          384.06948      44.630744     -3807.0036      14309.825    
     58000   116            379.24992      44.070688     -3808.0035      13546.122    
     58100   116.2          392.29946      45.587107     -3806.3873      14540.694    
     58200   116.4          406.03541      47.183292     -3803.6589      13625.465    
     58300   116.6          413.45389      48.045356     -3803.1588      14790.826    
     58400   116.8          402.23726      46.741929     -3804.2928      13957.492    
     58500   117            387.35565      45.012613     -3806.8708      13789.893    
     58600   117.2          378.51325      43.985083     -3807.7907      13686.687    
     58700   117.4          408.4791       47.467261     -3803.798       14782.628    
     58800   117.6          414.85922      48.208662     -3802.5507      13717.553    
     58900   117.8          407.7218       47.379259     -3802.7597      13087.608    
     59000   118            391.62751      45.509024     -3804.104       14773.324    
     59100   118.2          379.22086      44.067311     -3805.9492      14519.297    
     59200   118.4          380.75753      44.245879     -3806.2334      13023.917    
     59300   118.6          397.03435      46.137325     -3802.8106      14482.277    
     59400   118.8          398.84387      46.3476       -3801.4736      15012.046    
     59500   119            402.20132      46.737752     -3802.3269      13586.777    
     59600   119.2          408.54192      47.474561     -3804.5799      13927.331    
     59700   119.4          408.14467      47.428399     -3805.8329      13302.642    
     59800   119.6          393.14726      45.685626     -3805.3094      14641.922    
     59900   119.8          395.72585      45.985271     -3804.6947      13552.635    
     60000   120            396.65031      46.092698     -3804.2603      13100.98     
     60100   120.2          393.01882      45.670701     -3804.2371      15111.654    
     60200   120.4          398.92441      46.356959     -3803.8782      12993.519    
     60300   120.6          401.15096      46.615696     -3802.6747      14519.752    
     60400   120.8          402.03562      46.718497     -3801.5216      13570.462    
     60500   121            407.51522      47.355253     -3802.2714      13241.006    
     60600   121.2          387.04278      44.976256     -3805.117       14863.944    
     60700   121.4          396.99146      46.132342     -3805.564       13136.157    
     60800   121.6          395.12155      45.915049     -3804.4361      14263.124    
     60900   121.8          400.46812      46.536346     -3802.3093      14168.825    
     61000   122            402.97054      46.827139     -3801.2171      14255.837    
     61100   122.2          403.38178      46.874928     -3802.1434      13286.038    
     61200   122.4          401.16815      46.617693     -3803.7705      15967.706    
     61300   122.6          391.98845      45.550967     -3805.5954      13954.557    
     61400   122.8          402.24262      46.742551     -3805.7752      14200.781    
     61500   123            418.01728      48.575644     -3803.3813      15043.278    
     61600   123.2          413.44667      48.044516     -3801.8652      14268.894    
     61700   123.4          394.57133      45.85111      -3802.847       14332.077    
     61800   123.6          400.13138      46.497215     -3803.8769      15198.788    
     61900   123.8          387.3609       45.013223     -3804.05        15528.708    
     62000   124            391.47085      45.490819     -3803.6085      15519.868    
     62100   124.2          395.8442       45.999024     -3802.9412      15002.442    
     62200   124.4          411.59703      47.82958      -3802.0485      14977.483    
     62300   124.6          404.75865      47.034926     -3803.2612      14324.204    
     62400   124.8          381.61612      44.345652     -3805.5717      13415.82     
     62500   125            384.90095      44.727364     -3806.0175      15203.443    
     62600   125.2          389.10362      45.215736     -3803.7037      14354.277    
     62700   125.4          429.87721      49.953825     -3801.2825      13240.204    
     62800   125.6          412.05319      47.882588     -3802.0934      15142.015    
     62900   125.8          404.79238      47.038846     -3803.4602      14250.53     
     63000   126            390.78854      45.411532     -3804.7795      14012.418    
     63100   126.2          394.29661      45.819186     -3805.2921      15701.898    
     63200   126.4          382.9248       44.497726     -3804.8529      13345.178    
     63300   126.6          410.99982      47.760181     -3801.3567      14055.45     
     63400   126.8          420.04628      48.811424     -3801.0791      15252.07     
     63500   127            387.99554      45.086971     -3803.9181      13630.446    
     63600   127.2          392.41275      45.600273     -3805.1565      15123.505    
     63700   127.4          390.94212      45.429379     -3805.8976      16039.184    
     63800   127.6          385.59524      44.808045     -3806.0432      13798.348    
     63900   127.8          416.00854      48.342219     -3803.4442      14696.628    
     64000   128            412.40027      47.922919     -3801.8204      15490.888    
     64100   128.2          406.957        47.290385     -3802.9675      13922.42     
     64200   128.4          397.68373      46.212786     -3805.6042      14032.584    
     64300   128.6          390.72576      45.404236     -3806.1874      14178.063    
     64400   128.8          387.16307      44.990234     -3805.6626      14650.827    
     64500   129            397.03846      46.137802     -3804.1687      14302.666    
     64600   129.2          425.16317      49.406031     -3803.1938      15596.72     
     64700   129.4          400.50128      46.540199     -3804.1406      14532.738    
     64800   129.6          381.81551      44.368822     -3807.1824      13363.862    
     64900   129.8          387.9641       45.083318     -3806.8236      14800.362    
     65000   130            398.25954      46.279698     -3804.5516      14532.614    
     65100   130.2          417.78381      48.548513     -3802.9669      15299.811    
     65200   130.4          396.94497      46.126938     -3803.2436      15274.82     
     65300   130.6          382.42018      44.439087     -3804.4198      13668.712    
     65400   130.8          385.40535      44.785979     -3807.8951      14425.57     
     65500   131            378.48998      43.982379     -3808.5002      14512.38     
     65600   131.2          406.87981      47.281416     -3806.0465      14697.571    
     65700   131.4          393.23373      45.695674     -3804.5458      13441.175    
     65800   131.6          399.03365      46.369653     -3803.9641      13785.628    
     65900   131.8          403.87904      46.932711     -3804.2991      15885.384    
     66000   132            384.93199      44.730972     -3806.2946      13372.24     
     66100   132.2          381.16715      44.293479     -3808.085       14405.51     
     66200   132.4          396.3749       46.060694     -3806.6213      15147.667    
     66300   132.6          411.44153      47.81151      -3803.7633      15868.975    
     66400   132.8          408.47296      47.466547     -3803.6144      12381.697    
     66500   133            402.76069      46.802754     -3804.8482      16573.074    
     66600   133.2          390.23918      45.347694     -3806.4951      14411.839    
     66700   133.4          377.29736      43.843791     -3808.1972      13168.76     
     66800   133.6          382.16876      44.409871     -3808.428       14706.843    
     66900   133.8          404.62973      47.019945     -3805.3779      13526.281    
     67000   134            407.72407      47.379523     -3803.4789      12772.789    
     67100   134.2          401.74414      46.684626     -3803.0086      14818.071    
     67200   134.4          411.64015      47.834591     -3803.5388      12288.3      
     67300   134.6          392.01576      45.55414      -3806.0442      13341.545    
     67400   134.8          385.14827      44.756105     -3807.2297      13064.445    
     67500   135            388.7594       45.175736     -3805.1413      15543.617    
     67600   135.2          411.64899      47.835618     -3802.2493      13476.869    
     67700   135.4          410.29328      47.678077     -3802.9683      15432.238    
     67800   135.6          390.58607      45.388003     -3804.9678      15318.804    
     67900   135.8          379.54284      44.104726     -3806.1747      14278.708    
     68000   136            405.42082      47.111874     -3805.2594      14356.765    
     68100   136.2          415.46941      48.279569     -3801.1001      14768.877    
     68200   136.4          413.542        48.055594     -3801.468       14900.802    
     68300   136.6          403.76428      46.919376     -3803.6735      14224.308    
     68400   136.8          396.97468      46.130391     -3805.0836      16769.809    
     68500   137            403.0626       46.837837     -3805.5934      12980.387    
     68600   137.2          392.92317      45.659586     -3803.8543      15332.054    
     68700   137.4          421.14142      48.938684     -3801.0835      13631.81     
     68800   137.6          414.22668      48.135157     -3802.0011      15148.216    
     68900   137.8          410.49592      47.701625     -3804.4152      14907.955    
     69000   138            387.1989       44.994398     -3805.0506      14434.691    
     69100   138.2          397.47006      46.187957     -3805.0497      15319.009    
     69200   138.4          410.97148      47.756888     -3804.4569      13536.87     
     69300   138.6          408.72701      47.496069     -3801.6541      14998.935    
     69400   138.8          425.43734      49.437891     -3800.1206      15661.776    
     69500   139            420.2807       48.838664     -3802.4563      12977.544    
     69600   139.2          404.93842      47.055817     -3804.0659      14519.922    
     69700   139.4          402.17538      46.734738     -3804.6277      13172.643    
     69800   139.6          402.52978      46.775921     -3805.0674      14555.334    
     69900   139.8          393.05558      45.674973     -3805.6866      13451.169    
     70000   140            396.35231      46.058069     -3806.4329      12261.806    
     70100   140.2          405.68083      47.142089     -3805.8359      14003.538    
     70200   140.4          417.09096      48.468001     -3803.2756      14026.021    
     70300   140.6          404.25564      46.976475     -3802.4357      14088.491    
     70400   140.8          391.29548      45.47044      -3803.2156      13889.616    
     70500   141            385.36633      44.781444     -3806.8109      14364.268    
     70600   141.2          389.2104       45.228144     -3806.6943      12777.981    
     70700   141.4          390.65363      45.395854     -3804.7442      13400.87     
     70800   141.6          414.25042      48.137917     -3803.5056      14697.942    
     70900   141.8          416.69173      48.421609     -3803.6479      13537.5      
     71000   142            397.0168       46.135286     -3805.4173      12935.178    
     71100   142.2          393.09728      45.679819     -3808.554       14085.199    
     71200   142.4          369.25577      42.909319     -3807.5188      13543.426    
     71300   142.6          391.33661      45.47522      -3804.9918      14113.066    
     71400   142.8          405.53483      47.125123     -3804.0893      15693.531    
     71500   143            393.64519      45.743488     -3803.4568      13375.318    
     71600   143.2          414.02658      48.111905     -3803.1114      13898.81     
     71700   143.4          409.84979      47.626542     -3803.5995      15463.816    
     71800   143.6          395.86829      46.001823     -3804.812       13118.362    
     71900   143.8          400.18652      46.503623     -3805.1249      14453.541    
     72000   144            394.20426      45.808455     -3803.7958      16373.37     
     72100   144.2          394.32964      45.823024     -3801.4296      15167.777    
     72200   144.4          426.72716      49.587775     -3800.5254      14177.54     
     72300   144.6          415.42997      48.274986     -3803.5947      15620.714    
     72400   144.8          388.95331      45.198269     -3805.496       14669.354    
     72500   145            384.00111      44.622799     -3804.7026      14379.724    
     72600   145.2          395.89782      46.005255     -3803.0806      16247.471    
     72700   145.4          412.50485      47.935072     -3801.2781      14384.707    
     72800   145.6          423.14074      49.171015     -3800.516       15313.221    
     72900   145.8          406.0547       47.185534     -3803.4703      15387.508    
     73000   146            403.65624      46.906822     -3805.5396      15031.858    
     73100   146.2          403.2377       46.858185     -3805.2435      15401.982    
     73200   146.4          406.49303      47.23647      -3803.1609      14887.198    
     73300   146.6          408.89528      47.515623     -3801.5819      14617.531    
     73400   146.8          414.01891      48.111014     -3802.7683      15016.898    
     73500   147            388.87285      45.188919     -3806.615       14701.306    
     73600   147.2          406.57686      47.246211     -3805.9058      12556.553    
     73700   147.4          411.84468      47.858358     -3803.7422      15264.1      
     73800   147.6          400.43145      46.532085     -3802.5714      14477.399    
     73900   147.8          405.37833      47.106936     -3802.5968      13671.904    
     74000   148            392.26143      45.582689     -3805.3475      16238.578    
     74100   148.2          386.88122      44.957482     -3806.8006      14326.659    
     74200   148.4          382.83354      44.487122     -3805.2283      14258.161    
     74300   148.6          396.96042      46.128734     -3803.3906      14375.115    
     74400   148.8          405.8623       47.163176     -3803.2176      15701.227    
     74500   149            393.78697      45.759964     -3804.0201      16388.873    
     74600   149.2          402.02325      46.71706      -3804.8111      14837.81     
     74700   149.4          394.04656      45.790129     -3805.4929      14821.556    
     74800   149.6          382.21914      44.415726     -3806.897       14284.477    
     74900   149.8          374.35252      43.501586     -3806.2325      14002.23     
     75000   150            395.7968       45.993515     -3803.6625      15424.48     
     75100   150.2          414.57546      48.175687     -3802.2267      16335.321    
     75200   150.4          412.48576      47.932854     -3803.1738      15016.099    
     75300   150.6          391.95444      45.547015     -3805.9153      14180.568    
     75400   150.8          388.69176      45.167875     -3806.5886      15523.644    
     75500   151            390.86311      45.420198     -3805.7963      13329.199    
     75600   151.2          405.27813      47.095293     -3804.3901      15373.391    
     75700   151.4          397.80283      46.226626     -3803.1054      14709.607    
     75800   151.6          402.81222      46.808742     -3802.4431      14891.371    
     75900   151.8          399.12588      46.380371     -3803.9129      15187.243    
     76000   152            388.5732       45.154099     -3806.6845      14348.717    
     76100   152.2          371.23181      43.138944     -3806.6811      14274.175    
     76200   152.4          399.0608       46.372808     -3804.2611      14873.672    
     76300   152.6          395.52692      45.962154     -3803.0247      12561.344    
     76400   152.8          425.92056      49.494044     -3803.017       13462.373    
     76500   153            407.60722      47.365944     -3803.5811      13766.417    
     76600   153.2          388.96841      45.200024     -3804.2276      12957.326    
     76700   153.4          398.96329      46.361477     -3804.174       14070.238    
     76800   153.6          388.33081      45.125932     -3804.1727      13988.392    
     76900   153.8          390.52437      45.380834     -3804.0432      14868.129    
     77000   154            401.80042      46.691166     -3804.0021      15281.889    
     77100   154.2          396.59529      46.086304     -3802.8008      15413.27     
     77200   154.4          404.98297      47.060994     -3801.4728      15349.047    
     77300   154.6          414.10604      48.121138     -3801.7799      14370.1      
     77400   154.8          396.63793      46.09126      -3804.2598      14692.107    
     77500   155            383.14405      44.523204     -3805.3645      14143.38     
     77600   155.2          387.56899      45.037404     -3804.4829      16115.319    
     77700   155.4          402.1616       46.733137     -3801.1023      15575.623    
     77800   155.6          405.49349      47.120318     -3800.6648      14935.943    
     77900   155.8          402.59279      46.783243     -3802.2305      14759.751    
     78000   156            410.74376      47.730426     -3804.0318      13728.388    
     78100   156.2          410.11066      47.656856     -3804.9119      14648.349    
     78200   156.4          404.93097      47.054951     -3804.9635      14463.506    
     78300   156.6          398.8522       46.348569     -3804.0827      15246.255    
     78400   156.8          411.79166      47.852196     -3802.4585      15165.791    
     78500   157            424.63131      49.344226     -3801.5751      15621.503    
     78600   157.2          402.73762      46.800073     -3803.5144      15714.254    
     78700   157.4          390.85173      45.418875     -3805.8362      14757.323    
     78800   157.6          389.95125      45.314234     -3805.9036      14950.161    
     78900   157.8          407.36908      47.338271     -3804.995       14637.84     
     79000   158            401.86319      46.69846      -3804.2751      15037.08     
     79100   158.2          411.54862      47.823954     -3803.8174      14225.742    
     79200   158.4          393.82602      45.764502     -3803.7699      14229.668    
     79300   158.6          406.60233      47.249171     -3803.5293      15881.063    
     79400   158.8          390.86632      45.420571     -3804.7257      13146.968    
     79500   159            401.65763      46.674572     -3806.8954      14348.387    
     79600   159.2          382.72282      44.474256     -3806.4168      12815.533    
     79700   159.4          412.0218       47.87894      -3803.3952      14040.931    
     79800   159.6          408.26566      47.442458     -3802.5879      14154.562    
     79900   159.8          401.16036      46.616788     -3803.3148      14322.539    
     80000   160            407.64908      47.370808     -3805.1947      16080.742    
     80100   160.2          375.74098      43.662932     -3807.8593      14089.409    
     80200   160.4          386.51777      44.915247     -3806.9861      14256.966    
     80300   160.6          397.71394      46.216297     -3805.537       13724.931    
     80400   160.8          389.58242      45.271374     -3804.265       15195.9      
     80500   161            401.26237      46.628641     -3803.442       14104.224    
     80600   161.2          397.33717      46.172515     -3803.8413      14774.051    
     80700   161.4          395.48641      45.957447     -3805.5549      15848.942    
     80800   161.6          391.37359      45.479517     -3806.5175      12728.383    
     80900   161.8          406.38154      47.223514     -3804.8319      16042.058    
     81000   162            393.53911      45.731161     -3802.783       16033.151    
     81100   162.2          405.12901      47.077965     -3802.4314      14035.365    
     81200   162.4          392.52375      45.613172     -3804.7614      15288.829    
     81300   162.6          398.75774      46.337592     -3807.3937      15960.472    
     81400   162.8          395.30585      45.936465     -3806.299       13935.819    
     81500   163            399.39666      46.411837     -3804.2835      17688.783    
     81600   163.2          407.17878      47.316157     -3803.213       14363.383    
     81700   163.4          414.58362      48.176636     -3803.1713      14727.718    
     81800   163.6          391.53262      45.497998     -3805.9009      15269.693    
     81900   163.8          374.48449      43.516921     -3808.2598      14169.707    
     82000   164            396.16877      46.036741     -3806.6564      16013.025    
     82100   164.2          398.09964      46.261117     -3804.5712      12792.368    
     82200   164.4          402.06855      46.722324     -3803.5907      15651.39     
     82300   164.6          411.30072      47.795147     -3803.3299      15463.616    
     82400   164.8          387.67403      45.049611     -3805.8814      13865.91     
     82500   165            381.59732      44.343468     -3807.9975      14468.34     
     82600   165.2          387.23982      44.999153     -3806.5592      16392.285    
     82700   165.4          396.32494      46.054889     -3804.6409      15602.166    
     82800   165.6          404.45296      46.999404     -3804.2684      15795.827    
     82900   165.8          384.80537      44.716258     -3804.519       13928.417    
     83000   166            395.89106      46.004469     -3804.6589      15400.286    
     83100   166.2          394.65916      45.861317     -3805.2618      15259.424    
     83200   166.4          389.36235      45.245802     -3805.3212      14857.419    
     83300   166.6          394.14211      45.801233     -3804.5185      14426.543    
     83400   166.8          401.6935       46.678741     -3803.1791      15393.95     
     83500   167            402.5542       46.778758     -3802.7676      14102.009    
     83600   167.2          396.73894      46.102997     -3805.4776      15598.439    
     83700   167.4          387.79504      45.063672     -3807.4455      14558.947    
     83800   167.6          388.47304      45.14246      -3806.6104      13635.823    
     83900   167.8          397.56227      46.198672     -3804.4882      14287.386    
     84000   168            399.40012      46.412239     -3803.7188      14207.052    
     84100   168.2          405.76897      47.15233      -3803.8914      13502.936    
     84200   168.4          394.21985      45.810267     -3804.6332      14573.113    
     84300   168.6          387.40265      45.018075     -3805.7753      13614.911    
     84400   168.8          383.42911      44.55633      -3808.1576      14568.075    
     84500   169            388.2949       45.121758     -3808.8719      13116.86     
     84600   169.2          385.00033      44.738914     -3805.8204      14636.653    
     84700   169.4          411.81249      47.854617     -3804.0499      12727.127    
     84800   169.6          402.84391      46.812425     -3803.6857      14398.287    
     84900   169.8          388.63709      45.161523     -3804.5943      13765.776    
     85000   170            389.03522      45.207788     -3807.0796      14897.013    
     85100   170.2          381.02248      44.276668     -3808.4515      13842.21     
[...]
    478600   957.2          420.19035      48.828165     -3803.547       15102.838    
    478700   957.4          400.39724      46.528109     -3804.747       11843.786    
    478800   957.6          413.13733      48.00857      -3806.307       14436.329    
    478900   957.8          385.90228      44.843724     -3808.717       14421.735    
    479000   958            377.57726      43.876316     -3809.9193      13708.775    
    479100   958.2          391.94414      45.545818     -3806.4133      15098.773    
    479200   958.4          391.15005      45.453541     -3804.7948      14699.554    
    479300   958.6          392.1971       45.575214     -3804.0768      13444.441    
    479400   958.8          407.90414      47.400448     -3803.3128      15312.103    
    479500   959            403.97788      46.944197     -3803.452       14653.928    
    479600   959.2          388.72387      45.171607     -3805.735       12869.938    
    479700   959.4          398.64364      46.324332     -3807.5619      15444.039    
    479800   959.6          387.70463      45.053166     -3806.7674      14596.399    
    479900   959.8          406.37826      47.223133     -3804.0384      15554.581    
    480000   960            399.40548      46.412862     -3803.5884      15024.485    
    480100   960.2          390.83794      45.417272     -3804.264       15341.446    
    480200   960.4          407.99056      47.41049      -3805.229       14103.192    
    480300   960.6          396.70941      46.099566     -3806.6556      14289.655    
    480400   960.8          377.40746      43.856585     -3808.7405      15355.507    
    480500   961            389.3867       45.248631     -3808.3902      14870.08     
    480600   961.2          408.80183      47.504764     -3804.6935      14178.384    
    480700   961.4          393.81978      45.763776     -3803.8863      14827.928    
    480800   961.6          418.8475       48.67212      -3804.4904      15383.43     
    480900   961.8          386.88475      44.957893     -3806.5126      12173.701    
    481000   962            399.24641      46.394377     -3807.452       13950.638    
    481100   962.2          393.36948      45.711449     -3805.7458      15590.734    
    481200   962.4          409.7115       47.610472     -3802.9038      15428.798    
    481300   962.6          402.59326      46.783298     -3803.1585      14277.558    
    481400   962.8          397.28932      46.166954     -3805.2134      15514.111    
    481500   963            391.54764      45.499743     -3806.7718      15331.93     
    481600   963.2          391.26043      45.466368     -3806.3708      13687.108    
    481700   963.4          411.71562      47.843361     -3803.7783      16455.709    
    481800   963.6          410.42648      47.693556     -3803.0699      15415.227    
    481900   963.8          404.83058      47.043285     -3804.0917      14810.641    
    482000   964            393.9776       45.782116     -3805.8775      15756.119    
    482100   964.2          388.84875      45.186119     -3807.0472      14836.094    
    482200   964.4          386.87406      44.95665      -3806.4164      14812.106    
    482300   964.6          411.9821       47.874326     -3803.6438      13650.202    
    482400   964.8          409.6115       47.598851     -3802.725       15268.009    
    482500   965            398.76577      46.338525     -3804.7958      14852.393    
    482600   965.2          401.30145      46.633183     -3805.7577      16000.979    
    482700   965.4          403.2424       46.858731     -3806.027       15162.062    
    482800   965.6          406.54615      47.242643     -3805.7292      14293.484    
    482900   965.8          407.68749      47.375271     -3804.967       15935.048    
    483000   966            424.66095      49.34767      -3803.3251      15744.027    
    483100   966.2          414.05786      48.11554      -3803.1094      14153.791    
    483200   966.4          409.3011       47.562781     -3805.6964      16049.543    
    483300   966.6          394.65684      45.861047     -3807.5773      14354.238    
    483400   966.8          392.03835      45.556765     -3807.2423      12668.981    
    483500   967            420.7523       48.893466     -3805.3212      14468.119    
    483600   967.2          401.09321      46.608984     -3804.0677      15478.767    
    483700   967.4          403.06257      46.837834     -3804.398       15340.849    
    483800   967.6          396.99633      46.132908     -3805.1509      15189.354    
    483900   967.8          404.17332      46.966909     -3806.3674      16447.021    
    484000   968            387.64527      45.046268     -3808.0065      14007.917    
    484100   968.2          387.19115      44.993497     -3809.0652      14464.703    
    484200   968.4          393.44684      45.720439     -3807.9273      14667.101    
    484300   968.6          397.07721      46.142305     -3804.9888      13805.004    
    484400   968.8          406.4608       47.232725     -3803.6823      15271.705    
    484500   969            407.76476      47.384251     -3803.8451      13584.129    
    484600   969.2          376.92554      43.800583     -3806.6501      16328.191    
    484700   969.4          398.22582      46.27578      -3807.4948      14442.827    
    484800   969.6          390.90618      45.425202     -3806.6105      15449.492    
    484900   969.8          398.07558      46.258321     -3805.7987      13935.629    
    485000   970            393.81928      45.763718     -3804.9947      15837.336    
    485100   970.2          403.66901      46.908305     -3804.8592      13354.804    
    485200   970.4          388.16299      45.10643      -3806.189       15399.008    
    485300   970.6          393.27553      45.700532     -3808.9094      14073.809    
    485400   970.8          386.89147      44.958673     -3808.3923      15349.865    
    485500   971            406.19187      47.201474     -3805.6941      15403.429    
    485600   971.2          398.55377      46.313889     -3804.4877      15968.363    
    485700   971.4          397.67317      46.211559     -3804.5648      16274.586    
    485800   971.6          399.92657      46.473416     -3805.6505      14469.869    
    485900   971.8          391.2079       45.460264     -3807.4047      14488.17     
    486000   972            391.86679      45.53683      -3809.0107      15554.129    
    486100   972.2          391.23475      45.463384     -3807.9104      15006.348    
    486200   972.4          406.25097      47.208341     -3804.6968      14923.4      
    486300   972.6          411.5156       47.820117     -3803.6357      15013.018    
    486400   972.8          405.71393      47.145935     -3803.8119      16034.459    
    486500   973            408.72375      47.495691     -3805.728       14259.966    
    486600   973.2          384.37647      44.666418     -3808.2669      15591.586    
    486700   973.4          390.78436      45.411046     -3807.5049      14647.179    
    486800   973.6          406.75497      47.266909     -3806.1524      13308.942    
    486900   973.8          397.53704      46.19574      -3805.1858      15605.187    
    487000   974            403.27943      46.863034     -3805.146       14784.621    
    487100   974.2          400.32236      46.519408     -3806.3613      15491.736    
    487200   974.4          375.10748      43.589316     -3809.4799      14839.976    
    487300   974.6          376.39954      43.73946      -3809.8393      14960.149    
    487400   974.8          396.20134      46.040525     -3807.6437      14755.357    
    487500   975            398.48788      46.306233     -3806.5643      14474.141    
    487600   975.2          410.9347       47.752614     -3805.6133      14815.306    
    487700   975.4          408.5721       47.478067     -3804.6458      13373.324    
    487800   975.6          407.03114      47.299001     -3804.5138      14479.527    
    487900   975.8          410.15995      47.662584     -3806.4045      14806.141    
    488000   976            392.52817      45.613685     -3808.5793      13597.125    
    488100   976.2          395.42342      45.950127     -3808.063       13880.795    
    488200   976.4          409.80224      47.621016     -3805.3883      13489.818    
    488300   976.6          404.25736      46.976675     -3804.4821      14865.62     
    488400   976.8          407.58339      47.363175     -3805.0854      13967.081    
    488500   977            386.73873      44.940924     -3806.4075      14564.375    
    488600   977.2          410.52197      47.704652     -3807.1324      14421.308    
    488700   977.4          402.1492       46.731696     -3805.6366      14751.53     
    488800   977.6          400.06016      46.488939     -3802.9654      14665.741    
    488900   977.8          405.53782      47.125469     -3803.3416      13843.29     
    489000   978            409.64905      47.603215     -3806.1465      14418.092    
    489100   978.2          391.79298      45.528253     -3806.9929      15560.489    
    489200   978.4          398.12511      46.264077     -3806.4052      14209.387    
    489300   978.6          403.61815      46.902395     -3805.7182      15941.627    
    489400   978.8          423.81708      49.249609     -3803.4961      15296.525    
    489500   979            409.37129      47.570938     -3801.8376      13158.15     
    489600   979.2          408.2569       47.44144      -3804.6671      15693.989    
    489700   979.4          392.33553      45.5913       -3806.453       15071.669    
    489800   979.6          392.99933      45.668436     -3806.3724      13930.399    
    489900   979.8          392.70425      45.634146     -3804.8621      15214.823    
    490000   980            428.46481      49.789698     -3803.2107      15866.282    
    490100   980.2          410.63855      47.718199     -3803.1635      13315.665    
    490200   980.4          406.71101      47.2618       -3806.1979      15235.952    
    490300   980.6          391.5446       45.49939      -3807.9513      14865.138    
    490400   980.8          381.33471      44.312951     -3807.3303      12983.053    
    490500   981            397.35653      46.174764     -3804.7334      15875.095    
    490600   981.2          413.34615      48.032836     -3803.6879      15216.763    
    490700   981.4          405.65551      47.139146     -3804.4691      14831.921    
    490800   981.6          399.36855      46.40857      -3805.4073      15475.375    
    490900   981.8          386.51943      44.91544      -3806.8924      14310.439    
    491000   982            380.05239      44.163939     -3809.6597      14695.201    
    491100   982.2          395.15722      45.919194     -3810.5333      15250.94     
    491200   982.4          407.68036      47.374443     -3806.6366      15268.722    
    491300   982.6          414.53329      48.170787     -3805.0712      15365.768    
    491400   982.8          400.42137      46.530914     -3804.3844      14162.271    
    491500   983            401.26128      46.628515     -3804.5613      14928.605    
    491600   983.2          397.25758      46.163265     -3806.7735      15478.848    
    491700   983.4          387.04702      44.976748     -3808.4058      13964.351    
    491800   983.6          390.98695      45.434588     -3807.4681      12629.08     
    491900   983.8          408.522        47.472246     -3803.6881      14753.14     
    492000   984            405.81187      47.157316     -3803.7618      13510.417    
    492100   984.2          388.60747      45.158081     -3805.5786      13967.254    
    492200   984.4          396.24163      46.045208     -3807.2516      12772.266    
    492300   984.6          397.53664      46.195694     -3807.1819      13472.328    
    492400   984.8          395.66864      45.978623     -3803.4873      14695.622    
    492500   985            412.7019       47.957971     -3802.591       14523.156    
    492600   985.2          397.0423       46.138249     -3804.2863      13259.878    
    492700   985.4          410.07017      47.652151     -3805.8929      14005.956    
    492800   985.6          394.07021      45.792877     -3806.6365      15382.236    
    492900   985.8          391.34536      45.476236     -3805.8714      14621.629    
    493000   986            400.82525      46.577846     -3804.001       15712.358    
    493100   986.2          427.93832      49.728517     -3800.2077      14662.299    
    493200   986.4          430.60294      50.038159     -3801.9008      13460.813    
    493300   986.6          390.77693      45.410183     -3804.7177      15340.437    
    493400   986.8          377.51849      43.869487     -3805.7061      14870.896    
    493500   987            397.12322      46.147652     -3805.6877      13847.645    
    493600   987.2          407.52343      47.356207     -3804.1535      16209.953    
    493700   987.4          413.6745       48.070992     -3801.9069      14543.239    
    493800   987.6          414.98305      48.223051     -3802.5441      13720.381    
    493900   987.8          403.35536      46.871857     -3806.111       15829.113    
    494000   988            390.81272      45.414341     -3806.656       14100.671    
    494100   988.2          395.12167      45.915063     -3805.9528      15447.808    
    494200   988.4          393.56042      45.733638     -3804.136       15615.097    
    494300   988.6          424.83865      49.36832      -3802.3432      14121.9      
    494400   988.8          413.10607      48.004937     -3804.0341      14736.175    
    494500   989            388.58114      45.155021     -3807.2634      16580.66     
    494600   989.2          390.20335      45.34353      -3807.2305      15406.135    
    494700   989.4          403.76135      46.919036     -3805.3956      14439.363    
    494800   989.6          423.80447      49.248143     -3803.6757      15001.076    
    494900   989.8          406.52016      47.239622     -3803.523       16097.107    
    495000   990            408.67531      47.490061     -3807.1581      17438.895    
    495100   990.2          385.29996      44.773731     -3808.3655      14054.866    
    495200   990.4          404.35553      46.988082     -3806.935       14260.182    
    495300   990.6          410.31555      47.680665     -3804.58        16832.069    
    495400   990.8          395.40671      45.948186     -3803.8589      15027.181    
    495500   991            394.53819      45.847259     -3804.6666      16160.845    
    495600   991.2          409.8668       47.628518     -3805.1026      15221.295    
    495700   991.4          388.03313      45.09134      -3805.7553      14449.162    
    495800   991.6          387.97727      45.084848     -3805.6186      16395.648    
    495900   991.8          391.68274      45.515442     -3805.6528      15174.284    
    496000   992            397.00851      46.134322     -3805.797       14980.681    
    496100   992.2          396.65274      46.09298      -3805.3064      15492.767    
    496200   992.4          395.43056      45.950958     -3803.4354      14697.674    
    496300   992.6          409.39201      47.573345     -3801.6515      16282.707    
    496400   992.8          409.95891      47.639223     -3802.8974      14680.339    
    496500   993            391.01032      45.437304     -3806.1451      16160.528    
    496600   993.2          376.08952      43.703434     -3806.808       15899.697    
    496700   993.4          404.77874      47.037261     -3805.8717      13326.308    
    496800   993.6          416.56941      48.407395     -3803.8819      15809.756    
    496900   993.8          399.54429      46.428993     -3801.8258      14672.838    
    497000   994            425.89707      49.491314     -3802.8714      15049.427    
    497100   994.2          382.25202      44.419546     -3806.5055      15444.303    
    497200   994.4          395.09443      45.911897     -3806.862       13513.886    
    497300   994.6          410.85579      47.743444     -3805.922       16097.375    
    497400   994.8          411.11931      47.774066     -3803.7267      14318.136    
    497500   995            409.40588      47.574957     -3803.0119      13866.949    
    497600   995.2          387.00104      44.971405     -3806.636       13491.45     
    497700   995.4          387.07298      44.979766     -3807.6343      15843.665    
    497800   995.6          393.08658      45.678576     -3806.7345      11473.693    
    497900   995.8          410.31208      47.680262     -3805.038       15657.531    
    498000   996            400.85608      46.581429     -3803.7262      14101.47     
    498100   996.2          422.38653      49.083372     -3801.0742      12952.494    
    498200   996.4          419.80529      48.78342      -3801.5103      16858.299    
    498300   996.6          395.38228      45.945347     -3805.418       12849.213    
    498400   996.8          389.05692      45.210309     -3806.2953      14003.67     
    498500   997            403.23978      46.858426     -3806.3039      14343.826    
    498600   997.2          406.12045      47.193174     -3805.0864      13268.622    
    498700   997.4          417.14274      48.474018     -3802.7587      13257.665    
    498800   997.6          417.72902      48.542147     -3802.948       16916.057    
    498900   997.8          394.60598      45.855137     -3806.6184      13925.853    
    499000   998            393.21507      45.693507     -3806.7777      14114.792    
    499100   998.2          410.99708      47.759863     -3805.5727      15814.169    
    499200   998.4          392.3011       45.587298     -3803.9596      14429.564    
    499300   998.6          416.16483      48.360381     -3802.112       13671.598    
    499400   998.8          398.93593      46.358297     -3801.129       16755.994    
    499500   999            411.79807      47.852941     -3803.4419      13597.775    
    499600   999.2          390.054        45.326175     -3806.288       15718.815    
    499700   999.4          399.20346      46.389386     -3806.7274      13491.012    
    499800   999.6          396.60952      46.087958     -3805.4929      14400.14     
    499900   999.8          412.62416      47.948936     -3803.2105      15632.279    
    500000   1000           405.42255      47.112075     -3802.224       14423.885    
Loop time of 28454.7 on 1 procs for 500000 steps with 900 atoms

Performance: 3.036 ns/day, 7.904 hours/ns, 17.572 timesteps/s
60.1% CPU use with 1 MPI tasks x 1 OpenMP threads

MPI task timing breakdown:
Section |  min time  |  avg time  |  max time  |%varavg| %total
---------------------------------------------------------------
Pair    | 28153      | 28153      | 28153      |   0.0 | 98.94
Neigh   | 255.47     | 255.47     | 255.47     |   0.0 |  0.90
Comm    | 10.845     | 10.845     | 10.845     |   0.0 |  0.04
Output  | 11.661     | 11.661     | 11.661     |   0.0 |  0.04
Modify  | 19.544     | 19.544     | 19.544     |   0.0 |  0.07
Other   |            | 4.023      |            |       |  0.01

Nlocal:            900 ave         900 max         900 min
Histogram: 1 0 0 0 0 0 0 0 0 0
Nghost:           2472 ave        2472 max        2472 min
Histogram: 1 0 0 0 0 0 0 0 0 0
Neighs:              0 ave           0 max           0 min
Histogram: 1 0 0 0 0 0 0 0 0 0
FullNghs:        66448 ave       66448 max       66448 min
Histogram: 1 0 0 0 0 0 0 0 0 0

Total # of neighbors = 66448
Ave neighs/atom = 73.831111
Neighbor list builds = 50000
Dangerous builds not checked

Total wall time: 7:56:08
