ITEM: TIMESTEP
0
ITEM: NUMBER OF ATOMS
48
ITEM: BOX BOUNDS xy xz yz pp pp pp
-7.5570186972618103e+00 8.6067802309989929e+00 2.5094206929206848e+00
-9.4973444938659668e-03 9.3236122131347656e+00 -7.5449815988540649e+00
-2.8691649436950684e-02 1.9545819282531738e+01 7.1304261684417725e-02
ITEM: ATOMS id type xs ys zs fx fy fz
2 1 0.52346 0.0738739 0.0528103 0 0 -0.00204468
4 1 0.146845 0.948847 0.927808 0 0 -0.00149345
7 1 0.209855 0.250315 0.78202 0 0 0.000494003
8 1 0.0854036 0.208712 0.407029 0 0 0.00028801
9 1 0.397421 0.0321465 0.677802 0 0 -0.000289917
10 1 0.0225874 0.240498 0.552801 0 0 -0.00028038
13 1 0.335821 0.292053 0.157025 0 0 0.000247955
16 1 0.52346 0.407207 0.0528103 0 0 -0.00204468
18 1 0.146845 0.28218 0.927808 0 0 -0.00150108
21 1 0.209855 0.583648 0.78202 0 0 0.000494003
22 1 0.460276 0.333676 0.532027 0 0 0.000314713
23 1 0.085404 0.542046 0.407029 0 0 0.000284195
24 1 0.397421 0.36548 0.677802 0 0 -0.000286102
25 1 0.0225874 0.573831 0.552801 0 0 -0.000284195
26 1 0.272884 0.323895 0.302807 0 0 -0.000354767
29 1 0.335821 0.625387 0.157025 0 0 0.000244141
32 1 0.52346 0.740541 0.0528104 0 0 -0.00205231
34 1 0.146845 0.615514 0.927808 0 0 -0.00149155
37 1 0.209855 0.916981 0.78202 0 0 0.000492096
38 1 0.460276 0.667009 0.532027 0 0 0.000312805
39 1 0.0854038 0.875379 0.407029 0 0 0.000282288
40 1 0.397421 0.698813 0.677802 0 0 -0.000291824
41 1 0.022587 0.907164 0.552801 0 0 -0.00028038
42 1 0.272883 0.657228 0.302807 0 0 -0.000356674
45 1 0.335822 0.95872 0.157026 0 0 0.000242233
47 1 0.460276 0.000342385 0.532027 0 0 0.000312805
48 1 0.272884 0.990562 0.302807 0 0 -0.000354767
1 1 0.961146 0.16703 0.0320218 0 0 0.00149155
3 1 0.835108 0.125314 0.657023 0 0 0.000356674
5 1 0.77217 0.157156 0.802805 0 0 -0.000247955
6 1 0.584531 0.0420026 0.90702 0 0 0.00205421
11 1 0.898136 0.198895 0.17781 0 0 -0.000499725
12 1 0.71057 0.0837297 0.282028 0 0 0.00028801
14 1 0.647715 0.115534 0.427803 0 0 -0.000318527
15 1 0.961146 0.500363 0.0320219 0 0 0.00148582
17 1 0.835107 0.458648 0.657023 0 0 0.000356674
19 1 0.77217 0.49049 0.802805 0 0 -0.000244141
20 1 0.584531 0.375336 0.90702 0 0 0.00205231
27 1 0.898136 0.532228 0.17781 0 0 -0.000492096
28 1 0.71057 0.417063 0.282028 0 0 0.000293732
30 1 0.647715 0.448867 0.427803 0 0 -0.000318527
31 1 0.961146 0.833696 0.0320219 0 0 0.00148773
33 1 0.835107 0.791981 0.657023 0 0 0.000354767
35 1 0.77217 0.823823 0.802805 0 0 -0.000238419
36 1 0.584531 0.708669 0.90702 0 0 0.00204849
43 1 0.898136 0.865562 0.17781 0 0 -0.000490189
44 1 0.71057 0.750396 0.282028 0 0 0.000289917
46 1 0.647715 0.782201 0.427803 0 0 -0.000312805
ITEM: TIMESTEP
1
ITEM: NUMBER OF ATOMS
48
ITEM: BOX BOUNDS xy xz yz pp pp pp
-7.5570186972618103e+00 8.6067802309989929e+00 2.5094206929206848e+00
-9.4973444938659668e-03 9.3236122131347656e+00 -7.5449815988540649e+00
-2.8691649436950684e-02 1.9545819282531738e+01 7.1304261684417725e-02
ITEM: ATOMS id type xs ys zs fx fy fz
2 1 0.523397 0.0738743 0.0527596 0 0 0.000173569
4 1 0.146799 0.948847 0.927771 0 0 -7.43866e-05
7 1 0.20987 0.250315 0.782032 0 0 0.000318527
8 1 0.0854124 0.208712 0.407036 0 0 3.24249e-05
9 1 0.397412 0.0321465 0.677795 0 0 3.8147e-06
10 1 0.0225788 0.240498 0.552794 0 0 -2.86102e-05
13 1 0.335829 0.292053 0.157032 0 0 4.3869e-05
16 1 0.523397 0.407208 0.0527596 0 0 0.000164032
18 1 0.146799 0.282181 0.927771 0 0 -6.48499e-05
21 1 0.20987 0.583648 0.782032 0 0 0.00031662
22 1 0.460286 0.333676 0.532035 0 0 3.8147e-05
23 1 0.0854127 0.542045 0.407036 0 0 2.86102e-05
24 1 0.397413 0.36548 0.677795 0 0 0
25 1 0.0225786 0.573831 0.552794 0 0 -2.86102e-05
26 1 0.272873 0.323895 0.302798 0 0 -0.000143051
29 1 0.335829 0.625387 0.157032 0 0 4.95911e-05
32 1 0.523397 0.740541 0.0527595 0 0 0.000173569
34 1 0.146799 0.615514 0.927771 0 0 -7.43866e-05
37 1 0.20987 0.916981 0.782032 0 0 0.000318527
38 1 0.460286 0.667009 0.532035 0 0 4.19617e-05
39 1 0.0854124 0.875379 0.407036 0 0 3.24249e-05
40 1 0.397412 0.698813 0.677795 0 0 0
41 1 0.0225784 0.907164 0.552794 0 0 -3.43323e-05
42 1 0.272872 0.657229 0.302798 0 0 -0.000135422
45 1 0.335829 0.95872 0.157032 0 0 4.57764e-05
47 1 0.460285 0.000342326 0.532035 0 0 4.19617e-05
48 1 0.272873 0.990562 0.302799 0 0 -0.000139236
1 1 0.961192 0.167029 0.0320588 0 0 7.62939e-05
3 1 0.835119 0.125314 0.657032 0 0 0.000139236
5 1 0.772162 0.157157 0.802799 0 0 -4.57764e-05
6 1 0.584594 0.0420022 0.907071 0 0 -0.000179291
11 1 0.898121 0.198895 0.177798 0 0 -0.000314713
12 1 0.710579 0.0837296 0.282035 0 0 0
14 1 0.647705 0.115534 0.427795 0 0 -4.00543e-05
15 1 0.961192 0.500363 0.0320588 0 0 8.7738e-05
17 1 0.835118 0.458648 0.657032 0 0 0.000141144
19 1 0.772162 0.49049 0.802799 0 0 -5.34058e-05
20 1 0.584594 0.375336 0.907071 0 0 -0.000173569
27 1 0.898121 0.532228 0.177798 0 0 -0.000320435
28 1 0.710579 0.417063 0.282036 0 0 -3.8147e-06
30 1 0.647705 0.448868 0.427795 0 0 -3.8147e-05
31 1 0.961192 0.833696 0.0320588 0 0 7.82013e-05
33 1 0.835118 0.791981 0.657032 0 0 0.000139236
35 1 0.772162 0.823823 0.802799 0 0 -5.53131e-05
36 1 0.584594 0.708669 0.907071 0 0 -0.000167847
43 1 0.898121 0.865562 0.177798 0 0 -0.000326157
44 1 0.710579 0.750396 0.282036 0 0 -1.90735e-06
46 1 0.647705 0.782201 0.427795 0 0 -4.19617e-05
ITEM: TIMESTEP
2
ITEM: NUMBER OF ATOMS
48
ITEM: BOX BOUNDS xy xz yz pp pp pp
-7.5570186972618103e+00 8.6067802309989929e+00 2.5094206929206848e+00
-9.4973444938659668e-03 9.3236122131347656e+00 -7.5449815988540649e+00
-2.8691649436950684e-02 1.9545819282531738e+01 7.1304261684417725e-02
ITEM: ATOMS id type xs ys zs fx fy fz
2 1 0.5234 0.0738743 0.0527619 0 0 -4.57764e-05
4 1 0.146796 0.948847 0.927769 0 0 0.000108719
7 1 0.209877 0.250315 0.782038 0 0 3.62396e-05
8 1 0.0854133 0.208712 0.407037 0 0 -2.67029e-05
9 1 0.397412 0.0321465 0.677795 0 0 4.00543e-05
10 1 0.022578 0.240498 0.552793 0 0 1.52588e-05
13 1 0.33583 0.292053 0.157032 0 0 2.47955e-05
16 1 0.5234 0.407208 0.0527618 0 0 -3.43323e-05
18 1 0.146796 0.282181 0.927769 0 0 0.000104904
21 1 0.209877 0.583648 0.782038 0 0 3.62396e-05
22 1 0.460287 0.333676 0.532036 0 0 4.95911e-05
23 1 0.0854135 0.542045 0.407037 0 0 -1.90735e-05
24 1 0.397412 0.36548 0.677795 0 0 4.19617e-05
25 1 0.0225779 0.573831 0.552793 0 0 1.71661e-05
26 1 0.272869 0.323895 0.302796 0 0 -8.58307e-05
29 1 0.33583 0.625387 0.157033 0 0 2.09808e-05
32 1 0.5234 0.740541 0.0527618 0 0 -3.24249e-05
34 1 0.146796 0.615514 0.927769 0 0 0.000101089
37 1 0.209877 0.916981 0.782038 0 0 3.8147e-05
38 1 0.460287 0.667009 0.532036 0 0 4.00543e-05
39 1 0.0854133 0.875379 0.407037 0 0 -2.47955e-05
40 1 0.397412 0.698813 0.677794 0 0 4.57764e-05
41 1 0.0225775 0.907164 0.552793 0 0 2.28882e-05
42 1 0.272869 0.657229 0.302796 0 0 -9.15527e-05
45 1 0.33583 0.95872 0.157032 0 0 2.47955e-05
47 1 0.460287 0.000342319 0.532036 0 0 4.3869e-05
48 1 0.272869 0.990562 0.302796 0 0 -9.34601e-05
1 1 0.961194 0.167029 0.0320608 0 0 -0.000102997
3 1 0.835122 0.125314 0.657034 0 0 8.01086e-05
5 1 0.772161 0.157157 0.802798 0 0 -2.67029e-05
6 1 0.584591 0.0420022 0.907068 0 0 4.3869e-05
11 1 0.898114 0.198895 0.177792 0 0 -3.05176e-05
12 1 0.710579 0.0837296 0.282036 0 0 -4.3869e-05
14 1 0.647704 0.115534 0.427794 0 0 -3.62396e-05
15 1 0.961195 0.500363 0.032061 0 0 -0.000108719
17 1 0.835122 0.458648 0.657034 0 0 8.7738e-05
19 1 0.772161 0.49049 0.802798 0 0 -2.28882e-05
20 1 0.584591 0.375336 0.907068 0 0 3.62396e-05
27 1 0.898114 0.532228 0.177792 0 0 -3.43323e-05
28 1 0.710579 0.417063 0.282036 0 0 -4.19617e-05
30 1 0.647704 0.448868 0.427794 0 0 -4.19617e-05
31 1 0.961194 0.833696 0.0320609 0 0 -0.000104904
33 1 0.835122 0.791981 0.657034 0 0 8.96454e-05
35 1 0.772161 0.823823 0.802798 0 0 -1.90735e-05
36 1 0.584591 0.708669 0.907068 0 0 3.24249e-05
43 1 0.898114 0.865562 0.177792 0 0 -3.05176e-05
44 1 0.710579 0.750396 0.282036 0 0 -4.19617e-05
46 1 0.647704 0.782201 0.427795 0 0 -4.19617e-05
ITEM: TIMESTEP
3
ITEM: NUMBER OF ATOMS
48
ITEM: BOX BOUNDS xy xz yz pp pp pp
-7.5570186972618103e+00 8.6067802309989929e+00 2.5094206929206848e+00
-9.4973444938659668e-03 9.3236122131347656e+00 -7.5449815988540649e+00
-2.8691649436950684e-02 1.9545819282531738e+01 7.1304261684417725e-02
ITEM: ATOMS id type xs ys zs fx fy fz
2 1 0.5234 0.0738743 0.0527619 0 0 -4.57764e-05
4 1 0.146796 0.948847 0.927769 0 0 0.000108719
7 1 0.209877 0.250315 0.782038 0 0 3.62396e-05
8 1 0.0854133 0.208712 0.407037 0 0 -2.67029e-05
9 1 0.397412 0.0321465 0.677795 0 0 4.00543e-05
10 1 0.022578 0.240498 0.552793 0 0 1.52588e-05
13 1 0.33583 0.292053 0.157032 0 0 2.47955e-05
16 1 0.5234 0.407208 0.0527618 0 0 -3.43323e-05
18 1 0.146796 0.282181 0.927769 0 0 0.000104904
21 1 0.209877 0.583648 0.782038 0 0 3.62396e-05
22 1 0.460287 0.333676 0.532036 0 0 4.95911e-05
23 1 0.0854135 0.542045 0.407037 0 0 -1.90735e-05
24 1 0.397412 0.36548 0.677795 0 0 4.19617e-05
25 1 0.0225779 0.573831 0.552793 0 0 1.71661e-05
26 1 0.272869 0.323895 0.302796 0 0 -8.58307e-05
29 1 0.33583 0.625387 0.157033 0 0 2.09808e-05
32 1 0.5234 0.740541 0.0527618 0 0 -3.24249e-05
34 1 0.146796 0.615514 0.927769 0 0 0.000101089
37 1 0.209877 0.916981 0.782038 0 0 3.8147e-05
38 1 0.460287 0.667009 0.532036 0 0 4.00543e-05
39 1 0.0854133 0.875379 0.407037 0 0 -2.47955e-05
40 1 0.397412 0.698813 0.677794 0 0 4.57764e-05
41 1 0.0225775 0.907164 0.552793 0 0 2.28882e-05
42 1 0.272869 0.657229 0.302796 0 0 -9.15527e-05
45 1 0.33583 0.95872 0.157032 0 0 2.47955e-05
47 1 0.460287 0.000342319 0.532036 0 0 4.3869e-05
48 1 0.272869 0.990562 0.302796 0 0 -9.34601e-05
1 1 0.961194 0.167029 0.0320608 0 0 -0.000102997
3 1 0.835122 0.125314 0.657034 0 0 8.01086e-05
5 1 0.772161 0.157157 0.802798 0 0 -2.67029e-05
6 1 0.584591 0.0420022 0.907068 0 0 4.3869e-05
11 1 0.898114 0.198895 0.177792 0 0 -3.05176e-05
12 1 0.710579 0.0837296 0.282036 0 0 -4.3869e-05
14 1 0.647704 0.115534 0.427794 0 0 -3.62396e-05
15 1 0.961195 0.500363 0.032061 0 0 -0.000108719
17 1 0.835122 0.458648 0.657034 0 0 8.7738e-05
19 1 0.772161 0.49049 0.802798 0 0 -2.28882e-05
20 1 0.584591 0.375336 0.907068 0 0 3.62396e-05
27 1 0.898114 0.532228 0.177792 0 0 -3.43323e-05
28 1 0.710579 0.417063 0.282036 0 0 -4.19617e-05
30 1 0.647704 0.448868 0.427794 0 0 -4.19617e-05
31 1 0.961194 0.833696 0.0320609 0 0 -0.000104904
33 1 0.835122 0.791981 0.657034 0 0 8.96454e-05
35 1 0.772161 0.823823 0.802798 0 0 -1.90735e-05
36 1 0.584591 0.708669 0.907068 0 0 3.24249e-05
43 1 0.898114 0.865562 0.177792 0 0 -3.05176e-05
44 1 0.710579 0.750396 0.282036 0 0 -4.19617e-05
46 1 0.647704 0.782201 0.427795 0 0 -4.19617e-05
