Generated by pymatgen.io.lammps.data.LammpsData

900  atoms

  4  atom types

0.000000 26.670210  xlo xhi
0.000000 26.670210  ylo yhi
0.000000 25.590800  zlo zhi

Masses

1   6.941000
2  72.640000
3  30.973762
4  32.065000

Atoms

1    1  1.958447  7.231201  9.642972
2    1  1.958447  7.231201 22.438397
3    1  1.958447 16.121288  9.642972
4    1  1.958447 16.121288 22.438397
5    1  1.958447 25.011403  9.642972
6    1  1.958447 25.011403 22.438397
7    1 10.848508  7.231201  9.642972
8    1 10.848508  7.231201 22.438397
9    1 10.848508 16.121288  9.642972
10   1 10.848508 16.121288 22.438397
11   1 10.848508 25.011403  9.642972
12   1 10.848508 25.011403 22.438397
13   1 19.738596  7.231201  9.642972
14   1 19.738596  7.231201 22.438397
15   1 19.738596 16.121288  9.642972
16   1 19.738596 16.121288 22.438397
17   1 19.738596 25.011403  9.642972
18   1 19.738596 25.011403 22.438397
19   1  1.985810  2.310707 11.763988
20   1  1.985810  2.310707 24.559388
21   1  1.985810 11.200795 11.763988
22   1  1.985810 11.200795 24.559388
23   1  1.985810 20.090803 11.763988
24   1  1.985810 20.090803 24.559388
25   1 10.875898  2.310707 11.763988
26   1 10.875898  2.310707 24.559388
27   1 10.875898 11.200795 11.763988
28   1 10.875898 11.200795 24.559388
29   1 10.875898 20.090803 11.763988
30   1 10.875898 20.090803 24.559388
31   1 19.765906  2.310707 11.763988
32   1 19.765906  2.310707 24.559388
33   1 19.765906 11.200795 11.763988
34   1 19.765906 11.200795 24.559388
35   1 19.765906 20.090803 11.763988
36   1 19.765906 20.090803 24.559388
37   1  2.018081  6.739722  3.222829
38   1  2.018081  6.739722 16.018203
39   1  2.018081 15.629810  3.222829
40   1  2.018081 15.629810 16.018203
41   1  2.018081 24.519791  3.222829
42   1  2.018081 24.519791 16.018203
43   1 10.908089  6.739722  3.222829
44   1 10.908089  6.739722 16.018203
45   1 10.908089 15.629810  3.222829
46   1 10.908089 15.629810 16.018203
47   1 10.908089 24.519791  3.222829
48   1 10.908089 24.519791 16.018203
49   1 19.798204  6.739722  3.222829
50   1 19.798204  6.739722 16.018203
51   1 19.798204 15.629810  3.222829
52   1 19.798204 15.629810 16.018203
53   1 19.798204 24.519791  3.222829
54   1 19.798204 24.519791 16.018203
55   1  2.040991  1.974022  4.718969
56   1  2.040991  1.974022 17.514395
57   1  2.040991 10.864110  4.718969
58   1  2.040991 10.864110 17.514395
59   1  2.040991 19.754198  4.718969
60   1  2.040991 19.754198 17.514395
61   1 10.931106  1.974022  4.718969
62   1 10.931106  1.974022 17.514395
63   1 10.931106 10.864110  4.718969
64   1 10.931106 10.864110 17.514395
65   1 10.931106 19.754198  4.718969
66   1 10.931106 19.754198 17.514395
67   1 19.821087  1.974022  4.718969
68   1 19.821087  1.974022 17.514395
69   1 19.821087 10.864110  4.718969
70   1 19.821087 10.864110 17.514395
71   1 19.821087 19.754198  4.718969
72   1 19.821087 19.754198 17.514395
73   1  2.127589  1.866968  8.329370
74   1  2.127589  1.866968 21.124796
75   1  2.127589 10.757002  8.329370
76   1  2.127589 10.757002 21.124796
77   1  2.127589 19.647090  8.329370
78   1  2.127589 19.647090 21.124796
79   1 11.017704  1.866968  8.329370
80   1 11.017704  1.866968 21.124796
81   1 11.017704 10.757002  8.329370
82   1 11.017704 10.757002 21.124796
83   1 11.017704 19.647090  8.329370
84   1 11.017704 19.647090 21.124796
85   1 19.907712  1.866968  8.329370
86   1 19.907712  1.866968 21.124796
87   1 19.907712 10.757002  8.329370
88   1 19.907712 10.757002 21.124796
89   1 19.907712 19.647090  8.329370
90   1 19.907712 19.647090 21.124796
91   1  2.149192  6.439389  6.231820
92   1  2.149192  6.439389 19.027195
93   1  2.149192 15.329503  6.231820
94   1  2.149192 15.329503 19.027195
95   1  2.149192 24.219511  6.231820
96   1  2.149192 24.219511 19.027195
97   1 11.039307  6.439389  6.231820
98   1 11.039307  6.439389 19.027195
99   1 11.039307 15.329503  6.231820
100  1 11.039307 15.329503 19.027195
101  1 11.039307 24.219511  6.231820
102  1 11.039307 24.219511 19.027195
103  1 19.929288  6.439389  6.231820
104  1 19.929288  6.439389 19.027195
105  1 19.929288 15.329503  6.231820
106  1 19.929288 15.329503 19.027195
107  1 19.929288 24.219511  6.231820
108  1 19.929288 24.219511 19.027195
109  1  2.196212  6.721160  0.082863
110  1  2.196212  6.721160 12.878289
111  1  2.196212 15.611194  0.082863
112  1  2.196212 15.611194 12.878289
113  1  2.196212 24.501309  0.082863
114  1  2.196212 24.501309 12.878289
115  1 11.086300  6.721160  0.082863
116  1 11.086300  6.721160 12.878289
117  1 11.086300 15.611194  0.082863
118  1 11.086300 15.611194 12.878289
119  1 11.086300 24.501309  0.082863
120  1 11.086300 24.501309 12.878289
121  1 19.976307  6.721160  0.082863
122  1 19.976307  6.721160 12.878289
123  1 19.976307 15.611194  0.082863
124  1 19.976307 15.611194 12.878289
125  1 19.976307 24.501309  0.082863
126  1 19.976307 24.501309 12.878289
127  1  2.295772  2.606720  1.996517
128  1  2.295772  2.606720 14.791892
129  1  2.295772 11.496807  1.996517
130  1  2.295772 11.496807 14.791892
131  1  2.295772 20.386895  1.996517
132  1  2.295772 20.386895 14.791892
133  1 11.185913  2.606720  1.996517
134  1 11.185913  2.606720 14.791892
135  1 11.185913 11.496807  1.996517
136  1 11.185913 11.496807 14.791892
137  1 11.185913 20.386895  1.996517
138  1 11.185913 20.386895 14.791892
139  1 20.075894  2.606720  1.996517
140  1 20.075894  2.606720 14.791892
141  1 20.075894 11.496807  1.996517
142  1 20.075894 11.496807 14.791892
143  1 20.075894 20.386895  1.996517
144  1 20.075894 20.386895 14.791892
145  1  4.119081  4.593757  9.596448
146  1  4.119081  4.593757 22.391796
147  1  4.119081 13.483791  9.596448
148  1  4.119081 13.483791 22.391796
149  1  4.119081 22.373906  9.596448
150  1  4.119081 22.373906 22.391796
151  1 13.009088  4.593757  9.596448
152  1 13.009088  4.593757 22.391796
153  1 13.009088 13.483791  9.596448
154  1 13.009088 13.483791 22.391796
155  1 13.009088 22.373906  9.596448
156  1 13.009088 22.373906 22.391796
157  1 21.899203  4.593757  9.596448
158  1 21.899203  4.593757 22.391796
159  1 21.899203 13.483791  9.596448
160  1 21.899203 13.483791 22.391796
161  1 21.899203 22.373906  9.596448
162  1 21.899203 22.373906 22.391796
163  1  4.405359  8.853976  0.631581
164  1  4.405359  8.853976 13.427007
165  1  4.405359 17.744011  0.631581
166  1  4.405359 17.744011 13.427007
167  1  4.405359 26.634099  0.631581
168  1  4.405359 26.634099 13.427007
169  1 13.295393  8.853976  0.631581
170  1 13.295393  8.853976 13.427007
171  1 13.295393 17.744011  0.631581
172  1 13.295393 17.744011 13.427007
173  1 13.295393 26.634099  0.631581
174  1 13.295393 26.634099 13.427007
175  1 22.185508  8.853976  0.631581
176  1 22.185508  8.853976 13.427007
177  1 22.185508 17.744011  0.631581
178  1 22.185508 17.744011 13.427007
179  1 22.185508 26.634099  0.631581
180  1 22.185508 26.634099 13.427007
181  1  4.575781  8.552203  7.030688
182  1  4.575781  8.552203 19.826088
183  1  4.575781 17.442291  7.030688
184  1  4.575781 17.442291 19.826088
185  1  4.575781 26.332298  7.030688
186  1  4.575781 26.332298 19.826088
187  1 13.465789  8.552203  7.030688
188  1 13.465789  8.552203 19.826088
189  1 13.465789 17.442291  7.030688
190  1 13.465789 17.442291 19.826088
191  1 13.465789 26.332298  7.030688
192  1 13.465789 26.332298 19.826088
193  1 22.355903  8.552203  7.030688
194  1 22.355903  8.552203 19.826088
195  1 22.355903 17.442291  7.030688
196  1 22.355903 17.442291 19.826088
197  1 22.355903 26.332298  7.030688
198  1 22.355903 26.332298 19.826088
199  1  6.466246  2.297879 10.944110
200  1  6.466246  2.297879 23.739510
201  1  6.466246 11.187913 10.944110
202  1  6.466246 11.187913 23.739510
203  1  6.466246 20.078001 10.944110
204  1  6.466246 20.078001 23.739510
205  1 15.356307  2.297879 10.944110
206  1 15.356307  2.297879 23.739510
207  1 15.356307 11.187913 10.944110
208  1 15.356307 11.187913 23.739510
209  1 15.356307 20.078001 10.944110
210  1 15.356307 20.078001 23.739510
211  1 24.246395  2.297879 10.944110
212  1 24.246395  2.297879 23.739510
213  1 24.246395 11.187913 10.944110
214  1 24.246395 11.187913 23.739510
215  1 24.246395 20.078001 10.944110
216  1 24.246395 20.078001 23.739510
217  1  6.568686  2.406480  1.674841
218  1  6.568686  2.406480 14.470190
219  1  6.568686 11.296487  1.674841
220  1  6.568686 11.296487 14.470190
221  1  6.568686 20.186602  1.674841
222  1  6.568686 20.186602 14.470190
223  1 15.458694  2.406480  1.674841
224  1 15.458694  2.406480 14.470190
225  1 15.458694 11.296487  1.674841
226  1 15.458694 11.296487 14.470190
227  1 15.458694 20.186602  1.674841
228  1 15.458694 20.186602 14.470190
229  1 24.348808  2.406480  1.674841
230  1 24.348808  2.406480 14.470190
231  1 24.348808 11.296487  1.674841
232  1 24.348808 11.296487 14.470190
233  1 24.348808 20.186602  1.674841
234  1 24.348808 20.186602 14.470190
235  1  6.633948  6.661792  3.673227
236  1  6.633948  6.661792 16.468601
237  1  6.633948 15.551906  3.673227
238  1  6.633948 15.551906 16.468601
239  1  6.633948 24.441887  3.673227
240  1  6.633948 24.441887 16.468601
241  1 15.524009  6.661792  3.673227
242  1 15.524009  6.661792 16.468601
243  1 15.524009 15.551906  3.673227
244  1 15.524009 15.551906 16.468601
245  1 15.524009 24.441887  3.673227
246  1 15.524009 24.441887 16.468601
247  1 24.414097  6.661792  3.673227
248  1 24.414097  6.661792 16.468601
249  1 24.414097 15.551906  3.673227
250  1 24.414097 15.551906 16.468601
251  1 24.414097 24.441887  3.673227
252  1 24.414097 24.441887 16.468601
253  1  6.631734  6.714065  0.110501
254  1  6.631734  6.714065 12.905901
255  1  6.631734 15.604100  0.110501
256  1  6.631734 15.604100 12.905901
257  1  6.631734 24.494188  0.110501
258  1  6.631734 24.494188 12.905901
259  1 15.521796  6.714065  0.110501
260  1 15.521796  6.714065 12.905901
261  1 15.521796 15.604100  0.110501
262  1 15.521796 15.604100 12.905901
263  1 15.521796 24.494188  0.110501
264  1 15.521796 24.494188 12.905901
265  1 24.411910  6.714065  0.110501
266  1 24.411910  6.714065 12.905901
267  1 24.411910 15.604100  0.110501
268  1 24.411910 15.604100 12.905901
269  1 24.411910 24.494188  0.110501
270  1 24.411910 24.494188 12.905901
271  1  6.710465  1.910067  4.521178
272  1  6.710465  1.910067 17.316603
273  1  6.710465 10.800102  4.521178
274  1  6.710465 10.800102 17.316603
275  1  6.710465 19.690189  4.521178
276  1  6.710465 19.690189 17.316603
277  1 15.600499  1.910067  4.521178
278  1 15.600499  1.910067 17.316603
279  1 15.600499 10.800102  4.521178
280  1 15.600499 10.800102 17.316603
281  1 15.600499 19.690189  4.521178
282  1 15.600499 19.690189 17.316603
283  1 24.490587  1.910067  4.521178
284  1 24.490587  1.910067 17.316603
285  1 24.490587 10.800102  4.521178
286  1 24.490587 10.800102 17.316603
287  1 24.490587 19.690189  4.521178
288  1 24.490587 19.690189 17.316603
289  1  6.771940  6.454137  8.864679
290  1  6.771940  6.454137 21.660104
291  1  6.771940 15.344199  8.864679
292  1  6.771940 15.344199 21.660104
293  1  6.771940 24.234313  8.864679
294  1  6.771940 24.234313 21.660104
295  1 15.662001  6.454137  8.864679
296  1 15.662001  6.454137 21.660104
297  1 15.662001 15.344199  8.864679
298  1 15.662001 15.344199 21.660104
299  1 15.662001 24.234313  8.864679
300  1 15.662001 24.234313 21.660104
301  1 24.552089  6.454137  8.864679
302  1 24.552089  6.454137 21.660104
303  1 24.552089 15.344199  8.864679
304  1 24.552089 15.344199 21.660104
305  1 24.552089 24.234313  8.864679
306  1 24.552089 24.234313 21.660104
307  1  6.990289  1.910547  8.017009
308  1  6.990289  1.910547 20.812409
309  1  6.990289 10.800608  8.017009
310  1  6.990289 10.800608 20.812409
311  1  6.990289 19.690696  8.017009
312  1  6.990289 19.690696 20.812409
313  1 15.880403  1.910547  8.017009
314  1 15.880403  1.910547 20.812409
315  1 15.880403 10.800608  8.017009
316  1 15.880403 10.800608 20.812409
317  1 15.880403 19.690696  8.017009
318  1 15.880403 19.690696 20.812409
319  1 24.770411  1.910547  8.017009
320  1 24.770411  1.910547 20.812409
321  1 24.770411 10.800608  8.017009
322  1 24.770411 10.800608 20.812409
323  1 24.770411 19.690696  8.017009
324  1 24.770411 19.690696 20.812409
325  1  8.584661  4.575701  5.443342
326  1  8.584661  4.575701 18.238691
327  1  8.584661 13.465789  5.443342
328  1  8.584661 13.465789 18.238691
329  1  8.584661 22.355797  5.443342
330  1  8.584661 22.355797 18.238691
331  1 17.474695  4.575701  5.443342
332  1 17.474695  4.575701 18.238691
333  1 17.474695 13.465789  5.443342
334  1 17.474695 13.465789 18.238691
335  1 17.474695 22.355797  5.443342
336  1 17.474695 22.355797 18.238691
337  1 26.364809  4.575701  5.443342
338  1 26.364809  4.575701 18.238691
339  1 26.364809 13.465789  5.443342
340  1 26.364809 13.465789 18.238691
341  1 26.364809 22.355797  5.443342
342  1 26.364809 22.355797 18.238691
343  1  8.785781  4.626295 12.173799
344  1  8.785781  4.626295 24.969199
345  1  8.785781 13.516409 12.173799
346  1  8.785781 13.516409 24.969199
347  1  8.785781 22.406390 12.173799
348  1  8.785781 22.406390 24.969199
349  1 17.675895  4.626295 12.173799
350  1 17.675895  4.626295 24.969199
351  1 17.675895 13.516409 12.173799
352  1 17.675895 13.516409 24.969199
353  1 17.675895 22.406390 12.173799
354  1 17.675895 22.406390 24.969199
355  1 26.565903  4.626295 12.173799
356  1 26.565903  4.626295 24.969199
357  1 26.565903 13.516409 12.173799
358  1 26.565903 13.516409 24.969199
359  1 26.565903 22.406390 12.173799
360  1 26.565903 22.406390 24.969199
361  2  4.516200  8.808024 10.407292
362  2  4.516200  8.808024 23.202692
363  2  4.516200 17.698111 10.407292
364  2  4.516200 17.698111 23.202692
365  2  4.516200 26.588199 10.407292
366  2  4.516200 26.588199 23.202692
367  2 13.406288  8.808024 10.407292
368  2 13.406288  8.808024 23.202692
369  2 13.406288 17.698111 10.407292
370  2 13.406288 17.698111 23.202692
371  2 13.406288 26.588199 10.407292
372  2 13.406288 26.588199 23.202692
373  2 22.296296  8.808024 10.407292
374  2 22.296296  8.808024 23.202692
375  2 22.296296 17.698111 10.407292
376  2 22.296296 17.698111 23.202692
377  2 22.296296 26.588199 10.407292
378  2 22.296296 26.588199 23.202692
379  2  8.865818  4.344524  2.332550
380  2  8.865818  4.344524 15.128001
381  2  8.865818 13.234612  2.332550
382  2  8.865818 13.234612 15.128001
383  2  8.865818 22.124699  2.332550
384  2  8.865818 22.124699 15.128001
385  2 17.755906  4.344524  2.332550
386  2 17.755906  4.344524 15.128001
387  2 17.755906 13.234612  2.332550
388  2 17.755906 13.234612 15.128001
389  2 17.755906 22.124699  2.332550
390  2 17.755906 22.124699 15.128001
391  2 26.645993  4.344524  2.332550
392  2 26.645993  4.344524 15.128001
393  2 26.645993 13.234612  2.332550
394  2 26.645993 13.234612 15.128001
395  2 26.645993 22.124699  2.332550
396  2 26.645993 22.124699 15.128001
397  3  0.084865  4.299425  8.759577
398  3  0.084865  4.299425 21.555003
399  3  0.084865 13.189512  8.759577
400  3  0.084865 13.189512 21.555003
401  3  0.084865 22.079600  8.759577
402  3  0.084865 22.079600 21.555003
403  3  8.974926  4.299425  8.759577
404  3  8.974926  4.299425 21.555003
405  3  8.974926 13.189512  8.759577
406  3  8.974926 13.189512 21.555003
407  3  8.974926 22.079600  8.759577
408  3  8.974926 22.079600 21.555003
409  3 17.864987  4.299425  8.759577
410  3 17.864987  4.299425 21.555003
411  3 17.864987 13.189512  8.759577
412  3 17.864987 13.189512 21.555003
413  3 17.864987 22.079600  8.759577
414  3 17.864987 22.079600 21.555003
415  3  4.334816  0.056301  3.985742
416  3  4.334816  0.056301 16.781090
417  3  4.334816  8.946362  3.985742
418  3  4.334816  8.946362 16.781090
419  3  4.334816 17.836396  3.985742
420  3  4.334816 17.836396 16.781090
421  3 13.224904  0.056301  3.985742
422  3 13.224904  0.056301 16.781090
423  3 13.224904  8.946362  3.985742
424  3 13.224904  8.946362 16.781090
425  3 13.224904 17.836396  3.985742
426  3 13.224904 17.836396 16.781090
427  3 22.114991  0.056301  3.985742
428  3 22.114991  0.056301 16.781090
429  3 22.114991  8.946362  3.985742
430  3 22.114991  8.946362 16.781090
431  3 22.114991 17.836396  3.985742
432  3 22.114991 17.836396 16.781090
433  3  4.373061  4.583809 12.718090
434  3  4.373061  4.583809 25.513490
435  3  4.373061 13.473897 12.718090
436  3  4.373061 13.473897 25.513490
437  3  4.373061 22.364011 12.718090
438  3  4.373061 22.364011 25.513490
439  3 13.263095  4.583809 12.718090
440  3 13.263095  4.583809 25.513490
441  3 13.263095 13.473897 12.718090
442  3 13.263095 13.473897 25.513490
443  3 13.263095 22.364011 12.718090
444  3 13.263095 22.364011 25.513490
445  3 22.153210  4.583809 12.718090
446  3 22.153210  4.583809 25.513490
447  3 22.153210 13.473897 12.718090
448  3 22.153210 13.473897 25.513490
449  3 22.153210 22.364011 12.718090
450  3 22.153210 22.364011 25.513490
451  3  8.834000  8.588208  6.416432
452  3  8.834000  8.588208 19.211807
453  3  8.834000 17.478295  6.416432
454  3  8.834000 17.478295 19.211807
455  3  8.834000 26.368410  6.416432
456  3  8.834000 26.368410 19.211807
457  3 17.724088  8.588208  6.416432
458  3 17.724088  8.588208 19.211807
459  3 17.724088 17.478295  6.416432
460  3 17.724088 17.478295 19.211807
461  3 17.724088 26.368410  6.416432
462  3 17.724088 26.368410 19.211807
463  3 26.614096  8.588208  6.416432
464  3 26.614096  8.588208 19.211807
465  3 26.614096 17.478295  6.416432
466  3 26.614096 17.478295 19.211807
467  3 26.614096 26.368410  6.416432
468  3 26.614096 26.368410 19.211807
469  4  0.006294  6.324974  1.227949
470  4  0.006294  6.324974 14.023400
471  4  0.006294 15.215088  1.227949
472  4  0.006294 15.215088 14.023400
473  4  0.006294 24.105096  1.227949
474  4  0.006294 24.105096 14.023400
475  4  8.896355  6.324974  1.227949
476  4  8.896355  6.324974 14.023400
477  4  8.896355 15.215088  1.227949
478  4  8.896355 15.215088 14.023400
479  4  8.896355 24.105096  1.227949
480  4  8.896355 24.105096 14.023400
481  4 17.786390  6.324974  1.227949
482  4 17.786390  6.324974 14.023400
483  4 17.786390 15.215088  1.227949
484  4 17.786390 15.215088 14.023400
485  4 17.786390 24.105096  1.227949
486  4 17.786390 24.105096 14.023400
487  4  0.021656  2.505053  9.794034
488  4  0.021656  2.505053 22.589409
489  4  0.021656 11.395087  9.794034
490  4  0.021656 11.395087 22.589409
491  4  0.021656 20.285202  9.794034
492  4  0.021656 20.285202 22.589409
493  4  8.911717  2.505053  9.794034
494  4  8.911717  2.505053 22.589409
495  4  8.911717 11.395087  9.794034
496  4  8.911717 11.395087 22.589409
497  4  8.911717 20.285202  9.794034
498  4  8.911717 20.285202 22.589409
499  4 17.801805  2.505053  9.794034
500  4 17.801805  2.505053 22.589409
501  4 17.801805 11.395087  9.794034
502  4 17.801805 11.395087 22.589409
503  4 17.801805 20.285202  9.794034
504  4 17.801805 20.285202 22.589409
505  4  0.057954  7.076807  4.998600
506  4  0.057954  7.076807 17.794000
507  4  0.057954 15.966895  4.998600
508  4  0.057954 15.966895 17.794000
509  4  0.057954 24.856902  4.998600
510  4  0.057954 24.856902 17.794000
511  4  8.948015  7.076807  4.998600
512  4  8.948015  7.076807 17.794000
513  4  8.948015 15.966895  4.998600
514  4  8.948015 15.966895 17.794000
515  4  8.948015 24.856902  4.998600
516  4  8.948015 24.856902 17.794000
517  4 17.838103  7.076807  4.998600
518  4 17.838103  7.076807 17.794000
519  4 17.838103 15.966895  4.998600
520  4 17.838103 15.966895 17.794000
521  4 17.838103 24.856902  4.998600
522  4 17.838103 24.856902 17.794000
523  4  0.079077  2.636484  0.876946
524  4  0.079077  2.636484 13.672397
525  4  0.079077 11.526598  0.876946
526  4  0.079077 11.526598 13.672397
527  4  0.079077 20.416606  0.876946
528  4  0.079077 20.416606 13.672397
529  4  8.969138  2.636484  0.876946
530  4  8.969138  2.636484 13.672397
531  4  8.969138 11.526598  0.876946
532  4  8.969138 11.526598 13.672397
533  4  8.969138 20.416606  0.876946
534  4  8.969138 20.416606 13.672397
535  4 17.859199  2.636484  0.876946
536  4 17.859199  2.636484 13.672397
537  4 17.859199 11.526598  0.876946
538  4 17.859199 11.526598 13.672397
539  4 17.859199 20.416606  0.876946
540  4 17.859199 20.416606 13.672397
541  4  1.692518  8.462831  7.520701
542  4  1.692518  8.462831 20.316101
543  4  1.692518 17.352892  7.520701
544  4  1.692518 17.352892 20.316101
545  4  1.692518 26.243007  7.520701
546  4  1.692518 26.243007 20.316101
547  4 10.582606  8.462831  7.520701
548  4 10.582606  8.462831 20.316101
549  4 10.582606 17.352892  7.520701
550  4 10.582606 17.352892 20.316101
551  4 10.582606 26.243007  7.520701
552  4 10.582606 26.243007 20.316101
553  4 19.472694  8.462831  7.520701
554  4 19.472694  8.462831 20.316101
555  4 19.472694 17.352892  7.520701
556  4 19.472694 17.352892 20.316101
557  4 19.472694 26.243007  7.520701
558  4 19.472694 26.243007 20.316101
559  4  1.729990  4.248511  3.710129
560  4  1.729990  4.248511 16.505503
561  4  1.729990 13.138599  3.710129
562  4  1.729990 13.138599 16.505503
563  4  1.729990 22.028607  3.710129
564  4  1.729990 22.028607 16.505503
565  4 10.620104  4.248511  3.710129
566  4 10.620104  4.248511 16.505503
567  4 10.620104 13.138599  3.710129
568  4 10.620104 13.138599 16.505503
569  4 10.620104 22.028607  3.710129
570  4 10.620104 22.028607 16.505503
571  4 19.510112  4.248511  3.710129
572  4 19.510112  4.248511 16.505503
573  4 19.510112 13.138599  3.710129
574  4 19.510112 13.138599 16.505503
575  4 19.510112 22.028607  3.710129
576  4 19.510112 22.028607 16.505503
577  4  1.846032  4.326788  7.676344
578  4  1.846032  4.326788 20.471693
579  4  1.846032 13.216903  7.676344
580  4  1.846032 13.216903 20.471693
581  4  1.846032 22.106910  7.676344
582  4  1.846032 22.106910 20.471693
583  4 10.736093  4.326788  7.676344
584  4 10.736093  4.326788 20.471693
585  4 10.736093 13.216903  7.676344
586  4 10.736093 13.216903 20.471693
587  4 10.736093 22.106910  7.676344
588  4 10.736093 22.106910 20.471693
589  4 19.626207  4.326788  7.676344
590  4 19.626207  4.326788 20.471693
591  4 19.626207 13.216903  7.676344
592  4 19.626207 13.216903 20.471693
593  4 19.626207 22.106910  7.676344
594  4 19.626207 22.106910 20.471693
595  4  2.574662  8.792341 11.570112
596  4  2.574662  8.792341 24.365512
597  4  2.574662 17.682403 11.570112
598  4  2.574662 17.682403 24.365512
599  4  2.574662 26.572490 11.570112
600  4  2.574662 26.572490 24.365512
601  4 11.464697  8.792341 11.570112
602  4 11.464697  8.792341 24.365512
603  4 11.464697 17.682403 11.570112
604  4 11.464697 17.682403 24.365512
605  4 11.464697 26.572490 11.570112
606  4 11.464697 26.572490 24.365512
607  4 20.354811  8.792341 11.570112
608  4 20.354811  8.792341 24.365512
609  4 20.354811 17.682403 11.570112
610  4 20.354811 17.682403 24.365512
611  4 20.354811 26.572490 11.570112
612  4 20.354811 26.572490 24.365512
613  4  2.652112  0.268169  2.806748
614  4  2.652112  0.268169 15.602097
615  4  2.652112  9.158230  2.806748
616  4  2.652112  9.158230 15.602097
617  4  2.652112 18.048291  2.806748
618  4  2.652112 18.048291 15.602097
619  4 11.542200  0.268169  2.806748
620  4 11.542200  0.268169 15.602097
621  4 11.542200  9.158230  2.806748
622  4 11.542200  9.158230 15.602097
623  4 11.542200 18.048291  2.806748
624  4 11.542200 18.048291 15.602097
625  4 20.432288  0.268169  2.806748
626  4 20.432288  0.268169 15.602097
627  4 20.432288  9.158230  2.806748
628  4 20.432288  9.158230 15.602097
629  4 20.432288 18.048291  2.806748
630  4 20.432288 18.048291 15.602097
631  4  2.682490  4.711746 11.526199
632  4  2.682490  4.711746 24.321599
633  4  2.682490 13.601807 11.526199
634  4  2.682490 13.601807 24.321599
635  4  2.682490 22.491895 11.526199
636  4  2.682490 22.491895 24.321599
637  4 11.572604  4.711746 11.526199
638  4 11.572604  4.711746 24.321599
639  4 11.572604 13.601807 11.526199
640  4 11.572604 13.601807 24.321599
641  4 11.572604 22.491895 11.526199
642  4 11.572604 22.491895 24.321599
643  4 20.462612  4.711746 11.526199
644  4 20.462612  4.711746 24.321599
645  4 20.462612 13.601807 11.526199
646  4 20.462612 13.601807 24.321599
647  4 20.462612 22.491895 11.526199
648  4 20.462612 22.491895 24.321599
649  4  4.295051  7.089582  4.878860
650  4  4.295051  7.089582 17.674312
651  4  4.295051 15.979696  4.878860
652  4  4.295051 15.979696 17.674312
653  4  4.295051 24.869704  4.878860
654  4  4.295051 24.869704 17.674312
655  4 13.185112  7.089582  4.878860
656  4 13.185112  7.089582 17.674312
657  4 13.185112 15.979696  4.878860
658  4 13.185112 15.979696 17.674312
659  4 13.185112 24.869704  4.878860
660  4 13.185112 24.869704 17.674312
661  4 22.075200  7.089582  4.878860
662  4 22.075200  7.089582 17.674312
663  4 22.075200 15.979696  4.878860
664  4 22.075200 15.979696 17.674312
665  4 22.075200 24.869704  4.878860
666  4 22.075200 24.869704 17.674312
667  4  4.333322  2.762660  0.845059
668  4  4.333322  2.762660 13.640511
669  4  4.333322 11.652695  0.845059
670  4  4.333322 11.652695 13.640511
671  4  4.333322 20.542809  0.845059
672  4  4.333322 20.542809 13.640511
673  4 13.223410  2.762660  0.845059
674  4 13.223410  2.762660 13.640511
675  4 13.223410 11.652695  0.845059
676  4 13.223410 11.652695 13.640511
677  4 13.223410 20.542809  0.845059
678  4 13.223410 20.542809 13.640511
679  4 22.113391  2.762660  0.845059
680  4 22.113391  2.762660 13.640511
681  4 22.113391 11.652695  0.845059
682  4 22.113391 11.652695 13.640511
683  4 22.113391 20.542809  0.845059
684  4 22.113391 20.542809 13.640511
685  4  4.402825  7.056618  8.984597
686  4  4.402825  7.056618 21.779997
687  4  4.402825 15.946705  8.984597
688  4  4.402825 15.946705 21.779997
689  4  4.402825 24.836793  8.984597
690  4  4.402825 24.836793 21.779997
691  4 13.292913  7.056618  8.984597
692  4 13.292913  7.056618 21.779997
693  4 13.292913 15.946705  8.984597
694  4 13.292913 15.946705 21.779997
695  4 13.292913 24.836793  8.984597
696  4 13.292913 24.836793 21.779997
697  4 22.183001  7.056618  8.984597
698  4 22.183001  7.056618 21.779997
699  4 22.183001 15.946705  8.984597
700  4 22.183001 15.946705 21.779997
701  4 22.183001 24.836793  8.984597
702  4 22.183001 24.836793 21.779997
703  4  4.378022  6.157298  1.235473
704  4  4.378022  6.157298 14.030898
705  4  4.378022 15.047412  1.235473
706  4  4.378022 15.047412 14.030898
707  4  4.378022 23.937500  1.235473
708  4  4.378022 23.937500 14.030898
709  4 13.268109  6.157298  1.235473
710  4 13.268109  6.157298 14.030898
711  4 13.268109 15.047412  1.235473
712  4 13.268109 15.047412 14.030898
713  4 13.268109 23.937500  1.235473
714  4 13.268109 23.937500 14.030898
715  4 22.158197  6.157298  1.235473
716  4 22.158197  6.157298 14.030898
717  4 22.158197 15.047412  1.235473
718  4 22.158197 15.047412 14.030898
719  4 22.158197 23.937500  1.235473
720  4 22.158197 23.937500 14.030898
721  4  4.393650  1.577143  5.371688
722  4  4.393650  1.577143 18.167088
723  4  4.393650 10.467204  5.371688
724  4  4.393650 10.467204 18.167088
725  4  4.393650 19.357292  5.371688
726  4  4.393650 19.357292 18.167088
727  4 13.283712  1.577143  5.371688
728  4 13.283712  1.577143 18.167088
729  4 13.283712 10.467204  5.371688
730  4 13.283712 10.467204 18.167088
731  4 13.283712 19.357292  5.371688
732  4 13.283712 19.357292 18.167088
733  4 22.173799  1.577143  5.371688
734  4 22.173799  1.577143 18.167088
735  4 22.173799 10.467204  5.371688
736  4 22.173799 10.467204 18.167088
737  4 22.173799 19.357292  5.371688
738  4 22.173799 19.357292 18.167088
739  4  4.607572  1.816641  9.163042
740  4  4.607572  1.816641 21.958391
741  4  4.607572 10.706702  9.163042
742  4  4.607572 10.706702 21.958391
743  4  4.607572 19.596790  9.163042
744  4  4.607572 19.596790 21.958391
745  4 13.497713  1.816641  9.163042
746  4 13.497713  1.816641 21.958391
747  4 13.497713 10.706702  9.163042
748  4 13.497713 10.706702 21.958391
749  4 13.497713 19.596790  9.163042
750  4 13.497713 19.596790 21.958391
751  4 22.387694  1.816641  9.163042
752  4 22.387694  1.816641 21.958391
753  4 22.387694 10.706702  9.163042
754  4 22.387694 10.706702 21.958391
755  4 22.387694 19.596790  9.163042
756  4 22.387694 19.596790 21.958391
757  4  6.050351  4.694037 11.508695
758  4  6.050351  4.694037 24.304095
759  4  6.050351 13.584098 11.508695
760  4  6.050351 13.584098 24.304095
761  4  6.050351 22.474213 11.508695
762  4  6.050351 22.474213 24.304095
763  4 14.940412  4.694037 11.508695
764  4 14.940412  4.694037 24.304095
765  4 14.940412 13.584098 11.508695
766  4 14.940412 13.584098 24.304095
767  4 14.940412 22.474213 11.508695
768  4 14.940412 22.474213 24.304095
769  4 23.830499  4.694037 11.508695
770  4 23.830499  4.694037 24.304095
771  4 23.830499 13.584098 11.508695
772  4 23.830499 13.584098 24.304095
773  4 23.830499 22.474213 11.508695
774  4 23.830499 22.474213 24.304095
775  4  6.049897  0.138232  2.828474
776  4  6.049897  0.138232 15.623900
777  4  6.049897  9.028319  2.828474
778  4  6.049897  9.028319 15.623900
779  4  6.049897 17.918407  2.828474
780  4  6.049897 17.918407 15.623900
781  4 14.940012  0.138232  2.828474
782  4 14.940012  0.138232 15.623900
783  4 14.940012  9.028319  2.828474
784  4 14.940012  9.028319 15.623900
785  4 14.940012 17.918407  2.828474
786  4 14.940012 17.918407 15.623900
787  4 23.829993  0.138232  2.828474
788  4 23.829993  0.138232 15.623900
789  4 23.829993  9.028319  2.828474
790  4 23.829993  9.028319 15.623900
791  4 23.829993 17.918407  2.828474
792  4 23.829993 17.918407 15.623900
793  4  6.265366  8.851123 11.758589
794  4  6.265366  8.851123 24.553989
795  4  6.265366 17.741210 11.758589
796  4  6.265366 17.741210 24.553989
797  4  6.265366 26.631191 11.758589
798  4  6.265366 26.631191 24.553989
799  4 15.155400  8.851123 11.758589
800  4 15.155400  8.851123 24.553989
801  4 15.155400 17.741210 11.758589
802  4 15.155400 17.741210 24.553989
803  4 15.155400 26.631191 11.758589
804  4 15.155400 26.631191 24.553989