LAMMPS (4 May 2022)
## variable
variable        temp            equal 1000
variable        eql_step        equal 500000
variable        rd_seed         equal 1

variable        temp_damp       equal 0.2 # tau_NVT = timestep * 100
variable        t_step          equal 0.002
variable        rlx_step        equal 20000

variable        thermo_freq     equal 100
variable        dump_freq       equal 100

## units
dimension       3
boundary        p p p
units           metal
atom_style      atomic
neighbor        1.0 bin
neigh_modify    every 10 delay 0 check no

## data.lmp, potential
read_data       data.lmp
Reading data file ...
  orthogonal box = (0 0 0) to (26.67021 26.67021 25.5908)
  1 by 1 by 1 MPI processor grid
  reading atoms ...
  900 atoms
  read_data CPU = 0.001 seconds
pair_style      nvnmd model.pb
pair_coeff * *

## velocity, timestep
velocity        all create ${temp} ${rd_seed} loop geom
velocity        all create 1000 ${rd_seed} loop geom
velocity        all create 1000 1 loop geom
timestep        ${t_step}
timestep        0.002

## nvt-relax
fix             equil all nvt temp ${temp} ${temp} ${temp_damp}
fix             equil all nvt temp 1000 ${temp} ${temp_damp}
fix             equil all nvt temp 1000 1000 ${temp_damp}
fix             equil all nvt temp 1000 1000 0.2
run             ${rlx_step}
run             20000
Generated 0 of 6 mixed pair_coeff terms from geometric mixing rule
Neighbor list info ...
  update every 10 steps, delay 0 steps, check no
  max neighbors/atom: 2000, page size: 100000
  master list distance cutoff = 8
  ghost atom cutoff = 8
  binsize = 4, bins = 7 7 7
  1 neighbor lists, perpetual/occasional/extra = 1 0 0
  (1) pair nvnmd, perpetual
      attributes: full, newton on
      pair build: full/bin/atomonly
      stencil: full/bin/3d
      bin: standard
Per MPI rank memory allocation (min/avg/max) = 2.672 | 2.672 | 2.672 Mbytes
   Step          Temp          E_pair         E_mol          TotEng         Press     
         0   1000           198.43733      0              314.6422       4100.7571    
     20000   1048.2063      315.10793      0              436.91461      14618.128    
Loop time of 12.0227 on 1 procs for 20000 steps with 900 atoms

Performance: 287.457 ns/day, 0.083 hours/ns, 1663.524 timesteps/s
53.7% CPU use with 1 MPI tasks x no OpenMP threads

MPI task timing breakdown:
Section |  min time  |  avg time  |  max time  |%varavg| %total
---------------------------------------------------------------
Pair    | 7.6831     | 7.6831     | 7.6831     |   0.0 | 63.91
Neigh   | 4.0492     | 4.0492     | 4.0492     |   0.0 | 33.68
Comm    | 0.14022    | 0.14022    | 0.14022    |   0.0 |  1.17
Output  | 1.662e-05  | 1.662e-05  | 1.662e-05  |   0.0 |  0.00
Modify  | 0.12722    | 0.12722    | 0.12722    |   0.0 |  1.06
Other   |            | 0.0229     |            |       |  0.19

Nlocal:            900 ave         900 max         900 min
Histogram: 1 0 0 0 0 0 0 0 0 0
Nghost:           2801 ave        2801 max        2801 min
Histogram: 1 0 0 0 0 0 0 0 0 0
Neighs:              0 ave           0 max           0 min
Histogram: 1 0 0 0 0 0 0 0 0 0
FullNghs:        94588 ave       94588 max       94588 min
Histogram: 1 0 0 0 0 0 0 0 0 0

Total # of neighbors = 94588
Ave neighs/atom = 105.09778
Neighbor list builds = 2000
Dangerous builds not checked
unfix           equil

## nvt-equal
reset_timestep  0
fix             equil all nvt temp ${temp} ${temp} ${temp_damp}
fix             equil all nvt temp 1000 ${temp} ${temp_damp}
fix             equil all nvt temp 1000 1000 ${temp_damp}
fix             equil all nvt temp 1000 1000 0.2
fix             com all recenter INIT INIT INIT

## thermo_style
thermo_style    custom step time temp ke etotal press
thermo          ${thermo_freq}
thermo          100
thermo_modify   flush yes
dump            1 all custom ${dump_freq} dump.lammpstraj id type x y z
dump            1 all custom 100 dump.lammpstraj id type x y z
run             500000
Generated 0 of 6 mixed pair_coeff terms from geometric mixing rule
Per MPI rank memory allocation (min/avg/max) = 3.956 | 3.956 | 3.956 Mbytes
   Step          Time           Temp          KinEng         TotEng         Press     
         0   0              1048.2063      121.80668      436.91461      14618.128    
       100   0.2            997.62646      115.92905      436.44176      16914.595    
       200   0.4            1002.5715      116.50369      437.72473      15000.734    
       300   0.6            1027.5761      119.40935      437.86655      11836.451    
       400   0.8            996.69831      115.8212       434.98928      12855.157    
       500   1              959.35115      111.48128      431.67744      13628.259    
       600   1.2            1033.3544      120.08081      432.75196      15041.339    
       700   1.4            965.40305      112.18454      440.12194      14726.464    
       800   1.6            1002.3578      116.47885      443.2131       15755.949    
       900   1.8            985.11873      114.47559      439.66553      13320.481    
      1000   2              986.66552      114.65534      434.82516      15269.286    
      1100   2.2            1005.0812      116.79533      434.52008      16367.776    
      1200   2.4            984.5137       114.40529      435.71164      17551.329    
      1300   2.6            1009.0233      117.25342      438.48655      16518.549    
      1400   2.8            1015.039       117.95247      442.35533      14077.335    
      1500   3              992.32626      115.31314      440.53848      16049.561    
      1600   3.2            994.7373       115.59332      433.92865      15116.371    
      1700   3.4            956.31355      111.12829      431.07932      10933.094    
      1800   3.6            991.05759      115.16572      432.80235      13991.043    
      1900   3.8            1002.6149      116.50873      439.47736      13958.56     
      2000   4              1000.3807      116.24911      444.655        16981.942    
      2100   4.2            1014.9196      117.9386       441.02883      16311.098    
      2200   4.4            1046.0838      121.56003      435.12419      13986.413    
      2300   4.6            1026.3952      119.27213      432.37711      14651.881    
      2400   4.8            996.02946      115.74347      431.76558      14352.085    
      2500   5              1001.7171      116.4044       435.86522      13502.132    
      2600   5.2            1039.1683      120.75642      442.39946      14159.873    
      2700   5.4            1023.176       118.89803      439.92774      14560.291    
      2800   5.6            991.03367      115.16294      433.83899      13477.933    
      2900   5.8            991.9168       115.26556      433.20254      12147.154    
      3000   6              984.5798       114.41297      435.35229      12404.057    
      3100   6.2            1014.6489      117.90714      439.95296      15373.263    
      3200   6.4            1033.14        120.0559       442.71344      15968.784    
      3300   6.6            1024.3645      119.03615      440.82054      13677.544    
      3400   6.8            1015.0694      117.956        439.92085      17425.231    
      3500   7              983.22365      114.25538      436.12848      14584.444    
      3600   7.2            979.07236      113.77298      432.35377      14634.904    
      3700   7.4            1028.5577      119.52342      433.09816      14405.486    
      3800   7.6            1012.6697      117.67715      439.87069      15738.041    
      3900   7.8            1025.3804      119.15419      443.62175      14943.674    
      4000   8              998.1315       115.98774      439.68924      14786.624    
      4100   8.2            1002.4051      116.48435      435.10322      15014.281    
      4200   8.4            968.02118      112.48878      433.51142      14914.572    
      4300   8.6            1007.6625      117.0953       434.9126       12583.708    
      4400   8.8            966.07801      112.26297      434.61502      13915.705    
      4500   9              995.03581      115.62801      436.46827      15857.194    
      4600   9.2            1060.6146      123.24858      442.98843      13956.353    
      4700   9.4            1032.0969      119.93469      444.67976      16062.696    
      4800   9.6            989.60217      114.99659      437.54575      15329.74     
      4900   9.8            976.14126      113.43237      433.62764      17750.405    
      5000   10             986.6062       114.64845      433.72997      13177.676    
      5100   10.2           992.76864      115.36455      435.53175      11988.075    
      5200   10.4           1042.8185      121.18058      442.11179      12089.742    
      5300   10.6           1002.7192      116.52085      445.86341      14076.416    
      5400   10.8           1036.1248      120.40275      440.1926       14720.576    
      5500   11             981.38064      114.04121      434.8746       16468.682    
      5600   11.2           971.30922      112.87086      433.62064      15078.687    
      5700   11.4           973.92944      113.17534      433.3017       12500.42     
      5800   11.6           983.63013      114.30261      433.09929      16048.737    
      5900   11.8           1012.9572      117.71057      433.5057       13723.859    
      6000   12             1010.6621      117.44386      435.00016      13735.294    
      6100   12.2           1030.9973      119.80691      439.15963      16277.974    
      6200   12.4           1019.8939      118.51663      441.33989      14561.113    
      6300   12.6           1024.3767      119.03756      436.08667      15138.67     
      6400   12.8           976.44062      113.46716      429.09817      14541.737    
      6500   13             1029.6173      119.64655      430.61569      16516.506    
      6600   13.2           991.39853      115.20534      434.68498      16068.082    
      6700   13.4           1028.2298      119.48531      437.90465      17857.175    
      6800   13.6           992.61479      115.34667      435.1619       18495.255    
      6900   13.8           954.00438      110.85995      425.59991      11256.266    
      7000   14             973.5651       113.13301      428.49967      14351.712    
      7100   14.2           984.48146      114.40154      434.92765      18260.417    
      7200   14.4           1038.943       120.73024      437.5798       13904.562    
      7300   14.6           1002.6748      116.5157       437.13682      13372.744    
      7400   14.8           1029.2566      119.60463      434.54008      15489.552    
      7500   15             970.58387      112.78657      428.12822      13577.768    
      7600   15.2           979.39977      113.81102      427.92869      11393.82     
      7700   15.4           1025.8982      119.21437      434.70803      15965.843    
      7800   15.6           1054.9674      122.59236      437.73544      16827.87     
      7900   15.8           980.45179      113.93327      436.02538      13986.681    
      8000   16             989.96774      115.03907      434.03423      12732.139    
      8100   16.2           1038.1893      120.64265      433.21127      11236.033    
      8200   16.4           990.31747      115.07971      431.40848      14250.334    
      8300   16.6           977.5669       113.59804      430.41952      15586.242    
      8400   16.8           988.61192      114.88152      431.9356       14045.467    
      8500   17             1048.9315      121.89095      438.07472      14280.915    
      8600   17.2           1002.226       116.46354      439.39448      14948.138    
      8700   17.4           1005.5345      116.84801      434.40339      16059.192    
      8800   17.6           944.13278      109.71283      428.21092      13288.793    
      8900   17.8           977.71397      113.61513      431.06385      13192.288    
      9000   18             975.9632       113.41168      435.98927      14679.726    
      9100   18.2           983.37676      114.27317      439.83675      13417.05     
      9200   18.4           1045.5932      121.50303      442.12041      15549.91     
      9300   18.6           981.06517      114.00455      434.3759       13676.771    
      9400   18.8           993.84475      115.4896       430.13094      14962.515    
      9500   19             974.45393      113.23629      431.68989      12727.171    
      9600   19.2           1011.2803      117.5157       436.53608      14297.675    
      9700   19.4           1052.7795      122.33811      440.50133      13696.26     
      9800   19.6           1018.2955      118.3309       439.26213      13279.599    
      9900   19.8           963.45811      111.95852      429.13448      15636.459    
     10000   20             946.64201      110.00441      429.30188      13922.028    
     10100   20.2           1012.1554      117.61739      434.618        14021.155    
     10200   20.4           1005.2262      116.81218      438.03657      11187.073    
     10300   20.6           1008.0743      117.14315      438.39942      13400.678    
     10400   20.8           1020.4421      118.58034      438.6348       16372.441    
     10500   21             1059.7277      123.14553      437.10616      14474.125    
     10600   21.2           990.96836      115.15535      431.94313      13414.495    
     10700   21.4           1006.7585      116.99024      429.75497      16142.652    
     10800   21.6           989.56273      114.99201      431.95121      12440.449    
     10900   21.8           995.14075      115.6402       440.28419      13121.728    
     11000   22             1013.2814      117.74823      441.12465      14397.888    
     11100   22.2           1003.7067      116.63561      436.42384      11558.083    
     11200   22.4           1010.7182      117.45038      432.83858      14427.299    
     11300   22.6           975.51006      113.35902      431.56274      16876.134    
     11400   22.8           990.22055      115.06845      433.06718      12333.006    
     11500   23             979.70494      113.84649      433.72793      14813.977    
     11600   23.2           969.85549      112.70193      433.10008      14719.377    
     11700   23.4           985.40057      114.50835      431.09288      15524.355    
     11800   23.6           1030.0983      119.70244      432.89723      15602.927    
     11900   23.8           976.9821       113.53008      437.06478      11024.362    
     12000   24             996.7002       115.82142      440.09282      15623.839    
     12100   24.2           1024.4483      119.04588      440.03283      14979.933    
     12200   24.4           1040.0729      120.86153      434.70428      15669.943    
     12300   24.6           946.64177      110.00438      428.91219      14020.007    
     12400   24.8           967.60447      112.44035      430.76343      12745.355    
     12500   25             1023.5363      118.9399       435.19806      15286.657    
     12600   25.2           1005.7291      116.87062      438.26677      17520.397    
     12700   25.4           1021.8492      118.74385      439.28687      14401.774    
     12800   25.6           1019.2661      118.44368      436.27528      14495.313    
     12900   25.8           990.76661      115.13191      432.00099      13917.95     
     13000   26             990.0004       115.04287      429.2794       13033.719    
     13100   26.2           950.60807      110.46529      429.68921      14478.587    
     13200   26.4           1019.1644      118.43187      436.90833      13743.214    
     13300   26.6           994.60292      115.5777       440.47635      17002.241    
     13400   26.8           1036.2537      120.41772      439.45507      13739.123    
     13500   27             971.25881      112.865        434.5586       13366.928    
     13600   27.2           999.26783      116.11979      431.26196      12823.481    
     13700   27.4           959.40581      111.48763      421.86759      12417.348    
     13800   27.6           974.3255       113.22137      423.46224      15629.102    
     13900   27.8           1007.3491      117.05887      429.79786      12212.106    
     14000   28             998.99177      116.08771      434.13258      13102.63     
     14100   28.2           1017.3194      118.21747      438.20836      18131.68     
     14200   28.4           1025.5373      119.17243      441.12266      16256.231    
     14300   28.6           1027.3527      119.38339      436.86114      12056.989    
     14400   28.8           974.00137      113.1837       428.83451      13593.048    
     14500   29             937.89578      108.98806      430.05071      16303.976    
     14600   29.2           965.36445      112.18005      435.80174      13841.447    
     14700   29.4           1040.3858      120.8979       438.16607      13200.719    
     14800   29.6           979.23924      113.79237      436.5381       15683.874    
     14900   29.8           997.00699      115.85707      433.20871      12449.59     
     15000   30             958.26599      111.35517      424.30611      14183.971    
     15100   30.2           953.39123      110.7887       425.51085      12011.603    
     15200   30.4           959.4159       111.4888       431.54554      14098.182    
     15300   30.6           1005.0105      116.78712      434.62265      13274        
     15400   30.8           1019.1148      118.4261       435.24033      13151.582    
     15500   31             993.35002      115.43211      433.70239      16889.035    
     15600   31.2           957.08035      111.2174       427.42546      14222.418    
     15700   31.4           983.03159      114.23306      425.37058      14312.293    
     15800   31.6           991.90406      115.26408      431.91086      14190.857    
     15900   31.8           1023.9235      118.9849       437.12566      13583.424    
     16000   32             1000.8429      116.30282      436.84582      15521.843    
     16100   32.2           1030.5846      119.75895      434.02714      12838.13     
     16200   32.4           1036.2338      120.41542      429.43812      16255.638    
     16300   32.6           949.70706      110.36059      425.44844      14349.371    
     16400   32.8           1009.6941      117.33137      432.24408      14408.196    
     16500   33             1018.4804      118.35238      438.55434      15842.626    
     16600   33.2           1028.4214      119.50758      438.82624      16928.736    
     16700   33.4           998.65713      116.04882      435.71891      12986.996    
     16800   33.6           981.78327      114.088        432.01361      14687.98     
     16900   33.8           998.73843      116.05827      428.81513      11593.21     
     17000   34             994.77088      115.59722      428.7716       11692.344    
     17100   34.2           1037.5064      120.5633       435.20526      13737.37     
     17200   34.4           1007.4624      117.07203      438.7231       14611.137    
     17300   34.6           999.18361      116.11         437.72754      15106.715    
     17400   34.8           990.26478      115.07359      430.80997      14349.905    
     17500   35             990.11905      115.05666      426.27413      12871.199    
     17600   35.2           990.42852      115.09262      429.02867      14636.597    
     17700   35.4           974.77601      113.27372      433.45887      13091.214    
     17800   35.6           1009.0393      117.25528      436.07138      13835.639    
     17900   35.8           1022.2038      118.78506      437.30755      13587.889    
     18000   36             987.69218      114.77464      437.38464      11555.857    
     18100   36.2           983.36751      114.27209      433.0722       12676.775    
     18200   36.4           961.10471      111.68505      427.39036      13097.704    
     18300   36.6           957.86246      111.30828      430.43393      11872.749    
     18400   36.8           995.82562      115.71979      437.03974      15875.299    
     18500   37             1004.7607      116.75809      437.82503      14330.443    
     18600   37.2           1011.5944      117.5522       436.97614      14051.334    
     18700   37.4           972.54089      113.01399      434.4493       14034.36     
     18800   37.6           982.9577       114.22447      431.34225      15667.19     
     18900   37.8           988.47229      114.86529      431.07612      14030.287    
     19000   38             984.06075      114.35265      435.18257      16254.99     
     19100   38.2           1040.8259      120.94904      441.48125      15212.253    
     19200   38.4           1025.2818      119.14274      441.13092      12609.056    
     19300   38.6           998.39476      116.01833      435.94288      14847.097    
     19400   38.8           949.46376      110.33231      432.75835      18056.409    
     19500   39             1055.7388      122.68199      434.18421      17182.017    
     19600   39.2           1015.9474      118.05803      435.62964      9309.1429    
     19700   39.4           1020.71        118.61147      437.18511      11671.367    
     19800   39.6           1027.7135      119.42531      440.25466      13559.726    
     19900   39.8           1043.4102      121.24935      438.60608      14208.054    
     20000   40             986.71603      114.66121      432.1          12760.987    
     20100   40.2           996.82403      115.83581      429.41871      11391.645    
     20200   40.4           1007.7603      117.10666      432.87661      15963.635    
     20300   40.6           997.06519      115.86383      438.76059      13715.19     
     20400   40.8           1064.1036      123.65402      445.30269      13429.338    
     20500   41             1083.8836      125.95255      454.04294      14291.457    
     20600   41.2           1099.1894      127.73116      454.73206      15312.956    
     20700   41.4           1026.4397      119.2773       445.05771      16491.536    
     20800   41.6           986.57225      114.6445       437.81736      13252.489    
     20900   41.8           961.23358      111.70002      433.47422      13255.075    
     21000   42             980.69674      113.96174      434.78092      13466.665    
     21100   42.2           1016.0461      118.06951      437.92985      14697.832    
     21200   42.4           1001.8951      116.42509      440.14707      14087.801    
     21300   42.6           1045.3526      121.47507      441.60116      13136.523    
     21400   42.8           1034.7453      120.24244      439.87385      14917.526    
     21500   43             989.16131      114.94536      434.577        15196.803    
     21600   43.2           972.25487      112.98075      430.72244      12822.321    
     21700   43.4           956.72574      111.17619      431.54769      14785.049    
     21800   43.6           1020.4461      118.5808       440.66373      14875.715    
     21900   43.8           1034.7828      120.2468       441.13689      15650.673    
     22000   44             1005.6437      116.86069      437.49342      12636.573    
     22100   44.2           959.60039      111.51024      433.30427      15387.55     
     22200   44.4           990.53123      115.10455      431.9066       14130.112    
     22300   44.6           971.43086      112.885        436.91159      13207.155    
     22400   44.8           1052.6815      122.32671      444.13774      14179.98     
     22500   45             974.55622      113.24818      440.94947      13888.888    
     22600   45.2           1009.263       117.28128      434.85798      16143.777    
     22700   45.4           943.26392      109.61186      431.60899      12381.848    
     22800   45.6           964.87163      112.12278      432.89498      13234.906    
     22900   45.8           1026.1914      119.24844      437.56094      13541.441    
     23000   46             976.32828      113.4541       440.57919      10168.617    
     23100   46.2           1032.5652      119.98911      446.83998      15208.026    
     23200   46.4           1029.8133      119.66932      446.56666      14163.772    
     23300   46.6           1047.7808      121.75724      438.07686      15027.962    
     23400   46.8           967.86247      112.47033      433.42754      16327.694    
     23500   47             1014.9676      117.94418      433.3898       13502.619    
     23600   47.2           1022.7356      118.84686      436.64646      16763.001    
     23700   47.4           1059.8938      123.16482      442.46823      16830.567    
     23800   47.6           1025.0285      119.11331      443.36412      13810.793    
     23900   47.8           1005.1651      116.80508      433.65804      12839.644    
     24000   48             1007.0628      117.0256       431.29892      12195.193    
     24100   48.2           1016.6505      118.13974      433.04865      10986.952    
     24200   48.4           983.7834       114.32042      437.56193      15464.066    
     24300   48.6           1035.7315      120.35705      441.39602      17349.492    
     24400   48.8           959.03567      111.44462      435.7176       12706.822    
     24500   49             969.49712      112.66029      429.37281      11529.61     
     24600   49.2           984.14681      114.36265      430.33526      15487.613    
     24700   49.4           986.35437      114.61918      434.67155      15475.184    
     24800   49.6           1056.4058      122.7595       440.09399      14626.773    
     24900   49.8           1018.4591      118.3499       439.43082      12551.834    
     25000   50             1033.676       120.11818      437.79095      13167.272    
     25100   50.2           1001.7024      116.40269      434.90515      14135.227    
     25200   50.4           999.19182      116.11096      433.30125      14687.297    
     25300   50.6           986.60126      114.64787      432.99964      12870.583    
     25400   50.8           969.31228      112.63881      435.69085      14436.069    
     25500   51             997.67122      115.93425      439.32817      12147.818    
     25600   51.2           1013.8497      117.81428      438.22108      14052.973    
     25700   51.4           978.47169      113.70318      431.53599      16502.287    
     25800   51.6           963.58538      111.97331      428.65179      13740.1      
     25900   51.8           990.95285      115.15355      431.29192      13193.65     
     26000   52             1021.0825      118.65476      434.47217      14924.561    
     26100   52.2           960.03476      111.56071      434.94528      15273.954    
     26200   52.4           1021.2344      118.67242      437.32859      10948.61     
     26300   52.6           982.13335      114.12868      437.67037      16315.052    
     26400   52.8           987.30702      114.72988      434.86791      14265.594    
     26500   53             973.27097      113.09883      429.07108      13747.635    
     26600   53.2           973.97814      113.181        427.7673       12843.207    
     26700   53.4           1005.1233      116.80022      434.36238      13110.646    
     26800   53.6           1036.7614      120.47672      438.25771      15392.623    
     26900   53.8           965.25928      112.16783      437.17579      13901.975    
     27000   54             988.81291      114.90488      435.13124      15941.635    
     27100   54.2           971.20092      112.85828      430.27341      14197.626    
     27200   54.4           971.50632      112.89377      426.14902      15853.552    
     27300   54.6           981.62375      114.06946      430.36447      15135.113    
     27400   54.8           976.16723      113.43539      437.49082      12553.178    
     27500   55             1006.6176      116.97387      439.67496      16350.265    
     27600   55.2           993.98559      115.50597      439.04107      15340.029    
     27700   55.4           1003.232       116.58044      435.97275      15326.939    
     27800   55.6           979.11077      113.77744      429.15494      11986.737    
     27900   55.8           956.82631      111.18788      428.699        11044.614    
     28000   56             1017.7433      118.26672      434.0041       13863.481    
     28100   56.2           1020.5547      118.59343      438.78135      13605.058    
     28200   56.4           1006.8515      117.00105      438.37027      16170.487    
     28300   56.6           976.32609      113.45385      436.0797       14133.605    
     28400   56.8           1017.9087      118.28595      433.02316      14594.606    
     28500   57             996.45167      115.79254      430.63762      16836.513    
     28600   57.2           1008.922       117.24165      433.15582      13720.453    
     28700   57.4           1021.4526      118.69776      439.14861      13787.612    
     28800   57.6           998.16217      115.99131      440.63569      16268.903    
     28900   57.8           1005.313       116.82227      437.2908       12483.63     
     29000   58             981.10982      114.00974      429.23954      15325.943    
     29100   58.2           967.48278      112.42621      428.21095      16599.036    
     29200   58.4           985.36406      114.5041       432.54699      14925.33     
     29300   58.6           1000.3786      116.24886      435.49615      15758.141    
     29400   58.8           1004.4562      116.7227       437.25573      13995.585    
     29500   59             977.99391      113.64766      436.81793      14104.143    
     29600   59.2           1015.6691      118.0257       433.04173      12875.91     
     29700   59.4           965.32162      112.17507      425.7138       14430.983    
     29800   59.6           944.67554      109.7759       428.1535       11273.825    
     29900   59.8           993.58831      115.4598       434.17003      13395.758    
     30000   60             1010.9303      117.47502      436.98073      15568.814    
     30100   60.2           1014.7947      117.92408      438.73667      14253.009    
     30200   60.4           1009.7735      117.3406       439.03386      13367.798    
     30300   60.6           969.94995      112.71291      432.18379      12314.868    
     30400   60.8           964.36435      112.06383      428.66561      12382.746    
     30500   61             969.9323       112.71086      432.02141      13756.015    
     30600   61.2           1011.5782      117.55031      437.88899      15331.693    
     30700   61.4           1016.9494      118.17448      438.6749       15137.643    
     30800   61.6           956.68533      111.17149      436.2883       12149.977    
     30900   61.8           1018.1071      118.30901      435.18222      12609.202    
     31000   62             990.47222      115.0977       432.16722      13897.152    
     31100   62.2           954.13461      110.87509      427.84067      14066.297    
     31200   62.4           987.95754      114.80548      430.47767      14158.415    
     31300   62.6           1020.4802      118.58477      437.93712      13410.892    
     31400   62.8           1014.1409      117.84811      439.11843      15686.645    
     31500   63             985.08193      114.47132      436.97868      15410.498    
     31600   63.2           1010.7246      117.45112      431.62851      13717.405    
     31700   63.4           966.46092      112.30747      425.94671      12181.797    
     31800   63.6           983.66001      114.30608      429.18939      14678.629    
     31900   63.8           1000.3774      116.24872      437.42486      15021.041    
     32000   64             1009.9176      117.35734      437.28896      13010.931    
     32100   64.2           983.9603       114.34098      434.94611      12238.503    
     32200   64.4           977.32049      113.5694       431.47796      14996.616    
     32300   64.6           963.98349      112.01958      429.68432      12939.737    
     32400   64.8           984.82568      114.44154      433.56381      16011.72     
     32500   65             995.85273      115.72294      440.22617      16168.024    
     32600   65.2           1039.3961      120.78289      442.94762      10797.085    
     32700   65.4           1033.8828      120.14222      440.96497      14523.443    
     32800   65.6           969.33507      112.64146      436.27599      15329.278    
     32900   65.8           994.08234      115.51721      435.72888      14477.574    
     33000   66             984.55437      114.41001      435.09864      15780.4      
     33100   66.2           1013.2819      117.74829      433.4174       11763.936    
     33200   66.4           1008.0327      117.1383       428.86621      15971.023    
     33300   66.6           961.88016      111.77516      426.17031      11216.071    
     33400   66.8           1013.135       117.73122      431.21814      13270.104    
     33500   67             1016.2611      118.09449      436.97813      15042.411    
     33600   67.2           964.47524      112.07672      435.7559       15250.957    
     33700   67.4           1009.2728      117.28241      432.83285      15999.228    
     33800   67.6           998.38838      116.01759      428.36217      13396.513    
     33900   67.8           958.3802       111.36845      422.27132      15562.053    
     34000   68             917.82908      106.65621      426.12118      16715.039    
     34100   68.2           988.95391      114.92126      433.56126      14145.401    
     34200   68.4           1002.6259      116.51001      436.95841      14550.635    
     34300   68.6           1000.1926      116.22725      440.53342      17941.692    
     34400   68.8           1017.9905      118.29546      442.51074      12029.493    
     34500   69             1028.0208      119.46102      439.26804      12236.369    
     34600   69.2           975.65477      113.37584      431.19956      13301.995    
     34700   69.4           999.00651      116.08942      429.88996      11238.001    
     34800   69.6           997.05577      115.86274      432.142        14290.11     
     34900   69.8           1047.7197      121.75013      439.24045      12688.625    
     35000   70             1010.1158      117.38038      441.40692      15039.286    
     35100   70.2           1023.9014      118.98232      439.51381      13430.25     
     35200   70.4           1002.7127      116.5201       436.47215      13668.5      
     35300   70.6           1008.0663      117.14222      432.85416      13772.826    
     35400   70.8           967.78576      112.46142      429.77253      13565.833    
     35500   71             957.1948       111.2307       431.23213      16162.109    
     35600   71.2           1060.9936      123.29263      437.9173       15492.751    
     35700   71.4           1016.1245      118.07861      439.50617      14347.18     
     35800   71.6           984.61913      114.41754      435.99522      15042.993    
     35900   71.8           990.14747      115.05996      430.4261       15931.661    
     36000   72             1010.7407      117.45299      430.55394      12923.178    
     36100   72.2           976.79642      113.5085       432.67769      13984.188    
     36200   72.4           1039.032       120.74057      442.43545      12167.587    
     36300   72.6           1030.2909      119.72482      442.83778      16000.32     
     36400   72.8           1009.8891      117.35403      436.51398      15458.72     
     36500   73             947.17318      110.06614      432.329        16346.636    
     36600   73.2           973.86538      113.1679       432.91426      13567.113    
     36700   73.4           1018.4074      118.34389      437.34567      16030.082    
     36800   73.6           1074.6376      124.87813      444.51572      15585.765    
     36900   73.8           1012.4493      117.65154      445.96978      16200.079    
     37000   74             1033.5561      120.10426      434.61265      12817.297    
     37100   74.2           1007.8065      117.11202      432.86434      14609.571    
     37200   74.4           977.92792      113.63999      434.94285      15602.131    
     37300   74.6           1043.7257      121.28601      440.01194      17137.516    
     37400   74.8           1027.7361      119.42794      443.07355      16512.532    
     37500   75             1005.6541      116.86191      440.5188       15197.807    
     37600   75.2           953.46876      110.79771      431.63452      13276.835    
     37700   75.4           950.19787      110.41762      431.5598       12468.05     
     37800   75.6           1017.5431      118.24346      435.12227      13489.808    
     37900   75.8           1017.2842      118.21337      438.80661      15994.93     
     38000   76             1044.1586      121.33631      445.70971      12201.083    
     38100   76.2           1042.3816      121.12982      447.26227      17031.639    
     38200   76.4           1009.7802      117.34138      436.84814      17592.277    
     38300   76.6           983.81083      114.32361      434.17898      12279.745    
     38400   76.8           1006.0291      116.90548      433.64763      11698.809    
     38500   77             972.02179      112.95367      433.61105      15889.702    
     38600   77.2           995.63479      115.69761      433.64614      10893.953    
     38700   77.4           990.19942      115.066        434.41336      13529.48     
     38800   77.6           975.88605      113.40271      436.25618      13638.502    
     38900   77.8           1024.7524      119.08122      438.93089      17030.44     
     39000   78             1020.3576      118.57053      437.51197      14819.47     
     39100   78.2           994.84231      115.60552      430.5371       12861.898    
     39200   78.4           991.84362      115.25706      429.02349      13432.747    
     39300   78.6           1002.1663      116.4566       433.4489       15807.507    
     39400   78.8           993.98224      115.50558      436.39042      12209.416    
     39500   79             1007.4853      117.0747       436.3574       13243.051    
     39600   79.2           995.52147      115.68444      435.18139      17454.35     
     39700   79.4           962.78551      111.88036      432.04771      15017.28     
     39800   79.6           1001.3099      116.35709      426.98087      12942.728    
     39900   79.8           991.2751       115.19099      426.05281      12082.316    
     40000   80             980.37988      113.92492      434.12903      13141.189    
     40100   80.2           1015.1986      117.97102      438.95151      13400.466    
     40200   80.4           1007.9461      117.12825      438.26015      15677.748    
     40300   80.6           991.93015      115.26711      434.74103      14286.116    
     40400   80.8           972.73433      113.03647      429.10589      14163.314    
     40500   81             988.26587      114.84131      427.93622      12794.934    
     40600   81.2           1035.7921      120.36409      436.92234      15882.016    
     40700   81.4           1021.0125      118.64662      440.23409      17034.244    
     40800   81.6           1027.3214      119.37975      438.25315      13334.229    
     40900   81.8           1017.4651      118.2344       432.89906      16238.043    
     41000   82             991.6416       115.23358      429.69559      12476.199    
     41100   82.2           990.84835      115.1414       434.08594      10774.967    
     41200   82.4           1061.9276      123.40116      442.42624      15571.029    
     41300   82.6           987.74154      114.78038      439.97078      12280.257    
     41400   82.8           992.26366      115.30587      435.31232      13607.08     
     41500   83             960.81149      111.65097      430.04914      14202.485    
     41600   83.2           964.03476      112.02553      429.10208      13878.391    
     41700   83.4           972.55791      113.01597      434.00985      14484.382    
     41800   83.6           982.35537      114.15448      437.10674      13758.131    
     41900   83.8           1042.4305      121.1355       437.1627       14116.706    
     42000   84             997.77229      115.946        434.00554      12734.25     
     42100   84.2           1002.8222      116.53282      432.47503      11556.951    
     42200   84.4           962.85793      111.88878      431.92647      14342.377    
     42300   84.6           1029.3218      119.6122       438.704        10979.102    
     42400   84.8           1007.8285      117.11458      442.04514      15449.715    
     42500   85             1024.647       119.06897      437.63239      13352.696    
     42600   85.2           1015.2066      117.97195      432.94869      11227.156    
     42700   85.4           949.44258      110.32985      432.34901      17008.693    
     42800   85.6           980.19776      113.90375      435.24269      15643.297    
     42900   85.8           1020.9573      118.64021      436.76577      14173.998    
     43000   86             1002.8047      116.53079      437.65165      13688.052    
     43100   86.2           1019.5917      118.48152      436.80922      14353.765    
     43200   86.4           997.05273      115.86238      430.40319      13484.671    
     43300   86.6           979.27663      113.79671      427.80083      12682.978    
     43400   86.8           987.75559      114.78201      431.95449      13169.23     
     43500   87             1026.8715      119.32747      437.69462      15348.24     
     43600   87.2           989.35918      114.96836      438.24511      13925.117    
     43700   87.4           959.88564      111.54339      436.84888      13659.296    
     43800   87.6           1039.8953      120.8409       436.10928      14850.37     
     43900   87.8           991.52315      115.21982      431.31751      13377.752    
     44000   88             946.2046       109.95358      428.5602       14119.245    
     44100   88.2           1010.4616      117.42056      432.55409      15296.049    
     44200   88.4           1009.3286      117.28889      438.16106      13801.441    
     44300   88.6           1005.8538      116.88511      437.95237      16287.918    
     44400   88.8           969.54911      112.66633      433.66883      15017.525    
     44500   89             976.79745      113.50862      428.74555      11593.685    
     44600   89.2           949.95569      110.38948      420.5616       16728.405    
     44700   89.4           913.77138      106.18468      420.52525      15903.946    
     44800   89.6           952.81904      110.72221      428.30344      11103.954    
     44900   89.8           996.87849      115.84214      433.42016      15580.369    
     45000   90             1005.6716      116.86393      437.87773      15285.402    
     45100   90.2           1026.8208      119.32158      441.661        16306.674    
     45200   90.4           994.32512      115.54542      442.17779      13405.989    
     45300   90.6           970.40977      112.76634      433.563        14905.834    
     45400   90.8           988.01831      114.81254      431.59452      13334.921    
     45500   91             976.70584      113.49798      433.42599      13527.568    
     45600   91.2           1021.0297      118.64862      439.11317      15053.831    
     45700   91.4           1024.7466      119.08054      441.40311      15701.03     
     45800   91.6           952.86723      110.72781      438.18795      16160.709    
     45900   91.8           1020.7513      118.61627      436.84634      13970.889    
     46000   92             1006.1077      116.91461      434.74859      14373.958    
     46100   92.2           955.4656       111.02976      431.16327      11512.623    
     46200   92.4           971.86534      112.93549      431.23396      15758.597    
     46300   92.6           1012.9787      117.71306      438.27422      15503.246    
     46400   92.8           1038.3043      120.65602      442.17499      15808.894    
     46500   93             1042.5748      121.15227      441.97971      16656.933    
     46600   93.2           993.34164      115.43114      436.98628      14028.26     
     46700   93.4           993.33521      115.43039      429.66735      13931.952    
     46800   93.6           987.40904      114.74174      429.32108      12772.635    
     46900   93.8           1000.5679      116.27086      432.21956      9921.0421    
     47000   94             986.50202      114.63634      436.17195      12442.843    
     47100   94.2           1020.9621      118.64077      439.06156      13413.834    
     47200   94.4           1005.0632      116.79324      442.90512      14067.983    
     47300   94.6           1048.534       121.84475      445.65039      14860.031    
     47400   94.8           1046.1762      121.57077      440.08267      14375.231    
     47500   95             1014.6172      117.90346      433.63897      14603.166    
     47600   95.2           979.3875       113.8096       432.25676      17953.262    
     47700   95.4           972.60255      113.02115      436.47996      13455.315    
     47800   95.6           1027.7611      119.43085      441.75722      14421.732    
     47900   95.8           1048.2732      121.81446      442.77173      14559.047    
     48000   96             973.84846      113.16593      431.4727       15130.747    
     48100   96.2           961.57508      111.73971      429.34502      12818.069    
     48200   96.4           1004.2756      116.70171      433.04808      15307.747    
     48300   96.6           1022.1189      118.77519      437.42211      15246.26     
     48400   96.8           1018.5116      118.35601      438.31849      16728.401    
     48500   97             994.43821      115.55856      434.13805      13845.044    
     48600   97.2           978.68822      113.72834      428.09905      13948.274    
     48700   97.4           991.74997      115.24618      428.36822      13499.431    
     48800   97.6           1042.3994      121.13189      435.73821      13920.976    
     48900   97.8           969.33555      112.64151      440.54478      15665.745    
     49000   98             1023.045       118.88281      438.98739      16691.635    
     49100   98.2           1008.7737      117.22442      435.21288      13993.302    
     49200   98.4           978.55272      113.71259      431.83936      15591.127    
     49300   98.6           945.91073      109.91943      427.55315      14064.1      
     49400   98.8           948.01912      110.16444      421.76912      15907.478    
     49500   99             1002.6085      116.50799      426.53159      15192.011    
     49600   99.2           992.3452       115.31535      432.94053      16046.391    
     49700   99.4           1024.5409      119.05664      435.4428       14303.061    
     49800   99.6           977.49515      113.5897       436.1657       12141.465    
     49900   99.8           1012.3205      117.63657      437.71503      18475.423    
     50000   100            1003.3569      116.59496      435.11418      12618.64     
     50100   100.2          999.27176      116.12024      428.92185      10194.804    
     50200   100.4          950.96863      110.50719      428.16021      14330.992    
     50300   100.6          997.77948      115.94683      434.10578      11012.376    
     50400   100.8          996.27         115.77143      440.07773      16520.656    
     50500   101            1025.5285      119.1714       438.60582      14077.796    
     50600   101.2          992.64176      115.34981      434.52411      12898.761    
     50700   101.4          981.66346      114.07407      431.92371      14890.289    
     50800   101.6          996.00304      115.7404       430.73663      13520.566    
     50900   101.8          986.12135      114.5921       428.18123      15804.936    
     51000   102            948.80107      110.25531      429.35984      13726.943    
     51100   102.2          996.08048      115.7494       436.2063       13470.924    
     51200   102.4          1022.9482      118.87156      440.23239      13168.519    
     51300   102.6          1023.4576      118.93076      438.17505      13739.803    
     51400   102.8          946.93409      110.03835      432.1524       14166.289    
     51500   103            976.64094      113.49043      430.19202      12239.011    
     51600   103.2          978.34068      113.68795      431.50101      14189.868    
     51700   103.4          1006.6552      116.97823      434.05001      14074.88     
     51800   103.6          995.0671       115.63164      434.78271      12210.838    
     51900   103.8          1038.5802      120.68807      435.79514      14267.689    
     52000   104            1028.2797      119.49111      436.34536      14500.376    
     52100   104.2          972.052        112.95718      437.71316      16066.948    
     52200   104.4          1012.1291      117.61433      439.09376      13844.278    
     52300   104.6          1007.7229      117.10231      435.47691      14417.034    
     52400   104.8          992.62729      115.34813      429.07221      14424.53     
     52500   105            1000.6165      116.27651      429.23557      12552.956    
     52600   105.2          983.44971      114.28165      433.91873      11764.767    
     52700   105.4          1023.5066      118.93646      439.83492      12741.395    
     52800   105.6          1034.8612      120.25591      439.43996      14720.059    
     52900   105.8          1031.3396      119.84668      435.81024      15080.857    
     53000   106            984.53086      114.40728      432.38382      14606.171    
     53100   106.2          977.64536      113.60715      431.93919      14556.072    
     53200   106.4          1037.4283      120.55422      438.35775      14239.182    
     53300   106.6          1039.2951      120.77116      443.95285      11568.636    
     53400   106.8          1052.172       122.26751      441.33389      17189.192    
     53500   107            1007.4242      117.0676       435.1509       16702.563    
     53600   107.2          977.94712      113.64222      433.42679      12955.11     
     53700   107.4          1023.3464      118.91783      434.25069      14454.465    
     53800   107.6          1027.7939      119.43465      438.26161      17572.81     
     53900   107.8          1012.5312      117.66106      444.71358      18321.312    
     54000   108            1050.9262      122.12275      442.13372      12306.172    
     54100   108.2          1006.0328      116.90591      436.25783      13985.305    
     54200   108.4          1003.7026      116.63513      435.24567      16996.211    
     54300   108.6          991.8313       115.25563      435.69794      13677.124    
     54400   108.8          998.32751      116.01052      435.70845      10295.825    
     54500   109            984.00671      114.34637      432.69825      14170.259    
     54600   109.2          1000.927       116.31259      427.63553      15781.102    
     54700   109.4          973.42357      113.11656      425.31918      13746.501    
     54800   109.6          992.12724      115.29002      432.51257      11393.823    
     54900   109.8          1023.6749      118.95601      437.41785      14717.111    
     55000   110            990.3059       115.07837      436.93999      15170.332    
     55100   110.2          969.08133      112.61197      433.50958      12457.61     
     55200   110.4          991.09185      115.1697       430.5707       11416.834    
     55300   110.6          988.54266      114.87347      429.83079      13236.476    
     55400   110.8          1013.13        117.73065      433.9726       12938.638    
     55500   111            1023.2033      118.90121      439.10349      14667.602    
     55600   111.2          1020.4435      118.58051      440.00236      13940.583    
     55700   111.4          979.19386      113.7871       435.58089      15659.164    
     55800   111.6          952.54438      110.6903       428.56897      15543.141    
     55900   111.8          1005.8457      116.88417      430.94442      15035.824    
     56000   112            961.77853      111.76335      434.05465      14695.018    
     56100   112.2          1008.6424      117.20916      435.7904       16127.516    
     56200   112.4          962.93019      111.89718      435.30303      16953.941    
     56300   112.6          971.11656      112.84847      435.28457      14841.524    
     56400   112.8          985.09675      114.47304      436.07793      15186.151    
     56500   113            999.68158      116.16787      435.2177       13631.333    
     56600   113.2          1004.5782      116.73688      432.97783      11280.319    
     56700   113.4          951.24138      110.53888      431.61634      15956.439    
     56800   113.6          1033.7901      120.13145      433.07274      12792.701    
     56900   113.8          972.06953      112.95921      433.48023      14001.41     
     57000   114            1001.9805      116.43502      436.59736      15373.328    
     57100   114.2          1054.8457      122.57821      439.2007       14346.887    
     57200   114.4          1016.5391      118.1268       437.11551      14757.698    
     57300   114.6          988.66458      114.88764      429.48726      18531.379    
     57400   114.8          977.52429      113.59308      429.53311      15302.98     
     57500   115            1004.7063      116.75176      434.24187      15290.926    
     57600   115.2          1028.2969      119.49311      436.36395      15046.612    
     57700   115.4          1012.1312      117.61458      436.39892      15419.807    
     57800   115.6          1021.8878      118.74834      435.10633      14067.08     
     57900   115.8          1015.4398      117.99905      433.90768      13345.292    
     58000   116            980.59802      113.95027      433.8286       11709.437    
     58100   116.2          990.12588      115.05745      437.92147      16736.707    
     58200   116.4          1023.2727      118.90928      441.98082      17215.884    
     58300   116.6          1012.6367      117.67331      439.56259      13185.493    
     58400   116.8          1015.2525      117.97729      432.50205      16037.334    
     58500   117            996.02244      115.74266      432.49669      14116.587    
     58600   117.2          993.36123      115.43341      433.72306      12659.686    
     58700   117.4          998.16321      115.99143      438.33117      14479.632    
     58800   117.6          1041.6114      121.04031      443.84781      13457.61     
     58900   117.8          1055.2202      122.62172      448.53878      12598.953    
     59000   118            1056.2681      122.7435       442.49491      15511.698    
     59100   118.2          1007.428       117.06804      436.11171      18474.057    
     59200   118.4          983.60681      114.2999       434.02575      12639.366    
     59300   118.6          992.36027      115.3171       434.1643       12796.869    
     59400   118.8          1024.4314      119.04391      437.15514      15430.453    
     59500   119            1014.3331      117.87045      442.45264      13636.878    
     59600   119.2          1005.751       116.87316      440.31035      12743.33     
     59700   119.4          985.33827      114.50111      433.52784      12686.278    
     59800   119.6          1005.8474      116.88436      432.99824      14382.258    
     59900   119.8          1003.3551      116.59474      434.79906      13986.415    
     60000   120            991.70527      115.24098      436.71579      16040.101    
     60100   120.2          980.49563      113.93837      436.73828      15069.682    
     60200   120.4          973.26099      113.09767      436.79941      16691.241    
     60300   120.6          963.76166      111.9938       436.5607       14994.754    
     60400   120.8          976.11533      113.42936      435.63214      13734.459    
     60500   121            1018.3651      118.33899      435.64054      12825.477    
     60600   121.2          1025.4462      119.16184      436.43252      14862.365    
     60700   121.4          1012.4582      117.65258      435.14965      15912.21     
     60800   121.6          949.35107      110.31922      427.02805      14934.568    
     60900   121.8          992.29695      115.30974      425.35673      13912.168    
     61000   122            1000.8536      116.30406      430.79614      14248.419    
     61100   122.2          1036.8652      120.48878      435.53585      16695.683    
     61200   122.4          994.99472      115.62323      435.91399      16290.491    
     61300   122.6          993.74418      115.47791      436.21928      12461.904    
     61400   122.8          997.8462       115.95459      436.49227      13650.393    
     61500   123            1008.7469      117.22131      439.39465      16280.608    
     61600   123.2          1022.4501      118.81369      441.1887       14443.87     
     61700   123.4          1029.4771      119.63025      437.3859       16577.145    
     61800   123.6          996.61523      115.81154      430.82735      15622.428    
     61900   123.8          1005.0005      116.78595      430.29904      11263.376    
     62000   124            972.54421      113.01437      433.08554      12289.441    
     62100   124.2          980.07823      113.88986      439.1588       15219.848    
     62200   124.4          1066.4326      123.92466      447.46629      16430.313    
     62300   124.6          1086.6702      126.27637      450.1745       15178.557    
     62400   124.8          968.94         112.59555      437.20527      14863.201    
     62500   125            988.43442      114.86089      433.11828      12641.458    
     62600   125.2          963.82838      112.00155      432.59977      10934.006    
     62700   125.4          960.98435      111.67106      436.79854      14248.428    
     62800   125.6          1028.4934      119.51594      441.6829       13749.63     
     62900   125.8          1015.8289      118.04426      442.36752      14278.616    
     63000   126            1000.8546      116.30418      436.7825       13586.857    
     63100   126.2          990.69286      115.12334      431.25409      13163.276    
     63200   126.4          979.50292      113.82301      432.08932      14332.42     
     63300   126.6          993.35692      115.43291      433.83873      15244.91     
     63400   126.8          993.32898      115.42967      435.56815      14919.786    
     63500   127            1004.0699      116.67782      443.03368      15374.932    
     63600   127.2          1023.3952      118.92351      446.05096      15226.914    
     63700   127.4          1028.9823      119.57275      440.14565      14689.404    
     63800   127.6          1007.2222      117.04412      435.07901      16450.583    
     63900   127.8          1010.971       117.47975      433.82424      14015.595    
     64000   128            1006.3016      116.93715      434.05553      12261.548    
     64100   128.2          996.4534       115.79274      436.35566      16744.711    
     64200   128.4          1033.7392      120.12553      440.13358      15782.729    
     64300   128.6          1019.5146      118.47256      439.24253      12863.688    
     64400   128.8          1006.4156      116.95039      434.10148      14939.351    
     64500   129            954.92893      110.96739      429.41172      10433.345    
     64600   129.2          988.66881      114.88813      431.47043      14879.292    
     64700   129.4          1020.4667      118.5832       440.99129      15049.63     
     64800   129.6          1044.3732      121.36125      441.20543      17746.538    
     64900   129.8          987.172        114.71419      436.50685      12576.633    
     65000   130            970.61801      112.79054      433.54515      15663.651    
     65100   130.2          967.33967      112.40958      433.19923      15873.344    
     65200   130.4          1024.6339      119.06745      438.81509      11500.351    
     65300   130.6          1037.5387      120.56705      444.03626      17740.12     
     65400   130.8          1037.5274      120.56573      440.21633      14083.617    
     65500   131            1010.148       117.38412      434.70101      14096.885    
     65600   131.2          984.04973      114.35137      432.83118      14711.476    
     65700   131.4          951.79899      110.60368      431.42997      12002.923    
     65800   131.6          1015.8603      118.04792      433.73345      14344.426    
     65900   131.8          1040.884       120.95578      441.70451      13879.562    
     66000   132            1023.6902      118.95779      442.71983      16373.682    
     66100   132.2          1021.4927      118.70242      436.75558      13346.409    
     66200   132.4          983.8085       114.32334      433.65717      16577.218    
     66300   132.6          992.35771      115.3168       433.50882      14161.789    
     66400   132.8          995.50611      115.68266      434.18006      12026.649    
     66500   133            982.51125      114.17259      436.05595      16651.448    
     66600   133.2          1024.6896      119.07392      444.79667      14023.942    
     66700   133.4          1028.6001      119.52834      447.98976      14993.491    
     66800   133.6          1043.7424      121.28795      441.1999       12980.875    
     66900   133.8          1002.7299      116.5221       437.03723      15448.071    
     67000   134            999.80727      116.18247      435.26348      12128.151    
     67100   134.2          1013.6624      117.79251      434.25203      17699.79     
     67200   134.4          988.28069      114.84303      434.19122      13124.513    
     67300   134.6          1030.8032      119.78435      435.92661      14589.501    
     67400   134.8          1031.6971      119.88822      438.2503       15413.518    
     67500   135            1044.6406      121.39232      438.36541      14192.806    
     67600   135.2          1019.2208      118.43842      436.11932      11992.774    
     67700   135.4          1001.378       116.365        430.07024      10936.478    
     67800   135.6          973.33134      113.10584      427.96503      14821.834    
     67900   135.8          1013.2532      117.74496      434.57405      13700.109    
     68000   136            1005.7537      116.87348      438.62866      15538.009    
     68100   136.2          978.06818      113.65629      436.58987      18551.809    
     68200   136.4          965.23889      112.16546      432.22987      12751.803    
     68300   136.6          974.09614      113.19472      431.21846      15202.999    
     68400   136.8          981.08926      114.00735      435.61777      15283.308    
     68500   137            1038.2848      120.65375      443.25117      12340.451    
     68600   137.2          1014.0635      117.83912      441.59965      13399.209    
     68700   137.4          999.51308      116.14829      437.37294      12928.287    
     68800   137.6          976.17014      113.43572      431.56715      14567.942    
     68900   137.8          991.82108      115.25444      431.53034      12338.819    
     69000   138            969.35686      112.64399      433.97474      13170.989    
     69100   138.2          985.00159      114.46198      437.75486      15550.436    
     69200   138.4          1005.4262      116.83542      438.59374      15221.231    
     69300   138.6          1009.7534      117.33827      436.13948      15312.576    
     69400   138.8          961.61942      111.74486      426.73125      16790.791    
     69500   139            959.57569      111.50737      427.34405      14742.082    
     69600   139.2          1003.3635      116.59572      432.68519      13456.036    
     69700   139.4          1031.5784      119.87443      436.18433      16678.181    
     69800   139.6          1038.3858      120.66549      435.96348      14237.738    
     69900   139.8          977.5622       113.59749      433.67094      14061.858    
     70000   140            1005.3791      116.82995      428.56793      13354.524    
     70100   140.2          953.90419      110.84831      421.69171      10988.521    
     70200   140.4          953.18629      110.76489      427.0122       12370.957    
     70300   140.6          985.59879      114.53138      432.06068      13874.854    
     70400   140.8          975.68609      113.37948      435.30709      11665.018    
     70500   141            1008.8108      117.22873      437.35453      14039.53     
     70600   141.2          989.35488      114.96786      436.85652      15361.875    
     70700   141.4          931.26064      108.21702      429.58498      13047.071    
     70800   141.6          958.19559      111.34699      427.67994      11646.342    
     70900   141.8          1027.0603      119.34941      433.45038      16010.725    
     71000   142            1005.9273      116.89365      436.72913      14572.444    
     71100   142.2          1037.1261      120.5191       436.03442      14129.251    
     71200   142.4          1035.9408      120.38137      433.94973      14015.457    
     71300   142.6          965.58547      112.20573      431.65132      12342.497    
     71400   142.8          961.89083      111.7764       425.81681      15186.583    
     71500   143            937.10509      108.89618      426.35888      13788.263    
     71600   143.2          1007.2826      117.05114      434.26531      12950.627    
     71700   143.4          1007.4945      117.07577      437.35115      14829.269    
     71800   143.6          1006.1362      116.91793      438.61907      16228.995    
     71900   143.8          1012.0312      117.60296      437.53279      12123.069    
     72000   144            973.1155       113.08076      432.12804      14026.814    
     72100   144.2          977.99908      113.64826      427.93306      13418.521    
     72200   144.4          999.44155      116.13998      430.37869      14178.472    
     72300   144.6          1021.9102      118.75094      439.58084      14724.02     
     72400   144.8          1013.1599      117.73412      440.31541      13707.091    
     72500   145            1015.1282      117.96284      438.26445      13698.815    
     72600   145.2          978.82075      113.74374      434.36265      14684.029    
     72700   145.4          978.27121      113.67988      429.31885      13904.056    
     72800   145.6          1012.5416      117.66227      424.49417      13261.228    
     72900   145.8          988.30839      114.84625      429.56136      14702.351    
     73000   146            1015.8571      118.04754      436.37398      14158.438    
     73100   146.2          1082.8983      125.83806      437.67167      13668.706    
     73200   146.4          968.996        112.60205      436.06403      15009.519    
     73300   146.6          979.42874      113.81439      433.16326      12787.044    
     73400   146.8          973.65904      113.14392      429.95182      12740.371    
     73500   147            998.51601      116.03242      431.23363      13322.146    
     73600   147.2          980.27321      113.91252      438.31123      14685.395    
     73700   147.4          1033.5433      120.10276      441.02664      14703.469    
     73800   147.6          986.39064      114.6234       436.7733       14103.461    
     73900   147.8          984.00881      114.34662      433.71435      14375.693    
     74000   148            992.83955      115.37279      433.23842      13002.666    
     74100   148.2          997.15399      115.87415      433.94247      16369.148    
     74200   148.4          1017.9613      118.29206      437.54286      15704.025    
     74300   148.6          1038.8961      120.72479      443.57204      15797.424    
     74400   148.8          1083.5167      125.90992      444.707        13175.194    
     74500   149            1031.8854      119.91011      435.55271      13863.878    
     74600   149.2          980.89159      113.98438      430.47871      14409.144    
     74700   149.4          986.39408      114.6238       430.194        13501.342    
     74800   149.6          1008.6251      117.20715      434.06299      11948.022    
     74900   149.8          1034.0077      120.15673      439.50879      14406.963    
     75000   150            1013.3455      117.75568      441.41408      18092.954    
     75100   150.2          991.0613       115.16615      436.49159      15029.528    
     75200   150.4          955.61403      111.047        428.8009       14884.03     
     75300   150.6          998.20636      115.99644      429.79091      14302.735    
     75400   150.8          986.38603      114.62286      435.84529      13876.808    
     75500   151            1038.2308      120.64747      439.45645      13349.669    
     75600   151.2          1010.2179      117.39224      438.02685      16356.283    
     75700   151.4          1011.431       117.53321      433.65336      15922.352    
     75800   151.6          985.43182      114.51198      431.98073      13154.683    
     75900   151.8          1009.4099      117.29834      433.02864      16037.047    
     76000   152            970.46121      112.77232      434.16199      15705.486    
     76100   152.2          1004.4299      116.71965      436.03784      13713.274    
     76200   152.4          1053.9355      122.47244      440.52944      14720.577    
     76300   152.6          1026.3575      119.26774      446.11219      15573.452    
     76400   152.8          1030.9825      119.80519      442.9932       15466.23     
     76500   153            1013.9003      117.82015      435.23661      13139.794    
     76600   153.2          962.76256      111.8777       433.427        13050.05     
     76700   153.4          966.35338      112.29497      432.75529      13783.822    
     76800   153.6          993.57834      115.45864      434.26721      13245.576    
     76900   153.8          995.91717      115.73043      440.06282      15554.385    
     77000   154            1008.5611      117.19971      443.17889      15161.342    
     77100   154.2          994.43836      115.55858      436.71495      16130.905    
     77200   154.4          1002.707       116.51943      431.03935      13497.501    
     77300   154.6          1008.4948      117.19201      431.21993      13838.19     
     77400   154.8          1001.6108      116.39205      433.83556      14257.282    
     77500   155            1022.6025      118.83139      440.20713      13210.737    
     77600   155.2          1037.2241      120.53049      441.80523      14998.595    
     77700   155.4          996.4719       115.79489      436.13043      13074.164    
     77800   155.6          997.62527      115.92892      431.74763      12197.75     
     77900   155.8          959.97861      111.55419      432.40543      14093.464    
     78000   156            973.92265      113.17456      435.33607      13822.98     
     78100   156.2          1039.2843      120.76989      439.07767      15955.854    
     78200   156.4          982.74446      114.19969      436.98307      13400.81     
     78300   156.6          989.68589      115.00632      430.64787      13807.734    
     78400   156.8          954.69604      110.94033      428.46816      13320.342    
     78500   157            1019.5076      118.47175      437.12358      13831.581    
     78600   157.2          1026.3778      119.2701       441.36901      15688.122    
     78700   157.4          1018.6897      118.37671      439.12075      14532.316    
     78800   157.6          1010.2821      117.39971      432.75289      16420.796    
     78900   157.8          1010.6342      117.44062      431.82443      15668.878    
     79000   158            1052.0847      122.25736      435.78858      16219.727    
     79100   158.2          1046.0413      121.55509      441.08861      17057.642    
     79200   158.4          1076.1538      125.05431      448.85256      15330.69     
     79300   158.6          1082.7348      125.81906      445.88147      14695.703    
     79400   158.8          1029.0169      119.57678      438.26808      13602.3      
     79500   159            978.87946      113.75056      435.08137      11618.246    
     79600   159.2          975.5333       113.36172      433.53927      17313.227    
     79700   159.4          929.39167      107.99984      431.66731      14120.535    
     79800   159.6          1004.0751      116.67841      430.69223      16245.714    
     79900   159.8          990.10026      115.05447      432.85936      14760.47     
     80000   160            981.11338      114.01015      439.17592      15675.503    
     80100   160.2          1054.0117      122.48129      441.41151      15702.299    
     80200   160.4          963.59596      111.97454      436.68107      17261.363    
     80300   160.6          986.41118      114.62578      434.2022       14625.788    
     80400   160.8          997.859        115.95608      432.09219      17690.471    
     80500   161            983.33265      114.26804      428.45885      14092.872    
     80600   161.2          978.46993      113.70297      429.37631      11655.649    
     80700   161.4          1014.7593      117.91997      434.28649      13204.111    
     80800   161.6          1022.8129      118.85583      439.36281      15269.23     
     80900   161.8          993.97349      115.50456      440.18524      17067.126    
     81000   162            988.46094      114.86397      433.97725      13023.723    
     81100   162.2          967.52804      112.43147      428.78805      15130.657    
     81200   162.4          963.42191      111.95432      430.66913      10790.836    
     81300   162.6          988.9296       114.91844      434.80121      15170.6      
     81400   162.8          1023.3457      118.91776      436.93057      17733.502    
     81500   163            1004.5579      116.73453      438.27773      16403.386    
     81600   163.2          1006.6294      116.97524      442.42648      14613.773    
     81700   163.4          1002.7278      116.52185      444.33146      17187.391    
     81800   163.6          996.94451      115.84981      437.6751       14751.934    
     81900   163.8          986.65443      114.65405      433.60249      12260.293    
     82000   164            984.24347      114.37388      432.75502      16301.265    
     82100   164.2          1023.6595      118.95422      433.74412      17281.666    
     82200   164.4          1008.3584      117.17616      440.5152       17961.802    
     82300   164.6          1009.7347      117.33609      443.05894      16967.324    
     82400   164.8          1009.6084      117.32142      436.59972      15639.987    
     82500   165            999.98292      116.20289      432.79658      14920.236    
     82600   165.2          991.58508      115.22702      434.07244      14089.936    
     82700   165.4          997.89355      115.96009      436.30318      13906.114    
     82800   165.6          1009.9988      117.36678      438.67397      16804.025    
     82900   165.8          1064.6847      123.72155      442.07743      15234.645    
     83000   166            1018.2585      118.3266       439.24401      12096.057    
     83100   166.2          1018.1492      118.3139       431.88371      14046.826    
     83200   166.4          970.1837       112.74007      429.96327      15140.162    
     83300   166.6          976.75109      113.50323      433.22733      14439.317    
     83400   166.8          1021.2454      118.67369      439.45374      13037.081    
     83500   167            977.20892      113.55644      441.17987      17107.13     
     83600   167.2          1019.814       118.50735      440.16588      14588.442    
     83700   167.4          1021.6071      118.71572      436.8309       13877.171    
     83800   167.6          991.50234      115.2174       432.78926      13710.022    
     83900   167.8          978.58085      113.71586      430.09661      14409.311    
     84000   168            1017.7657      118.26933      431.57654      14033.762    
     84100   168.2          1027.2046      119.36618      441.18772      12851.674    
     84200   168.4          1035.9624      120.38387      441.68461      13930.224    
     84300   168.6          1010.8152      117.46165      435.9559       13119.021    
     84400   168.8          985.81884      114.55695      431.10276      11496.312    
     84500   169            961.53763      111.73536      431.48682      15112.602    
     84600   169.2          999.7724       116.17842      433.11127      13822.848    
     84700   169.4          1004.4448      116.72138      439.28814      16088.984    
     84800   169.6          1034.9446      120.2656       445.98547      16772.049    
     84900   169.8          1018.898       118.40091      443.25753      14287.176    
     85000   170            1039.3555      120.77817      439.6105       13795.53     
     85100   170.2          995.20786      115.648        434.28376      12737.665    
     85200   170.4          972.03036      112.95466      433.77057      11846.98     
     85300   170.6          974.68936      113.26365      435.44856      15029.1      
     85400   170.8          1009.1031      117.26269      436.85473      12600.401    
     85500   171            979.06244      113.77182      436.65806      15732.475    
     85600   171.2          1021.0326      118.64896      436.74195      12735.698    
     85700   171.4          1015.5508      118.01195      436.42181      15206.946    
     85800   171.6          1043.4321      121.25189      436.11046      15739.591    
     85900   171.8          1010.6271      117.43979      433.7914       14335.178    
     86000   172            1013.7562      117.8034       433.45831      13474.248    
     86100   172.2          968.86528      112.58686      433.88015      13575.146    
     86200   172.4          996.85654      115.83959      435.48813      12731.506    
     86300   172.6          1011.1675      117.50258      436.9602       15205.929    
     86400   172.8          1053.4038      122.41065      440.59536      13334.423    
     86500   173            1039.3647      120.77924      443.24204      16603.831    
     86600   173.2          1036.2513      120.41745      436.70916      12956.499    
     86700   173.4          1026.0263      119.22925      430.88791      15136.972    
     86800   173.6          945.83084      109.91015      430.42684      14826.152    
     86900   173.8          1005.5445      116.84916      436.28552      14510.806    
[...]
    478600   957.2          1039.2086      120.7611       441.21312      15268.136    
    478700   957.4          979.27473      113.79649      434.04805      13835.723    
    478800   957.6          1037.4472      120.55642      432.05595      12787.948    
    478900   957.8          991.5839       115.22688      432.36033      13755.275    
    479000   958            1034.2914      120.18969      436.58714      16065.759    
    479100   958.2          1026.1642      119.24528      440.95791      13896.587    
    479200   958.4          1057.0775      122.83755      443.25616      15638.624    
    479300   958.6          997.26007      115.88648      440.70361      14364.973    
    479400   958.8          982.42066      114.16207      433.33337      13200.554    
    479500   959            1008.9093      117.24017      431.32125      15528.627    
    479600   959.2          981.09844      114.00842      430.74889      14877.896    
    479700   959.4          1004.6998      116.75101      432.64814      15249.821    
    479800   959.6          1043.9992      121.3178       439.28119      17333.736    
    479900   959.8          1022.8165      118.85626      441.8133       12536.697    
    480000   960            1005.0702      116.79405      437.66666      14906.687    
    480100   960.2          963.46176      111.95895      430.60832      15510.277    
    480200   960.4          971.06018      112.84192      430.69433      12387.094    
    480300   960.6          986.61713      114.64972      435.9498       14757.666    
    480400   960.8          1017.0556      118.18681      439.55567      16175.656    
    480500   961            1036.7498      120.47537      439.7058       15126.649    
    480600   961.2          980.91362      113.98694      437.54777      12968.773    
    480700   961.4          976.57167      113.48238      429.30565      12929.786    
    480800   961.6          969.69095      112.68281      427.5198       14146.989    
    480900   961.8          982.65481      114.18927      432.71574      13533.354    
    481000   962            987.76032      114.78256      436.81519      16928.369    
    481100   962.2          1004.9256      116.77725      435.72773      13207.113    
    481200   962.4          1002.8977      116.5416       436.36596      14358.722    
    481300   962.6          1006.1295      116.91715      439.92567      16175.148    
    481400   962.8          1041.2441      120.99763      445.55846      14226.982    
    481500   963            1023.613       118.94882      441.27263      16500.137    
    481600   963.2          1004.4339      116.72011      434.37986      15467.688    
    481700   963.4          980.89208      113.98444      435.21268      11274.526    
    481800   963.6          982.94569      114.22308      436.91659      12112.886    
    481900   963.8          987.02706      114.69735      435.33062      9923.3515    
    482000   964            997.97615      115.96969      430.51661      11661.508    
    482100   964.2          944.11795      109.7111       426.17932      16304.678    
    482200   964.4          944.17324      109.71753      429.6036       12634.247    
    482300   964.6          995.76533      115.71278      436.70107      15875.839    
    482400   964.8          1035.1133      120.28521      438.04109      15260.492    
    482500   965            1009.0177      117.25277      437.80528      16178.621    
    482600   965.2          1010.4625      117.42066      437.31207      13824.586    
    482700   965.4          1014.1516      117.84935      436.14272      11190.201    
    482800   965.6          1006.6223      116.97441      431.88559      12851.549    
    482900   965.8          956.87221      111.19321      429.03526      18570.733    
    483000   966            998.44007      116.0236       431.91268      14076.349    
    483100   966.2          1016.3183      118.10114      439.46234      13770.031    
    483200   966.4          1006.2194      116.92759      440.66199      16283.431    
    483300   966.6          1015.3125      117.98426      437.18784      14515.071    
    483400   966.8          998.3557       116.01379      432.54831      13761.98     
    483500   967            985.29509      114.49609      432.60834      11373.313    
    483600   967.2          964.12229      112.03571      434.04829      13442.01     
    483700   967.4          1011.9595      117.59463      435.62799      13851.702    
    483800   967.6          999.96715      116.20105      435.42039      13181.421    
    483900   967.8          992.58248      115.34292      433.04701      13183.117    
    484000   968            958.83835      111.42169      428.62885      12958.093    
    484100   968.2          937.41485      108.93217      428.10949      12627.238    
    484200   968.4          1027.237       119.36994      435.36973      11910.242    
    484300   968.6          1019.336       118.45181      438.77189      16667.918    
    484400   968.8          1001.6707      116.39901      435.10512      12658.669    
    484500   969            976.70518      113.4979       431.65299      12413.81     
    484600   969.2          984.50632      114.40443      432.01566      13559.515    
    484700   969.4          1013.7929      117.80767      440.70459      14898.164    
    484800   969.6          984.94772      114.45572      445.08948      13720.79     
    484900   969.8          975.7321       113.38482      441.28492      16254.977    
    485000   970            970.96353      112.83069      435.31376      15997.184    
    485100   970.2          1001.7018      116.40263      433.997        13335.91     
    485200   970.4          1025.5756      119.17688      434.12119      12433.684    
    485300   970.6          1019.0195      118.41503      438.81524      15035.697    
    485400   970.8          1020.1456      118.54589      444.85347      14250.968    
    485500   971            1009.9392      117.35985      442.61603      15126.377    
    485600   971.2          973.51459      113.12714      435.11646      11871.886    
    485700   971.4          1013.6475      117.79077      433.30403      14929.455    
    485800   971.6          974.14135      113.19997      433.68908      14427.815    
    485900   971.8          984.01329      114.34714      437.70007      12207.895    
    486000   972            1013.4658      117.76967      442.54137      15433.872    
    486100   972.2          1059.4164      123.10935      443.98829      14834.063    
    486200   972.4          1014.5924      117.90058      435.75283      12331.533    
    486300   972.6          974.15122      113.20112      431.11487      15891.551    
    486400   972.8          985.44186      114.51314      430.71395      14338.011    
    486500   973            1011.4005      117.52966      434.44454      15107.121    
    486600   973.2          1031.8149      119.90192      440.89642      14854.281    
    486700   973.4          984.11955      114.35948      441.39505      15772.668    
    486800   973.6          1009.2882      117.2842       436.54805      13522.046    
    486900   973.8          993.27242      115.42309      434.44054      15765.51     
    487000   974            981.73321      114.08218      434.78692      15861.679    
    487100   974.2          994.19125      115.52987      437.20147      14484.506    
    487200   974.4          1017.0273      118.18352      440.07762      15720.728    
    487300   974.6          991.10071      115.17073      438.26845      11224.151    
    487400   974.8          1007.0581      117.02506      431.39469      15106.197    
    487500   975            1017.0375      118.18471      431.68326      17846.557    
    487600   975.2          984.61225      114.41674      435.77455      11722.434    
    487700   975.4          1050.188       122.03696      443.892        14377.621    
    487800   975.6          1086.6038      126.26866      442.3022       14970.163    
    487900   975.8          1004.4401      116.72084      438.25875      14913.119    
    488000   976            1013.3126      117.75186      434.30275      13700.676    
    488100   976.2          985.21307      114.48656      431.57985      13881.491    
    488200   976.4          983.03533      114.23349      431.50174      14369.31     
    488300   976.6          1011.849       117.58179      438.48513      13675.467    
    488400   976.8          1037.4573      120.55759      442.55329      16260.951    
    488500   977            1034.5862      120.22396      439.8049       13747.68     
    488600   977.2          998.86112      116.07253      432.35738      13854.867    
    488700   977.4          987.7106       114.77678      431.71633      12959.63     
    488800   977.6          1006.638       116.97624      435.0414       13469.771    
    488900   977.8          1042.8186      121.1806       438.32445      16009.199    
    489000   978            1024.3285      119.03196      438.93312      11299.097    
    489100   978.2          1007.0266      117.0214       435.55236      12822.897    
    489200   978.4          979.07306      113.77306      429.74081      14828.12     
    489300   978.6          950.90419      110.4997       429.27597      11787.128    
    489400   978.8          961.92955      111.7809       433.93404      12733.808    
    489500   979            1015.894       118.05183      440.86716      14240.823    
    489600   979.2          1035.0306      120.27559      441.06715      16598.971    
    489700   979.4          997.25751      115.88618      438.28985      15206.675    
    489800   979.6          1017.0428      118.18533      434.30881      14530.772    
    489900   979.8          957.0792       111.21726      431.33894      14637.508    
    490000   980            1005.6258      116.85862      431.75564      12998.368    
    490100   980.2          1030.1791      119.71183      438.4519       14228.889    
    490200   980.4          1024.7983      119.08655      444.13402      13321.824    
    490300   980.6          1048.9438      121.89238      440.32892      15074.406    
    490400   980.8          991.19625      115.18183      436.24062      13802.887    
    490500   981            986.77582      114.66816      434.46096      13770.42     
    490600   981.2          988.4728       114.86535      434.77021      12502.145    
    490700   981.4          1027.9917      119.45764      436.46388      13084.457    
    490800   981.6          955.94023      111.08491      433.77539      16676.888    
    490900   981.8          964.03399      112.02544      427.6194       13431.316    
    491000   982            963.9501       112.0157       430.38625      14144.921    
    491100   982.2          1006.5415      116.96503      436.57117      16636.806    
    491200   982.4          1005.7742      116.87586      438.00795      15217.087    
    491300   982.6          955.4916       111.03278      436.26091      13667.544    
    491400   982.8          982.84731      114.21164      430.50267      10978.698    
    491500   983            1010.5638      117.43244      426.19667      11418.956    
    491600   983.2          980.18196      113.90192      429.73755      13246.96     
    491700   983.4          1023.3832      118.92211      435.83792      15240.959    
    491800   983.6          1037.6373      120.5785       436.56922      15047.313    
    491900   983.8          1000.1497      116.22227      433.32389      14277.005    
    492000   984            942.63973      109.53933      429.94819      16572.044    
    492100   984.2          981.79896      114.08982      427.75513      12728.18     
    492200   984.4          987.83807      114.7916       432.7094       13838.151    
    492300   984.6          998.8458       116.07075      438.61091      14974.713    
    492400   984.8          985.88469      114.5646       439.65506      13968.676    
    492500   985            1013.2585      117.74557      435.82059      15281.478    
    492600   985.2          962.85853      111.88885      428.33315      15986.783    
    492700   985.4          955.55653      111.04032      429.19575      12611.833    
    492800   985.6          1004.8051      116.76325      432.86813      13815.726    
    492900   985.8          945.33764      109.85284      436.10574      13526.874    
    493000   986            1011.9054      117.58834      437.75233      12497.809    
    493100   986.2          985.87108      114.56302      435.14398      16594.973    
    493200   986.4          998.24209      116.00059      433.72926      12252.722    
    493300   986.6          1021.1591      118.66366      435.56167      16013.779    
    493400   986.8          1057.1887      122.85048      441.9605       17100.298    
    493500   987            1051.3452      122.17144      442.26237      10674.171    
    493600   987.2          1030.1776      119.71166      435.80071      15312.493    
    493700   987.4          993.33826      115.43074      431.61147      16941.22     
    493800   987.6          1009.838       117.34809      430.67517      11107.194    
    493900   987.8          979.32603      113.80245      435.11535      16036.57     
    494000   988            1059.6348      123.13472      442.78345      14600.513    
    494100   988.2          1021.5439      118.70838      440.79517      14085.351    
    494200   988.4          1020.333       118.56766      434.86585      15942.605    
    494300   988.6          985.18908      114.48377      431.49975      15925.672    
    494400   988.8          956.0414       111.09667      431.93031      13262.782    
    494500   989            1021.7033      118.7269       433.99067      13956.651    
    494600   989.2          1020.9019      118.63377      436.73919      15507.813    
    494700   989.4          1038.564       120.68619      444.38024      14045.403    
    494800   989.6          985.12447      114.47626      441.58064      17958.153    
    494900   989.8          998.82985      116.06889      435.98593      16057.246    
    495000   990            994.30182      115.54271      432.70748      15525.036    
    495100   990.2          994.31943      115.54476      433.19589      16604.144    
    495200   990.4          949.71783      110.36184      434.5041       14292.296    
    495300   990.6          1022.1882      118.78324      440.76197      11246.748    
    495400   990.8          1023.4261      118.92709      447.5102       13803.457    
    495500   991            978.77744      113.73871      443.56888      15160.965    
    495600   991.2          1011.5334      117.54511      439.7721       13925.112    
    495700   991.4          1014.9345      117.94033      437.02317      13955.064    
    495800   991.6          1001.9622      116.43289      434.46577      14278.331    
    495900   991.8          997.47413      115.91135      430.91489      10910.434    
    496000   992            964.34874      112.06202      423.92583      12358.016    
    496100   992.2          1015.7152      118.03105      426.60238      12916.902    
    496200   992.4          985.45092      114.5142       432.79709      14757.867    
    496300   992.6          993.78492      115.48265      435.58893      17845.941    
    496400   992.8          1044.1148      121.33123      437.15221      15031.504    
    496500   993            1006.1798      116.923        436.19119      14548.091    
    496600   993.2          985.83786      114.55916      431.23153      16043.341    
    496700   993.4          963.39764      111.9515       426.75824      14337.986    
    496800   993.6          958.6332       111.39785      430.38631      10652.133    
    496900   993.8          1001.5452      116.38443      437.7256       14139.067    
    497000   994            1036.8963      120.4924       438.23552      15972.459    
    497100   994.2          986.15796      114.59636      433.9734       14665.466    
    497200   994.4          973.64258      113.14201      431.03536      12210.006    
    497300   994.6          1008.7613      117.22297      432.15242      14093.574    
    497400   994.8          992.64458      115.35013      440.99506      16026.36     
    497500   995            1002.0036      116.4377       441.63194      16625.231    
    497600   995.2          1002.5924      116.50612      435.68886      12708.335    
    497700   995.4          969.50594      112.66131      433.01645      15229.259    
    497800   995.6          978.43232      113.6986       434.86366      13075.461    
    497900   995.8          1031.3449      119.8473       439.2057       12365.454    
    498000   996            1037.2338      120.53162      443.03758      16481.052    
    498100   996.2          1056.9702      122.82508      446.771        17266.336    
    498200   996.4          997.20082      115.87959      440.0414       13815.924    
    498300   996.6          999.97342      116.20178      434.76465      13416.284    
    498400   996.8          982.06864      114.12116      432.12715      14295.895    
    498500   997            1027.9632      119.45433      433.5639       11835.574    
    498600   997.2          994.01119      115.50894      438.00786      15047.344    
    498700   997.4          1060.0736      123.18571      443.33151      12625.142    
    498800   997.6          1024.1112      119.00671      440.37744      13306.367    
    498900   997.8          991.40452      115.20603      432.33539      13828.411    
    499000   998            949.14178      110.2949       431.26933      14103.421    
    499100   998.2          976.68692      113.49578      434.95917      13163.426    
    499200   998.4          1044.2736      121.34968      439.34597      12986.175    
    499300   998.6          1019.8614      118.51286      439.07075      13031.439    
    499400   998.8          969.71631      112.68576      430.47218      13890.078    
    499500   999            985.98909      114.57673      426.60234      14771.877    
    499600   999.2          969.1301       112.61764      430.66262      14885.165    
    499700   999.4          998.13862      115.98857      435.18976      13834.372    
    499800   999.6          976.29643      113.4504       436.10696      12901.37     
    499900   999.8          1002.7217      116.52115      436.88848      16283.465    
    500000   1000           1011.6249      117.55574      436.13473      14371.938    
Loop time of 326.116 on 1 procs for 500000 steps with 900 atoms

Performance: 264.937 ns/day, 0.091 hours/ns, 1533.198 timesteps/s
53.9% CPU use with 1 MPI tasks x no OpenMP threads

MPI task timing breakdown:
Section |  min time  |  avg time  |  max time  |%varavg| %total
---------------------------------------------------------------
Pair    | 209.29     | 209.29     | 209.29     |   0.0 | 64.18
Neigh   | 104.47     | 104.47     | 104.47     |   0.0 | 32.03
Comm    | 3.9962     | 3.9962     | 3.9962     |   0.0 |  1.23
Output  | 2.1472     | 2.1472     | 2.1472     |   0.0 |  0.66
Modify  | 5.5407     | 5.5407     | 5.5407     |   0.0 |  1.70
Other   |            | 0.6723     |            |       |  0.21

Nlocal:            900 ave         900 max         900 min
Histogram: 1 0 0 0 0 0 0 0 0 0
Nghost:           2760 ave        2760 max        2760 min
Histogram: 1 0 0 0 0 0 0 0 0 0
Neighs:              0 ave           0 max           0 min
Histogram: 1 0 0 0 0 0 0 0 0 0
FullNghs:        94758 ave       94758 max       94758 min
Histogram: 1 0 0 0 0 0 0 0 0 0

Total # of neighbors = 94758
Ave neighs/atom = 105.28667
Neighbor list builds = 50000
Dangerous builds not checked

Total wall time: 0:05:45
