ITEM: TIMESTEP
0
ITEM: NUMBER OF ATOMS
56
ITEM: BOX BOUNDS xy xz yz pp pp pp
-4.4528164863586426e+00 1.2203788340091705e+01 0.0000000000000000e+00
-8.4733366966247559e-03 5.5348814725875854e+00 -4.4341279864311218e+00
-2.9168844223022461e-02 1.9049128890037537e+01 0.0000000000000000e+00
ITEM: ATOMS id type xs ys zs fx fy fz
1 1 0.598092 4.41887e-05 0.132366 0 -0.0221939 0.0793724
2 1 0.348093 0.166624 0.132366 0 0.0221615 0.07938
3 1 0.287328 2.39879e-05 0.275225 0 0.00282288 -0.00375748
4 1 0.0373275 0.166644 0.275225 0 -0.00283623 -0.00375557
5 1 0.97651 1.9421e-05 0.418082 0 -1.90735e-06 0.00101471
6 1 0.0980924 4.41295e-05 0.132366 0 -0.0221806 0.0793762
7 1 0.00344745 0.500074 0.0609403 0 2.54925 1.95091
8 1 0.848093 0.166623 0.132366 0 0.0221672 0.0793877
9 1 0.753449 0.666593 0.0609403 0 -2.54917 1.95086
10 1 0.787329 2.39872e-05 0.275225 0 0.00282097 -0.00374985
11 1 0.726509 0.166647 0.418082 0 5.72205e-06 0.00100899
12 1 0.665681 2.47556e-05 0.560942 0 -7.82013e-05 -0.000314713
13 1 0.415682 0.166643 0.560942 0 7.05719e-05 -0.00031662
14 1 0.354861 2.39811e-05 0.703801 0 -0.000301361 -0.000627518
15 1 0.104861 0.166644 0.703801 0 0.000270844 -0.000635147
16 1 0.0440527 2.63435e-05 0.846651 0 0.00126457 -0.00520325
17 1 0.692728 0.500026 0.203802 0 0.00127792 0.00521278
18 1 0.537328 0.166645 0.275225 0 -0.0028553 -0.00375557
19 1 0.442729 0.66664 0.203802 0 -0.00125885 0.00522423
20 1 0.47651 2.01694e-05 0.418082 0 -1.90735e-05 0.0010128
21 1 0.381919 0.500023 0.346651 0 -0.000274658 0.000644684
22 1 0.22651 0.166648 0.418082 0 1.90735e-06 0.0010128
23 1 0.131919 0.666642 0.346651 0 0.000312805 0.000627518
24 1 0.165681 2.49573e-05 0.560941 0 -8.2016e-05 -0.000307083
25 1 0.0710984 0.500025 0.489511 0 -7.62939e-05 0.000301361
26 1 0.915682 0.166643 0.560941 0 6.86646e-05 -0.000301361
27 1 0.8211 0.666642 0.489511 0 8.2016e-05 0.000324249
28 1 0.503447 0.500073 0.0609404 0 2.54927 1.95091
29 1 0.253447 0.666593 0.0609403 0 -2.54919 1.95086
30 1 0.192729 0.500026 0.203802 0 0.00127411 0.00521469
31 1 0.942729 0.666641 0.203802 0 -0.0012722 0.00522041
32 1 0.88192 0.500024 0.346651 0 -0.000297546 0.00062561
33 1 0.794051 0.166641 0.846652 0 -0.00126266 -0.00523758
34 1 0.733333 7.47473e-05 0.989512 0 2.54918 -1.95084
35 1 0.483333 0.166594 0.989513 0 -2.54925 -1.95091
36 1 0.85486 2.44315e-05 0.703801 0 -0.000305176 -0.000631332
37 1 0.760269 0.50002 0.632371 0 -7.62939e-06 -0.00103188
38 1 0.604861 0.166643 0.703801 0 0.00028038 -0.000623703
39 1 0.510271 0.666647 0.632371 0 1.14441e-05 -0.0010128
40 1 0.544052 2.63314e-05 0.846651 0 0.00127792 -0.00522232
41 1 0.449452 0.500023 0.775228 0 0.0028286 0.00375748
42 1 0.294051 0.166641 0.846651 0 -0.00127411 -0.00522232
43 1 0.199452 0.666644 0.775228 0 -0.00282478 0.00374794
44 1 0.233333 7.37033e-05 0.989512 0 2.5492 -1.95086
45 1 0.138688 0.500043 0.918087 0 -0.0221672 -0.0793629
46 1 0.631919 0.666643 0.346651 0 0.000312805 0.000635147
47 1 0.571098 0.500025 0.489511 0 -7.05719e-05 0.000305176
48 1 0.321099 0.666642 0.489511 0 8.58307e-05 0.000305176
49 1 0.26027 0.500019 0.632371 0 5.72205e-06 -0.00100708
50 1 0.0102713 0.666647 0.63237 0 2.47955e-05 -0.000991821
51 1 0.949454 0.500022 0.775228 0 0.00284386 0.00374985
52 1 0.983331 0.166594 0.989513 0 -2.54925 -1.9509
53 1 0.888687 0.666624 0.918087 0 0.0221691 -0.0794048
54 1 0.699452 0.666643 0.775228 0 -0.00283051 0.00375366
55 1 0.638688 0.500044 0.918087 0 -0.0221653 -0.0793819
56 1 0.388688 0.666624 0.918087 0 0.0221634 -0.0793724
ITEM: TIMESTEP
1
ITEM: NUMBER OF ATOMS
56
ITEM: BOX BOUNDS xy xz yz pp pp pp
-4.4528164863586426e+00 1.2203788340091705e+01 0.0000000000000000e+00
-8.4733366966247559e-03 5.5348814725875854e+00 -4.4341279864311218e+00
-2.9168844223022461e-02 1.9049128890037537e+01 0.0000000000000000e+00
ITEM: ATOMS id type xs ys zs fx fy fz
1 1 0.598151 -0.000112864 0.132529 0 0.097271 0.0582561
2 1 0.348152 0.16678 0.132529 0 -0.09729 0.0582676
3 1 0.287325 4.39636e-05 0.275217 0 0.00223351 0.00254059
4 1 0.0373247 0.166624 0.275217 0 -0.00225449 0.0025425
5 1 0.97651 1.94075e-05 0.418084 0 -0.000324249 -0.00123596
6 1 0.0981516 -0.000112829 0.132529 0 0.0972729 0.0582542
7 1 0.00490267 0.518113 0.0649515 0 1.08131 0.768888
8 1 0.848152 0.16678 0.132529 0 -0.0972748 0.0582695
9 1 0.754904 0.648554 0.0649515 0 -1.0813 0.768902
10 1 0.787326 4.39494e-05 0.275217 0 0.00223923 0.00254822
11 1 0.72651 0.166647 0.418084 0 0.000333786 -0.00124359
12 1 0.665681 2.42022e-05 0.560941 0 -2.28882e-05 6.29425e-05
13 1 0.415681 0.166643 0.560941 0 1.52588e-05 5.72205e-05
14 1 0.354861 2.18486e-05 0.7038 0 -0.000494003 -0.00418663
15 1 0.104861 0.166646 0.7038 0 0.000469208 -0.00419617
16 1 0.0440488 3.52921e-05 0.84664 0 -0.0133057 -0.0964165
17 1 0.692732 0.500035 0.203812 0 -0.0132942 0.0964298
18 1 0.537325 0.166625 0.275217 0 -0.00227165 0.00254631
19 1 0.442733 0.666631 0.203812 0 0.0133209 0.0964355
20 1 0.476511 2.00344e-05 0.418084 0 -0.00034523 -0.00124168
21 1 0.38192 0.500021 0.346653 0 -0.00047493 0.0042057
22 1 0.22651 0.166648 0.418084 0 0.000329971 -0.00123215
23 1 0.13192 0.666645 0.346653 0 0.000505447 0.00418663
24 1 0.165681 2.43769e-05 0.560941 0 -2.28882e-05 6.48499e-05
25 1 0.0710986 0.500024 0.489512 0 -2.28882e-05 -7.24792e-05
26 1 0.915682 0.166643 0.560941 0 1.52588e-05 7.43866e-05
27 1 0.8211 0.666642 0.489512 0 2.67029e-05 -4.76837e-05
28 1 0.504902 0.518113 0.0649516 0 1.08132 0.768879
29 1 0.254903 0.648554 0.0649515 0 -1.0813 0.768904
30 1 0.192733 0.500035 0.203812 0 -0.0133038 0.0964298
31 1 0.942733 0.666632 0.203812 0 0.0133057 0.0964451
32 1 0.881921 0.500022 0.346653 0 -0.000499725 0.00418663
33 1 0.794047 0.166632 0.846641 0 0.0133018 -0.0964546
34 1 0.731878 0.0181137 0.985501 0 1.08131 -0.768885
35 1 0.481878 0.148554 0.985501 0 -1.08131 -0.768906
36 1 0.854859 2.22719e-05 0.7038 0 -0.00050354 -0.00419235
37 1 0.760268 0.50002 0.632369 0 -0.000333786 0.00122452
38 1 0.604861 0.166645 0.7038 0 0.000488281 -0.00418663
39 1 0.51027 0.666647 0.632369 0 0.000335693 0.00123787
40 1 0.544048 3.53745e-05 0.846641 0 -0.0133114 -0.0964355
41 1 0.449455 0.500043 0.775235 0 0.00224686 -0.00253487
42 1 0.294047 0.166632 0.846641 0 0.0133038 -0.0964432
43 1 0.199455 0.666624 0.775236 0 -0.00224686 -0.00254631
44 1 0.231878 0.0181129 0.985501 0 1.08131 -0.768879
45 1 0.138629 0.499886 0.917923 0 0.0972824 -0.0582409
46 1 0.631919 0.666645 0.346653 0 0.000505447 0.00418854
47 1 0.571099 0.500024 0.489512 0 -9.53674e-06 -6.86646e-05
48 1 0.321099 0.666643 0.489512 0 3.05176e-05 -7.43866e-05
49 1 0.26027 0.500019 0.632369 0 -0.000329971 0.00123978
50 1 0.0102706 0.666647 0.632368 0 0.000347137 0.00125313
51 1 0.949456 0.500043 0.775236 0 0.00226212 -0.00254631
52 1 0.981876 0.148554 0.985501 0 -1.08131 -0.768902
53 1 0.888628 0.666781 0.917924 0 -0.0972843 -0.0582867
54 1 0.699455 0.666623 0.775236 0 -0.00225067 -0.00253868
55 1 0.638629 0.499887 0.917924 0 0.09729 -0.0582619
56 1 0.388629 0.66678 0.917924 0 -0.0972824 -0.0582657
ITEM: TIMESTEP
2
ITEM: NUMBER OF ATOMS
56
ITEM: BOX BOUNDS xy xz yz pp pp pp
-4.4528164863586426e+00 1.2203788340091705e+01 0.0000000000000000e+00
-8.4733366966247559e-03 5.5348814725875854e+00 -4.4341279864311218e+00
-2.9168844223022461e-02 1.9049128890037537e+01 0.0000000000000000e+00
ITEM: ATOMS id type xs ys zs fx fy fz
1 1 0.598253 0.00150991 0.132812 0 0.219809 0.0467358
2 1 0.348254 0.165157 0.132811 0 -0.219812 0.0467472
3 1 0.28733 8.12252e-05 0.27523 0 -3.8147e-05 0.0142155
4 1 0.0373291 0.166587 0.27523 0 2.67029e-05 0.0142193
5 1 0.976508 1.39981e-05 0.418078 0 -0.000818253 -0.00217819
6 1 0.0982541 0.00150997 0.132812 0 0.219803 0.0467377
7 1 0.00625481 0.536153 0.0686786 0 0.235323 0.0416451
8 1 0.848255 0.165157 0.132811 0 -0.219807 0.0467396
9 1 0.756256 0.630514 0.0686786 0 -0.235315 0.0416546
10 1 0.787331 8.13065e-05 0.27523 0 -3.62396e-05 0.0142231
11 1 0.726507 0.166653 0.418078 0 0.000835419 -0.00217819
12 1 0.665681 2.38204e-05 0.560941 0 -7.62939e-05 -0.000425339
13 1 0.415681 0.166643 0.560941 0 7.05719e-05 -0.000413895
14 1 0.354853 1.36071e-05 0.70378 0 -0.00147629 -0.0135593
15 1 0.104853 0.166654 0.70378 0 0.00146294 -0.0135632
16 1 0.0438792 -0.000186686 0.846173 0 -0.024004 -0.183846
17 1 0.692901 0.499813 0.20428 0 -0.0239964 0.183853
18 1 0.537329 0.166587 0.27523 0 2.09808e-05 0.0142307
19 1 0.442903 0.666853 0.20428 0 0.0240097 0.183874
20 1 0.476509 1.4275e-05 0.418078 0 -0.000835419 -0.00217819
21 1 0.381927 0.500013 0.346673 0 -0.00147247 0.0135632
22 1 0.226508 0.166653 0.418078 0 0.000822067 -0.0021801
23 1 0.131927 0.666653 0.346673 0 0.00148201 0.0135574
24 1 0.165681 2.39951e-05 0.560941 0 -8.39233e-05 -0.000408173
25 1 0.0710984 0.500024 0.489512 0 -8.2016e-05 0.00041008
26 1 0.915682 0.166644 0.560941 0 7.05719e-05 -0.000404358
27 1 0.8211 0.666643 0.489512 0 8.01086e-05 0.000421524
28 1 0.506255 0.536152 0.0686787 0 0.235323 0.0416355
29 1 0.256255 0.630514 0.0686787 0 -0.235317 0.0416412
30 1 0.192902 0.499813 0.20428 0 -0.0239983 0.183865
31 1 0.942902 0.666854 0.20428 0 0.0239964 0.183868
32 1 0.881928 0.500014 0.346673 0 -0.0014782 0.0135517
33 1 0.793878 0.166854 0.846173 0 0.0240002 -0.183887
34 1 0.730526 0.0361532 0.981774 0 0.235306 -0.041626
35 1 0.480526 0.130515 0.981774 0 -0.235331 -0.041647
36 1 0.854852 1.38714e-05 0.70378 0 -0.0014782 -0.0135536
37 1 0.76027 0.500014 0.632375 0 -0.000823975 0.00216293
38 1 0.604854 0.166653 0.70378 0 0.00147629 -0.0135612
39 1 0.510272 0.666653 0.632375 0 0.000823975 0.0021801
40 1 0.543878 -0.000186699 0.846173 0 -0.0240021 -0.183867
41 1 0.449451 0.500081 0.775223 0 -3.24249e-05 -0.0142155
42 1 0.293878 0.166854 0.846173 0 0.0239983 -0.183874
43 1 0.199451 0.666586 0.775223 0 3.43323e-05 -0.014225
44 1 0.230526 0.0361524 0.981774 0 0.235321 -0.0416374
45 1 0.138527 0.501509 0.917641 0 0.219814 -0.0467243
46 1 0.631927 0.666653 0.346673 0 0.00148392 0.0135593
47 1 0.571099 0.500024 0.489512 0 -6.86646e-05 0.000411987
48 1 0.321099 0.666643 0.489512 0 8.2016e-05 0.00041008
49 1 0.260272 0.500013 0.632375 0 -0.000823975 0.00217819
50 1 0.0102728 0.666653 0.632375 0 0.000843048 0.00218964
51 1 0.949452 0.50008 0.775223 0 -2.47955e-05 -0.0142193
52 1 0.980524 0.130515 0.981774 0 -0.235321 -0.0416584
53 1 0.888526 0.665158 0.917641 0 -0.219812 -0.0467529
54 1 0.699451 0.666586 0.775223 0 2.67029e-05 -0.0142155
55 1 0.638526 0.50151 0.917641 0 0.219818 -0.0467453
56 1 0.388526 0.665157 0.917641 0 -0.219797 -0.0467377
ITEM: TIMESTEP
3
ITEM: NUMBER OF ATOMS
56
ITEM: BOX BOUNDS xy xz yz pp pp pp
-4.4528164863586426e+00 1.2203788340091705e+01 0.0000000000000000e+00
-8.4733366966247559e-03 5.5348814725875854e+00 -4.4341279864311218e+00
-2.9168844223022461e-02 1.9049128890037537e+01 0.0000000000000000e+00
ITEM: ATOMS id type xs ys zs fx fy fz
1 1 0.598631 0.0183597 0.133853 0 0.0828056 0.0285492
2 1 0.348632 0.148307 0.133853 0 -0.0828018 0.0285549
3 1 0.287444 7.8301e-05 0.275546 0 -0.00576782 0.0590858
4 1 0.037444 0.166589 0.275546 0 0.00576401 0.0590744
5 1 0.976491 -4.87263e-05 0.41803 0 -0.00185204 0.00582314
6 1 0.0986317 0.0183593 0.133853 0 0.0828171 0.0285454
7 1 0.00659131 0.554192 0.0696062 0 -0.0658798 -0.094862
8 1 0.848633 0.148308 0.133853 0 -0.0828114 0.0285625
9 1 0.756593 0.612476 0.0696064 0 0.0658665 -0.0948677
10 1 0.787446 7.85284e-05 0.275546 0 -0.00576591 0.0590744
11 1 0.72649 0.166717 0.41803 0 0.00184822 0.00582504
12 1 0.665677 1.7972e-05 0.560932 0 -0.00177574 -0.00710869
13 1 0.415678 0.166649 0.560932 0 0.00177765 -0.00712585
14 1 0.354744 -9.95599e-05 0.703478 0 -0.0105381 -0.0743656
15 1 0.104744 0.166766 0.703478 0 0.0105457 -0.0743694
16 1 0.0423937 -0.00202675 0.842078 0 0.0632114 -0.000169754
17 1 0.694387 0.497974 0.208375 0 0.0632114 0.000171661
18 1 0.537444 0.166588 0.275547 0 0.00576973 0.0590725
19 1 0.444388 0.668694 0.208375 0 -0.0632153 0.000146866
20 1 0.476491 -4.97653e-05 0.41803 0 -0.00183296 0.00581932
21 1 0.382037 0.4999 0.346975 0 -0.0105362 0.0743694
22 1 0.226491 0.166716 0.41803 0 0.00184631 0.00581551
23 1 0.132037 0.666767 0.346975 0 0.0105362 0.0743713
24 1 0.165678 1.75618e-05 0.560932 0 -0.00176811 -0.00712776
25 1 0.0711018 0.500018 0.489521 0 -0.00177383 0.00712776
26 1 0.915679 0.166649 0.560932 0 0.00178146 -0.00711823
27 1 0.821103 0.666649 0.489521 0 0.00177574 0.00711632
28 1 0.506591 0.554191 0.069606 0 -0.0658798 -0.0948582
29 1 0.256591 0.612476 0.0696061 0 0.0658684 -0.0948372
30 1 0.194388 0.497974 0.208375 0 0.0632095 0.000162125
31 1 0.944388 0.668694 0.208375 0 -0.0632133 0.000154495
32 1 0.882037 0.499901 0.346975 0 -0.0105286 0.0743771
33 1 0.792392 0.168693 0.842078 0 -0.0632095 -0.000146866
34 1 0.73019 0.0541909 0.980847 0 -0.0658512 0.0948257
35 1 0.480189 0.112475 0.980846 0 0.0658875 0.094862
36 1 0.854743 -9.94419e-05 0.703478 0 -0.0105381 -0.0743675
37 1 0.760288 0.499951 0.632423 0 -0.00184822 -0.0058136
38 1 0.604744 0.166767 0.703478 0 0.0105324 -0.0743713
39 1 0.51029 0.666716 0.632423 0 0.00184822 -0.00583076
40 1 0.542392 -0.00202661 0.842078 0 0.063221 -0.00015831
41 1 0.449336 0.500078 0.774907 0 -0.00576782 -0.059082
42 1 0.292392 0.168693 0.842078 0 -0.0632019 -0.000146866
43 1 0.199336 0.666589 0.774906 0 0.00575256 -0.0590782
44 1 0.23019 0.0541912 0.980847 0 -0.0658646 0.0948524
45 1 0.138149 0.51836 0.9166 0 0.082798 -0.0285568
46 1 0.632036 0.666767 0.346975 0 0.0105343 0.0743713
47 1 0.571102 0.500019 0.489521 0 -0.00177956 0.00712204
48 1 0.321102 0.666649 0.489521 0 0.00177574 0.00711823
49 1 0.260289 0.49995 0.632423 0 -0.00184822 -0.00581741
50 1 0.0102904 0.666717 0.632423 0 0.00182915 -0.00582504
51 1 0.949337 0.500078 0.774907 0 -0.00576782 -0.0590916
52 1 0.980187 0.112476 0.980846 0 0.0658855 0.0948734
53 1 0.888148 0.648308 0.9166 0 -0.0828152 -0.0285492
54 1 0.699336 0.666588 0.774907 0 0.00576973 -0.0590954
55 1 0.638149 0.51836 0.9166 0 0.0827866 -0.0285244
56 1 0.388149 0.648309 0.9166 0 -0.0828228 -0.0285587
ITEM: TIMESTEP
4
ITEM: NUMBER OF ATOMS
56
ITEM: BOX BOUNDS xy xz yz pp pp pp
-4.4528164863586426e+00 1.2203788340091705e+01 0.0000000000000000e+00
-8.4733366966247559e-03 5.5348814725875854e+00 -4.4341279864311218e+00
-2.9168844223022461e-02 1.9049128890037537e+01 0.0000000000000000e+00
ITEM: ATOMS id type xs ys zs fx fy fz
1 1 0.598886 0.026596 0.134555 0 -0.0400162 0.0226994
2 1 0.348887 0.140071 0.134556 0 0.0400105 0.0226879
3 1 0.287846 -0.000274152 0.276654 0 0.00872612 0.0342293
4 1 0.0378457 0.166941 0.276653 0 -0.00872231 0.0342236
5 1 0.976525 -0.000173575 0.418124 0 -0.00360489 0.0267124
6 1 0.0988867 0.0265962 0.134555 0 -0.0400162 0.0226917
7 1 0.00604483 0.553582 0.0680998 0 0.0615406 0.0476971
8 1 0.848888 0.140071 0.134556 0 0.0400124 0.0226898
9 1 0.756046 0.613086 0.0681 0 -0.0615292 0.0476952
10 1 0.787847 -0.000273781 0.276653 0 0.00872612 0.0342236
11 1 0.726524 0.166842 0.418124 0 0.00361252 0.026701
12 1 0.665631 -9.14731e-05 0.560804 0 -0.00568008 -0.0214863
13 1 0.415632 0.166758 0.560804 0 0.00568199 -0.0214863
14 1 0.354245 -0.000763887 0.702102 0 -0.00239944 -0.0338821
15 1 0.104245 0.167431 0.702102 0 0.00238609 -0.033886
16 1 0.0421119 0.00148211 0.841301 0 0.0584488 0.0357094
17 1 0.694669 0.501483 0.209152 0 0.0584335 -0.0357075
18 1 0.537846 0.166941 0.276654 0 -0.0087204 0.0342236
19 1 0.44467 0.665185 0.209152 0 -0.0584335 -0.0357056
20 1 0.476525 -0.000173699 0.418124 0 -0.00361443 0.026701
21 1 0.382536 0.499236 0.348351 0 -0.00239563 0.033886
22 1 0.226525 0.166841 0.418124 0 0.00361633 0.0267086
23 1 0.132536 0.667431 0.348351 0 0.00239372 0.0338879
24 1 0.165631 -9.15283e-05 0.560804 0 -0.00567436 -0.0214882
25 1 0.0711482 0.499908 0.489649 0 -0.00567436 0.0214748
26 1 0.915633 0.166759 0.560804 0 0.00567627 -0.0214825
27 1 0.82115 0.666759 0.489649 0 0.00568199 0.0214787
28 1 0.506044 0.553581 0.0680997 0 0.0615387 0.0476933
29 1 0.256045 0.613085 0.0681002 0 -0.0615177 0.0476818
30 1 0.19467 0.501483 0.209152 0 0.0584297 -0.0357018
31 1 0.94467 0.665184 0.209152 0 -0.0584393 -0.0357132
32 1 0.882536 0.499237 0.34835 0 -0.00240707 0.0338974
33 1 0.79211 0.165185 0.841301 0 -0.0584393 0.0356979
34 1 0.730736 0.053582 0.982353 0 0.0615234 -0.0476856
35 1 0.480736 0.113086 0.982353 0 -0.061533 -0.047699
36 1 0.854244 -0.000763796 0.702102 0 -0.00240517 -0.0338917
37 1 0.760254 0.499826 0.632329 0 -0.00361252 -0.0267086
38 1 0.604245 0.167431 0.702102 0 0.00239182 -0.033886
39 1 0.510255 0.666841 0.632329 0 0.00361633 -0.0267048
40 1 0.542111 0.00148285 0.841301 0 0.0584259 0.0357113
41 1 0.448934 0.499726 0.773799 0 0.00872421 -0.0342274
42 1 0.29211 0.165185 0.841301 0 -0.0584431 0.0357018
43 1 0.198934 0.66694 0.773799 0 -0.00871658 -0.0342159
44 1 0.230736 0.0535818 0.982353 0 0.0615196 -0.0476723
45 1 0.137894 0.526596 0.915898 0 -0.0400009 -0.0226974
46 1 0.632535 0.667431 0.348351 0 0.00239563 0.0338898
47 1 0.571148 0.499909 0.489649 0 -0.00567245 0.0214844
48 1 0.321148 0.666759 0.489649 0 0.00567055 0.0214825
49 1 0.260255 0.499826 0.632329 0 -0.00360298 -0.026701
50 1 0.0102563 0.666841 0.632329 0 0.0036068 -0.026701
51 1 0.948935 0.499726 0.773799 0 0.00872231 -0.0342178
52 1 0.980734 0.113086 0.982353 0 -0.0615482 -0.0476933
53 1 0.887893 0.640071 0.915897 0 0.0400124 -0.0227013
54 1 0.698934 0.66694 0.773799 0 -0.00871849 -0.034214
55 1 0.637894 0.526596 0.915898 0 -0.0400009 -0.0227127
56 1 0.387894 0.640071 0.915897 0 0.0400143 -0.0226917
ITEM: TIMESTEP
5
ITEM: NUMBER OF ATOMS
56
ITEM: BOX BOUNDS xy xz yz pp pp pp
-4.4528164863586426e+00 1.2203788340091705e+01 0.0000000000000000e+00
-8.4733366966247559e-03 5.5348814725875854e+00 -4.4341279864311218e+00
-2.9168844223022461e-02 1.9049128890037537e+01 0.0000000000000000e+00
ITEM: ATOMS id type xs ys zs fx fy fz
1 1 0.599226 0.0291574 0.135494 0 -0.0246201 0.0139217
2 1 0.349227 0.137509 0.135494 0 0.0246353 0.0139198
3 1 0.288371 0.00012043 0.2781 0 0.0224876 5.53131e-05
4 1 0.0383702 0.166546 0.278099 0 -0.0224876 7.05719e-05
5 1 0.97675 -0.000515147 0.418744 0 -0.00613022 0.0283337
6 1 0.0992269 0.029158 0.135493 0 -0.0246315 0.0139256
7 1 0.00604545 0.557603 0.0681015 0 0.010416 -0.00718498
8 1 0.849228 0.137509 0.135494 0 0.0246315 0.0139008
9 1 0.756047 0.609065 0.0681016 0 -0.0104218 -0.00717926
10 1 0.788372 0.000120896 0.278099 0 0.0224838 7.24792e-05
11 1 0.726749 0.167184 0.418744 0 0.00611687 0.0283337
12 1 0.665437 -0.000572053 0.560271 0 -0.00701714 -0.0151558
13 1 0.415438 0.167239 0.560271 0 0.00702095 -0.0151405
14 1 0.353659 -0.00137499 0.700487 0 0.00924492 0.0207462
15 1 0.103659 0.168041 0.700486 0 -0.00924683 0.0207653
16 1 0.0421964 0.00800048 0.841534 0 -0.00462341 -0.0187378
17 1 0.694584 0.508 0.208919 0 -0.00462341 0.018734
18 1 0.53837 0.166546 0.278099 0 -0.0224857 6.10352e-05
19 1 0.444585 0.658667 0.208919 0 0.00462723 0.0187454
20 1 0.47675 -0.000515352 0.418743 0 -0.00612068 0.0283394
21 1 0.383122 0.498626 0.349966 0 0.0092411 -0.0207577
22 1 0.22675 0.167183 0.418743 0 0.00612068 0.0283394
23 1 0.133122 0.668042 0.349966 0 -0.0092392 -0.0207691
24 1 0.165438 -0.000571463 0.560271 0 -0.00702858 -0.015131
25 1 0.0713416 0.499428 0.490182 0 -0.00700951 0.0151463
26 1 0.915439 0.167239 0.560271 0 0.00701904 -0.0151482
27 1 0.821343 0.667239 0.490182 0 0.00702095 0.0151615
28 1 0.506045 0.557602 0.0681014 0 0.0104275 -0.00717545
29 1 0.256046 0.609066 0.0681019 0 -0.0104351 -0.00718689
30 1 0.194585 0.507999 0.208919 0 -0.00462341 0.018734
31 1 0.944585 0.658667 0.208919 0 0.00462723 0.0187454
32 1 0.883123 0.498626 0.349967 0 0.00924683 -0.0207787
33 1 0.792195 0.158667 0.841534 0 0.00463295 -0.0187397
34 1 0.730735 0.0576027 0.982351 0 0.0104084 0.00720596
35 1 0.480735 0.109066 0.982351 0 -0.0104408 0.00718498
36 1 0.853657 -0.00137533 0.700486 0 0.00924873 0.0207691
37 1 0.760029 0.499484 0.631709 0 -0.00613213 -0.0283356
38 1 0.603659 0.168041 0.700486 0 -0.00923347 0.020771
39 1 0.510031 0.667183 0.631709 0 0.00610733 -0.0283279
40 1 0.542195 0.00799998 0.841534 0 -0.00462532 -0.0187416
41 1 0.44841 0.50012 0.772353 0 0.0224876 -6.67572e-05
42 1 0.292195 0.158667 0.841534 0 0.00461769 -0.0187321
43 1 0.19841 0.666546 0.772354 0 -0.02248 -6.29425e-05
44 1 0.230736 0.0576018 0.982352 0 0.010437 0.00716019
45 1 0.137554 0.529158 0.914959 0 -0.0246258 -0.0139103
46 1 0.633122 0.668042 0.349967 0 -0.00924301 -0.0207596
47 1 0.571342 0.499429 0.490182 0 -0.00702286 0.0151405
48 1 0.321342 0.667239 0.490182 0 0.00702667 0.0151443
49 1 0.260031 0.499484 0.631709 0 -0.00612068 -0.0283489
50 1 0.0100315 0.667182 0.631709 0 0.00613022 -0.0283375
51 1 0.948411 0.500121 0.772353 0 0.02248 -6.48499e-05
52 1 0.980733 0.109065 0.982351 0 -0.0104313 0.00717545
53 1 0.887552 0.637509 0.914959 0 0.0246315 -0.0139103
54 1 0.698409 0.666546 0.772353 0 -0.0224972 -6.86646e-05
55 1 0.637553 0.529157 0.91496 0 -0.0246201 -0.0139389
56 1 0.387553 0.637509 0.914959 0 0.024641 -0.0139122
ITEM: TIMESTEP
6
ITEM: NUMBER OF ATOMS
56
ITEM: BOX BOUNDS xy xz yz pp pp pp
-4.4528164863586426e+00 1.2203788340091705e+01 0.0000000000000000e+00
-8.4733366966247559e-03 5.5348814725875854e+00 -4.4341279864311218e+00
-2.9168844223022461e-02 1.9049128890037537e+01 0.0000000000000000e+00
ITEM: ATOMS id type xs ys zs fx fy fz
1 1 0.599363 0.0278636 0.13587 0 -0.0019989 0.0064106
2 1 0.349364 0.138804 0.13587 0 0.0019989 0.00641251
3 1 0.288434 0.00163204 0.278275 0 0.00810623 0.00938988
4 1 0.038434 0.165035 0.278275 0 -0.00810814 0.00938988
5 1 0.976971 -0.000955455 0.419354 0 -0.00325775 -0.000200272
6 1 0.0993636 0.0278636 0.13587 0 -0.0019989 0.00642586
7 1 0.00599622 0.558766 0.0679658 0 -0.0112514 -0.0114899
8 1 0.849364 0.138804 0.13587 0 0.00199509 0.00641823
9 1 0.755998 0.607901 0.067966 0 0.0112476 -0.011488
10 1 0.788436 0.00163227 0.278275 0 0.00810623 0.00938606
11 1 0.72697 0.167623 0.419354 0 0.00326729 -0.000200272
12 1 0.66531 -0.00108688 0.55992 0 -0.00258255 0.012291
13 1 0.415311 0.167754 0.55992 0 0.00257683 0.0122814
14 1 0.35373 -0.000846871 0.700684 0 0.00440598 -0.00456238
15 1 0.10373 0.167513 0.700684 0 -0.00440216 -0.00456619
16 1 0.042078 0.00848606 0.841208 0 -0.00909233 0.00186729
17 1 0.694703 0.508486 0.209245 0 -0.00908089 -0.00186348
18 1 0.538434 0.165035 0.278275 0 -0.00810814 0.00939751
19 1 0.444704 0.658182 0.209245 0 0.00907898 -0.00187111
20 1 0.476972 -0.000955049 0.419354 0 -0.0032711 -0.000200272
21 1 0.38305 0.499153 0.349769 0 0.0044117 0.00456047
22 1 0.226971 0.167623 0.419354 0 0.0032692 -0.000198364
23 1 0.13305 0.667514 0.349769 0 -0.00440407 0.00457191
24 1 0.165311 -0.00108695 0.55992 0 -0.00257492 0.0122795
25 1 0.0714689 0.498914 0.490533 0 -0.00259399 -0.0122871
26 1 0.915312 0.167754 0.55992 0 0.00258446 0.0122776
27 1 0.82147 0.667754 0.490533 0 0.00258064 -0.0122871
28 1 0.505996 0.558766 0.0679658 0 -0.0112514 -0.0114899
29 1 0.255996 0.607901 0.0679661 0 0.0112667 -0.0114861
30 1 0.194704 0.508485 0.209245 0 -0.00908661 -0.00187111
31 1 0.944704 0.658181 0.209245 0 0.00908279 -0.00187302
32 1 0.883051 0.499154 0.349769 0 0.00439453 0.00456619
33 1 0.792076 0.158182 0.841207 0 0.00907898 0.00188637
34 1 0.730785 0.0587655 0.982487 0 -0.01124 0.0114613
35 1 0.480784 0.107901 0.982487 0 0.0112667 0.0114975
36 1 0.853729 -0.000847013 0.700684 0 0.00440025 -0.00457573
37 1 0.759807 0.499044 0.631098 0 -0.00325775 0.000204086
38 1 0.60373 0.167513 0.700684 0 -0.00440598 -0.00457573
39 1 0.509809 0.667622 0.631099 0 0.00327492 0.000202179
40 1 0.542077 0.00848529 0.841208 0 -0.00908852 0.00185966
41 1 0.448346 0.501632 0.772178 0 0.00810242 -0.00938416
42 1 0.292076 0.158182 0.841208 0 0.00909424 0.00187111
43 1 0.198346 0.665035 0.772178 0 -0.00811005 -0.0093956
44 1 0.230785 0.0587664 0.982487 0 -0.011261 0.0114956
45 1 0.137417 0.527864 0.914583 0 -0.00199127 -0.00642204
46 1 0.63305 0.667514 0.349769 0 -0.00440216 0.00456238
47 1 0.571469 0.498914 0.490533 0 -0.00258255 -0.0122852
48 1 0.321469 0.667754 0.490533 0 0.00258636 -0.0122814
49 1 0.259809 0.499045 0.631098 0 -0.0032711 0.000204086
50 1 0.00980988 0.667623 0.631099 0 0.00326729 0.000200272
51 1 0.948347 0.501632 0.772178 0 0.00811768 -0.00938606
52 1 0.980782 0.107901 0.982487 0 0.0112438 0.0114822
53 1 0.887416 0.638803 0.914583 0 0.00200081 -0.00641632
54 1 0.698346 0.665034 0.772178 0 -0.00811005 -0.00938225
55 1 0.637417 0.527864 0.914583 0 -0.00201035 -0.00640106
56 1 0.387417 0.638804 0.914583 0 0.00198746 -0.00641251
ITEM: TIMESTEP
7
ITEM: NUMBER OF ATOMS
56
ITEM: BOX BOUNDS xy xz yz pp pp pp
-4.4528164863586426e+00 1.2203788340091705e+01 0.0000000000000000e+00
-8.4733366966247559e-03 5.5348814725875854e+00 -4.4341279864311218e+00
-2.9168844223022461e-02 1.9049128890037537e+01 0.0000000000000000e+00
ITEM: ATOMS id type xs ys zs fx fy fz
1 1 0.599432 0.0274917 0.13606 0 -0.00616074 0.00226402
2 1 0.349433 0.139176 0.13606 0 0.00615692 0.0022583
3 1 0.28851 0.00243611 0.278483 0 -0.00358582 0.00527763
4 1 0.0385094 0.16423 0.278483 0 0.00358772 0.00527573
5 1 0.977012 -0.00124706 0.419466 0 0.00113106 0.00114441
6 1 0.0994327 0.0274915 0.13606 0 -0.00616264 0.00225258
7 1 0.00590939 0.558265 0.0677265 0 0.00452995 0.00593185
8 1 0.849433 0.139176 0.13606 0 0.00615692 0.0022583
9 1 0.755911 0.608402 0.0677267 0 -0.00452805 0.00592995
10 1 0.788511 0.00243629 0.278483 0 -0.00358963 0.00527573
11 1 0.727011 0.167915 0.419466 0 -0.00114059 0.00115013
12 1 0.665369 -0.00134931 0.560082 0 -0.00173569 0.00397873
13 1 0.41537 0.168016 0.560082 0 0.00173759 0.00398064
14 1 0.353713 -0.000465188 0.700636 0 0.000802994 -0.000957489
15 1 0.103713 0.167131 0.700636 0 -0.000797272 -0.000963211
16 1 0.0420683 0.00799555 0.841181 0 0.000444412 0.00543404
17 1 0.694713 0.507996 0.209272 0 0.000432968 -0.00543404
18 1 0.53851 0.164231 0.278483 0 0.00358963 0.00527191
19 1 0.444714 0.658672 0.209272 0 -0.000434875 -0.00543404
20 1 0.477012 -0.0012474 0.419466 0 0.00114441 0.00115013
21 1 0.383067 0.499535 0.349816 0 0.000795364 0.000959396
22 1 0.227012 0.167915 0.419466 0 -0.00113678 0.0011425
23 1 0.133067 0.667132 0.349816 0 -0.000801086 0.000955582
24 1 0.16537 -0.00134903 0.560082 0 -0.0017395 0.00396919
25 1 0.07141 0.498651 0.49037 0 -0.00172806 -0.00396538
26 1 0.915371 0.168017 0.560082 0 0.00173378 0.00398254
27 1 0.821411 0.668017 0.490371 0 0.00173569 -0.00397301
28 1 0.505909 0.558265 0.0677265 0 0.00453758 0.00594139
29 1 0.25591 0.608403 0.0677269 0 -0.0045414 0.00593376
30 1 0.194714 0.507995 0.209272 0 0.000450134 -0.00543785
31 1 0.944713 0.658671 0.209272 0 -0.000440598 -0.00543213
32 1 0.883068 0.499535 0.349816 0 0.000810623 0.000965118
33 1 0.792067 0.158672 0.841181 0 -0.000436783 0.00541496
34 1 0.730871 0.0582652 0.982726 0 0.00451851 -0.0059166
35 1 0.480871 0.108402 0.982726 0 -0.00453949 -0.0059433
36 1 0.853712 -0.00046566 0.700636 0 0.000804901 -0.000957489
37 1 0.759767 0.498752 0.630987 0 0.00113869 -0.00115204
38 1 0.603713 0.167132 0.700637 0 -0.000808716 -0.000963211
39 1 0.509769 0.667915 0.630987 0 -0.0011425 -0.00115204
40 1 0.542067 0.00799497 0.841181 0 0.000442505 0.00543785
41 1 0.448271 0.502436 0.77197 0 -0.00358582 -0.00527382
42 1 0.292067 0.158672 0.841181 0 -0.000448227 0.00542259
43 1 0.19827 0.66423 0.77197 0 0.00358772 -0.00527382
44 1 0.230871 0.0582651 0.982726 0 0.00454521 -0.00592995
45 1 0.137348 0.527492 0.914393 0 -0.00617027 -0.00225639
46 1 0.633067 0.667133 0.349816 0 -0.000801086 0.000955582
47 1 0.57141 0.498651 0.49037 0 -0.0017395 -0.0039711
48 1 0.32141 0.668017 0.49037 0 0.00173187 -0.00397491
49 1 0.259768 0.498752 0.630987 0 0.00113869 -0.00114441
50 1 0.00976944 0.667915 0.630987 0 -0.00113869 -0.00115204
51 1 0.948272 0.502436 0.77197 0 -0.00358391 -0.00527382
52 1 0.980869 0.108401 0.982726 0 -0.00452995 -0.00592041
53 1 0.887347 0.639175 0.914392 0 0.00615883 -0.00226593
54 1 0.69827 0.66423 0.77197 0 0.00359154 -0.00527382
55 1 0.637348 0.527491 0.914393 0 -0.00615883 -0.0022583
56 1 0.387348 0.639176 0.914392 0 0.00617027 -0.00226402
ITEM: TIMESTEP
8
ITEM: NUMBER OF ATOMS
56
ITEM: BOX BOUNDS xy xz yz pp pp pp
-4.4528164863586426e+00 1.2203788340091705e+01 0.0000000000000000e+00
-8.4733366966247559e-03 5.5348814725875854e+00 -4.4341279864311218e+00
-2.9168844223022461e-02 1.9049128890037537e+01 0.0000000000000000e+00
ITEM: ATOMS id type xs ys zs fx fy fz
1 1 0.599461 0.0270658 0.136141 0 -0.000453949 0.000902176
2 1 0.349462 0.139602 0.136141 0 0.000452042 0.000900269
3 1 0.288558 0.00242312 0.278615 0 -0.00380707 0.000822067
4 1 0.0385574 0.164243 0.278615 0 0.00381279 0.000816345
5 1 0.977028 -0.00125171 0.41951 0 0.00130844 0.00270653
6 1 0.0994617 0.0270655 0.13614 0 -0.000453949 0.000892639
7 1 0.00592394 0.5584 0.0677666 0 -0.00126457 -0.00189018
8 1 0.849463 0.139601 0.13614 0 0.000452042 0.000904083
9 1 0.755925 0.608267 0.0677668 0 0.00125694 -0.00188255
10 1 0.788559 0.00242308 0.278615 0 -0.00380325 0.000812531
11 1 0.727027 0.16792 0.41951 0 -0.00130653 0.00271034
12 1 0.665406 -0.00150556 0.560183 0 -0.000679016 -0.00107002
13 1 0.415406 0.168173 0.560184 0 0.000688553 -0.0010643
14 1 0.353703 -0.000333005 0.70061 0 -0.000816345 0.00242615
15 1 0.103703 0.166999 0.70061 0 0.000818253 0.00242233
16 1 0.0420977 0.00790722 0.841262 0 0.000133514 -0.000818253
17 1 0.694683 0.507907 0.209191 0 0.0001297 0.000816345
18 1 0.538558 0.164244 0.278615 0 0.00380707 0.000822067
19 1 0.444684 0.65876 0.209191 0 -0.000125885 0.000823975
20 1 0.477028 -0.00125148 0.41951 0 0.0012989 0.00270844
21 1 0.383077 0.499667 0.349843 0 -0.000812531 -0.00241852
22 1 0.227028 0.16792 0.41951 0 -0.00130844 0.00270844
23 1 0.133077 0.667 0.349843 0 0.000812531 -0.00241661
24 1 0.165406 -0.0015054 0.560183 0 -0.000688553 -0.0010643
25 1 0.0713734 0.498495 0.490269 0 -0.000686646 0.00105858
26 1 0.915408 0.168173 0.560184 0 0.000684738 -0.00106049
27 1 0.821375 0.668173 0.49027 0 0.000680923 0.00105858
28 1 0.505924 0.5584 0.0677668 0 -0.00126457 -0.001894
29 1 0.255924 0.608268 0.067767 0 0.00126839 -0.00188446
30 1 0.194684 0.507907 0.209191 0 0.000127792 0.000827789