LAMMPS (4 May 2022)
## variable
variable        temp            equal 666
variable        eql_step        equal 500000
variable        rd_seed         equal 2

variable        temp_damp       equal 0.2 # tau_NVT = timestep * 100
variable        t_step          equal 0.002
variable        rlx_step        equal 20000

variable        thermo_freq     equal 100
variable        dump_freq       equal 100

## units
dimension       3
boundary        p p p
units           metal
atom_style      atomic
neighbor        1.0 bin
neigh_modify    every 10 delay 0 check no

## data.lmp, potential
read_data       data.lmp
Reading data file ...
  orthogonal box = (0 0 0) to (26.38965 26.38965 25.40376)
  1 by 1 by 1 MPI processor grid
  reading atoms ...
  900 atoms
  read_data CPU = 0.001 seconds
pair_style      mdpu model.pb
pair_coeff * *

## velocity, timestep
velocity        all create ${temp} ${rd_seed} loop geom
velocity        all create 666 ${rd_seed} loop geom
velocity        all create 666 2 loop geom
timestep        ${t_step}
timestep        0.002

## nvt-relax
fix             equil all nvt temp ${temp} ${temp} ${temp_damp}
fix             equil all nvt temp 666 ${temp} ${temp_damp}
fix             equil all nvt temp 666 666 ${temp_damp}
fix             equil all nvt temp 666 666 0.2
run             ${rlx_step}
run             20000
Generated 0 of 6 mixed pair_coeff terms from geometric mixing rule
Neighbor list info ...
  update every 10 steps, delay 0 steps, check no
  max neighbors/atom: 2000, page size: 100000
  master list distance cutoff = 8
  ghost atom cutoff = 8
  binsize = 4, bins = 7 7 7
  1 neighbor lists, perpetual/occasional/extra = 1 0 0
  (1) pair mdpu, perpetual
      attributes: full, newton on
      pair build: full/bin/atomonly
      stencil: full/bin/3d
      bin: standard
Per MPI rank memory allocation (min/avg/max) = 3.057 | 3.057 | 3.057 Mbytes
   Step          Temp          E_pair         E_mol          TotEng         Press     
         0   666            199.06477      0              276.45721      10130.905    
     20000   672.42412      270.58011      0              348.71907      12486.933    
Loop time of 12.043 on 1 procs for 20000 steps with 900 atoms

Performance: 286.973 ns/day, 0.084 hours/ns, 1660.721 timesteps/s
53.7% CPU use with 1 MPI tasks x no OpenMP threads

MPI task timing breakdown:
Section |  min time  |  avg time  |  max time  |%varavg| %total
---------------------------------------------------------------
Pair    | 7.6784     | 7.6784     | 7.6784     |   0.0 | 63.76
Neigh   | 4.0761     | 4.0761     | 4.0761     |   0.0 | 33.85
Comm    | 0.13824    | 0.13824    | 0.13824    |   0.0 |  1.15
Output  | 1.6943e-05 | 1.6943e-05 | 1.6943e-05 |   0.0 |  0.00
Modify  | 0.12706    | 0.12706    | 0.12706    |   0.0 |  1.06
Other   |            | 0.02319    |            |       |  0.19

Nlocal:            900 ave         900 max         900 min
Histogram: 1 0 0 0 0 0 0 0 0 0
Nghost:           2791 ave        2791 max        2791 min
Histogram: 1 0 0 0 0 0 0 0 0 0
Neighs:              0 ave           0 max           0 min
Histogram: 1 0 0 0 0 0 0 0 0 0
FullNghs:        97936 ave       97936 max       97936 min
Histogram: 1 0 0 0 0 0 0 0 0 0

Total # of neighbors = 97936
Ave neighs/atom = 108.81778
Neighbor list builds = 2000
Dangerous builds not checked
unfix           equil

## nvt-equal
reset_timestep  0
fix             equil all nvt temp ${temp} ${temp} ${temp_damp}
fix             equil all nvt temp 666 ${temp} ${temp_damp}
fix             equil all nvt temp 666 666 ${temp_damp}
fix             equil all nvt temp 666 666 0.2
fix             com all recenter INIT INIT INIT

## thermo_style
thermo_style    custom step time temp ke etotal press
thermo          ${thermo_freq}
thermo          100
thermo_modify   flush yes
dump            1 all custom ${dump_freq} dump.lammpstraj id type x y z
dump            1 all custom 100 dump.lammpstraj id type x y z
run             500000
Generated 0 of 6 mixed pair_coeff terms from geometric mixing rule
Per MPI rank memory allocation (min/avg/max) = 4.341 | 4.341 | 4.341 Mbytes
   Step          Time           Temp          KinEng         TotEng         Press     
         0   0              672.42412      78.138958      348.71907      12486.933    
       100   0.2            660.15597      76.713339      349.79615      15247.325    
       200   0.4            678.8729       78.888337      353.80457      14100.282    
       300   0.6            697.08366      81.004516      356.7926       13320.475    
       400   0.8            673.28494      78.238989      352.02055      14327.808    
       500   1              668.85285      77.723959      348.77626      14066.973    
       600   1.2            642.09744      74.61485       349.92366      14932.138    
       700   1.4            649.13999      75.433228      353.09826      16186.127    
       800   1.6            695.92018      80.869314      354.96352      15480.585    
       900   1.8            660.85512      76.794584      352.12963      13913.339    
      1000   2              648.53894      75.363384      347.14537      14640.315    
      1100   2.2            647.47138      75.239328      347.47837      15144.72     
      1200   2.4            651.24997      75.678418      350.47783      13119.874    
      1300   2.6            699.51827      81.28743       353.45776      14659.896    
      1400   2.8            679.35231      78.944047      353.362        15545.701    
      1500   3              667.04205      77.513534      352.16314      13752.61     
      1600   3.2            655.2268       76.140545      350.25537      12797.186    
      1700   3.4            643.47358      74.774764      349.94542      15180.475    
      1800   3.6            658.39578      76.508796      354.60966      14061.522    
      1900   3.8            674.16852      78.341665      357.50166      13445.212    
      2000   4              679.21032      78.927548      354.16998      15070.185    
      2100   4.2            661.35545      76.852724      351.55498      13745.5      
      2200   4.4            643.09092      74.730297      350.93166      15584.816    
      2300   4.6            679.90904      79.008742      351.51327      16416.676    
      2400   4.8            657.07938      76.355825      352.02053      14066.771    
      2500   5              681.19436      79.158103      351.04432      14938.987    
      2600   5.2            680.28741      79.052711      348.41367      13759.949    
      2700   5.4            648.33172      75.339303      346.68065      14130.319    
      2800   5.6            674.3251       78.35986       348.77126      14745.813    
      2900   5.8            647.6694       75.262339      353.61711      13372.33     
      3000   6              675.07432      78.446924      353.40671      13663.664    
      3100   6.2            676.29993      78.589346      351.17209      13186.411    
      3200   6.4            690.42116      80.230302      349.12586      11735.642    
      3300   6.6            660.91059      76.80103       347.29396      12732.09     
      3400   6.8            658.1224       76.477028      345.1775       15188.124    
      3500   7              650.7624       75.62176       345.97913      12927.706    
      3600   7.2            670.56391      77.922792      350.46642      14722.001    
      3700   7.4            670.3383       77.896575      353.26434      14043.619    
      3800   7.6            688.37454      79.992474      354.24447      15469.681    
      3900   7.8            686.73935      79.802457      352.19531      13089.326    
      4000   8              647.86751      75.28536       347.25928      12916.875    
      4100   8.2            645.40084      74.998721      346.49104      14984.98     
      4200   8.4            656.37575      76.274059      348.92575      12434.904    
      4300   8.6            656.29252      76.264387      351.49169      15441.16     
      4400   8.8            668.6081       77.695518      351.49653      13241.074    
      4500   9              640.81849      74.466229      350.54154      13918.044    
      4600   9.2            660.18696      76.71694       349.76433      15397.183    
      4700   9.4            668.22617      77.651135      349.50569      12745.373    
      4800   9.6            669.48757      77.797716      351.39698      13440.007    
      4900   9.8            698.94901      81.221279      354.21757      15128.746    
      5000   10             668.87259      77.726253      354.46612      17979.595    
      5100   10.2           661.71957      76.895036      350.81002      12984.177    
      5200   10.4           630.66101      73.285881      346.70736      14866.218    
      5300   10.6           675.84567      78.536558      347.92593      14976.598    
      5400   10.8           673.00588      78.206561      350.42775      14320.653    
      5500   11             667.80068      77.601691      352.35332      15221.171    
      5600   11.2           690.6987       80.262553      352.63043      12761.959    
      5700   11.4           669.17765      77.761703      351.93118      14392.333    
      5800   11.6           666.07229      77.400844      350.36293      12358.781    
      5900   11.8           658.52318      76.5236        349.42544      14384.306    
      6000   12             663.47071      77.098528      350.49829      12724.57     
      6100   12.2           685.65255      79.676165      354.66664      13927.322    
      6200   12.4           677.11583      78.684157      356.65179      13520.729    
      6300   12.6           668.85053      77.723689      353.30348      14029.996    
      6400   12.8           679.83018      78.999578      349.96843      13656.249    
      6500   13             655.60708      76.184735      350.04629      12871.596    
      6600   13.2           649.3676       75.459678      351.44123      12493.07     
      6700   13.4           666.85961      77.492335      354.24087      16227.821    
      6800   13.6           700.52659      81.404601      358.66206      13379.634    
      6900   13.8           683.28028      79.400497      361.01878      13170.82     
      7000   14             655.51165      76.173647      354.37054      14384.074    
      7100   14.2           659.97928      76.692806      352.15591      13411.229    
      7200   14.4           687.30244      79.86789       351.38947      13737.143    
      7300   14.6           660.26253      76.725722      350.5391       13721.149    
      7400   14.8           666.63225      77.465914      351.90165      14339.855    
      7500   15             676.555        78.618987      355.02846      13361.797    
      7600   15.2           710.62431      82.578006      356.59635      14919.222    
      7700   15.4           648.9202       75.407688      351.86837      12943.101    
      7800   15.6           638.2894       74.172337      349.30412      14287.713    
      7900   15.8           669.30213      77.776167      350.26825      14922.747    
      8000   16             674.20974      78.346455      354.02399      13394.164    
      8100   16.2           691.82159      80.393038      356.29824      14875.732    
      8200   16.4           705.43628      81.975132      355.4257       15398.041    
      8300   16.6           680.7307       79.104223      353.25387      13182.762    
      8400   16.8           642.44314      74.655021      351.12011      16218.413    
      8500   17             651.80509      75.742926      350.13789      15235.361    
      8600   17.2           660.74758      76.782087      348.31449      11680.478    
      8700   17.4           662.48506      76.983991      347.55464      13284.587    
      8800   17.6           656.49086      76.287435      351.15852      12049.13     
      8900   17.8           679.25437      78.932666      354.45378      13055.191    
      9000   18             675.27635      78.470401      355.5546       14927.478    
      9100   18.2           667.47094      77.563374      351.96439      17355.819    
      9200   18.4           666.29963      77.427262      348.21957      14164.433    
      9300   18.6           655.46732      76.168495      349.19793      12435.523    
      9400   18.8           671.31264      78.009798      351.2079       15041.649    
      9500   19             644.06987      74.844055      353.48032      15513.612    
      9600   19.2           674.81633      78.416944      355.89619      14616.342    
      9700   19.4           712.75438      82.82553       359.34689      17255.148    
      9800   19.6           704.18893      81.830183      358.2266       14390.234    
      9900   19.8           661.47929      76.867116      352.6816       12165.023    
     10000   20             667.68595      77.58836       350.05194      15758.98     
     10100   20.2           682.95622      79.362839      349.43363      12081.531    
     10200   20.4           681.04595      79.140856      352.22984      10280.489    
     10300   20.6           726.18487      84.386219      356.38239      15570.168    
     10400   20.8           674.08104      78.331499      354.64392      12104.279    
     10500   21             656.26399      76.261072      350.3308       14594.74     
     10600   21.2           674.11792      78.335785      350.1889       15204.85     
     10700   21.4           656.85506      76.329757      350.63325      13625.609    
     10800   21.6           653.51719      75.94188       351.64556      15788.7      
     10900   21.8           681.61324      79.206779      354.35965      13369.542    
     11000   22             697.9351       81.103457      355.48773      12294.616    
     11100   22.2           669.14892      77.758364      351.26498      15880.231    
     11200   22.4           661.34285      76.85126       347.53752      12341.918    
     11300   22.6           654.88615      76.10096       348.23272      12813.714    
     11400   22.8           692.74872      80.500775      351.74407      13814.202    
     11500   23             669.81346      77.835586      354.05616      13628.563    
     11600   23.2           685.57932      79.667656      354.03311      12459.241    
     11700   23.4           682.56237      79.317072      352.858        13448.71     
     11800   23.6           643.39741      74.765912      351.0012       12998.344    
     11900   23.8           655.75304      76.201697      348.70437      12927.553    
     12000   24             637.16923      74.042168      344.29462      12921.466    
     12100   24.2           613.15391      71.25147       341.90437      13168.282    
     12200   24.4           649.27482      75.448896      346.66584      13310.84     
     12300   24.6           646.91804      75.175027      349.93862      12689.371    
     12400   24.8           662.11009      76.940417      352.54148      14366.96     
     12500   25             652.47813      75.821136      355.15129      14134.762    
     12600   25.2           677.25563      78.700403      355.60924      14103.444    
     12700   25.4           648.66304      75.377805      350.44566      15158.07     
     12800   25.6           686.592        79.785334      347.84166      13595.102    
     12900   25.8           667.4206       77.557524      348.71532      14187.472    
     13000   26             672.40132      78.136308      351.95525      13376.796    
     13100   26.2           680.48528      79.075703      355.42355      13959.756    
     13200   26.4           687.26677      79.863745      354.60283      17108.414    
     13300   26.6           658.55845      76.5277        352.69974      14445.801    
     13400   26.8           668.17671      77.645388      351.82311      14546.968    
     13500   27             687.67692      79.911408      350.7481       15203.963    
     13600   27.2           673.73119      78.290846      347.77036      13038.722    
     13700   27.4           642.93413      74.712078      344.43082      12903.576    
     13800   27.6           637.45426      74.075289      346.31107      13659.643    
     13900   27.8           689.67613      80.143725      352.06743      13647.661    
     14000   28             697.8907       81.098298      353.25121      14090.942    
     14100   28.2           665.04604      77.281589      351.72332      12737.687    
     14200   28.4           678.58165      78.854493      348.54813      12525.163    
     14300   28.6           648.43875      75.351741      347.04286      16434.765    
     14400   28.8           651.3284       75.687532      350.80651      14971.962    
     14500   29             694.15003      80.663614      354.83175      15614.132    
     14600   29.2           708.42007      82.321862      353.09408      13858.447    
     14700   29.4           657.56241      76.411954      348.86645      14852.714    
     14800   29.6           672.93737      78.198599      347.88306      12407.034    
     14900   29.8           643.10891      74.732388      349.24383      13499.843    
     15000   30             657.69142      76.426947      351.00408      14666.513    
     15100   30.2           685.69152      79.680694      352.03553      14273.016    
     15200   30.4           664.81768      77.255052      351.61546      12170.077    
     15300   30.6           682.81065      79.345923      350.98134      15817.756    
     15400   30.8           657.41224      76.394504      350.00064      14025.549    
     15500   31             653.77364      75.971681      347.87057      15098.093    
     15600   31.2           648.88231      75.403285      346.40007      16308.172    
     15700   31.4           691.05984      80.304519      349.01704      11957.822    
     15800   31.6           660.03382      76.699145      352.97315      14080.632    
     15900   31.8           684.76196      79.572675      354.09996      15339.611    
     16000   32             688.1115       79.961908      350.91545      14350.482    
     16100   32.2           664.91701      77.266595      347.10126      13328.864    
     16200   32.4           686.2513       79.745744      347.2625       14447.998    
     16300   32.6           663.06537      77.051426      349.54092      14464.633    
     16400   32.8           667.85236      77.607697      352.76723      14611.18     
     16500   33             680.76788      79.108544      353.73151      14181.379    
     16600   33.2           646.68783      75.148275      349.97458      14186.994    
     16700   33.4           662.17622      76.948102      345.55912      13863.818    
     16800   33.6           630.4038       73.255991      347.2679       13613.935    
     16900   33.8           701.19502      81.482276      350.8475       13292.753    
     17000   34             670.559        77.922222      352.29346      15213.991    
     17100   34.2           674.54831      78.385799      352.41275      14836.163    
     17200   34.4           676.80808      78.648395      351.02491      13149.615    
     17300   34.6           638.92421      74.246105      345.01255      13792.676    
     17400   34.8           653.17657      75.902299      345.67961      13132.19     
     17500   35             668.08322      77.634524      350.11313      13770.396    
     17600   35.2           648.18305      75.322027      352.23015      12365.039    
     17700   35.4           658.02084      76.465226      352.68049      14896.134    
     17800   35.6           680.62583      79.092036      351.2167       14520.121    
     17900   35.8           649.15276      75.434712      346.10831      13279.364    
     18000   36             636.80205      73.999499      345.02209      15410.605    
     18100   36.2           650.98341      75.647443      347.8604       15859.91     
     18200   36.4           654.9947       76.113574      350.66833      15922.798    
     18300   36.6           661.13195      76.826753      351.85135      13731.192    
     18400   36.8           674.64936      78.397542      351.95945      13190.889    
     18500   37             658.20532      76.486664      349.84082      13050.331    
     18600   37.2           675.04866      78.443942      346.65737      14373.489    
     18700   37.4           636.60787      73.976934      345.15811      15266.788    
     18800   37.6           662.81785      77.022662      349.31046      14205.622    
     18900   37.8           661.41835      76.860034      353.37166      15545.111    
     19000   38             687.4999       79.890836      353.9608       14941.774    
     19100   38.2           656.02444      76.233235      352.22308      16158.164    
     19200   38.4           665.94919      77.386539      347.60388      15273.892    
     19300   38.6           664.42109      77.208967      345.60088      13956.578    
     19400   38.8           650.29014      75.566881      347.47191      13987.401    
     19500   39             647.09416      75.195493      349.66536      14655.389    
     19600   39.2           688.10378      79.96101       351.4475       15121.592    
     19700   39.4           700.41153      81.391231      353.84353      14607.373    
     19800   39.6           670.16922      77.876928      354.91134      14563.315    
     19900   39.8           635.35594      73.831455      352.49224      13490.707    
     20000   40             647.82999      75.281         348.01471      11741.217    
     20100   40.2           629.78078      73.183593      348.69633      15142.713    
     20200   40.4           665.99523      77.391889      352.78622      15285.194    
     20300   40.6           652.32572      75.803426      354.78449      11784.238    
     20400   40.8           704.88728      81.911335      354.03945      15081.239    
     20500   41             658.69426      76.543481      351.4649       12201.471    
     20600   41.2           675.33154      78.476814      350.98493      13270.092    
     20700   41.4           671.79449      78.065792      351.72474      13532.896    
     20800   41.6           664.07003      77.168172      351.44362      12124.824    
     20900   41.8           631.95487      73.436233      348.81782      13358.995    
     21000   42             656.7339       76.315678      345.69435      13271.117    
     21100   42.2           661.17277      76.831497      346.41686      11570.607    
     21200   42.4           650.48903      75.589994      351.72665      10760.409    
     21300   42.6           672.19746      78.112618      354.11684      15265.037    
     21400   42.8           680.23014      79.046055      351.92531      14111.851    
     21500   43             665.58914      77.3447        348.7942       12418.186    
     21600   43.2           655.7686       76.203505      348.15036      14993.984    
     21700   43.4           684.52628      79.545287      349.59007      14329.26     
     21800   43.6           670.00958      77.858376      351.14237      14955.364    
     21900   43.8           659.42777      76.628718      351.35237      13723.214    
     22000   44             648.09374      75.311649      350.74489      15139.23     
     22100   44.2           649.67813      75.495763      349.56166      14644.756    
     22200   44.4           642.02265      74.606158      349.23056      12726.525    
     22300   44.6           684.77892      79.574645      350.5872       13596.87     
     22400   44.8           694.364        80.688478      353.40063      13051.936    
     22500   45             692.11671      80.427333      355.02149      17770.341    
     22600   45.2           659.12205      76.593192      350.83005      14399.899    
     22700   45.4           674.1774       78.342697      347.56642      13632.139    
     22800   45.6           643.94597      74.829657      347.99823      14843.935    
     22900   45.8           665.40328      77.323102      350.86916      13289.911    
     23000   46             658.21887      76.488238      352.25718      12895.874    
     23100   46.2           664.42779      77.209746      351.70399      14549.67     
     23200   46.4           670.33284      77.895941      351.17871      13009.215    
     23300   46.6           675.0677       78.446155      350.76406      13179.543    
     23400   46.8           638.76482      74.227583      348.66045      14844.035    
     23500   47             656.88148      76.332827      347.6716       13460.579    
     23600   47.2           643.72288      74.803734      349.83365      13243.107    
     23700   47.4           664.63932      77.234326      353.7822       13527.446    
     23800   47.6           658.54426      76.526051      355.39862      13393.383    
     23900   47.8           669.67873      77.81993       354.52026      13274.122    
     24000   48             667.73554      77.594121      347.83608      15029.984    
     24100   48.2           633.77179      73.647369      346.58775      13001.132    
     24200   48.4           653.7566       75.969701      350.04277      14692.269    
     24300   48.6           669.19243      77.763419      352.55909      15771.133    
     24400   48.8           668.14138      77.641283      353.3723       13461.857    
     24500   49             665.4224       77.325324      352.41984      13469.828    
     24600   49.2           649.6198       75.488984      347.36094      14951.742    
     24700   49.4           653.09363      75.89266       346.67562      14891.375    
     24800   49.6           668.62941      77.697994      350.08881      13114.395    
     24900   49.8           676.82579      78.650453      352.84588      16757.127    
     25000   50             663.63362      77.117459      352.83221      14119.778    
     25100   50.2           692.77376      80.503685      351.67117      12432.533    
     25200   50.4           650.90339      75.638145      350.01328      15868.407    
     25300   50.6           671.15735      77.991753      346.97937      13641.573    
     25400   50.8           666.41206      77.440327      344.58586      11095.433    
     25500   51             663.73226      77.128921      347.4055       13367.741    
     25600   51.2           646.45217      75.12089       352.1578       14078.132    
     25700   51.4           701.55105      81.523648      353.4414       11901.271    
     25800   51.6           664.99435      77.275582      350.73709      12738.757    
     25900   51.8           704.29192      81.842151      348.54385      16157.26     
     26000   52             639.01416      74.256558      346.66659      11670.057    
     26100   52.2           637.32582      74.060365      347.17109      14251.319    
     26200   52.4           670.17603      77.877719      351.36565      13241.326    
     26300   52.6           672.66885      78.167396      354.49482      13841.656    
     26400   52.8           666.65058      77.468044      354.16612      13632.002    
     26500   53             661.9736       76.924556      349.82784      13359.435    
     26600   53.2           638.13808      74.154753      347.26089      10140.43     
     26700   53.4           629.39193      73.138408      348.55205      11743.288    
     26800   53.6           672.58003      78.157076      350.52336      15761.467    
     26900   53.8           667.63832      77.582825      351.32819      12843.275    
     27000   54             671.93575      78.082207      350.88501      13969.31     
     27100   54.2           666.88468      77.495247      348.86558      14243.141    
     27200   54.4           641.5066       74.546192      344.32711      13199.448    
     27300   54.6           670.07799      77.866326      345.75839      14305.218    
     27400   54.8           665.36751      77.318945      350.29444      14726.926    
     27500   55             648.17087      75.320611      351.67184      14845.352    
     27600   55.2           670.2659       77.888162      351.01089      13127.183    
     27700   55.4           649.68074      75.496066      347.89656      14335.13     
     27800   55.6           625.2007       72.651366      343.25959      11917.554    
     27900   55.8           653.55098      75.945806      345.11505      13106.519    
     28000   56             646.98159      75.182412      348.73372      11862.948    
     28100   56.2           650.01492      75.534899      350.24816      13063.966    
     28200   56.4           663.57931      77.111148      351.51389      13618.915    
     28300   56.6           687.12925      79.847765      352.23518      13494.276    
     28400   56.8           657.72758      76.431148      351.94691      14487.42     
     28500   57             671.64708      78.048662      350.86352      12687.26     
     28600   57.2           657.72142      76.430432      348.47882      15224.825    
     28700   57.4           634.84905      73.772552      347.79356      12722.94     
     28800   57.6           652.83907      75.863079      351.32624      13292.355    
     28900   57.8           676.83379      78.651382      355.18296      15376.634    
     29000   58             687.30138      79.867768      355.13545      13121.854    
     29100   58.2           666.44646      77.444324      351.37812      12636.236    
     29200   58.4           669.24617      77.769665      350.57965      14581.277    
     29300   58.6           681.67603      79.214075      350.96595      16382.607    
     29400   58.8           657.38842      76.391736      351.45249      12934.179    
     29500   59             685.02671      79.60344       354.28602      12434.638    
     29600   59.2           710.25735      82.535363      357.34322      14293.088    
     29700   59.4           671.15744      77.991764      356.24184      14431.978    
     29800   59.6           652.22361      75.791559      350.50169      13581.941    
     29900   59.8           654.13055      76.013156      349.0976       12689.976    
     30000   60             660.97924      76.809006      350.56946      14722.407    
     30100   60.2           685.46458      79.654323      353.60416      13113.136    
     30200   60.4           688.52404      80.009847      356.83706      12622.512    
     30300   60.6           703.49406      81.749437      361.87609      14958.122    
     30400   60.8           683.41197      79.415799      358.94571      15432.374    
     30500   61             657.88152      76.449037      354.71632      13699.759    
     30600   61.2           674.68213      78.40135       351.83986      16310.006    
     30700   61.4           665.05315      77.282415      348.9362       14027.869    
     30800   61.6           632.68397      73.520959      347.58704      11925.494    
     30900   61.8           646.17709      75.088925      351.43531      16759.33     
     31000   62             656.33585      76.269422      355.30136      14822.513    
     31100   62.2           674.27038      78.353502      354.16646      14361.75     
     31200   62.4           654.89546      76.102042      352.27725      15219.619    
     31300   62.6           673.48063      78.26173       351.12585      11797.377    
     31400   62.8           643.71481      74.802796      347.70334      15367.038    
     31500   63             643.79482      74.812093      343.05924      12658.681    
     31600   63.2           635.8239       73.885834      345.11361      15274.067    
     31700   63.4           656.64133      76.304921      348.78552      13083.779    
     31800   63.6           662.96324      77.039558      351.14829      12659.829    
     31900   63.8           665.33701      77.315401      352.40958      14234.054    
     32000   64             649.80368      75.510353      352.3364       13590.118    
     32100   64.2           654.97969      76.11183       349.13305      13375.551    
     32200   64.4           658.235        76.490113      346.53852      14705.833    
     32300   64.6           672.19153      78.11193       348.66242      14801.444    
     32400   64.8           692.99858      80.52981       354.45046      11589.368    
     32500   65             682.10826      79.264302      354.04562      15724.311    
     32600   65.2           647.25015      75.213619      351.70554      18668.721    
     32700   65.4           658.43177      76.512979      348.77414      11898.239    
     32800   65.6           645.56655      75.017977      345.21291      13313.042    
     32900   65.8           668.52653      77.686039      345.92677      13923.864    
     33000   66             656.42755      76.280078      352.33677      13801.21     
     33100   66.2           683.76124      79.456387      354.16649      14822.525    
     33200   66.4           656.23164      76.257313      353.07726      14770.594    
     33300   66.6           659.76562      76.667979      349.9893       11932.846    
     33400   66.8           646.46261      75.122104      347.59045      12187.952    
     33500   67             656.07211      76.238775      349.0564       13899.693    
     33600   67.2           675.03818      78.442724      354.97969      15859.438    
     33700   67.4           688.45408      80.001717      355.7011       13569.158    
     33800   67.6           667.69803      77.589763      352.49736      15396.972    
     33900   67.8           647.5713       75.250939      349.14482      14736.746    
     34000   68             657.02164      76.349115      349.38309      16865.024    
     34100   68.2           661.43374      76.861822      350.5592       13287.095    
     34200   68.4           681.32423      79.173194      352.0524       13919.169    
     34300   68.6           698.98247      81.225168      354.90381      15567.527    
     34400   68.8           697.47844      81.050392      359.51586      15094.78     
     34500   69             669.5152       77.800927      356.45192      13567.99     
     34600   69.2           663.92419      77.151224      352.11803      16104.67     
     34700   69.4           662.44075      76.978841      350.89298      14099.527    
     34800   69.6           664.36075      77.201955      350.55542      15233.456    
     34900   69.8           661.36267      76.853564      350.93836      16872.897    
     35000   70             680.82229      79.114866      353.37992      15329.551    
     35100   70.2           701.92141      81.566686      355.96347      12776.53     
     35200   70.4           680.63464      79.09306       354.02192      12661.312    
     35300   70.6           655.64193      76.188786      349.21812      15012.892    
     35400   70.8           649.13444      75.432583      348.13503      14888.844    
     35500   71             645.07436      74.960782      349.35107      14589.295    
     35600   71.2           658.61632      76.534424      351.24288      14299.531    
     35700   71.4           679.78126      78.993893      355.64041      14562.791    
     35800   71.6           735.89444      85.514518      359.51728      15192.471    
     35900   71.8           679.94784      79.013251      355.30207      13322.071    
     36000   72             675.54672      78.50182       352.47781      13893.245    
     36100   72.2           657.88346      76.449262      349.98964      12702.349    
     36200   72.4           671.66142      78.050329      349.56793      15054.148    
     36300   72.6           674.49497      78.379601      352.8502       12871.242    
     36400   72.8           674.87107      78.423305      356.34734      14107.76     
     36500   73             678.54868      78.850661      354.1685       14361.598    
     36600   73.2           680.51938      79.079666      351.72538      12709.038    
     36700   73.4           647.66331      75.261631      351.05931      14140.839    
     36800   73.6           660.2863       76.728484      349.87219      13871.307    
     36900   73.8           637.70654      74.104606      346.85754      14311.396    
     37000   74             628.60843      73.047361      345.66834      15518.775    
     37100   74.2           668.61578      77.69641       350.56303      14243.153    
     37200   74.4           673.20612      78.22983       353.91748      12371.016    
     37300   74.6           685.62519      79.672987      353.04849      16545.011    
     37400   74.8           660.60237      76.765212      349.60073      15605.971    
     37500   75             664.24904      77.188974      347.0659       11804.115    
     37600   75.2           662.28203      76.960397      350.84466      13672.511    
     37700   75.4           675.19533      78.460986      355.52599      14709.794    
     37800   75.6           668.97233      77.737843      353.6609       15065.877    
     37900   75.8           683.78795      79.45949       350.18338      13154.938    
     38000   76             641.54621      74.550794      347.52255      13594.066    
     38100   76.2           637.07003      74.030641      347.52478      16358.615    
     38200   76.4           676.16133      78.573239      353.50615      12432.472    
     38300   76.6           687.8285       79.929022      355.51962      12481.956    
     38400   76.8           685.60806      79.670996      352.68199      14618.136    
     38500   77             665.4429       77.327706      349.11429      13326.932    
     38600   77.2           659.47511      76.634219      348.44567      11866.714    
     38700   77.4           664.98567      77.274574      350.03406      13037.774    
     38800   77.6           682.91471      79.358015      356.34627      12960.069    
     38900   77.8           685.72264      79.684311      357.16954      16769.69     
     39000   78             667.21635      77.533789      353.39081      14242.107    
     39100   78.2           665.70318      77.357952      350.82463      14399.875    
     39200   78.4           665.42988      77.326193      350.41007      15752.363    
     39300   78.6           669.84526      77.839282      352.66875      14095.503    
     39400   78.8           694.63929      80.720468      358.23344      16206.073    
     39500   79             686.33242      79.755169      358.41593      16240.78     
     39600   79.2           688.15593      79.96707       356.08348      13015.027    
     39700   79.4           686.06314      79.723879      352.86841      14523.283    
     39800   79.6           656.09153      76.241032      349.50645      14957.94     
     39900   79.8           661.17842      76.832153      349.62153      13201.081    
     40000   80             650.51862      75.593432      352.39921      14901.087    
     40100   80.2           687.26181      79.863169      358.04232      15429.233    
     40200   80.4           682.95236      79.362391      357.43938      14391.743    
     40300   80.6           695.56353      80.82787       354.88614      15165.164    
     40400   80.8           654.05658      76.00456       352.70508      13063.068    
     40500   81             684.17836      79.504857      350.73416      12165.708    
     40600   81.2           654.11158      76.010951      349.66116      13851.092    
     40700   81.4           642.87649      74.705379      350.40128      14655.625    
     40800   81.6           690.32473      80.219095      354.86977      12749.322    
     40900   81.8           704.04407      81.81335       356.71465      13069.756    
     41000   82             651.05283      75.65551       354.18865      14795.687    
     41100   82.2           658.24018      76.490715      349.93816      14113.362    
     41200   82.4           650.76744      75.622346      349.3336       15557.452    
     41300   82.6           685.70185      79.681895      350.41016      15160.245    
     41400   82.8           674.22533      78.348267      351.63336      15001.715    
     41500   83             659.00359      76.579427      351.46461      14980.792    
     41600   83.2           674.9506       78.432547      347.8039       13303.786    
     41700   83.4           635.4587       73.843396      346.22034      14358.562    
     41800   83.6           655.73507      76.199609      349.52805      13056.214    
     41900   83.8           670.56601      77.923036      352.74589      11356.122    
     42000   84             690.03306      80.185202      352.61689      14276.018    
     42100   84.2           665.6548       77.352329      352.04913      14200.31     
     42200   84.4           652.35256      75.806545      347.74512      13908.235    
     42300   84.6           625.84659      72.726422      344.42882      15233.713    
     42400   84.8           650.04741      75.538675      347.88082      13677.508    
     42500   85             665.66757      77.353814      350.67303      13796.17     
     42600   85.2           659.89025      76.682461      351.43194      14246.341    
     42700   85.4           678.86125      78.886984      352.66058      15177.54     
     42800   85.6           655.61495      76.185651      353.36126      13199.585    
     42900   85.8           671.58988      78.042015      352.66601      14161.544    
     43000   86             664.66523      77.237337      349.62738      13880.844    
     43100   86.2           663.2206       77.069464      347.15415      13863.009    
     43200   86.4           656.89603      76.334518      348.02595      13787.897    
     43300   86.6           703.81055      81.786214      353.77918      13938.429    
     43400   86.8           680.21936      79.044802      353.32368      15317.751    
     43500   87             630.07213      73.21745       351.12256      13891.481    
     43600   87.2           661.37805      76.85535       349.67921      13380.01     
     43700   87.4           671.12492      77.987984      349.80124      13005.739    
     43800   87.6           663.51727      77.103938      352.22227      15544.971    
     43900   87.8           684.94314      79.593729      354.63754      14311.745    
     44000   88             682.76588      79.340721      355.33844      14008.261    
     44100   88.2           652.73926      75.851481      350.38716      15580.6      
     44200   88.4           644.35673      74.877391      348.08676      13071.06     
     44300   88.6           659.23564      76.606392      349.8404       12994.199    
     44400   88.8           676.1075       78.566984      352.4467       14685.643    
     44500   89             672.53022      78.151287      355.29309      12971.272    
     44600   89.2           690.05261      80.187474      360.59555      16417.652    
     44700   89.4           690.87928      80.283537      361.59793      17194.788    
     44800   89.6           678.24907      78.815846      354.83174      12889.183    
     44900   89.8           665.07864      77.285377      352.38486      14050.112    
     45000   90             655.2844       76.147239      349.65809      15802.367    
     45100   90.2           623.09348      72.406497      348.7193       14160.132    
     45200   90.4           664.34216      77.199794      352.18618      15379.644    
     45300   90.6           682.27648      79.28385       355.92833      14143.927    
     45400   90.8           708.73552      82.358519      356.09272      14399.893    
     45500   91             663.61632      77.115448      354.25927      15341.413    
     45600   91.2           683.46201      79.421614      352.71284      11490.041    
     45700   91.4           679.80523      78.996678      352.18492      14241.973    
     45800   91.6           645.61982      75.024167      352.44955      14541.397    
     45900   91.8           688.62239      80.021275      354.60719      12021.856    
     46000   92             691.9893       80.412527      358.2092       14446.493    
     46100   92.2           678.98974      78.901914      358.06649      14981.151    
     46200   92.4           668.63648      77.698816      352.72639      14223.835    
     46300   92.6           660.4341       76.745659      350.53216      15167.634    
     46400   92.8           620.89221      72.150698      350.23418      11380.707    
     46500   93             674.95793      78.433399      352.23217      15097.704    
     46600   93.2           689.51176      80.124624      357.24378      15258.055    
     46700   93.4           661.1071       76.823865      358.11491      13275.707    
     46800   93.6           684.73155      79.569142      354.57553      14386.269    
     46900   93.8           688.82112      80.044369      352.9958       13354.872    
     47000   94             675.42296      78.487437      352.48032      14376.362    
     47100   94.2           667.99849      77.624677      352.25976      15326.831    
     47200   94.4           657.59656      76.415923      353.05513      14042.839    
     47300   94.6           667.501        77.566868      354.86377      13742.847    
     47400   94.8           668.92593      77.732451      355.69928      12008.233    
     47500   95             660.85003      76.793993      353.14261      14989.963    
     47600   95.2           681.93989      79.244736      348.89864      12875.496    
     47700   95.4           663.16458      77.062954      348.51707      13294.892    
     47800   95.6           697.64931      81.070247      351.46613      15387.015    
     47900   95.8           652.05551      75.772027      354.11205      14187.121    
     48000   96             692.00796      80.414695      353.60193      15294.909    
     48100   96.2           639.3949       74.300802      351.90427      15483.851    
     48200   96.4           656.44057      76.281591      350.4425       15145.827    
     48300   96.6           665.85734      77.375866      349.13519      14300.535    
     48400   96.8           649.73239      75.502068      349.28701      14926.26     
     48500   97             661.67029      76.88931       353.7981       16957.147    
     48600   97.2           647.53643      75.246886      355.48117      15737.596    
     48700   97.4           666.57553      77.459323      353.93854      16492.979    
     48800   97.6           663.35647      77.085253      349.75827      11911.567    
     48900   97.8           673.79526      78.29829       347.88745      14035.107    
     49000   98             667.98357      77.622944      350.7003       16480.051    
     49100   98.2           715.10014      83.098119      357.21693      12867.968    
     49200   98.4           713.27196      82.885675      356.30765      12428.037    
     49300   98.6           669.48658      77.797601      351.78996      13891.4      
     49400   98.8           637.91722      74.129088      349.34038      12583.06     
     49500   99             643.50607      74.778539      349.57196      13774.692    
     49600   99.2           666.31403      77.428935      353.50155      15724.507    
     49700   99.4           683.27713      79.400131      357.40921      13203.103    
     49800   99.6           680.54489      79.082631      355.40818      12509.415    
     49900   99.8           639.72595      74.339271      349.32509      15114.158    
     50000   100            660.5254       76.756269      349.7562       12887.556    
     50100   100.2          667.6335       77.582264      351.74787      14701.925    
     50200   100.4          672.7688       78.179011      354.64979      13464.139    
     50300   100.6          678.5916       78.855649      355.00226      13593.242    
     50400   100.8          645.65102      75.027793      349.63683      14981.09     
     50500   101            678.16831      78.80646       347.6289       13228.123    
     50600   101.2          655.86519      76.21473       348.55616      12528.686    
     50700   101.4          671.34662      78.013747      352.00509      15087.014    
     50800   101.6          669.46468      77.795057      354.05857      17200.519    
     50900   101.8          691.40824      80.345005      353.37317      15703.866    
     51000   102            663.09153      77.054465      351.4945       13156.423    
     51100   102.2          651.70722      75.731552      350.11119      15029.615    
     51200   102.4          645.91312      75.05825       348.83902      12785.938    
     51300   102.6          654.13418      76.013578      348.71313      14241.373    
     51400   102.8          651.22169      75.675132      351.47908      13860.235    
     51500   103            655.47323      76.169182      354.46862      13177.927    
     51600   103.2          703.77303      81.781853      356.30811      16338.002    
     51700   103.4          659.88282      76.681597      351.47349      14391.291    
     51800   103.6          668.34532      77.664981      348.80195      9882.497     
     51900   103.8          679.45261      78.955702      348.63694      16317.357    
     52000   104            653.59396      75.950801      350.01179      15733.436    
     52100   104.2          670.63788      77.931388      354.49785      12635.678    
     52200   104.4          718.06848      83.443054      356.56135      15611.23     
     52300   104.6          650.44979      75.585434      352.16089      14467.562    
     52400   104.8          660.73027      76.780076      350.11572      14365.369    
     52500   105            672.10406      78.101765      350.0227       15618.22     
     52600   105.2          662.31405      76.964119      350.9619       13602.766    
     52700   105.4          677.8197       78.76595       352.76727      14888.377    
     52800   105.6          701.61332      81.530885      354.78149      15356.352    
     52900   105.8          680.95801      79.130637      356.09063      15714.9      
     53000   106            667.54589      77.572083      352.02295      13918.356    
     53100   106.2          619.3334       71.969557      348.17903      13477.366    
     53200   106.4          651.28413      75.682388      349.61769      13821.968    
     53300   106.6          695.41997      80.811188      352.3199       15744.946    
     53400   106.8          671.62404      78.045984      352.80309      14568.543    
     53500   107            662.83884      77.025102      352.0819       14202.549    
     53600   107.2          658.10927      76.475503      349.59713      11914.575    
     53700   107.4          602.76382      70.044092      344.11901      14453.183    
     53800   107.6          642.90097      74.708223      346.66152      14570.509    
     53900   107.8          657.40519      76.393685      351.05873      13528.303    
     54000   108            697.54533      81.058165      353.01119      14158.057    
     54100   108.2          647.61176      75.255641      351.23041      15844.672    
     54200   108.4          647.13269      75.19997       348.09226      13574.402    
     54300   108.6          647.94795      75.294707      343.73112      14375.415    
     54400   108.8          635.43375      73.840497      345.19537      15700.119    
     54500   109            673.05669      78.212466      350.79816      12495.147    
     54600   109.2          662.77298      77.017448      351.92127      15474.326    
     54700   109.4          650.24273      75.561372      352.23582      14685.361    
     54800   109.6          672.09032      78.100168      350.23076      14060.624    
     54900   109.8          647.59118      75.25325       347.18925      14773.33     
     55000   110            630.03579      73.213228      345.89633      13925.235    
     55100   110.2          669.68145      77.820246      351.21097      12101.391    
     55200   110.4          680.87271      79.120724      353.88469      15691.221    
     55300   110.6          654.25942      76.028131      353.39745      12568.263    
     55400   110.8          669.87061      77.842227      350.20782      13469.629    
     55500   111            664.02778      77.163262      347.28469      14157.702    
     55600   111.2          677.52728      78.73197       349.53823      13122.012    
     55700   111.4          683.23159      79.394838      355.96718      12269.667    
     55800   111.6          691.29906      80.332318      355.38393      13224.453    
     55900   111.8          642.86506      74.704051      351.9466       13161.861    
     56000   112            648.49339      75.35809       349.93609      14972.346    
     56100   112.2          663.29413      77.078008      349.43608      13782.12     
     56200   112.4          676.56837      78.620539      352.88194      15318.605    
     56300   112.6          679.70535      78.985072      357.18725      13352.793    
     56400   112.8          688.76744      80.038131      355.78136      15578.948    
     56500   113            665.21712      77.301469      351.87581      15394.663    
     56600   113.2          645.40125      74.998768      350.3481       14361.411    
     56700   113.4          662.47634      76.982977      350.15         11525.334    
     56800   113.6          641.94383      74.596999      351.96712      14794.987    
     56900   113.8          676.36215      78.596575      354.79356      15480.366    
     57000   114            696.10949      80.891313      360.24122      15269.486    
     57100   114.2          678.53083      78.848587      357.48939      13645.39     
     57200   114.4          663.96769      77.156279      353.82121      13681.798    
     57300   114.6          674.35268      78.363066      351.83071      13172.2      
     57400   114.8          651.92423      75.75677       350.6886       13258.505    
     57500   115            655.83549      76.211279      350.54942      12533.694    
     57600   115.2          659.04622      76.58438       354.62339      15961.014    
     57700   115.4          689.59021      80.133741      357.98931      15161.277    
     57800   115.6          677.32211      78.708128      355.6882       13791.637    
     57900   115.8          690.77532      80.271457      352.59896      15790.149    
     58000   116            645.14072      74.968494      351.88249      11754.01     
     58100   116.2          656.31506      76.267006      352.81436      14453.048    
     58200   116.4          690.16187      80.200171      354.44414      14485.07     
     58300   116.6          673.6853       78.285513      356.30871      13661.467    
     58400   116.8          702.83458      81.672802      357.08547      13315.025    
     58500   117            663.05593      77.050328      352.54886      15201.083    
     58600   117.2          637.22224      74.048328      349.71699      14027.329    
     58700   117.4          650.79151      75.625143      348.8976       12980.192    
     58800   117.6          677.30374      78.705993      349.9219       12861.683    
     58900   117.8          676.05406      78.560774      354.08103      14631.85     
     59000   118            692.12961      80.428832      355.98509      13836.701    
     59100   118.2          666.65088      77.468079      352.58501      15318.043    
     59200   118.4          633.71708      73.641011      348.72843      12385.33     
     59300   118.6          642.09232      74.614255      349.29225      13174.544    
     59400   118.8          647.67014      75.262425      350.45086      13076.491    
     59500   119            668.68831      77.704839      352.48245      13780.397    
     59600   119.2          669.90206      77.845883      353.75816      12392.091    
     59700   119.4          700.48371      81.399618      356.17747      13154.212    
     59800   119.6          697.03006      80.998288      355.32292      12073.329    
     59900   119.8          671.78795      78.065032      350.78006      14883.277    
     60000   120            652.8432       75.86356       348.15145      12139.425    
     60100   120.2          659.27352      76.610794      348.37928      13401.382    
     60200   120.4          696.06188      80.88578       352.84403      13729.879    
     60300   120.6          669.12733      77.755855      355.9772       14527.871    
     60400   120.8          674.67478      78.400495      354.10576      14686.92     
     60500   121            651.99602      75.765112      351.0278       14213.841    
     60600   121.2          649.64658      75.492097      349.59837      13203.435    
     60700   121.4          668.06785      77.632738      348.59546      13521.332    
     60800   121.6          652.99729      75.881465      347.38883      13613.746    
     60900   121.8          648.9616       75.412498      347.97156      13283.993    
     61000   122            682.64684      79.326888      351.63368      15618.411    
     61100   122.2          688.21067      79.973431      354.14078      13585.786    
     61200   122.4          660.82257      76.790802      352.30348      12562.079    
     61300   122.6          648.73192      75.385809      348.13797      12255.246    
     61400   122.8          644.664        74.913097      345.48132      15169.154    
     61500   123            636.53468      73.96843       347.19522      16223.662    
     61600   123.2          643.15972      74.738292      349.13285      11068.452    
     61700   123.4          659.13981      76.595256      352.3139       14638.453    
     61800   123.6          687.14048      79.849071      353.92762      11539.976    
     61900   123.8          659.08857      76.589302      353.06987      13568.463    
     62000   124            648.45991      75.3542        347.86447      14499.292    
     62100   124.2          645.27262      74.983821      346.26998      13791.91     
     62200   124.4          671.97224      78.086447      348.89037      13196.341    
     62300   124.6          656.28346      76.263335      352.08936      13164.247    
     62400   124.8          674.0196       78.324361      352.52371      12512.733    
     62500   125            661.7788       76.901919      351.64417      12503.465    
     62600   125.2          672.24447      78.118082      349.64441      13125.477    
     62700   125.4          666.31775      77.429367      347.16834      15195.807    
     62800   125.6          628.59121      73.04536       345.93141      12699.63     
     62900   125.8          647.14002      75.200822      349.37403      13709.296    
     63000   126            659.67925      76.657942      353.73449      15982.135    
     63100   126.2          676.80537      78.648081      354.90058      15153.661    
     63200   126.4          669.95006      77.85146       352.6569       13723.502    
     63300   126.6          647.84239      75.282441      348.16359      12758.399    
     63400   126.8          631.68717      73.405126      347.72737      13557.754    
     63500   127            649.44924      75.469165      349.70411      12567.297    
     63600   127.2          672.7355       78.175141      351.70558      12862.189    
     63700   127.4          682.08844      79.261999      352.89889      12379.578    
     63800   127.6          651.69993      75.730705      353.20162      14518.333    
     63900   127.8          674.38472      78.36679       351.80057      13581.656    
     64000   128            629.61517      73.164349      348.3875       14334.529    
     64100   128.2          644.69952      74.917224      347.83939      13077.842    
     64200   128.4          645.66382      75.029281      351.54628      14507.779    
     64300   128.6          692.20706      80.437831      354.81055      13275.465    
     64400   128.8          666.51481      77.452267      354.33556      13894.267    
     64500   129            683.08972      79.378353      353.27346      13540.218    
     64600   129.2          650.5887       75.601576      352.0276       14320.88     
     64700   129.4          644.45884      74.889256      351.90552      13239.932    
     64800   129.6          670.58129      77.924812      351.64688      12897.295    
     64900   129.8          668.65226      77.700649      351.64531      13320.179    
     65000   130            681.74289      79.221844      353.12803      11462.369    
     65100   130.2          680.31318      79.055705      356.56178      14530.209    
     65200   130.4          676.49842      78.612411      358.8937       14667.536    
     65300   130.6          672.76675      78.178773      354.30527      12126.369    
     65400   130.8          660.40114      76.741829      350.78294      13136.794    
     65500   131            667.42044      77.557506      350.31314      11039.177    
     65600   131.2          689.04119      80.069942      351.03184      13711.301    
     65700   131.4          672.31238      78.125973      352.36715      11934.218    
     65800   131.6          672.954        78.200533      352.89224      14817.245    
     65900   131.8          648.61926      75.372717      353.30162      16779.312    
     66000   132            655.28563      76.147382      351.10501      12557.422    
     66100   132.2          653.40893      75.9293        347.85158      12243.466    
     66200   132.4          627.35796      72.902051      346.85534      12866.972    
     66300   132.6          667.9072       77.61407       352.13935      14358.302    
     66400   132.8          678.72693      78.871375      354.54709      11826.037    
     66500   133            644.75003      74.923093      352.42636      14230.977    
     66600   133.2          676.61569      78.626038      350.37657      13934.52     
     66700   133.4          676.25738      78.584402      348.75718      11957.649    
     66800   133.6          627.31616      72.897192      345.11267      14215.817    
     66900   133.8          629.46426      73.146813      343.50619      14152.397    
     67000   134            660.38918      76.740439      348.13138      13801.027    
     67100   134.2          674.56225      78.387419      351.39041      12984.278    
     67200   134.4          682.8573       79.351344      352.62979      14523.275    
     67300   134.6          668.39566      77.670831      351.00151      12579.628    
     67400   134.8          642.2294       74.630184      346.82412      14692.959    
     67500   135            639.23192      74.281862      343.96937      13017.152    
     67600   135.2          663.8854       77.146717      348.16927      14268.712    
     67700   135.4          676.33967      78.593963      352.46207      14051.913    
     67800   135.6          665.43355      77.326619      352.75489      14598.88     
     67900   135.8          684.85109      79.583033      351.33125      13116.994    
     68000   136            647.51549      75.244454      348.62792      11003.577    
     68100   136.2          667.39732      77.554819      349.11738      13780.576    
     68200   136.4          651.29345      75.68347       354.51434      14579.114    
     68300   136.6          688.81533      80.043696      355.00807      16304.624    
     68400   136.8          696.48732      80.935219      352.40725      12832.948    
     68500   137            680.52518      79.08034       349.80077      12385.627    
     68600   137.2          650.80825      75.627089      350.13159      12835.23     
     68700   137.4          685.67199      79.678424      351.48132      13176.805    
     68800   137.6          670.13014      77.872386      351.43792      16365.292    
     68900   137.8          672.02967      78.093121      348.91066      12758.035    
     69000   138            658.52569      76.523892      344.11213      11708.253    
     69100   138.2          650.13378      75.548711      345.52567      13471.415    
     69200   138.4          650.88864      75.63643       349.45729      14823.844    
     69300   138.6          684.31187      79.520372      350.94128      15181.115    
     69400   138.8          654.22597      76.024244      350.65066      13043.681    
     69500   139            670.95031      77.967694      349.51196      12176.282    
     69600   139.2          652.33486      75.804488      345.85419      11640.571    
     69700   139.4          657.36823      76.38939       343.83191      11583.754    
     69800   139.6          652.87315      75.867039      347.82587      13425.288    
     69900   139.8          662.32137      76.964969      351.24326      12110.509    
     70000   140            689.317        80.101993      351.22386      12906.585    
     70100   140.2          682.93761      79.360677      348.86429      13997.179    
     70200   140.4          628.56268      73.042045      345.69794      14678.401    
     70300   140.6          661.80549      76.905021      344.48936      14527.015    
     70400   140.8          638.68975      74.21886       347.68859      15159.05     
     70500   141            657.21855      76.371997      352.17749      15321.513    
     70600   141.2          664.74505      77.246612      353.23422      13186.153    
     70700   141.4          662.71681      77.010921      350.40683      13817.103    
     70800   141.6          659.45753      76.632177      346.62811      12099.852    
     70900   141.8          657.84863      76.445215      346.02436      12276.827    
     71000   142            660.99219      76.810512      348.48336      15875.952    
     71100   142.2          622.22506      72.305583      349.326        13919.006    
     71200   142.4          681.80357      79.228896      350.76531      13189.502    
     71300   142.6          689.6379       80.139283      350.94026      13078.472    
     71400   142.8          686.10426      79.728657      351.97325      14868.622    
     71500   143            690.29708      80.215883      352.92053      16230.164    
     71600   143.2          677.24188      78.698804      353.2584       14211.337    
     71700   143.4          663.27016      77.075223      351.9373       14548.7      
     71800   143.6          653.68757      75.961679      348.44632      12937.055    
     71900   143.8          643.61149      74.79079       347.10947      12720.093    
     72000   144            691.93057      80.405702      351.73192      13527.62     
     72100   144.2          670.31531      77.893903      354.67754      12174.344    
     72200   144.4          690.70146      80.262874      353.63934      12386.633    
     72300   144.6          668.59247      77.693701      350.74492      12084.715    
     72400   144.8          637.60871      74.093238      347.52176      14923.482    
     72500   145            624.37963      72.555954      343.86655      13915.437    
     72600   145.2          608.63192      70.725993      341.37221      13493.672    
     72700   145.4          619.68336      72.010225      346.71596      14096.533    
     72800   145.6          655.44501      76.165902      350.61284      13636.82     
     72900   145.8          661.81032      76.905582      353.15694      14854.083    
     73000   146            686.52553      79.77761       355.57286      14973.865    
     73100   146.2          685.6281       79.673325      354.27059      14940.869    
     73200   146.4          669.72797      77.825652      348.31136      13438.314    
     73300   146.6          664.05652      77.166601      347.66182      13665.343    
     73400   146.8          654.11612      76.011478      349.25709      12850.281    
     73500   147            664.49448      77.217495      352.97671      14570.086    
     73600   147.2          661.99597      76.927156      355.07645      15518.253    
     73700   147.4          695.59309      80.831305      353.74895      13663.445    
     73800   147.6          671.78108      78.064233      352.18341      15907.983    
     73900   147.8          656.66968      76.308215      350.28769      14319.044    
     74000   148            647.15033      75.20202       350.02734      11175.039    
     74100   148.2          651.7922       75.741428      352.07635      14114.748    
     74200   148.4          698.72175      81.194871      356.68507      14881.096    
     74300   148.6          715.21702      83.111701      356.02464      13562.511    
     74400   148.8          662.94319      77.037227      351.01999      15526.054    
     74500   149            671.63372      78.047109      350.22572      13311.634    
     74600   149.2          673.43861      78.256846      349.9853       12354.452    
     74700   149.4          657.8138       76.441167      352.26074      19054.029    
     74800   149.6          691.76009      80.385892      356.74708      12771.12     
     74900   149.8          686.69548      79.797359      356.24026      12545.857    
     75000   150            648.04048      75.305459      350.53446      16772.486    
     75100   150.2          661.13524      76.827135      349.83469      12226.238    
     75200   150.4          688.82974      80.045371      349.86551      14570.458    
     75300   150.6          661.81143      76.905712      350.36334      16179.261    
     75400   150.8          680.33529      79.058274      351.73858      16651.577    
     75500   151            673.80006      78.298849      354.27127      14712.828    
     75600   151.2          656.03986      76.235026      354.03991      15970.306    
     75700   151.4          658.57955      76.530151      349.60005      15622.164    
     75800   151.6          645.33542      74.991118      347.47376      14974.589    
     75900   151.8          636.86983      74.007376      349.00776      14345.412    
     76000   152            654.26165      76.028391      353.10387      15002.203    
     76100   152.2          693.71219      80.612736      355.10668      14777.042    
     76200   152.4          673.87434      78.307481      353.58635      12712.506    
     76300   152.6          672.51302      78.149288      351.48539      13456.764    
     76400   152.8          658.9154       76.569178      348.85084      16309.97     
     76500   153            648.5554       75.365296      347.65544      12783.578    
     76600   153.2          668.70466      77.706738      351.13056      13885.047    
     76700   153.4          680.02114      79.021768      355.44026      13785.216    
     76800   153.6          691.9021       80.402394      354.54726      13574.852    
     76900   153.8          683.53304      79.429868      350.75711      13997.604    
     77000   154            668.18616      77.646486      349.90334      12632.655    
     77100   154.2          660.73081      76.780138      350.86831      13849.264    
     77200   154.4          674.146        78.339049      352.30125      17014.586    
     77300   154.6          681.56994      79.201746      354.12284      14179.386    
     77400   154.8          666.02315      77.395134      356.20146      16921.398    
     77500   155            696.76867      80.967913      355.29321      15408.206    
     77600   155.2          658.90271      76.567704      351.04264      15097.288    
     77700   155.4          653.48007      75.937567      348.67011      17129.822    
     77800   155.6          649.38025      75.461148      349.97081      13757.391    
     77900   155.8          664.59759      77.229477      353.0199       16145.377    
     78000   156            678.10153      78.798701      354.18352      14205.818    
     78100   156.2          654.22454      76.024077      353.53484      15411.245    
     78200   156.4          679.45147      78.95557       352.45955      16156.686    
     78300   156.6          648.32517      75.338542      349.46668      13192.849    
     78400   156.8          632.36755      73.48419       347.14832      14953.082    
     78500   157            644.98074      74.949903      349.35759      13916.536    
     78600   157.2          669.85501      77.840415      354.64223      18785.195    
     78700   157.4          685.41453      79.648506      354.1506       14452.397    
     78800   157.6          666.52051      77.45293       350.91931      14749.798    
     78900   157.8          653.36868      75.924623      348.41865      14556.827    
     79000   158            633.3281       73.59581       349.45272      13682.486    
     79100   158.2          659.00577      76.57968       356.52354      14960.824    
     79200   158.4          684.52482      79.545118      357.15628      17609.176    
     79300   158.6          658.68773      76.542722      353.5908       14846.246    
     79400   158.8          647.75936      75.272793      350.3586       13426.956    
     79500   159            668.16945      77.644544      350.48406      13928.452    
     79600   159.2          680.31875      79.056353      353.00651      16213.543    
     79700   159.4          707.99861      82.272887      356.45408      14025.254    
     79800   159.6          711.59979      82.691361      361.27098      16627.611    
     79900   159.8          679.26855      78.934314      358.77276      15166.198    
     80000   160            653.98552      75.996303      353.51817      13111.34     
     80100   160.2          667.60496      77.578948      351.32037      11587.369    
     80200   160.4          639.64922      74.330354      349.44384      14443.688    
     80300   160.6          680.65893      79.095883      349.39253      13908.786    
     80400   160.8          659.70419      76.66084       352.33126      13914.791    
     80500   161            710.26257      82.53597       356.46485      15769.982    
     80600   161.2          697.65509      81.070919      355.54449      15844.674    
     80700   161.4          677.33052      78.709106      350.63208      12974.851    
     80800   161.6          665.50414      77.334822      349.78433      15478.978    
     80900   161.8          681.09518      79.146578      350.68557      14605.256    
     81000   162            685.83319      79.697157      352.23853      12733.98     
     81100   162.2          679.73703      78.988754      352.91166      13901.054    
     81200   162.4          677.04596      78.676037      350.87143      14000.638    
     81300   162.6          657.35881      76.388296      346.89672      14149.851    
     81400   162.8          668.70035      77.706238      346.37274      14178.412    
     81500   163            653.60161      75.951691      350.42998      11891.475    
     81600   163.2          679.6135       78.974399      353.7388       15185.251    
     81700   163.4          697.52603      81.055922      352.28233      13521.701    
     81800   163.6          649.75691      75.504918      349.73462      14051.545    
     81900   163.8          642.8749       74.705194      347.60641      14170.254    
     82000   164            620.34494      72.087103      344.35538      14407.746    
     82100   164.2          647.34302      75.224411      342.81245      15321.113    
     82200   164.4          668.46819      77.67926       348.00392      12942.066    
     82300   164.6          666.83898      77.489937      351.04979      15538.472    
     82400   164.8          655.20263      76.137737      352.09355      11568.528    
     82500   165            683.08652      79.377981      352.8762       14056.077    
     82600   165.2          682.33844      79.291049      350.66613      12607.241    
     82700   165.4          655.92958      76.222212      346.56414      11422.478    
     82800   165.6          630.85844      73.308824      346.47109      14021.158    
     82900   165.8          683.19678      79.390793      350.87767      13418.491    
     83000   166            666.02968      77.395892      353.98914      15523.296    
     83100   166.2          673.32837      78.244036      352.83793      12517.334    
     83200   166.4          639.01378      74.256514      350.06019      14245.426    
     83300   166.6          657.58356      76.414413      347.97259      13437.772    
     83400   166.8          622.59489      72.348558      345.14573      12362.909    
     83500   167            637.9082       74.128039      342.17848      16681.99     
     83600   167.2          653.05455      75.888119      345.30725      12065.091    
     83700   167.4          660.65785      76.77166       350.00504      13054.273    
     83800   167.6          672.67964      78.168651      351.96999      15236.048    
     83900   167.8          677.1513       78.688279      351.32445      13232.013    
     84000   168            646.27463      75.10026       348.15015      13693.173    
     84100   168.2          629.26381      73.12352       345.1847       16416.547    
     84200   168.4          676.20327      78.578113      347.72449      14009.544    
     84300   168.6          704.95807      81.919562      352.91876      13426.141    
     84400   168.8          683.9204       79.474881      352.91696      15778.833    
     84500   169            675.95841      78.54966       350.2685       13788.038    
     84600   169.2          643.79601      74.812232      347.55589      15605.971    
     84700   169.4          647.89695      75.288781      349.28426      14375.346    
     84800   169.6          672.39433      78.135496      355.51563      15062.92     
     84900   169.8          662.07548      76.936396      355.46908      15283.515    
     85000   170            702.40373      81.622734      352.13777      12459.317    
     85100   170.2          680.84617      79.117641      350.16659      15036.736    
     85200   170.4          672.99721      78.205553      350.02061      14619.758    
     85300   170.6          670.47772      77.912777      350.3532       13551.687    
     85400   170.8          655.75446      76.201862      351.08436      16207.746    
     85500   171            665.51975      77.336636      350.95823      14502.908    
     85600   171.2          667.45597      77.561635      350.70349      14279.26     
     85700   171.4          700.11266      81.356501      350.33904      13988.102    
     85800   171.6          660.33584      76.73424       349.0441       12845.861    
     85900   171.8          656.01866      76.232563      348.53966      12853.796    
     86000   172            638.97045      74.251478      349.9589       15105.473    
     86100   172.2          670.64885      77.932663      353.60889      14625.505    
     86200   172.4          680.16291      79.038243      355.46738      12198.047    
     86300   172.6          671.06621      77.981162      352.49457      15673.589    
     86400   172.8          638.45594      74.191689      347.70256      15256.155    
     86500   173            648.34114      75.340398      348.31576      12973.67     
     86600   173.2          687.60431      79.902969      351.09221      14035.059    
     86700   173.4          685.35601      79.641706      353.27321      15368.876    
     86800   173.6          671.92751      78.081249      353.58402      15091.823    
     86900   173.8          665.08371      77.285966      347.64681      13098.882    
     87000   174            638.69838      74.219863      345.4771       16690.67     
[...]
    478600   957.2          672.07185      78.098022      355.36957      13997.792    
    478700   957.4          694.28277      80.679039      353.52809      15495.85     
    478800   957.6          644.78481      74.927136      348.30165      13666.748    
    478900   957.8          668.66616      77.702265      348.2156       11806.809    
    479000   958            670.23302      77.884341      351.80087      14907.454    
    479100   958.2          685.08338      79.610026      354.08293      15035.038    
    479200   958.4          652.21546      75.790613      354.16083      13692.124    
    479300   958.6          668.81189      77.719199      354.01298      12771.493    
    479400   958.8          658.01912      76.465026      352.5089       13194.131    
    479500   959            662.67291      77.005819      351.48715      15221.009    
    479600   959.2          648.80682      75.394513      351.07379      15158.164    
    479700   959.4          680.72417      79.103464      353.46006      15686.861    
    479800   959.6          703.06166      81.699189      357.08964      14758.506    
    479900   959.8          692.02938      80.417184      356.73235      15124.902    
    480000   960            667.42898      77.558498      352.0055       15173.874    
    480100   960.2          651.06734      75.657196      349.89581      14152.072    
    480200   960.4          673.43731      78.256696      350.76306      14693.707    
    480300   960.6          671.94507      78.08329       352.53483      13809.331    
    480400   960.8          704.59619      81.877509      357.84982      16663.984    
    480500   961            698.84708      81.209434      358.27669      14327.013    
    480600   961.2          689.45152      80.117625      354.28737      13922.24     
    480700   961.4          687.98472      79.947176      352.65293      13865.576    
    480800   961.6          660.49475      76.752706      351.12225      15168.139    
    480900   961.8          683.50387      79.426479      351.61036      15099.225    
    481000   962            700.5742       81.410134      354.4452       15596.073    
    481100   962.2          683.09237      79.37866       357.45752      12954.839    
    481200   962.4          690.20403      80.20507       355.75423      16396.781    
    481300   962.6          655.62588      76.18692       349.83869      14830.167    
    481400   962.8          694.01014      80.647358      349.22895      11088.817    
    481500   963            651.85475      75.748697      350.91253      15562.489    
    481600   963.2          673.3121       78.242146      353.95439      15125.352    
    481700   963.4          675.02405      78.441083      355.90832      13742.914    
    481800   963.6          676.24688      78.583181      352.45384      13121.223    
    481900   963.8          660.38366      76.739797      348.29249      14679.306    
    482000   964            662.04495      76.932847      347.62184      12466.27     
    482100   964.2          663.6038       77.113993      350.25868      11842.096    
    482200   964.4          690.75287      80.268848      354.38319      16133.567    
    482300   964.6          681.66041      79.21226       353.40517      13427.643    
    482400   964.8          693.27646      80.562102      351.80383      13774.382    
    482500   965            655.9418       76.223632      350.3513       12434.004    
    482600   965.2          657.7236       76.430685      350.29102      13990.615    
    482700   965.4          655.19822      76.137224      350.89259      15519.731    
    482800   965.6          652.24959      75.794579      351.08055      12163.697    
    482900   965.8          646.16291      75.087277      351.26646      14850.829    
    483000   966            675.19177      78.460572      352.47073      13731.333    
    483100   966.2          691.2122       80.322224      356.46353      14191.989    
    483200   966.4          675.13858      78.454391      358.50974      13822.049    
    483300   966.6          663.96264      77.155692      354.47597      14898.292    
    483400   966.8          663.72805      77.128432      350.99256      13316.948    
    483500   967            642.61348      74.674817      350.68639      14460.726    
    483600   967.2          660.05844      76.702005      352.44585      12767.058    
    483700   967.4          692.32461      80.451492      355.10983      13471.762    
    483800   967.6          688.26511      79.979757      358.76322      16760.306    
    483900   967.8          714.77354      83.060167      359.28626      13980.79     
    484000   968            680.73114      79.104274      352.89025      11984.525    
    484100   968.2          674.98236      78.436238      350.64596      13593.638    
    484200   968.4          635.82304      73.885734      348.89673      13815.022    
    484300   968.6          667.66806      77.58628       349.20271      12840.862    
    484400   968.8          680.06895      79.027324      353.02807      16214.197    
    484500   969            677.49493      78.728211      356.14981      14410.231    
    484600   969.2          702.68781      81.655746      354.66921      13554.599    
    484700   969.4          653.7177       75.96518       348.6996       13499.873    
    484800   969.6          640.90375      74.476137      348.43551      12978.321    
    484900   969.8          663.7171       77.127159      350.97453      14030.861    
    485000   970            672.22712      78.116065      354.14659      15011.898    
    485100   970.2          667.97181      77.621578      353.70749      14624.14     
    485200   970.4          661.46249      76.865163      348.84561      13160.806    
    485300   970.6          636.80392      73.999717      345.79608      14900.521    
    485400   970.8          656.08915      76.240754      347.94616      14692.034    
    485500   971            642.95142      74.714086      351.08072      13096.055    
    485600   971.2          686.98795      79.831345      352.86216      14019.933    
    485700   971.4          664.13732      77.175991      352.3238       16310.882    
    485800   971.6          682.49451      79.309186      351.32162      16207.876    
    485900   971.8          657.09749      76.357929      350.75637      14391.948    
    486000   972            658.46663      76.517029      350.8992       13682.763    
    486100   972.2          701.58249      81.527302      353.43595      13154.861    
    486200   972.4          708.50223      82.33141       357.98209      15643.316    
    486300   972.6          696.73924      80.964493      357.33021      13958.956    
    486400   972.8          669.40628      77.788269      351.98088      12579.793    
    486500   973            641.18658      74.509004      350.43764      16382.428    
    486600   973.2          674.9513       78.432628      350.75522      12013.035    
    486700   973.4          687.5635       79.898227      352.11962      14243.302    
    486800   973.6          685.73109      79.685293      354.655        13619.923    
    486900   973.8          701.40694      81.506902      354.50685      13367.59     
    487000   974            639.69335      74.335483      349.72415      12504.42     
    487100   974.2          649.32565      75.454803      348.64918      13248.607    
    487200   974.4          673.0857       78.215836      350.51324      14527.325    
    487300   974.6          725.78538      84.339796      356.40418      14790.436    
    487400   974.8          674.11386      78.335314      356.52564      14982.671    
    487500   975            683.62491      79.440544      353.91274      12758.616    
    487600   975.2          661.31937      76.848532      351.14206      13784.601    
    487700   975.4          653.02507      75.884693      349.54545      15599.606    
    487800   975.6          681.80747      79.229349      349.92476      12852.404    
    487900   975.8          679.85596      79.002574      354.46403      14580.919    
    488000   976            687.56584      79.898499      358.04992      15657.488    
    488100   976.2          697.53061      81.056454      354.63105      14036.681    
    488200   976.4          681.33963      79.174983      350.89862      12363.058    
    488300   976.6          670.28715      77.890631      349.23752      13452.151    
    488400   976.8          646.95307      75.179097      348.64853      13136.144    
    488500   977            652.21907      75.791033      347.71087      14687.705    
    488600   977.2          663.85104      77.142724      349.0867       13374.145    
    488700   977.4          670.54626      77.920741      353.60221      12762.499    
    488800   977.6          678.02528      78.78984       355.12714      15749.711    
    488900   977.8          659.58582      76.647085      351.81473      13967.95     
    489000   978            657.45743      76.399755      349.00306      12902.22     
    489100   978.2          620.19343      72.069497      349.04201      14356.867    
    489200   978.4          680.52663      79.080509      350.31105      15129.289    
    489300   978.6          680.86061      79.119319      351.889        13485.719    
    489400   978.8          716.29747      83.237255      356.35018      14073.428    
    489500   979            697.92308      81.102061      358.97323      15210.623    
    489600   979.2          675.78873      78.529942      355.17581      12205.501    
    489700   979.4          669.26254      77.771567      352.05694      13879.332    
    489800   979.6          654.52324      76.058788      350.83787      16388.602    
    489900   979.8          655.91453      76.220463      349.34691      13370.922    
    490000   980            656.4955       76.287975      347.39033      13485.59     
    490100   980.2          679.66254      78.980097      348.76476      16816.405    
    490200   980.4          688.50102      80.007171      353.42875      14340.406    
    490300   980.6          652.19352      75.788064      353.87821      15631.396    
    490400   980.8          659.47533      76.634245      351.20542      12058.119    
    490500   981            651.59019      75.717953      346.37684      13362.472    
    490600   981.2          666.34527      77.432566      346.55915      13072.65     
    490700   981.4          651.83512      75.746415      349.09939      14252.493    
    490800   981.6          676.73859      78.64032       352.21066      13656.716    
    490900   981.8          668.81024      77.719007      352.35234      13547.705    
    491000   982            660.56369      76.760718      351.17433      14396.23     
    491100   982.2          629.9835       73.20715       345.53408      16321.463    
    491200   982.4          644.80106      74.929024      345.70184      12475.9      
    491300   982.6          651.21597      75.674467      349.27578      16359.692    
    491400   982.8          686.42188      79.765566      351.35673      15082.056    
    491500   983            690.64102      80.25585       351.07788      11424.572    
    491600   983.2          674.01001      78.323246      349.15727      15284.387    
    491700   983.4          654.64761      76.07324       346.94994      15414.087    
    491800   983.6          645.98165      75.066214      345.41469      12758.156    
    491900   983.8          637.00495      74.023078      346.56702      15279.001    
    492000   984            670.96054      77.968882      351.55452      15748.06     
    492100   984.2          674.05683      78.328686      353.95343      12936.593    
    492200   984.4          659.12228      76.593219      353.56423      14779.166    
    492300   984.6          662.63621      77.001555      349.79877      15122.795    
    492400   984.8          634.82154      73.769355      346.46998      13162.89     
    492500   985            651.26554      75.680228      348.03056      13599.569    
    492600   985.2          650.86665      75.633874      350.11237      11751.904    
    492700   985.4          640.40675      74.418383      351.52227      13764.954    
    492800   985.6          663.59898      77.113434      353.62292      12636.024    
    492900   985.8          672.96816      78.202178      355.14252      13124.09     
    493000   986            692.6407       80.488223      356.95408      12675.327    
    493100   986.2          674.64134      78.396609      354.83566      14787.19     
    493200   986.4          639.20946      74.279252      350.1321       13526.523    
    493300   986.6          644.33156      74.874465      348.75601      15809.98     
    493400   986.8          661.83713      76.908698      350.10961      14041.758    
    493500   987            683.77996      79.458561      355.31836      14666.331    
    493600   987.2          676.81297      78.648964      356.0933       14937.147    
    493700   987.4          693.04863      80.535626      354.19581      13949.546    
    493800   987.6          647.76583      75.273545      351.63252      11811.497    
    493900   987.8          664.24389      77.188375      350.89593      15525.079    
    494000   988            670.62724      77.930152      351.89581      14689.753    
    494100   988.2          668.39175      77.670377      357.78469      13514.673    
    494200   988.4          703.71439      81.775039      357.87561      17050.604    
    494300   988.6          667.91826      77.615355      353.82601      14485.888    
    494400   988.8          671.13403      77.989043      351.38186      13029.165    
    494500   989            635.63589      73.863986      350.3935       12729.435    
    494600   989.2          653.3407       75.921371      352.03488      14168.018    
    494700   989.4          682.56147      79.316967      356.31877      15019.345    
    494800   989.6          694.73956      80.732121      360.36097      14777.25     
    494900   989.8          700.75909      81.431619      356.73214      15419.014    
    495000   990            673.28156      78.238597      354.01539      14364.474    
    495100   990.2          663.57825      77.111024      351.11775      15294.481    
    495200   990.4          650.29361      75.567284      349.36365      13847.993    
    495300   990.6          666.15062      77.409947      349.81607      13872.67     
    495400   990.8          665.53363      77.338249      354.55044      14623.249    
    495500   991            681.65491      79.211621      357.25431      16117.213    
    495600   991.2          680.63794      79.093444      355.43681      12410.476    
    495700   991.4          667.18123      77.529709      351.56921      13868.91     
    495800   991.6          669.35554      77.782374      350.65276      17312.541    
    495900   991.8          643.57038      74.786012      350.90175      12702.325    
    496000   992            676.8645       78.654951      352.01791      13599.025    
    496100   992.2          692.26428      80.444481      354.45499      14325.337    
    496200   992.4          685.284        79.633338      356.21497      14638.546    
    496300   992.6          692.38958      80.459041      354.86164      12436.009    
    496400   992.8          657.15846      76.365013      349.97138      13555.298    
    496500   993            664.16948      77.179728      349.37233      14007.033    
    496600   993.2          660.1773       76.715817      351.58223      14219.813    
    496700   993.4          677.53926      78.733361      355.17504      17821.343    
    496800   993.6          657.14686      76.363666      354.18432      13377.673    
    496900   993.8          654.40624      76.045192      347.47464      13981.309    
    497000   994            620.69151      72.127377      347.1823       14498.875    
    497100   994.2          658.29849      76.497491      350.56275      13934.918    
    497200   994.4          690.99439      80.296913      353.75337      16759.987    
    497300   994.6          682.65791      79.328173      353.58346      16236.619    
    497400   994.8          676.85438      78.653776      350.09566      14369.714    
    497500   995            624.02056      72.514228      345.04762      14906.54     
    497600   995.2          635.28455      73.823158      347.24753      15264.18     
    497700   995.4          664.33907      77.199435      350.71967      13912.647    
    497800   995.6          670.28039      77.889846      353.34369      15932.272    
    497900   995.8          646.63945      75.142653      354.09535      15125.541    
    498000   996            660.06086      76.702287      353.55469      13785.329    
    498100   996.2          640.6892       74.451206      348.28896      16865.374    
    498200   996.4          664.99404      77.275546      347.85498      15867.63     
    498300   996.6          635.80541      73.883685      350.68688      12410.694    
    498400   996.8          683.21602      79.393029      354.51607      16123.834    
    498500   997            675.6138       78.509614      354.28505      13912.329    
    498600   997.2          669.02365      77.743807      352.65615      14336.081    
    498700   997.4          651.67632      75.727962      351.43141      16576.368    
    498800   997.6          661.80706      76.905203      351.20663      14600.426    
    498900   997.8          674.71285      78.40492       350.92396      13499.289    
    499000   998            636.32631      73.944217      350.2111       16583.821    
    499100   998.2          623.91864      72.502384      348.97949      13792.217    
    499200   998.4          656.7028       76.312064      349.12195      14868.811    
    499300   998.6          675.8318       78.534946      351.65958      16079.867    
    499400   998.8          687.7988       79.92557       354.69546      13946.449    
    499500   999            681.55182      79.199641      355.9534       15050.741    
    499600   999.2          653.38263      75.926244      350.99587      13103.346    
    499700   999.4          653.95799      75.993103      347.94308      12355.049    
    499800   999.6          649.15561      75.435043      349.00515      12426.019    
    499900   999.8          675.9691       78.550901      351.75579      14940.418    
    500000   1000           666.76548      77.481396      354.75852      14769.521    
Loop time of 327.671 on 1 procs for 500000 steps with 900 atoms

Performance: 263.679 ns/day, 0.091 hours/ns, 1525.923 timesteps/s
54.2% CPU use with 1 MPI tasks x no OpenMP threads

MPI task timing breakdown:
Section |  min time  |  avg time  |  max time  |%varavg| %total
---------------------------------------------------------------
Pair    | 209.39     | 209.39     | 209.39     |   0.0 | 63.90
Neigh   | 106.03     | 106.03     | 106.03     |   0.0 | 32.36
Comm    | 3.9316     | 3.9316     | 3.9316     |   0.0 |  1.20
Output  | 2.1375     | 2.1375     | 2.1375     |   0.0 |  0.65
Modify  | 5.4907     | 5.4907     | 5.4907     |   0.0 |  1.68
Other   |            | 0.6922     |            |       |  0.21

Nlocal:            900 ave         900 max         900 min
Histogram: 1 0 0 0 0 0 0 0 0 0
Nghost:           2768 ave        2768 max        2768 min
Histogram: 1 0 0 0 0 0 0 0 0 0
Neighs:              0 ave           0 max           0 min
Histogram: 1 0 0 0 0 0 0 0 0 0
FullNghs:        97848 ave       97848 max       97848 min
Histogram: 1 0 0 0 0 0 0 0 0 0

Total # of neighbors = 97848
Ave neighs/atom = 108.72
Neighbor list builds = 50000
Dangerous builds not checked

Total wall time: 0:05:46
