ITEM: TIMESTEP
0
ITEM: NUMBER OF ATOMS
48
ITEM: BOX BOUNDS xy xz yz pp pp pp
-7.2754652523839169e+00 8.5889536499827912e+00 2.5120357483981479e+00
-2.3252728783138264e-03 9.4515407374878730e+00 -7.2838697836992763e+00
9.2526380721303085e-04 1.9516202358592782e+01 2.0640487290955647e-01
ITEM: ATOMS id type xs ys zs fx fy fz
1 1 0.959497 0.167048 0.0318988 0 0 0.0360741
2 1 0.52141 0.074165 0.0529524 0 0 -0.0120553
3 1 0.824681 0.12485 0.656954 0 0 -0.000757875
4 1 0.127685 0.948828 0.927931 0 0 -0.0360741
5 1 0.7594 0.157077 0.80274 0 0 0.00563056
6 1 0.565772 0.0417114 0.906878 0 0 0.0120544
7 1 0.197424 0.249755 0.781855 0 0 0.000719185
8 1 0.0750601 0.208448 0.407115 0 0 -0.00165119
9 1 0.386744 0.0322453 0.677678 0 0 0.00273907
10 1 0.0121214 0.240762 0.552715 0 0 0.00165252
11 1 0.889757 0.199455 0.177975 0 0 -0.000717694
12 1 0.700438 0.083631 0.282152 0 0 -0.00273927
13 1 0.327782 0.292133 0.15709 0 0 -0.00563008
14 1 0.637127 0.115898 0.427787 0 0 0.00121517
15 1 0.959497 0.500382 0.0318988 0 0 0.0360745
16 1 0.52141 0.407498 0.0529524 0 0 -0.012055
17 1 0.824681 0.458184 0.656954 0 0 -0.000757594
18 1 0.127685 0.282161 0.927931 0 0 -0.0360752
19 1 0.7594 0.49041 0.80274 0 0 0.00563085
20 1 0.565772 0.375045 0.906878 0 0 0.0120543
21 1 0.197424 0.583088 0.781855 0 0 0.000719061
22 1 0.450055 0.333312 0.532044 0 0 -0.00121474
23 1 0.0750601 0.541781 0.407115 0 0 -0.00165113
24 1 0.386744 0.365579 0.677678 0 0 0.00273837
25 1 0.0121214 0.574095 0.552715 0 0 0.00165228
26 1 0.262501 0.324359 0.302876 0 0 0.000757817
27 1 0.889757 0.532788 0.177975 0 0 -0.000718382
28 1 0.700438 0.416964 0.282152 0 0 -0.00273889
29 1 0.327782 0.625466 0.15709 0 0 -0.00563192
30 1 0.637127 0.449231 0.427787 0 0 0.00121422
31 1 0.959497 0.833715 0.0318988 0 0 0.0360738
32 1 0.52141 0.740832 0.0529524 0 0 -0.0120558
33 1 0.824681 0.791517 0.656954 0 0 -0.000758353
34 1 0.127685 0.615495 0.927931 0 0 -0.0360743
35 1 0.7594 0.823743 0.80274 0 0 0.00563066
36 1 0.565772 0.708378 0.906878 0 0 0.0120545
37 1 0.197424 0.916422 0.781855 0 0 0.000718811
38 1 0.450055 0.666645 0.532044 0 0 -0.00121468
39 1 0.0750601 0.875115 0.407115 0 0 -0.00165123
40 1 0.386744 0.698912 0.677678 0 0 0.00273887
41 1 0.0121214 0.907428 0.552715 0 0 0.00164958
42 1 0.262501 0.657693 0.302876 0 0 0.000759808
43 1 0.889757 0.866121 0.177975 0 0 -0.000717622
44 1 0.700438 0.750298 0.282152 0 0 -0.00273845
45 1 0.327782 0.9588 0.15709 0 0 -0.0056306
46 1 0.637127 0.782564 0.427787 0 0 0.00121483
47 1 0.450055 0.999979 0.532044 0 0 -0.00121525
48 1 0.262501 0.991026 0.302876 0 0 0.000757739
ITEM: TIMESTEP
5
ITEM: NUMBER OF ATOMS
48
ITEM: BOX BOUNDS xy xz yz pp pp pp
-7.2754652523839169e+00 8.5889536499827912e+00 2.5120357483981479e+00
-2.3252728783138264e-03 9.4515407374878730e+00 -7.2838697836992763e+00
9.2526380721303085e-04 1.9516202358592782e+01 2.0640487290955647e-01
ITEM: ATOMS id type xs ys zs fx fy fz
1 1 0.96022 0.167035 0.0324972 0 0 1.5595e-05
2 1 0.521066 0.0741714 0.0526682 0 0 -1.25889e-05
3 1 0.824656 0.124851 0.656934 0 0 -0.000165121
4 1 0.126961 0.948841 0.927333 0 0 -1.37291e-05
5 1 0.759398 0.157077 0.802738 0 0 8.27245e-05
6 1 0.566116 0.041705 0.907162 0 0 1.06916e-05
7 1 0.197411 0.249755 0.781844 0 0 -0.000285717
8 1 0.0750135 0.208449 0.407076 0 0 -5.17666e-05
9 1 0.386809 0.0322441 0.677732 0 0 -0.000208538
10 1 0.0121681 0.240761 0.552754 0 0 5.03774e-05
11 1 0.889771 0.199454 0.177986 0 0 0.000286525
12 1 0.700372 0.0836323 0.282098 0 0 0.000211233
13 1 0.327784 0.292133 0.157092 0 0 -8.43407e-05
14 1 0.637156 0.115897 0.427811 0 0 -9.21411e-05
15 1 0.96022 0.500368 0.0324973 0 0 1.50242e-05
16 1 0.521066 0.407505 0.0526682 0 0 -1.21795e-05
17 1 0.824656 0.458184 0.656934 0 0 -0.0001626
18 1 0.126961 0.282175 0.927333 0 0 -1.39041e-05
19 1 0.759398 0.49041 0.802738 0 0 8.28831e-05
20 1 0.566116 0.375038 0.907162 0 0 1.04029e-05
21 1 0.197411 0.583089 0.781844 0 0 -0.000285648
22 1 0.450026 0.333313 0.53202 0 0 8.90308e-05
23 1 0.0750135 0.541782 0.407076 0 0 -5.2441e-05
24 1 0.386809 0.365577 0.677732 0 0 -0.000208337
25 1 0.012168 0.574094 0.552754 0 0 5.23399e-05
26 1 0.262525 0.324359 0.302896 0 0 0.000164064
27 1 0.889771 0.532788 0.177986 0 0 0.0002875
28 1 0.700372 0.416966 0.282098 0 0 0.000209708
29 1 0.327784 0.625466 0.157092 0 0 -8.45531e-05
30 1 0.637156 0.44923 0.427811 0 0 -8.89227e-05
31 1 0.96022 0.833702 0.0324973 0 0 1.5088e-05
32 1 0.521066 0.740838 0.0526682 0 0 -1.22258e-05
33 1 0.824656 0.791517 0.656934 0 0 -0.000163887
34 1 0.126961 0.615508 0.927333 0 0 -1.3756e-05
35 1 0.759398 0.823743 0.802738 0 0 8.31505e-05
36 1 0.566116 0.708372 0.907162 0 0 1.06185e-05
37 1 0.197411 0.916422 0.781844 0 0 -0.000285223
38 1 0.450025 0.666646 0.53202 0 0 9.22436e-05
39 1 0.0750135 0.875116 0.407076 0 0 -5.23948e-05
40 1 0.386809 0.698911 0.677732 0 0 -0.000211944
41 1 0.0121681 0.907427 0.552754 0 0 5.07094e-05
42 1 0.262525 0.657692 0.302896 0 0 0.000163878
43 1 0.889771 0.866121 0.177986 0 0 0.000286594
44 1 0.700372 0.750299 0.282098 0 0 0.00021201
45 1 0.327784 0.9588 0.157092 0 0 -8.44092e-05
46 1 0.637156 0.782564 0.427811 0 0 -9.20375e-05
47 1 0.450025 0.999979 0.53202 0 0 9.13925e-05
48 1 0.262525 0.991026 0.302896 0 0 0.000164367
