 # File generated with Atomsk by ljh on 2022-09-26 11:11:58
 
          64  atoms
           2  atom types
 
      0.000000000000      12.359371920000  xlo xhi
      0.000000000000      12.359371920000  ylo yhi
      0.000000000000      12.359371920000  zlo zhi
 
Masses
 
            1   72.63000000             # Ge
            2   127.60000000            # Te
 
Atoms # atomic
 
         1    1        1.468024730000       1.468025090000       1.548358180000
         2    1        4.557881610000       4.557880590000       1.548356470000
         3    1        1.468022370000       7.647718440000       1.548361580000
         4    1        4.557880980000      10.737548540000       1.548363620000
         5    1        7.647720880000       1.468022710000       1.548361580000
         6    1       10.737552370000       4.557879940000       1.548363610000
         7    1        7.647721460000       7.647719000000       1.548361520000
         8    1       10.737551280000      10.737547430000       1.548368910000
         9    1        1.468021230000       4.557869350000       4.638191070000
        10    1        4.557870880000       1.468021070000       4.638191070000
        11    1        1.468023680000      10.737548940000       4.638189550000
        12    1        4.557875990000       7.647718270000       4.638197580000
        13    1        7.647721230000       4.557874560000       4.638197530000
        14    1       10.737553200000       1.468023500000       4.638189600000
        15    1        7.647721520000      10.737548390000       4.638198320000
        16    1       10.737552550000       7.647718540000       4.638198420000
        17    1        1.468020720000       1.468020840000       7.728040330000
        18    1        4.557876670000       4.557875380000       7.728033350000
        19    1        1.468023020000       7.647720650000       7.728022950000
        20    1        4.557877150000      10.737548870000       7.728031840000
        21    1        7.647723350000       1.468023100000       7.728022950000
        22    1       10.737552960000       4.557875850000       7.728031830000
        23    1        7.647720050000       7.647717320000       7.728028400000
        24    1       10.737553530000      10.737549420000       7.728031190000
        25    1        1.468026640000       4.557876350000      10.817873920000
        26    1        4.557877700000       1.468026670000      10.817873920000
        27    1        1.468029770000      10.737550460000      10.817873600000
        28    1        4.557877620000       7.647719320000      10.817869180000
        29    1        7.647722100000       4.557876370000      10.817869130000
        30    1       10.737554520000       1.468029780000      10.817873650000
        31    1        7.647721440000      10.737550740000      10.817870470000
        32    1       10.737554700000       7.647718650000      10.817870580000
        33    2        4.711646400000       1.621855740000       1.702130220000
        34    2        1.621857190000       4.711643540000       1.702130220000
        35    2        4.711648110000       7.801473740000       1.702253490000
        36    2        1.621844500000      10.891371080000       1.702132870000
        37    2       10.891376760000       1.621843020000       1.702132850000
        38    2        7.801478000000       4.711645250000       1.702253480000
        39    2       10.891358350000       7.801467140000       1.702226820000
        40    2        7.801471400000      10.891352680000       1.702226840000
        41    2        4.711646280000       4.711643380000       4.791996900000
        42    2        1.621773070000       1.621771630000       4.792066930000
        43    2        4.711648600000      10.891363770000       4.791995980000
        44    2        1.621825340000       7.801490870000       4.791901500000
        45    2       10.891369470000       4.711645720000       4.791995980000
        46    2        7.801495100000       1.621823870000       4.791901500000
        47    2       10.891367590000      10.891361900000       4.792000570000
        48    2        7.801499200000       7.801494970000       4.791966830000
        49    2        4.711664070000       1.621826830000       7.881801690000
        50    2        1.621828270000       4.711661220000       7.881801680000
        51    2        4.711641810000       7.801492050000       7.881792360000
        52    2        1.621830780000      10.891348050000       7.881803250000
        53    2       10.891353710000       1.621829310000       7.881803240000
        54    2        7.801496300000       4.711638960000       7.881792360000
        55    2       10.891372840000       7.801487320000       7.881788380000
        56    2        7.801491580000      10.891367170000       7.881788390000
        57    2        4.711648630000       4.711645680000      10.971670680000
        58    2        1.621830540000       1.621829010000      10.971677960000
        59    2        4.711644330000      10.891402160000      10.971699590000
        60    2        1.621836160000       7.801496460000      10.971670740000
        61    2       10.891407920000       4.711641380000      10.971699600000
        62    2        7.801500740000       1.621834630000      10.971670740000
        63    2       10.891419450000      10.891413710000      10.971741450000
        64    2        7.801488480000       7.801484200000      10.971670860000
