ITEM: TIMESTEP
0
ITEM: NUMBER OF ATOMS
32
ITEM: BOX BOUNDS xy xz yz pp pp pp
3.0272657245757604e-03 6.3938049081754240e+00 0.0000000000000000e+00
-3.1320509042145829e-03 8.8377011620867414e+00 0.0000000000000000e+00
2.7435269680358088e-02 2.0697951192719628e+01 3.3141379357825280e+00
ITEM: ATOMS id type xs ys zs fx fy fz
1 1 0.999986 0.630452 0.0597554 4.15448e-07 0 0.0965633
2 1 0.499986 0.630452 0.0597554 -2.29408e-09 0 0.0965631
3 1 0.249986 0.130454 0.0597529 -5.03723e-07 0 0.0967217
4 1 0.749986 0.130454 0.0597529 3.79621e-07 0 0.0967216
5 1 0.999986 0.480547 0.309761 2.585e-07 0 0.00158794
6 1 0.249986 0.389596 0.18476 -3.87406e-07 0 0.0193657
7 1 0.749986 0.389596 0.18476 2.75721e-07 0 0.019366
8 1 0.499986 0.480547 0.309761 -5.55301e-08 0 0.00158773
9 1 0.999986 0.889598 0.184758 1.28915e-07 0 0.0194284
10 1 0.249986 0.980546 0.309759 -3.4702e-07 0 0.00166643
11 1 0.499986 0.889598 0.184758 -3.69099e-07 0 0.0194284
12 1 0.749986 0.980546 0.309759 4.17813e-07 0 0.00166622
13 1 0.999986 0.330621 0.559747 1.60595e-07 0 0.000869559
14 1 0.499986 0.330621 0.559747 -3.78117e-07 0 0.000869671
15 1 0.249986 0.830622 0.559747 -4.52921e-07 0 0.000857225
16 1 0.749986 0.830622 0.559747 3.41213e-07 0 0.000856796
17 1 0.249986 0.239688 0.434755 -4.32745e-07 0 -0.000865158
18 1 0.749986 0.239688 0.434755 4.86034e-07 0 -0.000865456
19 1 0.999986 0.739689 0.434755 1.71131e-07 0 -0.000881196
20 1 0.499986 0.739689 0.434755 -2.29222e-07 0 -0.000880967
21 1 0.999986 0.180702 0.809742 3.09723e-07 0 -0.0194129
22 1 0.249986 0.0897588 0.684743 -5.40022e-07 0 -0.0016657
23 1 0.499986 0.180702 0.809742 -2.11602e-07 0 -0.0194125
24 1 0.749986 0.0897588 0.684743 3.69735e-07 0 -0.00166583
25 1 0.999986 0.589759 0.684741 2.49129e-07 0 -0.0016045
26 1 0.249986 0.680704 0.809741 -3.7668e-07 0 -0.0193776
27 1 0.749986 0.680704 0.809741 3.94235e-07 0 -0.0193778
28 1 0.499986 0.589759 0.684741 -1.62516e-07 0 -0.00160414
29 1 0.249986 0.939845 0.934748 -4.095e-07 0 -0.0966936
30 1 0.749986 0.939845 0.934748 2.46566e-07 0 -0.0966936
31 1 0.999986 0.439845 0.934746 3.43692e-07 0 -0.0965596
32 1 0.499986 0.439845 0.934746 -2.12874e-08 0 -0.0965595
ITEM: TIMESTEP
9
ITEM: NUMBER OF ATOMS
32
ITEM: BOX BOUNDS xy xz yz pp pp pp
3.0272657245757604e-03 6.3938049081754240e+00 0.0000000000000000e+00
-3.1320509042145829e-03 8.8377011620867414e+00 0.0000000000000000e+00
2.7435269680358088e-02 2.0697951192719628e+01 3.3141379357825280e+00
ITEM: ATOMS id type xs ys zs fx fy fz
1 1 0.999986 0.62954 0.0612757 -6.13218e-07 0 -1.93958e-05
2 1 0.499986 0.62954 0.0612757 -4.40752e-08 0 -2.03421e-05
3 1 0.249986 0.12954 0.0612757 3.36764e-07 0 -1.96609e-05
4 1 0.749986 0.12954 0.0612757 3.4432e-07 0 -1.89057e-05
5 1 0.999986 0.48001 0.310656 -5.89818e-07 0 6.38118e-05
6 1 0.249986 0.388729 0.186206 -1.00927e-06 0 8.67818e-05
7 1 0.749986 0.388729 0.186206 1.02081e-06 0 8.67253e-05
8 1 0.499986 0.48001 0.310656 3.01981e-07 0 6.3517e-05
9 1 0.999986 0.88873 0.186206 1.61672e-07 0 8.70885e-05
10 1 0.249986 0.980008 0.310656 -5.81271e-07 0 6.21006e-05
11 1 0.499986 0.88873 0.186206 -1.54233e-07 0 8.7181e-05
12 1 0.749986 0.980008 0.310656 6.93249e-07 0 6.21223e-05
13 1 0.999986 0.330796 0.559455 2.90398e-07 0 8.11234e-05
14 1 0.499986 0.330796 0.559455 -3.0268e-07 0 8.06402e-05
15 1 0.249986 0.830798 0.559455 5.17986e-07 0 8.30422e-05
16 1 0.749986 0.830798 0.559455 -1.19224e-07 0 8.28871e-05
17 1 0.249986 0.239513 0.435046 1.05563e-07 0 -8.20614e-05
18 1 0.749986 0.239513 0.435046 3.84869e-07 0 -8.22579e-05
19 1 0.999986 0.739514 0.435047 -7.28498e-07 0 -8.57566e-05
20 1 0.499986 0.739514 0.435047 2.93716e-07 0 -8.30749e-05
21 1 0.999986 0.18157 0.808296 -9.77481e-07 0 -8.8101e-05
22 1 0.249986 0.0902968 0.683846 7.39062e-07 0 -6.21544e-05
23 1 0.499986 0.18157 0.808296 1.05926e-06 0 -8.81909e-05
24 1 0.749986 0.0902968 0.683845 -9.75062e-07 0 -5.92942e-05
25 1 0.999986 0.590296 0.683845 -8.31846e-07 0 -6.08175e-05
26 1 0.249986 0.68157 0.808296 -2.85225e-07 0 -8.76451e-05
27 1 0.749986 0.68157 0.808296 5.1564e-07 0 -8.81255e-05
28 1 0.499986 0.590296 0.683845 3.73693e-07 0 -6.1146e-05
29 1 0.249986 0.940758 0.933226 7.95806e-07 0 2.02019e-05
30 1 0.749986 0.940758 0.933226 -6.56092e-07 0 1.86319e-05
31 1 0.999986 0.440757 0.933226 -5.51328e-07 0 2.03839e-05
32 1 0.499986 0.440757 0.933226 4.75387e-07 0 2.06563e-05
