LAMMPS (4 May 2022)
## variable
variable        temp            equal 500
variable        eql_step        equal 500000
variable        rd_seed         equal 2

variable        temp_damp       equal 0.2 # tau_NVT = timestep * 100
variable        t_step          equal 0.002
variable        rlx_step        equal 20000

variable        thermo_freq     equal 100
variable        dump_freq       equal 100

## units
dimension       3
boundary        p p p
units           metal
atom_style      atomic
neighbor        1.0 bin
neigh_modify    every 10 delay 0 check no

## data.lmp, potential
read_data       data.lmp
Reading data file ...
  orthogonal box = (0 0 0) to (26.25021 26.25021 25.3108)
  1 by 1 by 1 MPI processor grid
  reading atoms ...
  900 atoms
  read_data CPU = 0.001 seconds
pair_style      nvnmd model.pb
pair_coeff * *

## velocity, timestep
velocity        all create ${temp} ${rd_seed} loop geom
velocity        all create 500 ${rd_seed} loop geom
velocity        all create 500 2 loop geom
timestep        ${t_step}
timestep        0.002

## nvt-relax
fix             equil all nvt temp ${temp} ${temp} ${temp_damp}
fix             equil all nvt temp 500 ${temp} ${temp_damp}
fix             equil all nvt temp 500 500 ${temp_damp}
fix             equil all nvt temp 500 500 0.2
run             ${rlx_step}
run             20000
Generated 0 of 6 mixed pair_coeff terms from geometric mixing rule
Neighbor list info ...
  update every 10 steps, delay 0 steps, check no
  max neighbors/atom: 2000, page size: 100000
  master list distance cutoff = 8
  ghost atom cutoff = 8
  binsize = 4, bins = 7 7 7
  1 neighbor lists, perpetual/occasional/extra = 1 0 0
  (1) pair nvnmd, perpetual
      attributes: full, newton on
      pair build: full/bin/atomonly
      stencil: full/bin/3d
      bin: standard
Per MPI rank memory allocation (min/avg/max) = 3.057 | 3.057 | 3.057 Mbytes
   Step          Temp          E_pair         E_mol          TotEng         Press     
         0   500            200.16062      0              258.26305      13816.484    
     20000   488.82782      252.37653      0              309.1807       13287.84     
Loop time of 12.0723 on 1 procs for 20000 steps with 900 atoms

Performance: 286.275 ns/day, 0.084 hours/ns, 1656.684 timesteps/s
53.9% CPU use with 1 MPI tasks x no OpenMP threads

MPI task timing breakdown:
Section |  min time  |  avg time  |  max time  |%varavg| %total
---------------------------------------------------------------
Pair    | 7.7033     | 7.7033     | 7.7033     |   0.0 | 63.81
Neigh   | 4.0818     | 4.0818     | 4.0818     |   0.0 | 33.81
Comm    | 0.13559    | 0.13559    | 0.13559    |   0.0 |  1.12
Output  | 1.6309e-05 | 1.6309e-05 | 1.6309e-05 |   0.0 |  0.00
Modify  | 0.12833    | 0.12833    | 0.12833    |   0.0 |  1.06
Other   |            | 0.02322    |            |       |  0.19

Nlocal:            900 ave         900 max         900 min
Histogram: 1 0 0 0 0 0 0 0 0 0
Nghost:           2789 ave        2789 max        2789 min
Histogram: 1 0 0 0 0 0 0 0 0 0
Neighs:              0 ave           0 max           0 min
Histogram: 1 0 0 0 0 0 0 0 0 0
FullNghs:        99394 ave       99394 max       99394 min
Histogram: 1 0 0 0 0 0 0 0 0 0

Total # of neighbors = 99394
Ave neighs/atom = 110.43778
Neighbor list builds = 2000
Dangerous builds not checked
unfix           equil

## nvt-equal
reset_timestep  0
fix             equil all nvt temp ${temp} ${temp} ${temp_damp}
fix             equil all nvt temp 500 ${temp} ${temp_damp}
fix             equil all nvt temp 500 500 ${temp_damp}
fix             equil all nvt temp 500 500 0.2
fix             com all recenter INIT INIT INIT

## thermo_style
thermo_style    custom step time temp ke etotal press
thermo          ${thermo_freq}
thermo          100
thermo_modify   flush yes
dump            1 all custom ${dump_freq} dump.lammpstraj id type x y z
dump            1 all custom 100 dump.lammpstraj id type x y z
run             500000
Generated 0 of 6 mixed pair_coeff terms from geometric mixing rule
Per MPI rank memory allocation (min/avg/max) = 4.341 | 4.341 | 4.341 Mbytes
   Step          Time           Temp          KinEng         TotEng         Press     
         0   0              488.82782      56.804173      309.1807       13287.84     
       100   0.2            497.6626       57.830818      309.61237      14240.935    
       200   0.4            500.2771       58.134635      311.43895      14965.056    
       300   0.6            500.45242      58.155009      314.40455      14148.368    
       400   0.8            513.64809      59.68841       313.81868      14683.83     
       500   1              512.54615      59.560358      309.7506       16133.585    
       600   1.2            484.82547      56.339081      308.66695      14096.905    
       700   1.4            473.69208      55.045327      308.79708      15533.326    
       800   1.6            478.38092      55.590193      310.94731      15478.143    
       900   1.8            502.35372      58.375948      313.728        15717.344    
      1000   2              529.30644      61.507987      313.22004      16266.779    
      1100   2.2            492.78334      57.263824      308.28207      13947.076    
      1200   2.4            491.05274      57.062719      308.06165      16055.27     
      1300   2.6            497.81695      57.848754      310.07852      15355.38     
      1400   2.8            519.30149      60.345362      311.95262      14789.561    
      1500   3              496.75496      57.725346      311.14222      15209.988    
      1600   3.2            495.01484      57.523135      306.79489      15029.073    
      1700   3.4            481.59903      55.964153      306.40185      13798.859    
      1800   3.6            487.27372      56.62358       308.54763      14772.687    
      1900   3.8            519.7319       60.395378      310.75662      13872.91     
      2000   4              498.89726      57.974291      311.34234      14296.705    
      2100   4.2            493.76902      57.378364      310.74189      13444.227    
      2200   4.4            494.93371      57.513708      310.3002       13871.509    
      2300   4.6            505.12646      58.698155      309.74118      15539.93     
      2400   4.8            498.63064      57.943309      309.38928      14221.54     
      2500   5              509.25067      59.177408      310.6465       14863.412    
      2600   5.2            503.51551      58.510954      312.13308      15612.668    
      2700   5.4            509.22941      59.174938      311.95076      13999.252    
      2800   5.6            509.84903      59.24694       309.30313      13859.427    
      2900   5.8            491.32406      57.094249      306.7036       15483.725    
      3000   6              490.62155      57.012614      307.37199      15171.425    
      3100   6.2            489.25392      56.853688      311.68287      14059.642    
      3200   6.4            501.52476      58.27962       312.61122      15881.529    
      3300   6.6            505.80312      58.776786      310.75862      14411.848    
      3400   6.8            495.02709      57.524559      308.70511      14439.972    
      3500   7              489.1866       56.845865      307.90815      15772.064    
      3600   7.2            492.1693       57.19247       309.23249      14374.939    
      3700   7.4            496.98748      57.752366      313.09498      14483.372    
      3800   7.6            522.16953      60.678642      313.49941      15405.332    
      3900   7.8            507.05792      58.9226        310.80069      14591.17     
      4000   8              488.08881      56.718297      309.0476       13725.195    
      4100   8.2            500.52242      58.163143      308.85635      14919.898    
      4200   8.4            501.15821      58.237025      309.48791      12774.573    
      4300   8.6            516.63361      60.035341      312.5757       15498.527    
      4400   8.8            513.84127      59.710858      314.60451      13349.546    
      4500   9              508.28204      59.064849      313.03457      15178.667    
      4600   9.2            501.65653      58.294932      311.60999      15330.722    
      4700   9.4            510.36426      59.306812      310.49552      14548.159    
      4800   9.6            481.71588      55.977731      308.81348      15137.503    
      4900   9.8            478.44434      55.597562      307.0911       14859.128    
      5000   10             490.37519      56.983985      307.57129      13636.551    
      5100   10.2           513.3435       59.653015      311.63508      14217.738    
      5200   10.4           510.05909      59.271351      312.78091      15700.729    
      5300   10.6           500.10434      58.11456       310.81874      13783.055    
      5400   10.8           503.99864      58.567097      308.0681       15090.153    
      5500   11             487.43039      56.641785      307.31553      16377.112    
      5600   11.2           481.81918      55.989735      307.7211       14899.619    
      5700   11.4           496.28473      57.670703      308.67846      14417.076    
      5800   11.6           505.20502      58.707284      309.86894      16415.379    
      5900   11.8           489.84522      56.9224        310.97559      15524.228    
      6000   12             524.4734       60.946364      313.59538      14394.516    
      6100   12.2           516.02891      59.965073      315.09511      17446.623    
      6200   12.4           498.99847      57.986052      311.33072      14707.565    
      6300   12.6           505.90776      58.788945      309.1065       15384.866    
      6400   12.8           475.51835      55.257548      308.38757      15464.092    
      6500   13             495.91123      57.627301      309.41546      15701.313    
      6600   13.2           521.07494      60.551446      312.12463      13454.961    
      6700   13.4           534.37983      62.097539      314.42308      14903.664    
      6800   13.6           497.55364      57.818156      312.05661      14678.72     
      6900   13.8           485.14482      56.376191      308.55622      13370.745    
      7000   14             486.08114      56.484996      308.78219      16938.156    
      7100   14.2           503.11693      58.464638      310.89124      13955.9      
      7200   14.4           512.80869      59.590867      312.49856      14966.36     
      7300   14.6           516.91256      60.067757      311.91372      14866.546    
      7400   14.8           470.57673      54.683308      307.79877      12850.295    
      7500   15             482.77241      56.100505      307.18574      15094.199    
      7600   15.2           509.52461      59.209241      308.78559      13913.667    
      7700   15.4           519.40777      60.357712      312.05378      14420.975    
      7800   15.6           511.11269      59.393784      312.9582       14825.981    
      7900   15.8           513.11784      59.626792      311.37423      14437.962    
      8000   16             519.51147      60.369763      310.37262      15064.349    
      8100   16.2           514.60105      59.799148      308.78884      13842.747    
      8200   16.4           483.44425      56.178576      307.51379      14434.615    
      8300   16.6           479.58793      55.730453      306.91879      13633.084    
      8400   16.8           495.7781       57.61183       309.40702      15537.487    
      8500   17             517.4782       60.133487      312.26976      13642.651    
      8600   17.2           499.00249      57.98652       312.23239      16116.58     
      8700   17.4           502.55085      58.398856      309.42942      12509.207    
      8800   17.6           493.46362      57.342876      307.35565      13505.19     
      8900   17.8           505.0683       58.691397      307.6629       14725.488    
      9000   18             502.96727      58.447246      312.4887       14271.944    
      9100   18.2           524.02015      60.893694      314.43459      13357.602    
      9200   18.4           506.60087      58.869488      311.65997      14253.649    
      9300   18.6           502.28594      58.368072      308.81338      13645.879    
      9400   18.8           490.74201      57.026611      308.25994      14560.852    
      9500   19             491.43701      57.107374      310.02332      14168.1      
      9600   19.2           493.55594      57.353604      313.08457      15196.926    
      9700   19.4           521.56957      60.608924      313.68504      16975.377    
      9800   19.6           503.3834       58.495602      310.55452      12706.125    
      9900   19.8           508.94591      59.141993      308.09491      15397.623    
     10000   20             503.18556      58.472613      308.79465      15347.138    
     10100   20.2           510.29624      59.298909      310.12813      12487.509    
     10200   20.4           508.37608      59.075777      311.03191      14615.882    
     10300   20.6           497.0078       57.754726      311.35524      14166.93     
     10400   20.8           489.084        56.833942      310.30432      15096.561    
     10500   21             493.54162      57.35194       308.73599      16453.112    
     10600   21.2           490.98755      57.055144      308.20636      14862.337    
     10700   21.4           509.25729      59.178178      310.72344      15102.514    
     10800   21.6           512.52824      59.558277      312.9802       14888.797    
     10900   21.8           521.51183      60.602214      311.822        14778.374    
     11000   22             500.27415      58.134292      307.74348      13427.156    
     11100   22.2           492.22389      57.198814      307.32181      14140.163    
     11200   22.4           503.5642       58.516613      308.30496      15491.109    
     11300   22.6           504.00624      58.567979      310.69937      13529.453    
     11400   22.8           534.18046      62.074371      312.34711      14523.292    
     11500   23             515.74644      59.932248      310.32048      15282.287    
     11600   23.2           487.11236      56.604829      306.13832      14724.849    
     11700   23.4           480.80949      55.872405      307.13684      13927.337    
     11800   23.6           502.24295      58.363077      309.86833      16913.009    
     11900   23.8           507.54203      58.978856      311.09903      15545.123    
     12000   24             521.48246      60.598802      311.30591      14884.273    
     12100   24.2           492.33787      57.212059      308.35828      14173.293    
     12200   24.4           486.2636       56.506199      305.2904       14149.421    
     12300   24.6           482.52445      56.071691      306.96888      14450.937    
     12400   24.8           502.16566      58.354095      309.69412      15290.017    
     12500   25             496.57543      57.704483      310.83751      15080.14     
     12600   25.2           499.05278      57.992364      310.98543      13683.368    
     12700   25.4           499.08524      57.996135      310.73526      16300.388    
     12800   25.6           505.25109      58.712638      309.21953      13776.797    
     12900   25.8           502.6847       58.414411      306.89633      14888.462    
     13000   26             492.55859      57.237707      306.50321      15118.09     
     13100   26.2           494.22847      57.431755      309.84282      15583.154    
     13200   26.4           503.06614      58.458735      311.98736      14679.052    
     13300   26.6           513.30399      59.648424      311.08241      15484.224    
     13400   26.8           499.3824       58.030667      308.94564      15861.312    
     13500   27             492.87494      57.274468      307.71565      14415.186    
     13600   27.2           486.89216      56.579241      308.18058      15621.271    
     13700   27.4           515.15931      59.864021      313.91185      15927.067    
     13800   27.6           520.43127      60.476648      313.45848      13644.762    
     13900   27.8           496.63207      57.711065      309.91995      13807.18     
     14000   28             500.5264       58.163605      308.19026      15273.746    
     14100   28.2           473.1656       54.984147      307.39787      12674.248    
     14200   28.4           507.06776      58.923744      308.56365      14727.642    
     14300   28.6           494.08737      57.415359      312.16955      16085.866    
     14400   28.8           513.39752      59.659293      312.65677      15944.713    
     14500   29             506.60049      58.869444      309.55833      14249.71     
     14600   29.2           498.30576      57.905556      307.96661      14263.84     
     14700   29.4           509.9632       59.260208      308.17968      15117.866    
     14800   29.6           502.22798      58.361337      309.26393      13229.317    
     14900   29.8           501.20604      58.242583      311.4244       14636.576    
     15000   30             510.65365      59.340441      314.82687      13879.451    
     15100   30.2           536.03274      62.289615      315.17985      14381.302    
     15200   30.4           494.68089      57.484329      309.58951      15713.906    
     15300   30.6           498.28451      57.903087      308.37219      15704.608    
     15400   30.8           522.12975      60.674019      309.06941      13655.882    
     15500   31             512.47018      59.55153       311.60837      13860.055    
     15600   31.2           511.36605      59.423225      313.32727      16291.172    
     15700   31.4           505.67491      58.761887      311.6319       15633.669    
     15800   31.6           497.89997      57.858402      307.74352      14053.154    
     15900   31.8           481.53802      55.957063      307.58742      15262.625    
     16000   32             498.88547      57.972921      309.59444      13889.302    
     16100   32.2           500.21472      58.127386      311.77546      14689.497    
     16200   32.4           498.64838      57.94537       311.90145      16599.265    
     16300   32.6           477.76236      55.518313      307.65873      12221.551    
     16400   32.8           486.70628      56.55764       305.63682      15318.417    
     16500   33             494.30787      57.440981      307.84489      14438.025    
     16600   33.2           500.0587       58.109257      310.55429      13974.824    
     16700   33.4           501.49545      58.276213      311.08442      15561.286    
     16800   33.6           526.23017      61.150508      310.15261      14987.372    
     16900   33.8           480.52583      55.839442      306.43543      13138.592    
     17000   34             480.49319      55.835649      304.75812      13449.11     
     17100   34.2           472.51111      54.908092      306.34869      15711.797    
     17200   34.4           495.25545      57.551096      308.9404       12856.538    
     17300   34.6           491.96049      57.168205      311.04055      15169.559    
     17400   34.8           510.83916      59.361998      311.34828      14894.803    
     17500   35             487.49841      56.64969       308.93976      14938.709    
     17600   35.2           486.17782      56.49623       305.27148      12662.786    
     17700   35.4           491.17931      57.077428      306.0858       15430.916    
     17800   35.6           485.57374      56.426034      308.13123      13408.932    
     17900   35.8           496.23733      57.665194      309.69226      13803.716    
     18000   36             489.97619      56.937619      310.73668      15298.126    
     18100   36.2           507.36702      58.958519      310.54608      14396.297    
     18200   36.4           480.47462      55.833491      307.95919      13846.139    
     18300   36.6           476.89866      55.417947      305.57394      15350.979    
     18400   36.8           493.36604      57.331537      306.76477      11769.897    
     18500   37             509.39409      59.194074      310.30852      15735.579    
     18600   37.2           491.47337      57.111599      311.34189      16185.928    
     18700   37.4           524.34287      60.931195      311.51082      12980.501    
     18800   37.6           490.65741      57.016781      309.92205      14374.32     
     18900   37.8           486.15543      56.493629      305.93316      14056.534    
     19000   38             484.51346      56.302823      305.86573      14437.574    
     19100   38.2           494.64365      57.480001      307.93455      12436.417    
     19200   38.4           513.07574      59.6219        309.66492      14910.13     
     19300   38.6           500.01506      58.104185      310.81428      14592.686    
     19400   38.8           506.77601      58.889841      311.76664      12540.254    
     19500   39             501.78683      58.310074      309.27799      16674.237    
     19600   39.2           458.97066      53.334626      305.95559      15187.998    
     19700   39.4           463.41185      53.850714      307.51634      12820.908    
     19800   39.6           501.90899      58.324269      310.60346      16475.628    
     19900   39.8           484.45958      56.296562      310.85048      14313.52     
     20000   40             518.65398      60.270119      310.81717      13086.112    
     20100   40.2           492.42846      57.222585      308.87819      16547.231    
     20200   40.4           463.10323      53.814851      306.67968      13640.883    
     20300   40.6           488.76789      56.797209      307.32993      15718.88     
     20400   40.8           514.31369      59.765755      311.65464      14331.668    
     20500   41             504.78072      58.657978      312.51211      14797.954    
     20600   41.2           506.48439      58.855953      311.17554      14708.076    
     20700   41.4           486.38705      56.520544      308.55773      14412.24     
     20800   41.6           492.61146      57.243851      308.75595      14518.185    
     20900   41.8           523.24122      60.803178      313.86294      14383.118    
     21000   42             516.28948      59.995352      314.31925      13683.625    
     21100   42.2           504.41858      58.615896      311.73315      17069.464    
     21200   42.4           502.22819      58.361362      309.34381      13589.239    
     21300   42.6           500.07661      58.111337      309.06327      14890.937    
     21400   42.8           501.64721      58.293849      310.44548      13745.805    
     21500   43             519.37624      60.354049      313.96665      12856.325    
     21600   43.2           489.4218       56.873197      316.42501      16044.606    
     21700   43.4           515.23954      59.873343      314.80352      15061.88     
     21800   43.6           511.10491      59.39288       312.34538      13999.427    
     21900   43.8           494.95522      57.516208      310.91869      16237.702    
     22000   44             495.78295      57.612394      309.20644      17293.851    
     22100   44.2           475.45306      55.249961      308.10335      15353.181    
     22200   44.4           502.5021       58.393191      310.48662      14790.732    
     22300   44.6           529.19414      61.494936      313.75045      16742.135    
     22400   44.8           497.25232      57.783142      312.26028      13465.224    
     22500   45             506.14748      58.816802      309.6236       14920.4      
     22600   45.2           490.30676      56.976033      308.93023      14862.123    
     22700   45.4           488.95027      56.818403      309.35178      12420.983    
     22800   45.6           514.36192      59.77136       311.24212      14999.543    
     22900   45.8           501.97021      58.331383      313.8009       13175.327    
     23000   46             523.5773       60.842232      318.08716      15206.211    
     23100   46.2           542.47328      63.038037      316.23963      15167.526    
     23200   46.4           506.94743      58.90976       313.24627      13664.86     
     23300   46.6           491.65207      57.132365      310.72669      14880.643    
     23400   46.8           503.99313      58.566457      308.75978      14492.254    
     23500   47             488.35293      56.748989      308.49023      15333.811    
     23600   47.2           512.17127      59.516796      311.52165      13827.782    
     23700   47.4           510.18112      59.285531      314.07173      15283.175    
     23800   47.6           516.35941      60.003478      312.67586      14696.138    
     23900   47.8           506.78279      58.890628      310.73007      15108.133    
     24000   48             496.06681      57.645379      309.3714       14717.454    
     24100   48.2           495.6099       57.592284      308.5429       14267.078    
     24200   48.4           484.16839      56.262724      308.88385      13985.241    
     24300   48.6           501.28381      58.25162       312.38775      15670.941    
     24400   48.8           518.20814      60.21831       314.10431      14523.564    
     24500   49             514.19474      59.751933      311.51993      14465.771    
     24600   49.2           495.46854      57.575858      308.9348       14449.939    
     24700   49.4           498.01103      57.871307      308.53095      14523.568    
     24800   49.6           496.55189      57.701748      309.71472      15735.479    
     24900   49.8           517.2984       60.112593      312.1496       15020.738    
     25000   50             506.03361      58.80357       313.57644      16132.369    
     25100   50.2           511.37606      59.424388      314.14468      14939.486    
     25200   50.4           502.9681       58.447343      311.03515      15832.562    
     25300   50.6           487.29986      56.626617      308.68697      14745.707    
     25400   50.8           503.76429      58.539864      308.50463      14574.013    
     25500   51             524.06403      60.898793      310.80561      14584.466    
     25600   51.2           511.40426      59.427666      313.91859      15872.975    
     25700   51.4           525.33499      61.046484      313.60728      15438.654    
     25800   51.6           503.48239      58.507106      310.7108       13232.034    
     25900   51.8           504.25066      58.596383      309.71996      16457.79     
     26000   52             496.18096      57.658644      309.80088      15395.273    
     26100   52.2           503.93564      58.559775      310.8552       14205.843    
     26200   52.4           516.7087       60.044067      311.59625      16999.511    
     26300   52.6           507.18993      58.93794       311.57757      14411.548    
     26400   52.8           507.97233      59.028859      309.15881      15528.471    
     26500   53             488.43104      56.758066      306.61509      15166.876    
     26600   53.2           487.26037      56.622028      306.65553      14035.664    
     26700   53.4           494.57389      57.471895      310.29473      13954.534    
     26800   53.6           507.33528      58.954831      312.48288      15539.973    
     26900   53.8           512.67501      59.575334      311.60266      15198.994    
     27000   54             490.8927       57.044123      309.0841       15595.633    
     27100   54.2           493.92753      57.396784      307.60873      15777.139    
     27200   54.4           474.38354      55.125677      308.16554      15830.984    
     27300   54.6           511.28733      59.414078      308.70797      14392.445    
     27400   54.8           475.29826      55.231973      309.07732      14701.916    
     27500   55             498.48126      57.92595       309.97427      13972.021    
     27600   55.2           531.12978      61.719867      311.41476      15502.429    
     27700   55.4           533.15847      61.955611      314.31271      14699.916    
     27800   55.6           505.98984      58.798483      314.49053      14823.678    
     27900   55.8           521.22062      60.568375      310.64307      16128.328    
     28000   56             487.84121      56.689524      308.95414      14319.363    
     28100   56.2           489.8401       56.921806      309.30837      13774.951    
     28200   56.4           498.91331      57.976157      310.5525       14706.342    
     28300   56.6           514.56488      59.794945      312.93146      14453.053    
     28400   56.8           525.7371       61.093212      313.79416      14256.382    
     28500   57             504.54716      58.630837      310.18729      13514.008    
     28600   57.2           498.84843      57.968617      307.79642      13622.732    
     28700   57.4           497.67837      57.832651      308.4347       13824.759    
     28800   57.6           500.70041      58.183827      310.46521      12998.954    
     28900   57.8           517.97919      60.191705      311.5597       14761.931    
     29000   58             508.95688      59.143268      311.5646       13526.469    
     29100   58.2           500.11245      58.115503      309.24962      14500.289    
     29200   58.4           492.43715      57.223595      307.25887      14644.982    
     29300   58.6           498.35032      57.910735      307.4287       14952.817    
     29400   58.8           491.34469      57.096646      310.75253      15599.115    
     29500   59             498.37848      57.914007      313.0184       13836.313    
     29600   59.2           508.00284      59.032404      312.08511      13554.527    
     29700   59.4           510.71637      59.34773       309.97364      16457.424    
     29800   59.6           495.8541       57.620661      308.4788       15018.671    
     29900   59.8           481.05633      55.901089      308.60336      15829.129    
     30000   60             509.06884      59.156278      309.25425      16394.351    
     30100   60.2           491.54459      57.119876      310.17086      13491.804    
     30200   60.4           513.64626      59.688197      312.32969      16696.598    
     30300   60.6           522.88374      60.761637      314.54122      14685.192    
     30400   60.8           524.08428      60.901146      311.81539      12500.013    
     30500   61             483.83398      56.223865      308.93517      15145.055    
     30600   61.2           512.81615      59.591734      308.3074       13614.459    
     30700   61.4           477.71456      55.512759      308.98019      13650.193    
     30800   61.6           523.3737       60.818572      312.21311      15527.716    
     30900   61.8           546.94066      63.557168      314.34189      15088.477    
     31000   62             495.53109      57.583126      310.81142      14556.004    
     31100   62.2           497.6307       57.827111      308.40538      14701.912    
     31200   62.4           502.58696      58.403053      308.10164      11514.961    
     31300   62.6           485.42502      56.408752      309.12428      15122.275    
     31400   62.8           512.43205      59.5471        311.89854      14221.509    
     31500   63             511.74295      59.467023      312.49837      15104.534    
     31600   63.2           501.74381      58.305074      308.33099      14365.719    
     31700   63.4           504.2602       58.597492      306.47923      14377.303    
     31800   63.6           499.0035       57.986637      308.09613      13943.303    
     31900   63.8           496.62318      57.710032      310.77184      16236.059    
     32000   64             499.68478      58.065805      311.9388       14309.615    
     32100   64.2           500.58906      58.170887      311.1695       17545.952    
     32200   64.4           501.96478      58.330753      309.14616      12833.487    
     32300   64.6           502.17886      58.355629      307.89552      14143.844    
     32400   64.8           493.62424      57.36154       308.34699      16049.882    
     32500   65             494.30285      57.440399      309.60978      11962.382    
     32600   65.2           505.38689      58.728418      311.14062      14481.823    
     32700   65.4           521.45935      60.596116      310.71862      16646.912    
     32800   65.6           495.89602      57.625532      307.69522      14116.727    
     32900   65.8           489.40713      56.871492      305.99361      12667.627    
     33000   66             495.62445      57.593975      307.66682      16937.611    
     33100   66.2           497.26155      57.784215      311.10746      14964.289    
     33200   66.4           501.46987      58.273241      311.22242      15883.876    
     33300   66.6           505.97384      58.796624      310.42532      17029.473    
     33400   66.8           500.45066      58.154804      308.84732      14174.994    
     33500   67             494.60674      57.475712      307.06186      14732.105    
     33600   67.2           488.50392      56.766535      306.52456      14379.614    
     33700   67.4           479.40256      55.708912      309.35105      15807.498    
     33800   67.6           496.51608      57.697586      312.20111      17115.923    
     33900   67.8           513.22153      59.638842      311.53602      15195.766    
     34000   68             480.38292      55.822835      308.61317      15420.946    
     34100   68.2           489.76129      56.912647      307.30123      15633.347    
     34200   68.4           493.49688      57.346741      307.89234      14620.536    
     34300   68.6           496.51727      57.697725      308.82955      13853.38     
     34400   68.8           505.12464      58.697943      309.71513      15627.181    
     34500   69             489.63801      56.898322      310.36252      15718.684    
     34600   69.2           506.39524      58.845593      311.58543      13782.171    
     34700   69.4           504.67184      58.645325      311.5831       15704.837    
     34800   69.6           493.06121      57.296114      308.55599      15290.861    
     34900   69.8           489.2754       56.856184      306.95515      14693.745    
     35000   70             495.59999      57.591133      308.13478      15589.007    
     35100   70.2           497.04887      57.759499      311.97266      16882.698    
     35200   70.4           517.93489      60.186557      313.21633      13649.396    
     35300   70.6           494.37801      57.449133      312.07494      15160.63     
     35400   70.8           507.12817      58.930763      309.79994      15422.145    
     35500   71             480.8882       55.881551      308.0408       13253.404    
     35600   71.2           501.4678       58.273         308.89614      16192.706    
     35700   71.4           516.02599      59.964733      310.12548      13567.045    
     35800   71.6           512.86356      59.597244      310.38198      13115.981    
     35900   71.8           515.88619      59.948488      309.73165      15987.331    
     36000   72             486.44862      56.527699      308.51929      15266.694    
     36100   72.2           506.12691      58.814412      308.05437      14276.608    
     36200   72.4           494.20614      57.42916       308.2483       14079.528    
     36300   72.6           517.7712       60.167536      310.1023       16241.048    
     36400   72.8           518.67302      60.272331      312.01657      13805.897    
     36500   73             491.99935      57.172721      311.95221      13696.471    
     36600   73.2           497.61491      57.825276      308.0172       16009.426    
     36700   73.4           473.20535      54.988766      306.72526      13604.513    
     36800   73.6           483.00219      56.127207      308.39892      16447.707    
     36900   73.8           486.66853      56.553254      310.60863      16946.327    
     37000   74             488.58757      56.776256      310.9224       14780.706    
     37100   74.2           510.73432      59.349816      310.8567       15982.63     
     37200   74.4           485.64718      56.434568      308.89743      14239.757    
     37300   74.6           475.40294      55.244137      304.63578      12931.244    
     37400   74.8           489.13053      56.83935       304.49006      16425.374    
     37500   75             485.95066      56.469833      306.85714      14292.713    
     37600   75.2           501.87991      58.32089       308.62101      14571.782    
     37700   75.4           514.26984      59.76066       310.30495      16390.496    
     37800   75.6           479.71915      55.745702      311.28459      14819.017    
     37900   75.8           502.71905      58.418402      310.4637       14379.386    
     38000   76             492.43635      57.223502      307.31075      14105.761    
     38100   76.2           484.88819      56.34637       305.6258       15220.57     
     38200   76.4           490.44151      56.991692      307.92316      13710.811    
     38300   76.6           496.27993      57.670145      310.65415      14511.08     
     38400   76.8           497.64325      57.828569      310.67275      16110.213    
     38500   77             491.36782      57.099334      308.8436       15479.993    
     38600   77.2           504.52402      58.628148      307.28138      14096.04     
     38700   77.4           490.43747      56.991223      307.52634      14777.642    
     38800   77.6           518.09751      60.205454      311.50776      16551.962    
     38900   77.8           506.87712      58.90159       312.45886      15122.464    
     39000   78             497.96915      57.86644       310.63798      14819.692    
     39100   78.2           490.5296       57.001928      307.60754      16023.183    
     39200   78.4           490.76227      57.028966      307.7387       13489.187    
     39300   78.6           494.59353      57.474177      309.24401      14539.221    
     39400   78.8           513.7943       59.7054        310.18803      16376.71     
     39500   79             494.62786      57.478166      310.30671      15124.811    
     39600   79.2           503.61737      58.522791      309.97124      14737.7      
     39700   79.4           493.41334      57.337033      309.23976      15074.117    
     39800   79.6           488.7344       56.793318      308.81187      14577.183    
     39900   79.8           489.73462      56.909549      309.60773      13828.2      
     40000   80             531.29588      61.739169      311.95133      13674.341    
     40100   80.2           522.90452      60.764052      312.06602      13944.996    
     40200   80.4           489.58024      56.891608      309.33709      13992.536    
     40300   80.6           477.697        55.510718      307.23719      13811.078    
     40400   80.8           499.32857      58.024411      308.32431      15065.315    
     40500   81             501.73063      58.303542      311.89287      15161.659    
     40600   81.2           512.41425      59.545031      313.52722      16686.524    
     40700   81.4           519.11966      60.324233      312.43961      16571.077    
     40800   81.6           488.76544      56.796925      310.26408      13666.032    
     40900   81.8           494.15736      57.423492      308.36034      16077.521    
     41000   82             481.44349      55.946078      308.19231      17424.828    
     41100   82.2           505.62245      58.755792      310.82147      14757.229    
     41200   82.4           520.55307      60.490802      313.71733      15731.145    
     41300   82.6           536.07656      62.294707      312.725        16649.513    
     41400   82.8           496.39733      57.683788      309.60525      15608.404    
     41500   83             499.83098      58.082795      308.70278      16517.613    
     41600   83.2           526.24042      61.1517        309.41612      16764.196    
     41700   83.4           491.68885      57.136639      310.44983      15959.899    
     41800   83.6           511.95886      59.492113      313.33825      14780.153    
     41900   83.8           510.01084      59.265744      316.98633      18249.583    
     42000   84             538.2185       62.543611      314.12292      13993.21     
     42100   84.2           514.66298      59.806344      310.00079      15962.131    
     42200   84.4           480.42765      55.828033      309.00569      16064.647    
     42300   84.6           512.30425      59.532249      309.78193      16786.765    
     42400   84.8           498.78721      57.961503      310.57327      13025.742    
     42500   85             488.48818      56.764706      311.03093      16264.978    
     42600   85.2           495.77744      57.611753      310.4971       13885.652    
     42700   85.4           475.4806       55.253161      308.4178       12512.158    
     42800   85.6           483.77247      56.216717      306.65575      16199.416    
     42900   85.8           473.24641      54.993537      307.74296      13250.081    
     43000   86             521.36034      60.584611      311.85739      13178.65     
     43100   86.2           502.88461      58.437641      312.36042      14965.706    
     43200   86.4           512.75976      59.585182      310.89118      13287.788    
     43300   86.6           492.21173      57.1974        308.34385      12225.704    
     43400   86.8           493.44113      57.340263      307.34488      15042.776    
     43500   87             498.6843       57.949545      309.75189      14517.629    
     43600   87.2           505.92519      58.790971      313.19679      15389.202    
     43700   87.4           505.54705      58.74703       313.99981      15878.04     
     43800   87.6           504.48214      58.623282      311.20221      16049.662    
     43900   87.8           501.1833       58.23994       309.04392      15598.133    
     44000   88             499.51409      58.04597       308.59696      15691.347    
     44100   88.2           492.97877      57.286534      309.98762      14427.54     
     44200   88.4           521.34019      60.58227       314.84033      14942.52     
     44300   88.6           504.19151      58.589509      314.11789      16296.937    
     44400   88.8           512.65577      59.573097      311.43348      15402.03     
     44500   89             509.94659      59.258277      309.72564      13571.694    
     44600   89.2           493.17848      57.309741      309.21097      15229.382    
     44700   89.4           507.35845      58.957523      310.77392      15709.281    
     44800   89.6           519.95563      60.421376      315.82573      16581.475    
     44900   89.8           523.70718      60.857324      316.17338      15053.789    
     45000   90             501.84343      58.316651      312.82761      14648.723    
     45100   90.2           497.57547      57.820693      311.18042      15764.305    
     45200   90.4           501.59777      58.288103      310.00793      15017.31     
     45300   90.6           507.60553      58.986235      309.15374      14773.702    
     45400   90.8           478.46607      55.600087      307.13617      14997.619    
     45500   91             479.45709      55.715249      306.45566      16751.828    
     45600   91.2           496.89896      57.742079      309.49535      14840.344    
     45700   91.4           521.68136      60.621915      311.94093      14836.426    
     45800   91.6           502.73752      58.420548      311.57001      16352.05     
     45900   91.8           504.86674      58.667974      309.954        17125.184    
     46000   92             478.81308      55.640412      307.40861      14502.275    
     46100   92.2           478.78589      55.637252      302.91541      15734.534    
     46200   92.4           487.62317      56.664187      304.46997      16187.696    
     46300   92.6           492.33392      57.2116        307.39808      14918.821    
     46400   92.8           498.31588      57.906732      310.47437      14911.993    
     46500   93             492.58923      57.241267      312.03941      15101.296    
     46600   93.2           504.18251      58.588463      311.73506      14997.485    
     46700   93.4           503.14482      58.467879      308.18939      13812.018    
     46800   93.6           474.85478      55.180438      307.11446      13541.909    
     46900   93.8           502.93827      58.443877      308.36128      14967.033    
     47000   94             508.59836      59.101606      309.87925      14614.879    
     47100   94.2           509.01888      59.150473      311.13529      14902.601    
     47200   94.4           523.0495       60.780899      311.97753      15160.696    
     47300   94.6           504.31168      58.603473      310.51244      15809.257    
     47400   94.8           467.947        54.377721      306.04063      14508.153    
     47500   95             488.73095      56.792917      306.12098      13959.532    
     47600   95.2           500.84976      58.201182      308.94391      15116.361    
     47700   95.4           496.41189      57.68548       311.33811      15131.846    
     47800   95.6           513.2549       59.642719      311.25328      14768.586    
     47900   95.8           482.78506      56.101975      310.01106      14399.876    
     48000   96             479.65149      55.737839      306.72532      15934.497    
     48100   96.2           461.53393      53.632491      303.93139      13870.216    
     48200   96.4           486.55487      56.540045      307.23911      15738.148    
     48300   96.6           495.61439      57.592806      310.73852      12990.651    
     48400   96.8           523.96825      60.887663      311.5118       14167.671    
     48500   97             502.2561       58.364605      310.4124       14333.754    
     48600   97.2           462.75983      53.774946      307.8883       15284.418    
     48700   97.4           497.00356      57.754235      307.28415      13604.691    
     48800   97.6           510.69225      59.344927      310.51734      15694.205    
     48900   97.8           503.04718      58.456532      313.02951      15808.216    
     49000   98             506.2599       58.829866      312.30032      12553.469    
     49100   98.2           495.69831      57.602558      310.43948      16431.355    
     49200   98.4           483.99345      56.242396      307.73372      17467.12     
     49300   98.6           487.01115      56.593068      304.97183      12805.04     
     49400   98.8           471.24843      54.761363      303.39637      13221.97     
     49500   99             489.35837      56.865826      307.13991      14651.277    
     49600   99.2           482.76985      56.100207      310.25304      12713.359    
     49700   99.4           529.87929      61.574554      312.31992      15830.505    
     49800   99.6           515.19613      59.8683        312.1519       14326.481    
     49900   99.8           503.62746      58.523964      309.08447      14521.86     
     50000   100            477.15486      55.447719      307.51308      15629.431    
     50100   100.2          495.05487      57.527788      309.03756      14967.88     
     50200   100.4          511.86383      59.48107       313.23749      14063.258    
     50300   100.6          523.54764      60.838786      312.94117      13818.041    
     50400   100.8          502.71905      58.418402      310.59291      15801.281    
     50500   101            475.83604      55.294465      308.1709       13538.723    
     50600   101.2          501.11459      58.231956      307.99872      15149.164    
     50700   101.4          497.29965      57.788642      310.92566      13091.993    
     50800   101.6          504.41501      58.615481      313.81681      15658.77     
     50900   101.8          495.80622      57.615097      312.86442      14489.797    
     51000   102            518.86269      60.294371      310.66352      14842.288    
     51100   102.2          495.81608      57.616243      309.01965      16422.123    
     51200   102.4          497.6286       57.826867      308.75993      14186.537    
     51300   102.6          502.45892      58.388174      309.26182      15743.367    
     51400   102.8          493.016        57.29086       310.29504      15876.842    
     51500   103            525.43024      61.057553      314.38234      14501.042    
     51600   103.2          526.13292      61.139207      315.91641      16387.841    
     51700   103.4          516.36185      60.003761      312.66048      14618.801    
     51800   103.6          492.92719      57.280541      309.97335      16007.531    
     51900   103.8          490.88416      57.04313       308.57896      15256.615    
     52000   104            489.51311      56.883808      308.86717      14721.786    
     52100   104.2          507.73723      59.001539      312.10925      15467.399    
     52200   104.4          520.0678       60.434411      314.46858      14029.243    
     52300   104.6          510.35181      59.305366      312.73799      15302.55     
     52400   104.8          502.26304      58.365411      310.60097      15144.28     
     52500   105            511.54438      59.443949      309.58775      14180.637    
     52600   105.2          483.73516      56.212382      308.77498      14742.297    
     52700   105.4          513.34613      59.65332       309.38058      13773.347    
     52800   105.6          513.10688      59.625518      312.41946      13265.179    
     52900   105.8          519.61821      60.382166      314.03375      13406.583    
     53000   106            499.97895      58.099989      311.32558      14216.435    
     53100   106.2          505.06925      58.691507      308.47209      13519.623    
     53200   106.4          479.1896       55.684166      308.62174      14442.736    
     53300   106.6          511.62125      59.452881      310.13127      13531.288    
     53400   106.8          510.17064      59.284313      312.60948      15567.287    
     53500   107            521.5411       60.605615      314.61816      15076.679    
     53600   107.2          504.73383      58.652529      313.57807      13675.219    
     53700   107.4          470.17756      54.636923      309.41682      15695.949    
     53800   107.6          497.24406      57.782181      308.22354      14554.376    
     53900   107.8          487.17377      56.611965      308.25837      13501.949    
     54000   108            521.98462      60.657155      311.34416      14287.386    
     54100   108.2          490.3752       56.983987      313.35993      14769.167    
     54200   108.4          502.64406      58.409688      312.5652       16991.897    
     54300   108.6          502.8381       58.432236      309.54658      14026.725    
     54400   108.8          504.48659      58.623798      309.3294       15409.196    
     54500   109            498.29742      57.904587      310.24989      13934.482    
     54600   109.2          504.29132      58.601107      311.29732      14412.671    
     54700   109.4          515.91911      59.952313      311.5711       14989.844    
     54800   109.6          491.15027      57.074054      309.45161      14206.88     
     54900   109.8          490.13905      56.956544      306.59701      15827.801    
     55000   110            495.89625      57.625559      306.36005      15177.8      
     55100   110.2          500.45275      58.155047      309.71203      14945.291    
     55200   110.4          505.11673      58.697024      311.95549      16065.21     
     55300   110.6          511.71129      59.463344      311.2846       13240.78     
     55400   110.8          520.43093      60.476609      309.37404      14736.923    
     55500   111            479.65127      55.737814      307.31032      16046.935    
     55600   111.2          481.138        55.910579      307.02206      15648.941    
     55700   111.4          515.15955      59.864048      310.63959      16140.489    
     55800   111.6          522.408        60.706354      312.64465      16793.298    
     55900   111.8          496.39707      57.683758      311.65432      16564.036    
     56000   112            490.6215       57.012607      308.1835       14189.876    
     56100   112.2          481.39315      55.940228      307.35693      15948.281    
     56200   112.4          492.19723      57.195715      308.95599      14613.262    
     56300   112.6          493.67116      57.366993      309.80769      13962.955    
     56400   112.8          488.55577      56.77256       310.20097      16391.802    
     56500   113            518.26254      60.224632      310.83603      13841.44     
     56600   113.2          517.9832       60.192171      311.28908      13963.868    
     56700   113.4          517.51966      60.138305      311.13046      15956.479    
     56800   113.6          499.40417      58.033197      309.03467      12378.297    
     56900   113.8          496.55665      57.702302      306.9489       15393.002    
     57000   114            481.29262      55.928546      306.891        12145.035    
     57100   114.2          504.57272      58.633807      310.68445      14372.779    
     57200   114.4          514.7753       59.819397      312.84485      13849.487    
     57300   114.6          495.30468      57.556816      311.00215      16248.891    
     57400   114.8          503.14797      58.468245      308.71086      15430.623    
     57500   115            490.96007      57.051951      308.18238      13919.446    
     57600   115.2          481.92228      56.001716      310.36615      16885.83     
     57700   115.4          521.83291      60.639526      314.62136      16827.75     
     57800   115.6          518.23692      60.221654      313.13277      14535.019    
     57900   115.8          496.44046      57.6888        310.18469      17563.628    
     58000   116            486.37046      56.518617      308.48765      11453.55     
     58100   116.2          501.50206      58.276981      308.58955      16579.082    
     58200   116.4          525.89174      61.111181      311.57529      16248.458    
     58300   116.6          538.00818      62.519171      315.08152      15715.457    
     58400   116.8          507.55149      58.979955      313.46126      16001.111    
     58500   117            503.00079      58.451142      311.57427      13978.156    
     58600   117.2          503.55457      58.515494      309.66285      15184.656    
     58700   117.4          502.42517      58.384252      308.55254      16072.56     
     58800   117.6          489.15227      56.841876      309.10209      12613.293    
     58900   117.8          527.97854      61.353678      313.2047       16235.959    
     59000   118            524.83073      60.987887      314.523        16736.989    
     59100   118.2          495.53304      57.583353      311.86756      14571.212    
     59200   118.4          498.54648      57.93353       309.11166      15097.052    
     59300   118.6          498.37019      57.913043      308.52437      16814.878    
     59400   118.8          503.72134      58.534873      309.48858      15088.809    
     59500   119            521.1439       60.559459      311.56965      16044.117    
     59600   119.2          523.12633      60.789827      314.86707      16496.224    
     59700   119.4          504.34757      58.607644      314.62225      13340.473    
     59800   119.6          512.69845      59.578057      310.03757      16503.449    
     59900   119.8          475.93669      55.306162      308.95944      13841.687    
     60000   120            493.68503      57.368605      309.39576      13971.54     
     60100   120.2          500.30415      58.137779      310.52276      13840.549    
     60200   120.4          512.55737      59.561663      313.01183      13615.416    
     60300   120.6          517.55751      60.142703      314.10547      14361.639    
     60400   120.8          481.92077      56.00154       310.1712       13919.405    
     60500   121            499.99009      58.101283      308.04936      13818.469    
     60600   121.2          517.6497       60.153416      308.44804      13178.69     
     60700   121.4          509.42623      59.197809      310.37         14544.159    
     60800   121.6          532.69054      61.901236      313.33187      14229.867    
     60900   121.8          505.04898      58.689151      314.89527      15076.06     
     61000   122            505.26276      58.713993      314.61647      15994.334    
     61100   122.2          500.28612      58.135684      310.21732      12976.722    
     61200   122.4          503.35066      58.491798      308.56907      15220.19     
     61300   122.6          498.30671      57.905666      308.72828      13955.962    
     61400   122.8          499.59545      58.055425      310.47784      12983.507    
     61500   123            519.37689      60.354124      313.52069      13981.713    
     61600   123.2          509.96836      59.260807      312.86444      15001.457    
     61700   123.4          493.49521      57.346547      308.87017      13367.426    
     61800   123.6          488.67036      56.785876      308.28932      15249.116    
     61900   123.8          484.87529      56.34487       308.88204      15652.946    
     62000   124            521.37888      60.586765      311.63507      12970.629    
     62100   124.2          521.36633      60.585307      312.72508      16183.487    
     62200   124.4          506.75277      58.88714       311.00895      14045.211    
     62300   124.6          482.18191      56.031887      306.72658      14368.583    
     62400   124.8          476.73179      55.398556      307.4006       13936.122    
     62500   125            489.46993      56.87879       310.6858       13256.831    
     62600   125.2          508.90092      59.136765      312.0033       13225.089    
     62700   125.4          501.88581      58.321576      312.16952      15869.48     
     62800   125.6          502.46034      58.388339      309.97626      13312.383    
     62900   125.8          480.03434      55.782328      306.43772      13995.128    
     63000   126            496.41655      57.686021      307.24003      15116.836    
     63100   126.2          506.75097      58.886931      309.18233      14629.872    
     63200   126.4          497.46865      57.80828       310.69425      13535.352    
     63300   126.6          494.75892      57.493396      310.74164      13300.573    
     63400   126.8          505.64828      58.758793      310.13303      13506.759    
     63500   127            469.26018      54.530319      306.4702       13786.146    
     63600   127.2          478.51729      55.606039      306.06021      13541.135    
     63700   127.4          502.99577      58.450559      309.29424      13227.253    
     63800   127.6          502.67639      58.413444      311.22041      14697.639    
     63900   127.8          495.08269      57.531019      311.11861      12822.75     
     64000   128            514.31844      59.766307      310.29386      13656.402    
     64100   128.2          495.16859      57.541002      307.55357      12700.023    
     64200   128.4          476.33437      55.352374      305.54799      13733.838    
     64300   128.6          493.74497      57.37557       308.51185      16787.837    
     64400   128.8          507.12456      58.930344      311.44679      13061.994    
     64500   129            516.18775      59.983531      311.20079      15191.166    
     64600   129.2          490.88043      57.042697      309.86749      15032.95     
     64700   129.4          471.24464      54.760922      307.24348      14157.212    
     64800   129.6          472.07442      54.857347      305.54509      14841.986    
     64900   129.8          500.92121      58.209484      308.28881      15298.099    
     65000   130            512.12101      59.510956      311.64332      16908.384    
     65100   130.2          509.60272      59.218318      312.60222      13876.451    
     65200   130.4          504.55531      58.631785      311.16566      14079.979    
     65300   130.6          478.25636      55.575718      308.01113      15132.867    
     65400   130.8          494.13272      57.420628      306.90646      15911.049    
     65500   131            490.42617      56.98991       308.80709      13541.507    
     65600   131.2          503.3415       58.490733      310.29388      14193.615    
     65700   131.4          505.44439      58.7351        310.47027      12191.558    
     65800   131.6          502.07549      58.343617      310.96268      14771.721    
     65900   131.8          501.34634      58.258887      310.86785      15971.443    
     66000   132            499.29772      58.020827      308.5793       14290.351    
     66100   132.2          477.18346      55.451042      306.49764      13732.844    
     66200   132.4          476.37092      55.356621      307.52769      14860.717    
     66300   132.6          522.64247      60.733601      311.8746       15490.885    
     66400   132.8          492.53199      57.234616      311.98793      15527.18     
     66500   133            512.22534      59.523079      310.9217       15741.596    
     66600   133.2          495.64176      57.595986      308.29458      14477.196    
     66700   133.4          491.01498      57.058333      305.86364      14572.919    
     66800   133.6          486.05059      56.481446      306.97264      15145.368    
     66900   133.8          512.26279      59.527431      310.65129      15154.211    
     67000   134            505.55001      58.747373      310.64515      14217.875    
     67100   134.2          499.93512      58.094896      311.46278      15039.626    
     67200   134.4          496.39323      57.683311      310.83338      14626.272    
     67300   134.6          483.49307      56.184249      309.00083      16158.772    
     67400   134.8          492.09052      57.183315      307.69974      12282.3      
     67500   135            498.04431      57.875175      308.9056       15023.906    
     67600   135.2          496.10681      57.650028      312.49917      15780.054    
     67700   135.4          511.87007      59.481796      313.38564      13135.004    
     67800   135.6          499.36773      58.028962      310.74039      16228.695    
     67900   135.8          496.25563      57.667321      309.05526      11759.027    
     68000   136            507.83565      59.012976      309.03988      14174.734    
     68100   136.2          501.30062      58.253574      310.01935      13470.421    
     68200   136.4          516.32825      59.999857      311.56844      14080.986    
     68300   136.6          516.89005      60.065142      314.58923      12323.879    
     68400   136.8          511.43279      59.430981      314.78863      15253.52     
     68500   137            505.18939      58.705467      310.65015      14804.394    
     68600   137.2          507.32472      58.953604      308.86465      13871.206    
     68700   137.4          493.43458      57.339501      308.08322      15439.402    
     68800   137.6          499.96113      58.097918      308.93332      13367.713    
     68900   137.8          516.79076      60.053604      312.26185      13100.788    
     69000   138            506.02966      58.803111      313.77759      16234.936    
     69100   138.2          513.61895      59.685024      311.42192      10990.052    
     69200   138.4          496.40874      57.685114      309.62149      15174.475    
     69300   138.6          520.95356      60.537341      309.23159      15634.479    
     69400   138.8          508.98607      59.14666       309.14575      13525.531    
     69500   139            481.23497      55.921848      309.23484      16527.467    
     69600   139.2          511.77325      59.470545      312.24797      15207.638    
     69700   139.4          520.54753      60.490158      313.80431      15529.819    
     69800   139.6          520.68156      60.505734      311.93119      17362.163    
     69900   139.8          491.66636      57.134026      307.75288      14884.855    
     70000   140            494.4365       57.45593       307.86421      14953.229    
     70100   140.2          507.02305      58.918547      309.88881      14795.823    
     70200   140.4          512.25119      59.526083      312.28293      15171.321    
     70300   140.6          509.13625      59.164112      312.45379      14567.553    
     70400   140.8          491.90443      57.161691      307.62363      15156.661    
     70500   141            502.56513      58.400515      306.19287      14443.501    
     70600   141.2          479.50454      55.720763      307.86134      13678.967    
     70700   141.4          509.54097      59.211143      311.00738      14304.525    
     70800   141.6          507.50522      58.974578      311.63392      14659.635    
     70900   141.8          497.80502      57.847367      310.62365      12829.598    
     71000   142            488.9654       56.820161      309.04495      14863.547    
     71100   142.2          477.98219      55.543859      304.94923      13436.791    
     71200   142.4          475.38395      55.24193       304.7838       13392.877    
     71300   142.6          492.71144      57.255469      307.96019      15096.114    
     71400   142.8          488.64895      56.783388      309.40667      14000.127    
     71500   143            508.52355      59.092913      311.26054      12746.914    
     71600   143.2          512.8738       59.598434      312.4124       15628.771    
     71700   143.4          513.84668      59.711486      311.17615      14124.207    
     71800   143.6          488.77105      56.797576      307.19569      12283.228    
     71900   143.8          488.84978      56.806725      307.03989      15717.939    
     72000   144            499.05593      57.99273       309.69171      14153.691    
     72100   144.2          513.74776      59.699992      311.09098      14767.417    
     72200   144.4          508.06513      59.039642      310.80246      14640.352    
     72300   144.6          500.06199      58.109639      309.6778       15105.752    
     72400   144.8          498.45375      57.922753      308.85821      13694.245    
     72500   145            497.55359      57.818151      310.16435      14951.997    
     72600   145.2          514.41745      59.777813      314.42521      12830.047    
     72700   145.4          515.21473      59.870461      314.04739      15664.469    
     72800   145.6          511.57462      59.447462      310.75519      12986.383    
     72900   145.8          474.62867      55.154163      308.97815      13107.319    
     73000   146            495.53053      57.583061      309.0438       14858.914    
     73100   146.2          512.07035      59.505069      310.35488      14532.807    
     73200   146.4          528.48908      61.413005      314.31033      13797.499    
     73300   146.6          513.68574      59.692785      315.52576      15208.011    
     73400   146.8          505.607        58.753996      311.41627      15482.475    
     73500   147            504.83297      58.664049      309.96613      13828.45     
     73600   147.2          493.41019      57.336667      308.98952      15476.554    
     73700   147.4          489.41078      56.871916      308.82114      14503.861    
     73800   147.6          493.77895      57.379519      308.74495      11734.03     
     73900   147.8          507.14356      58.932552      310.17901      15114.263    
     74000   148            507.32934      58.95414       312.68209      13665.347    
     74100   148.2          507.56137      58.981103      312.81852      15514.64     
     74200   148.4          477.73397      55.515014      308.55602      15436.095    
     74300   148.6          499.44133      58.037515      307.56752      13669.858    
     74400   148.8          499.30119      58.02123       308.57581      13327.776    
     74500   149            508.2776       59.064333      311.06616      15662.35     
     74600   149.2          511.30762      59.416436      312.3359       12751.285    
     74700   149.4          505.97344      58.796578      311.00185      14333.481    
     74800   149.6          486.10959      56.488302      307.2498       13427.091    
     74900   149.8          477.61445      55.501125      306.48403      14238.729    
     75000   150            504.10569      58.579536      308.45068      12719.134    
     75100   150.2          505.66522      58.760761      311.25305      16361.042    
     75200   150.4          511.04869      59.386347      311.87749      14796.014    
     75300   150.6          488.23966      56.735827      310.51993      13611.9      
     75400   150.8          483.72518      56.211222      308.67036      15493.569    
     75500   151            501.29822      58.253295      308.69046      13587.735    
     75600   151.2          498.17539      57.890407      309.09651      14764.473    
     75700   151.4          502.87079      58.436035      309.69393      14820.26     
     75800   151.6          507.1149       58.929222      311.16502      13447.547    
     75900   151.8          513.51343      59.672762      312.83729      14493.488    
     76000   152            501.31959      58.255778      312.243        14209.06     
     76100   152.2          498.17223      57.890039      308.51588      13704.014    
     76200   152.4          485.00924      56.360436      307.23291      14142.866    
     76300   152.6          505.99083      58.798598      309.20822      15222.301    
     76400   152.8          499.07369      57.994794      311.13042      14798.757    
     76500   153            496.32919      57.67587       311.13675      14721.067    
     76600   153.2          482.72218      56.094668      310.13435      12076.315    
     76700   153.4          497.13276      57.769247      309.64866      14128.279    
     76800   153.6          490.81693      57.035318      307.85354      13578.288    
     76900   153.8          481.79238      55.986621      306.12939      14439.68     
     77000   154            513.23067      59.639903      308.25262      15219.246    
     77100   154.2          514.39699      59.775436      311.27809      13592.361    
     77200   154.4          508.46422      59.086019      311.5064       13070.652    
     77300   154.6          496.79956      57.730529      310.77509      15336.884    
     77400   154.8          482.65565      56.086937      307.39931      14668.347    
     77500   155            491.83286      57.153374      304.77077      13102.704    
     77600   155.2          481.11737      55.908182      306.74374      15929.652    
     77700   155.4          495.38089      57.565672      309.38374      15416.519    
     77800   155.6          531.19196      61.727093      310.80942      14968.56     
     77900   155.8          499.11291      57.999351      310.68641      15924.525    
     78000   156            497.17075      57.773662      308.9916       13479.608    
     78100   156.2          471.69487      54.813242      305.77387      14894.419    
     78200   156.4          470.19392      54.638824      306.18256      14037.707    
     78300   156.6          494.13148      57.420485      310.21109      12688.276    
     78400   156.8          513.51412      59.672842      311.23621      14459.316    
     78500   157            498.55165      57.93413       310.68321      15426.699    
     78600   157.2          504.55132      58.631321      308.66419      13497.409    
     78700   157.4          487.35396      56.632904      306.56121      15302.908    
     78800   157.6          494.4946       57.462681      306.7944       14450.644    
     78900   157.8          511.25969      59.410866      311.22401      14605.643    
     79000   158            520.34189      60.466262      312.71804      15687.342    
     79100   158.2          483.95952      56.238453      311.04811      16603.223    
     79200   158.4          490.58382      57.008229      308.20833      14898.399    
     79300   158.6          496.45996      57.691066      307.14349      15862.897    
     79400   158.8          493.65473      57.365084      307.74364      15026.572    
     79500   159            488.53669      56.770342      308.61996      14087.313    
     79600   159.2          495.70111      57.602884      309.60921      14412.871    
     79700   159.4          504.01722      58.569255      311.49076      15315.539    
     79800   159.6          518.69421      60.274793      313.81048      12603.716    
     79900   159.8          539.73557      62.719902      316.0686       16758.495    
     80000   160            509.15223      59.165968      315.24597      15375.555    
     80100   160.2          504.4211       58.616188      310.94334      14043.602    
     80200   160.4          500.68219      58.181709      309.73671      16366.127    
     80300   160.6          502.56062      58.399991      309.71263      13423.231    
     80400   160.8          494.455        57.458079      311.36986      15563.203    
     80500   161            526.12162      61.137894      314.53444      14748.859    
     80600   161.2          520.50792      60.485555      314.55509      15660.982    
     80700   161.4          497.40519      57.800906      310.00141      16476.142    
     80800   161.6          480.58614      55.84645       309.31108      15209.885    
     80900   161.8          508.18798      59.053918      311.04347      12767.666    
     81000   162            498.49046      57.927019      313.15549      17540.369    
     81100   162.2          513.53371      59.675118      313.67124      15230.778    
     81200   162.4          503.25679      58.48089       309.39403      15218.517    
     81300   162.6          481.65909      55.971132      307.30893      16381.195    
     81400   162.8          503.00142      58.451214      309.28162      14641.815    
     81500   163            494.69954      57.486495      311.8405       14743.646    
     81600   163.2          509.91964      59.255146      312.91725      16550.203    
     81700   163.4          503.5449       58.51437       311.50198      14964.537    
     81800   163.6          488.63367      56.781612      307.23386      15515.816    
     81900   163.8          481.30019      55.929426      307.13802      14073.91     
     82000   164            492.04752      57.178318      309.00695      12519.163    
     82100   164.2          498.92128      57.977083      311.27902      14220.719    
     82200   164.4          513.20292      59.636679      312.68583      13518.354    
     82300   164.6          512.81969      59.592146      312.29088      13945.719    
     82400   164.8          488.29241      56.741957      308.22368      13626.37     
     82500   165            467.74982      54.354807      307.18912      12970.062    
     82600   165.2          495.44128      57.57269       310.0277       14619.117    
     82700   165.4          517.54087      60.140769      312.03803      15471.911    
     82800   165.6          518.81839      60.289224      311.87504      15577.059    
     82900   165.8          497.47106      57.80856       310.70045      14028.167    
     83000   166            505.92077      58.790457      309.53676      14414.226    
     83100   166.2          495.56831      57.587451      306.88416      17259.601    
     83200   166.4          489.42359      56.873405      307.80233      13855.721    
     83300   166.6          508.50113      59.090307      311.33558      15280.111    
     83400   166.8          498.93525      57.978707      312.19855      14642.152    
     83500   167            507.5429       58.978957      312.32158      15923.814    
     83600   167.2          504.5636       58.632747      310.16194      14891.872    
     83700   167.4          492.00593      57.173485      306.92207      13341.476    
     83800   167.6          480.17497      55.79867       307.21332      14054.363    
     83900   167.8          502.48525      58.391234      310.46688      15440.865    
     84000   168            488.98944      56.822955      311.41551      13179.699    
     84100   168.2          480.68266      55.857666      311.74739      15224.799    
     84200   168.4          506.89515      58.903685      310.99383      12895.14     
     84300   168.6          480.37505      55.821921      308.5541       14245.546    
     84400   168.8          481.72353      55.97862       306.39607      15305.919    
     84500   169            493.4193       57.337726      307.22501      13103.416    
     84600   169.2          497.9636       57.865795      311.69427      15502.808    
     84700   169.4          504.30348      58.602521      312.5724       14959.672    
     84800   169.6          492.6055       57.243158      311.85206      13425.783    
     84900   169.8          483.87494      56.228625      308.88203      16676.823    
     85000   170            488.35157      56.748831      306.88367      14545.574    
     85100   170.2          488.16726      56.727413      308.43971      14289.004    
     85200   170.4          493.44406      57.340603      312.07112      15957.156    
     85300   170.6          507.96967      59.02855       312.41394      15323.398    
     85400   170.8          510.83493      59.361506      310.90056      14654.975    
     85500   171            500.30236      58.13757       308.82076      15532.266    
     85600   171.2          489.58539      56.892206      308.37809      13925.329    
     85700   171.4          495.16945      57.541102      310.08644      15834.071    
     85800   171.6          513.58342      59.680894      313.67831      16464.087    
     85900   171.8          516.89739      60.065995      313.89261      13915.264    
     86000   172            503.69125      58.531376      311.13413      15707.801    
     86100   172.2          494.30265      57.440375      309.3544       14145.822    
     86200   172.4          510.45548      59.317413      309.66162      13879.832    
     86300   172.6          475.29229      55.231279      310.17889      13486.177    
     86400   172.8          518.71795      60.277552      311.48219      14991.647    
     86500   173            518.17804      60.214812      314.26257      16555.939    
     86600   173.2          514.07248      59.737726      314.4228       14504.771    
     86700   173.4          497.51668      57.813861      310.30803      15116.231    
     86800   173.6          507.77386      59.005795      309.03046      14348.261    
     86900   173.8          501.58235      58.286312      308.47342      13427.612    
     87000   174            512.07535      59.505649      310.6536       14923.883    
[...]
    478600   957.2          488.76854      56.797285      310.06595      13863.53     
    478700   957.4          519.86254      60.410559      311.75878      14339.999    
    478800   957.6          494.29333      57.439293      310.87152      13840.981    
    478900   957.8          493.60328      57.359106      309.7061       13938.169    
    479000   958            488.65683      56.784303      308.0878       13461.687    
    479100   958.2          474.72925      55.165851      304.1856       14007.123    
    479200   958.4          483.20226      56.150455      303.56784      14642.896    
    479300   958.6          509.18909      59.170252      307.07569      15291.518    
    479400   958.8          499.501        58.044449      309.07359      13236.644    
    479500   959            503.83993      58.548654      311.16812      15813.611    
    479600   959.2          513.44028      59.664261      312.23085      13818.52     
    479700   959.4          515.20872      59.869762      310.64747      14278.869    
    479800   959.6          471.7402       54.818509      306.66216      13933.496    
    479900   959.8          487.85253      56.69084       306.9211       13462.916    
    480000   960            493.1615       57.307768      309.18469      13508.083    
    480100   960.2          505.90031      58.78808       310.38864      14730.939    
    480200   960.4          520.31141      60.46272       310.56675      11571.251    
    480300   960.6          491.29701      57.091106      310.02286      14535.013    
    480400   960.8          491.38722      57.101588      308.83177      15030.905    
    480500   961            481.0579       55.901271      307.06596      13707.746    
    480600   961.2          498.78805      57.961601      307.72102      14715.084    
    480700   961.4          520.16001      60.445127      310.86566      15026.47     
    480800   961.6          500.41768      58.150972      312.62825      15476.072    
    480900   961.8          513.3348       59.652004      312.27769      16867.751    
    481000   962            492.38919      57.218022      309.27256      15641.454    
    481100   962.2          490.89178      57.044015      305.49863      14596.061    
    481200   962.4          475.44116      55.248578      306.13937      16211.865    
    481300   962.6          500.91876      58.2092        308.96698      14455.252    
    481400   962.8          502.84802      58.433389      311.39935      14155.942    
    481500   963            515.81128      59.939783      312.27572      16247.778    
    481600   963.2          497.52337      57.814639      311.50169      15318.868    
    481700   963.4          482.29887      56.045478      307.99048      12719.593    
    481800   963.6          464.91099      54.024921      306.69688      17639.513    
    481900   963.8          484.99514      56.358798      309.42123      12952.429    
    482000   964            510.28677      59.297808      310.88466      15894.193    
    482100   964.2          507.85258      59.014944      310.45525      14746.841    
    482200   964.4          508.1717       59.052026      309.96808      13920.58     
    482300   964.6          503.32197      58.488465      309.31202      14145.29     
    482400   964.8          485.97752      56.472954      307.78147      15837.63     
    482500   965            495.81794      57.616459      307.47319      14246.351    
    482600   965.2          502.68167      58.414059      310.08035      15402.506    
    482700   965.4          491.2091       57.080889      312.37181      17701.752    
    482800   965.6          489.08362      56.833898      312.19236      14547.499    
    482900   965.8          513.25168      59.642345      309.03753      15825.227    
    483000   966            492.17099      57.192666      306.08347      15063.299    
    483100   966.2          481.9634       56.006495      307.72761      13451.347    
    483200   966.4          522.32958      60.697241      310.60552      14746.599    
    483300   966.6          503.10636      58.463409      311.68247      15166.947    
    483400   966.8          508.91821      59.138774      311.6604       13364.08     
    483500   967            490.35775      56.981959      309.46407      14918.106    
    483600   967.2          492.18178      57.19392       306.39551      14188.881    
    483700   967.4          473.25038      54.993999      307.0722       14156.569    
    483800   967.6          493.29315      57.323066      310.47109      15338.975    
    483900   967.8          505.91252      58.789499      311.50987      13957.532    
    484000   968            507.16245      58.934746      310.99924      15420.119    
    484100   968.2          493.19863      57.312083      309.85019      14441.908    
    484200   968.4          491.22737      57.083013      307.80929      15070.268    
    484300   968.6          478.76699      55.635056      305.97987      14301.245    
    484400   968.8          467.84243      54.365569      306.85618      15623.931    
    484500   969            515.72347      59.929579      310.92096      14319.688    
    484600   969.2          504.62601      58.64          311.77784      16022.866    
    484700   969.4          503.75071      58.538287      310.58812      15354.108    
    484800   969.6          476.9124       55.419544      307.62798      15192.003    
    484900   969.8          470.28059      54.648895      306.84866      14145.538    
    485000   970            512.86743      59.597694      311.78877      16280.541    
    485100   970.2          523.03951      60.779738      313.08789      15288.676    
    485200   970.4          489.48161      56.880147      310.54385      15946.08     
    485300   970.6          499.92872      58.094152      308.076        14773.491    
    485400   970.8          488.90613      56.813274      307.96894      15071.187    
    485500   971            503.45091      58.503448      309.67135      15138.875    
    485600   971.2          524.78795      60.982916      314.0949       16955.866    
    485700   971.4          514.71654      59.812569      314.15655      15354.377    
    485800   971.6          518.16817      60.213665      311.61156      15877.177    
    485900   971.8          495.50637      57.580254      309.66596      14954.635    
    486000   972            506.83773      58.897012      308.73314      15471.336    
    486100   972.2          498.87593      57.971813      307.76472      13498.396    
    486200   972.4          497.94073      57.863138      308.38852      14494.523    
    486300   972.6          513.08178      59.622602      312.08812      15336.637    
    486400   972.8          513.88349      59.715765      313.5563       13191.134    
    486500   973            507.28903      58.949455      312.24713      13514.499    
    486600   973.2          502.67028      58.412734      309.06243      14595.283    
    486700   973.4          478.85262      55.645007      307.53179      16124.484    
    486800   973.6          508.76023      59.120417      308.16845      13930.711    
    486900   973.8          497.50362      57.812344      309.0969       14918.783    
    487000   974            508.72661      59.11651       310.66642      13665.856    
    487100   974.2          527.27525      61.271952      312.36779      16536.213    
    487200   974.4          517.70696      60.16007       314.40323      14472.897    
    487300   974.6          524.23137      60.918239      314.95858      16499.134    
    487400   974.8          495.18461      57.542863      311.19056      16021.363    
    487500   975            502.50266      58.393256      308.98717      15390.304    
    487600   975.2          492.56485      57.238434      308.72866      14157.522    
    487700   975.4          504.41062      58.61497       310.5224       16253.122    
    487800   975.6          518.56674      60.259981      313.71737      15320.779    
    487900   975.8          511.45954      59.43409       314.65826      14737.255    
    488000   976            498.01656      57.87195       310.58241      15062.286    
    488100   976.2          495.19094      57.543599      308.02098      14084.494    
    488200   976.4          488.42942      56.757877      308.90766      16161.665    
    488300   976.6          516.25946      59.991864      311.35712      15158.293    
    488400   976.8          499.33939      58.025669      311.79712      15812.655    
    488500   977            485.02206      56.361925      311.60006      14516.105    
    488600   977.2          496.08001      57.646913      309.13343      15463.179    
    488700   977.4          508.27151      59.063624      307.04625      15028.543    
    488800   977.6          493.69274      57.3695        307.05001      15147.518    
    488900   977.8          509.03486      59.15233       310.77992      14058.695    
    489000   978            526.24137      61.15181       312.21491      13212.116    
    489100   978.2          501.30106      58.253624      311.11579      14976.674    
    489200   978.4          509.61643      59.219912      309.21863      14738.909    
    489300   978.6          510.88784      59.367655      308.52847      13309.63     
    489400   978.8          478.92118      55.652974      308.68421      15459.403    
    489500   979            519.51515      60.370191      313.34838      14514.932    
    489600   979.2          525.34237      61.047342      314.98949      15861.902    
    489700   979.4          511.03161      59.384362      311.60181      15046.695    
    489800   979.6          517.40251      60.124692      308.9375       16858.965    
    489900   979.8          508.17202      59.052064      307.85252      14567.787    
    490000   980            496.98948      57.752598      308.37427      15128.374    
    490100   980.2          521.74155      60.628909      311.34901      14756.591    
    490200   980.4          515.66474      59.922755      313.0923       15160.082    
    490300   980.6          505.80339      58.776817      310.22141      14508.645    
    490400   980.8          495.5268       57.582628      307.36078      14542.592    
    490500   981            487.92795      56.699604      308.25889      13813.623    
    490600   981.2          521.44195      60.594095      310.71488      12813.883    
    490700   981.4          493.92872      57.396923      312.1249       15615.142    
    490800   981.6          492.20456      57.196567      312.23535      14502.145    
    490900   981.8          480.13028      55.793477      308.74495      13890.902    
    491000   982            484.16241      56.26203       306.48778      14244.797    
    491100   982.2          494.07322      57.413714      307.88068      13877.227    
    491200   982.4          489.91311      56.930289      310.94861      14153.167    
    491300   982.6          511.30794      59.416473      312.28949      16171.489    
    491400   982.8          504.69242      58.647717      311.59829      14538.711    
    491500   983            502.75277      58.422321      310.37656      15279.325    
    491600   983.2          484.45196      56.295677      309.73435      16321.591    
    491700   983.4          502.90044      58.43948       310.28116      13072.972    
    491800   983.6          526.78179      61.214609      310.49502      15851.172    
    491900   983.8          497.59718      57.823216      310.3103       14218.803    
    492000   984            499.81163      58.080546      308.59075      12419.8      
    492100   984.2          485.01493      56.361097      307.03568      15511.724    
    492200   984.4          497.5003       57.811958      307.80006      15557.721    
    492300   984.6          507.03467      58.919898      311.23611      13829.191    
    492400   984.8          495.8086       57.615374      312.73819      16168.097    
    492500   985            525.46904      61.062061      312.25245      14150.591    
    492600   985.2          501.16796      58.238157      309.91256      14434.462    
    492700   985.4          498.4636       57.923898      308.87855      15596.709    
    492800   985.6          491.55105      57.120626      309.01309      14226.281    
    492900   985.8          496.4432       57.689118      310.4564       15689.644    
    493000   986            503.84418      58.549148      312.91383      15681.974    
    493100   986.2          531.73881      61.790639      315.16556      13057.778    
    493200   986.4          537.91188      62.507981      315.52037      14854.705    
    493300   986.6          516.90647      60.067049      311.19576      14891.715    
    493400   986.8          497.99768      57.869756      308.58108      14041.146    
    493500   987            487.83328      56.688603      307.64721      15555.771    
    493600   987.2          483.06155      56.134105      309.40676      15299.82     
    493700   987.4          502.77808      58.425262      312.40682      13793.488    
    493800   987.6          503.91409      58.557271      313.66738      16887.482    
    493900   987.8          507.5937       58.98486       312.21624      14716.995    
    494000   988            490.82124      57.035819      311.04815      14627.926    
    494100   988.2          503.30148      58.486083      310.35879      14619.985    
    494200   988.4          510.44324      59.31599       310.08755      12950.931    
    494300   988.6          496.10948      57.650337      310.96632      14982.958    
    494400   988.8          501.6599       58.295323      313.80589      15380.025    
    494500   989            515.69931      59.926772      314.28944      15207.653    
    494600   989.2          497.57139      57.820219      310.16968      13242        
    494700   989.4          480.29358      55.812453      309.05647      13792.752    
    494800   989.6          503.50034      58.509192      310.13245      14182.813    
    494900   989.8          503.73893      58.536917      311.26275      15494.174    
    495000   990            504.05996      58.574222      313.27575      15057.565    
    495100   990.2          510.29505      59.29877       315.56544      16183.049    
    495200   990.4          507.70877      58.998232      312.99831      15412.443    
    495300   990.6          495.94615      57.631358      309.94166      14837.571    
    495400   990.8          493.98501      57.403464      309.55145      15848.253    
    495500   991            493.29364      57.323124      310.6217       14913.876    
    495600   991.2          499.00479      57.986787      313.33793      15082.392    
    495700   991.4          509.60549      59.21864       316.2905       14751.392    
    495800   991.6          514.2697       59.760644      314.15427      14594.606    
    495900   991.8          502.53633      58.397169      311.06569      15565.382    
    496000   992            501.63283      58.292178      310.24578      13224.869    
    496100   992.2          497.59464      57.822921      310.22602      16117.339    
    496200   992.4          493.67109      57.366985      310.92632      15226.041    
    496300   992.6          518.49066      60.251139      312.494        17593.364    
    496400   992.8          516.31286      59.998068      313.96812      16155.632    
    496500   993            545.56616      63.397445      313.55377      15249.643    
    496600   993.2          484.35131      56.283981      309.46198      14384.242    
    496700   993.4          505.69492      58.764213      308.04925      15683.216    
    496800   993.6          505.08488      58.693323      308.35777      14078.428    
    496900   993.8          509.10067      59.159977      311.3374       14099.232    
    497000   994            521.76458      60.631586      313.79889      15578.03     
    497100   994.2          517.4778       60.133441      312.7266       13229.449    
    497200   994.4          508.01982      59.034377      311.05599      15265.756    
    497300   994.6          489.81834      56.919276      309.74335      14719.868    
    497400   994.8          507.38054      58.96009       308.83258      14191.756    
    497500   995            503.88604      58.554012      309.29164      15195.804    
    497600   995.2          513.52003      59.673529      312.15593      15859.661    
    497700   995.4          503.97206      58.564008      313.46936      15459.412    
    497800   995.6          495.75147      57.608735      311.50971      16562.882    
    497900   995.8          480.10415      55.79044       308.8674       13752.822    
    498000   996            490.58419      57.008273      309.1452       13047.978    
    498100   996.2          530.92097      61.695603      310.76466      15544.145    
    498200   996.4          500.30469      58.137842      311.67169      14320.947    
    498300   996.6          513.08567      59.623054      312.10597      16243.07     
    498400   996.8          487.4778       56.647295      310.62294      13865.2      
    498500   997            501.00716      58.219472      308.44715      13955.254    
    498600   997.2          467.1464       54.284687      307.35456      15209.234    
    498700   997.4          487.98705      56.706472      308.86429      14794.625    
    498800   997.6          496.82651      57.73366       312.1172       16292.707    
    498900   997.8          516.32013      59.998914      312.87677      14076.382    
    499000   998            501.179        58.23944       311.71687      16329.596    
    499100   998.2          498.39398      57.915808      309.91886      14196.414    
    499200   998.4          474.30727      55.116815      307.57342      14257.834    
    499300   998.6          475.02146      55.199807      303.1576       15663.696    
    499400   998.8          478.96918      55.658551      304.84864      14254.362    
    499500   999            518.71182      60.276839      308.38494      12737.058    
    499600   999.2          512.74121      59.583026      310.46958      16086.357    
    499700   999.4          517.23148      60.104818      311.67653      14282.45     
    499800   999.6          506.38237      58.844098      310.84925      14503.698    
    499900   999.8          470.15523      54.634328      307.34648      16196.468    
    500000   1000           489.20787      56.848337      307.06001      13824.509    
Loop time of 327.576 on 1 procs for 500000 steps with 900 atoms

Performance: 263.756 ns/day, 0.091 hours/ns, 1526.365 timesteps/s
54.4% CPU use with 1 MPI tasks x no OpenMP threads

MPI task timing breakdown:
Section |  min time  |  avg time  |  max time  |%varavg| %total
---------------------------------------------------------------
Pair    | 209.1      | 209.1      | 209.1      |   0.0 | 63.83
Neigh   | 106.28     | 106.28     | 106.28     |   0.0 | 32.44
Comm    | 3.8477     | 3.8477     | 3.8477     |   0.0 |  1.17
Output  | 2.1456     | 2.1456     | 2.1456     |   0.0 |  0.65
Modify  | 5.5175     | 5.5175     | 5.5175     |   0.0 |  1.68
Other   |            | 0.6893     |            |       |  0.21

Nlocal:            900 ave         900 max         900 min
Histogram: 1 0 0 0 0 0 0 0 0 0
Nghost:           2756 ave        2756 max        2756 min
Histogram: 1 0 0 0 0 0 0 0 0 0
Neighs:              0 ave           0 max           0 min
Histogram: 1 0 0 0 0 0 0 0 0 0
FullNghs:        99472 ave       99472 max       99472 min
Histogram: 1 0 0 0 0 0 0 0 0 0

Total # of neighbors = 99472
Ave neighs/atom = 110.52444
Neighbor list builds = 50000
Dangerous builds not checked

Total wall time: 0:05:46
