ITEM: TIMESTEP
0
ITEM: NUMBER OF ATOMS
32
ITEM: BOX BOUNDS xy xz yz pp pp pp
-2.1013021469116211e-03 8.6354779005050659e+00 2.2388275861740112e+00
-4.1524946689605713e-02 2.2124402940273285e+01 -0.0000000000000000e+00
-1.4066457748413086e-02 5.1965324282646179e+00 0.0000000000000000e+00
ITEM: ATOMS id type xs ys zs fx fy fz
1 1 0.901435 0.336621 0.593597 0 0.00098443 -1.19209e-07
2 1 0.401435 0.336621 0.593597 0 0.000985026 -4.76837e-07
3 1 0.166014 0.294954 0.093597 0 0.00143623 7.15256e-07
4 1 0.666014 0.294954 0.0935971 0 0.00143492 2.38419e-07
5 1 0.1077 0.461621 0.593597 0 -2.90871e-05 3.57628e-07
6 1 0.6077 0.461621 0.593597 0 -2.95639e-05 1.19209e-07
7 1 0.872278 0.419954 0.0935971 0 -6.09159e-05 -4.76837e-07
8 1 0.372278 0.419954 0.0935971 0 -6.11544e-05 0
9 1 0.813964 0.586621 0.593597 0 5.62668e-05 -3.57628e-07
10 1 0.313964 0.586621 0.593597 0 5.60284e-05 -7.15256e-07
11 1 0.0202285 0.711621 0.593597 0 -0.00143588 -1.3113e-06
12 1 0.520228 0.711621 0.593597 0 -0.00143576 -1.19209e-06
13 1 0.784807 0.669954 0.093597 0 -0.000990272 1.3113e-06
14 1 0.0785427 0.544954 0.0935971 0 3.06368e-05 1.19209e-07
15 1 0.578543 0.544954 0.0935971 0 3.09944e-05 -1.19209e-07
16 1 0.284807 0.669954 0.093597 0 -0.000989914 1.43051e-06
17 1 0.726493 0.83662 0.593597 0 0.0082798 1.19209e-07
18 1 0.226493 0.83662 0.593597 0 0.00827849 -2.38419e-07
19 1 0.932757 0.96162 0.593597 0 -0.261661 -5.96046e-07
20 1 0.432757 0.96162 0.593597 0 -0.261661 -1.19209e-07
21 1 0.991071 0.794954 0.093597 0 0.00275302 3.57628e-07
22 1 0.491071 0.794954 0.0935971 0 0.0027535 2.38419e-07
23 1 0.697336 0.919954 0.0935971 0 -0.430206 -2.38419e-07
24 1 0.197336 0.919954 0.093597 0 -0.430205 5.96046e-07
25 1 0.988907 0.0866205 0.593597 0 0.43021 -9.53674e-07
26 1 0.488907 0.0866205 0.593597 0 0.430211 -7.15256e-07
27 1 0.253485 0.0449538 0.093597 0 0.261658 1.19209e-06
28 1 0.753485 0.0449538 0.093597 0 0.261659 7.15256e-07
29 1 0.195171 0.211621 0.593597 0 -0.00275183 -5.96046e-07
30 1 0.695171 0.211621 0.593597 0 -0.0027529 -3.57628e-07
31 1 0.95975 0.169954 0.093597 0 -0.0082736 9.53674e-07
32 1 0.45975 0.169954 0.0935971 0 -0.00827348 1.19209e-07
ITEM: TIMESTEP
1
ITEM: NUMBER OF ATOMS
32
ITEM: BOX BOUNDS xy xz yz pp pp pp
-2.1013021469116211e-03 8.6354779005050659e+00 2.2388275861740112e+00
-4.1524946689605713e-02 2.2124402940273285e+01 -0.0000000000000000e+00
-1.4066457748413086e-02 5.1965324282646179e+00 0.0000000000000000e+00
ITEM: ATOMS id type xs ys zs fx fy fz
1 1 0.901432 0.336629 0.593597 0 0.00242865 -1.19209e-07
2 1 0.401432 0.336629 0.593597 0 0.00242925 -3.57628e-07
3 1 0.166009 0.294967 0.0935971 0 0.0109543 2.38419e-07
4 1 0.666009 0.294967 0.0935971 0 0.0109539 3.57628e-07
5 1 0.1077 0.46162 0.593597 0 0.000293612 0
6 1 0.6077 0.46162 0.593597 0 0.000292897 0
7 1 0.872278 0.419953 0.0935971 0 -0.000910521 -1.19209e-07
8 1 0.372278 0.419953 0.0935971 0 -0.000910878 0
9 1 0.813964 0.586621 0.593597 0 0.000906825 1.19209e-07
10 1 0.313964 0.586621 0.593597 0 0.000907183 0
11 1 0.0202329 0.711608 0.593597 0 -0.0109535 -3.57628e-07
12 1 0.520233 0.711608 0.593597 0 -0.0109528 -2.38419e-07
13 1 0.78481 0.669945 0.0935971 0 -0.00243092 1.19209e-07
14 1 0.0785426 0.544954 0.0935971 0 -0.000294805 0
15 1 0.578543 0.544954 0.0935971 0 -0.000294328 -1.19209e-07
16 1 0.28481 0.669945 0.0935971 0 -0.00243056 3.57628e-07
17 1 0.726467 0.836694 0.593597 0 -0.0832808 2.38419e-07
18 1 0.226467 0.836694 0.593597 0 -0.0832809 -2.38419e-07
19 1 0.933572 0.959292 0.593597 0 0.0638885 0
20 1 0.433572 0.959292 0.593597 0 0.0638883 2.38419e-07
21 1 0.991063 0.794978 0.0935971 0 -0.0910259 1.19209e-07
22 1 0.491063 0.794978 0.0935971 0 -0.0910258 -1.19209e-07
23 1 0.698675 0.916126 0.0935971 0 -0.0300422 -3.57628e-07
24 1 0.198675 0.916126 0.093597 0 -0.0300424 2.38419e-07
25 1 0.987567 0.0904484 0.593597 0 0.0300448 0
26 1 0.487567 0.0904484 0.593597 0 0.0300437 0
27 1 0.252671 0.047282 0.093597 0 -0.0638869 0
28 1 0.752671 0.047282 0.0935971 0 -0.0638862 -1.19209e-07
29 1 0.19518 0.211596 0.593597 0 0.0910254 -1.19209e-07
30 1 0.69518 0.211596 0.593597 0 0.0910257 0
31 1 0.959775 0.16988 0.0935971 0 0.0832832 2.38419e-07
32 1 0.459775 0.16988 0.0935971 0 0.0832833 0
ITEM: TIMESTEP
2
ITEM: NUMBER OF ATOMS
32
ITEM: BOX BOUNDS xy xz yz pp pp pp
-2.1013021469116211e-03 8.6354779005050659e+00 2.2388275861740112e+00
-4.1524946689605713e-02 2.2124402940273285e+01 -0.0000000000000000e+00
-1.4066457748413086e-02 5.1965324282646179e+00 0.0000000000000000e+00
ITEM: ATOMS id type xs ys zs fx fy fz
1 1 0.901411 0.336691 0.593597 0 0.0497093 1.19209e-07
2 1 0.401411 0.336691 0.593597 0 0.0497093 5.96046e-07
3 1 0.165915 0.295238 0.0935971 0 0.058174 -3.57628e-07
4 1 0.665915 0.295238 0.0935971 0 0.058174 -2.38419e-07
5 1 0.107697 0.461627 0.593597 0 0.00312543 0
6 1 0.607697 0.461627 0.593597 0 0.00312638 -1.19209e-07
7 1 0.872286 0.419931 0.0935971 0 0.0131347 -1.19209e-07
8 1 0.372286 0.419931 0.0935971 0 0.0131356 -2.38419e-07
9 1 0.813956 0.586643 0.593597 0 -0.0131338 0
10 1 0.313956 0.586643 0.593597 0 -0.0131346 1.19209e-07
11 1 0.0203278 0.711337 0.593597 0 -0.0581757 7.15256e-07
12 1 0.520328 0.711337 0.593597 0 -0.0581758 2.38419e-07
13 1 0.784832 0.669883 0.0935971 0 -0.0497097 -2.38419e-07
14 1 0.0785451 0.544947 0.0935971 0 -0.00312793 0
15 1 0.578545 0.544947 0.0935971 0 -0.00312901 1.19209e-07
16 1 0.284832 0.669883 0.0935971 0 -0.0497102 -7.15256e-07
17 1 0.727172 0.83468 0.593597 0 0.0225807 -3.57628e-07
18 1 0.227172 0.83468 0.593597 0 0.0225811 3.57628e-07
19 1 0.933247 0.960222 0.593597 0 0.00470603 0
20 1 0.433247 0.960222 0.593597 0 0.00470567 -1.19209e-07
21 1 0.991839 0.792761 0.0935971 0 -0.00487733 -2.38419e-07
22 1 0.491839 0.792761 0.0935971 0 -0.00487745 -1.19209e-07
23 1 0.699295 0.914354 0.093597 0 -0.00257075 3.57628e-07
24 1 0.199295 0.914354 0.0935971 0 -0.00257158 0
25 1 0.986947 0.0922202 0.593597 0 0.00257003 2.38419e-07
26 1 0.486947 0.0922202 0.593597 0 0.00257111 2.38419e-07
27 1 0.252996 0.0463525 0.093597 0 -0.00470245 0
28 1 0.752996 0.0463525 0.093597 0 -0.00470316 0
29 1 0.194404 0.213813 0.593597 0 0.00487876 3.57628e-07
30 1 0.694404 0.213813 0.593597 0 0.00487792 0
31 1 0.959071 0.171895 0.0935971 0 -0.0225803 -3.57628e-07
32 1 0.45907 0.171895 0.0935971 0 -0.0225805 -2.38419e-07
ITEM: TIMESTEP
3
ITEM: NUMBER OF ATOMS
32
ITEM: BOX BOUNDS xy xz yz pp pp pp
-2.1013021469116211e-03 8.6354779005050659e+00 2.2388275861740112e+00
-4.1524946689605713e-02 2.2124402940273285e+01 -0.0000000000000000e+00
-1.4066457748413086e-02 5.1965324282646179e+00 0.0000000000000000e+00
ITEM: ATOMS id type xs ys zs fx fy fz
1 1 0.900969 0.337954 0.593597 0 0.00357378 -1.19209e-07
2 1 0.400969 0.337954 0.593597 0 0.00357282 -3.57628e-07
3 1 0.165373 0.296785 0.0935971 0 -0.00963759 2.38419e-07
4 1 0.665373 0.296785 0.0935971 0 -0.00963688 0
5 1 0.107669 0.461708 0.593597 0 0.0157726 -3.57628e-07
6 1 0.607669 0.461708 0.593597 0 0.0157722 -2.38419e-07
7 1 0.872174 0.420251 0.0935971 0 0.0378881 2.38419e-07
8 1 0.372174 0.420251 0.0935971 0 0.0378875 3.57628e-07
9 1 0.814068 0.586323 0.593597 0 -0.0378888 0
10 1 0.314068 0.586323 0.593597 0 -0.0378879 0
11 1 0.0208692 0.709789 0.593597 0 0.00963795 -7.15256e-07
12 1 0.520869 0.709789 0.593597 0 0.00963759 0
13 1 0.785274 0.66862 0.0935971 0 -0.00357306 0
14 1 0.0785733 0.544866 0.0935971 0 -0.0157733 0
15 1 0.578573 0.544866 0.0935971 0 -0.0157727 0
16 1 0.285274 0.66862 0.0935971 0 -0.00357318 3.57628e-07
17 1 0.72722 0.834543 0.593597 0 -0.00453866 0
18 1 0.22722 0.834543 0.593597 0 -0.00453949 0
19 1 0.933092 0.960662 0.593597 0 -0.011741 1.19209e-07
20 1 0.433093 0.960662 0.593597 0 -0.0117402 0
21 1 0.992151 0.791869 0.0935971 0 -0.00841773 3.57628e-07
22 1 0.492151 0.791869 0.093597 0 -0.00841761 1.19209e-07
23 1 0.699533 0.913674 0.0935971 0 0.00851619 0
24 1 0.199533 0.913674 0.0935971 0 0.0085175 -1.19209e-07
25 1 0.98671 0.0929003 0.593597 0 -0.00851393 -2.38419e-07
26 1 0.486709 0.0929003 0.593597 0 -0.00851429 -2.38419e-07
27 1 0.25315 0.0459119 0.093597 0 0.0117399 0
28 1 0.75315 0.045912 0.093597 0 0.0117402 3.57628e-07
29 1 0.194092 0.214706 0.593597 0 0.00841618 -2.38419e-07
30 1 0.694092 0.214706 0.593597 0 0.00841725 0
31 1 0.959023 0.172031 0.0935971 0 0.00453842 1.19209e-07
32 1 0.459023 0.172031 0.0935971 0 0.0045383 3.57628e-07
ITEM: TIMESTEP
4
ITEM: NUMBER OF ATOMS
32
ITEM: BOX BOUNDS xy xz yz pp pp pp
-2.1013021469116211e-03 8.6354779005050659e+00 2.2388275861740112e+00
-4.1524946689605713e-02 2.2124402940273285e+01 -0.0000000000000000e+00
-1.4066457748413086e-02 5.1965324282646179e+00 0.0000000000000000e+00
ITEM: ATOMS id type xs ys zs fx fy fz
1 1 0.900862 0.338259 0.593597 0 0.00307989 1.19209e-07
2 1 0.400862 0.338259 0.593597 0 0.00308001 1.19209e-07
3 1 0.16532 0.296938 0.0935971 0 0.00155663 0
4 1 0.66532 0.296938 0.0935971 0 0.00155675 0
5 1 0.107577 0.461972 0.593597 0 -0.00801468 1.19209e-07
6 1 0.607577 0.461972 0.593597 0 -0.00801504 1.19209e-07
7 1 0.871944 0.42091 0.0935971 0 0.000651956 -1.19209e-07
8 1 0.371944 0.42091 0.0935971 0 0.000652194 -3.57628e-07
9 1 0.814299 0.585664 0.593597 0 -0.000653148 -3.57628e-07
10 1 0.314299 0.585664 0.593597 0 -0.000652671 -2.38419e-07
11 1 0.0209229 0.709636 0.593597 0 -0.00155616 2.38419e-07
12 1 0.520923 0.709636 0.593597 0 -0.00155663 -2.38419e-07
13 1 0.78538 0.668315 0.0935971 0 -0.00308061 1.19209e-07
14 1 0.0786656 0.544603 0.0935971 0 0.00801516 0
15 1 0.578666 0.544603 0.0935971 0 0.00801563 1.19209e-07
16 1 0.28538 0.668315 0.0935971 0 -0.00308049 2.38419e-07
17 1 0.727254 0.834445 0.593597 0 -0.00571489 1.19209e-07
18 1 0.227254 0.834445 0.593597 0 -0.00571442 -1.19209e-07
19 1 0.933127 0.960565 0.593597 0 -0.00755155 1.19209e-07
20 1 0.433127 0.960565 0.593597 0 -0.00755143 0
21 1 0.992259 0.791561 0.0935971 0 0.000869989 0
22 1 0.492259 0.791561 0.093597 0 0.000869989 2.38419e-07
23 1 0.699533 0.913674 0.0935971 0 0.00212538 -1.19209e-07
24 1 0.199533 0.913674 0.0935971 0 0.00212538 -1.19209e-07
25 1 0.986709 0.0929005 0.593597 0 -0.00212598 0
26 1 0.486709 0.0929005 0.593597 0 -0.00212574 1.19209e-07
27 1 0.253116 0.0460097 0.093597 0 0.00755203 1.19209e-07
28 1 0.753116 0.0460097 0.0935971 0 0.00755155 0
29 1 0.193984 0.215014 0.593597 0 -0.000869513 -1.19209e-07
30 1 0.693984 0.215014 0.593597 0 -0.000869751 0
31 1 0.958989 0.172129 0.0935971 0 0.00571501 0
32 1 0.458988 0.172129 0.0935971 0 0.00571513 -1.19209e-07
ITEM: TIMESTEP
5
ITEM: NUMBER OF ATOMS
32
ITEM: BOX BOUNDS xy xz yz pp pp pp
-2.1013021469116211e-03 8.6354779005050659e+00 2.2388275861740112e+00
-4.1524946689605713e-02 2.2124402940273285e+01 -0.0000000000000000e+00
-1.4066457748413086e-02 5.1965324282646179e+00 0.0000000000000000e+00
ITEM: ATOMS id type xs ys zs fx fy fz
1 1 0.900829 0.338353 0.593597 0 -0.00407362 0
2 1 0.400829 0.338353 0.593597 0 -0.00407362 -2.38419e-07
3 1 0.165303 0.296986 0.0935971 0 0.00351524 -1.19209e-07
4 1 0.665303 0.296986 0.0935971 0 0.00351536 0
5 1 0.107626 0.46183 0.593597 0 0.00183547 2.38419e-07
6 1 0.607626 0.46183 0.593597 0 0.00183594 1.19209e-07
7 1 0.871917 0.420987 0.0935971 0 0.000769377 0
8 1 0.371917 0.420987 0.0935971 0 0.000769138 2.38419e-07
9 1 0.814326 0.585587 0.593597 0 -0.000768542 5.96046e-07
10 1 0.314326 0.585587 0.593597 0 -0.000769138 1.19209e-07
11 1 0.0209394 0.709589 0.593597 0 -0.00351536 0
12 1 0.520939 0.709589 0.593597 0 -0.00351501 4.76837e-07
13 1 0.785413 0.668222 0.0935971 0 0.00407398 -4.76837e-07
14 1 0.0786161 0.544744 0.0935971 0 -0.00183606 -3.57628e-07
15 1 0.578616 0.544744 0.0935971 0 -0.0018369 -4.76837e-07
16 1 0.285413 0.668222 0.0935971 0 0.00407398 -2.38419e-07
17 1 0.727299 0.834317 0.593597 0 -0.00261545 0
18 1 0.227299 0.834317 0.593597 0 -0.00261569 0
19 1 0.933185 0.960398 0.593597 0 -7.18832e-05 0
20 1 0.433185 0.960398 0.593597 0 -7.1764e-05 -1.19209e-07
21 1 0.992263 0.791549 0.0935971 0 -0.000298142 1.19209e-07
22 1 0.492263 0.791549 0.0935971 0 -0.0002985 -1.19209e-07
23 1 0.699518 0.913718 0.0935971 0 0.00152981 1.19209e-07
24 1 0.199518 0.913718 0.0935971 0 0.00153029 0
25 1 0.986725 0.0928563 0.593597 0 -0.0015291 2.38419e-07
26 1 0.486725 0.0928563 0.593597 0 -0.00152922 -1.19209e-07
27 1 0.253058 0.0461762 0.0935971 0 7.12872e-05 0
28 1 0.753058 0.0461762 0.0935971 0 7.16448e-05 1.19209e-07
29 1 0.19398 0.215025 0.593597 0 0.000297546 1.19209e-07
30 1 0.69398 0.215025 0.593597 0 0.000297904 -3.57628e-07
31 1 0.958944 0.172258 0.0935971 0 0.00261557 -1.19209e-07
32 1 0.458944 0.172258 0.0935971 0 0.00261545 2.38419e-07
ITEM: TIMESTEP
6
ITEM: NUMBER OF ATOMS
32
ITEM: BOX BOUNDS xy xz yz pp pp pp
-2.1013021469116211e-03 8.6354779005050659e+00 2.2388275861740112e+00
-4.1524946689605713e-02 2.2124402940273285e+01 -0.0000000000000000e+00
-1.4066457748413086e-02 5.1965324282646179e+00 0.0000000000000000e+00
ITEM: ATOMS id type xs ys zs fx fy fz
1 1 0.90085 0.338293 0.593597 0 0.000198007 -1.19209e-07
2 1 0.40085 0.338293 0.593597 0 0.000198245 0
3 1 0.165273 0.29707 0.0935971 0 0.00115538 0
4 1 0.665273 0.29707 0.0935971 0 0.00115502 -1.19209e-07
5 1 0.107626 0.461831 0.593597 0 -0.000102282 -2.38419e-07
6 1 0.607626 0.461831 0.593597 0 -0.000103116 -3.57628e-07
7 1 0.871904 0.421023 0.0935971 0 7.29561e-05 2.38419e-07
8 1 0.371904 0.421023 0.0935971 0 7.31945e-05 2.38419e-07
9 1 0.814338 0.585552 0.593597 0 -7.30753e-05 -7.15256e-07
10 1 0.314338 0.585552 0.593597 0 -7.28369e-05 -2.38419e-07
11 1 0.020969 0.709504 0.593597 0 -0.00115573 -2.38419e-07
12 1 0.520969 0.709504 0.593597 0 -0.0011555 -2.38419e-07
13 1 0.785392 0.668281 0.0935971 0 -0.000198126 5.96046e-07
14 1 0.0786165 0.544743 0.0935971 0 0.000102401 3.57628e-07
15 1 0.578617 0.544743 0.0935971 0 0.000102758 4.76837e-07
16 1 0.285392 0.668281 0.0935971 0 -0.000198245 0
17 1 0.727329 0.83423 0.593597 0 7.28369e-05 1.19209e-07
18 1 0.227329 0.83423 0.593597 0 7.28369e-05 1.19209e-07
19 1 0.933201 0.960353 0.593597 0 1.5378e-05 -1.19209e-07
20 1 0.433201 0.960353 0.593597 0 1.4782e-05 0
21 1 0.992266 0.79154 0.0935971 0 0.00146091 -2.38419e-07
22 1 0.492266 0.79154 0.0935971 0 0.00146127 2.38419e-07
23 1 0.699503 0.913761 0.0935971 0 -0.00160253 -2.38419e-07
24 1 0.199503 0.913761 0.0935971 0 -0.00160372 0
25 1 0.98674 0.0928133 0.593597 0 0.00160241 0
26 1 0.48674 0.0928133 0.593597 0 0.00160158 2.38419e-07
27 1 0.253042 0.0462209 0.0935971 0 -1.40667e-05 0
28 1 0.753042 0.0462209 0.0935971 0 -1.46627e-05 0
29 1 0.193977 0.215034 0.593597 0 -0.00146031 0
30 1 0.693977 0.215034 0.593597 0 -0.00146031 4.76837e-07
31 1 0.958913 0.172345 0.0935971 0 -7.236e-05 1.19209e-07
32 1 0.458913 0.172345 0.0935971 0 -7.30753e-05 -3.57628e-07
ITEM: TIMESTEP
7
ITEM: NUMBER OF ATOMS
32
ITEM: BOX BOUNDS xy xz yz pp pp pp
-2.1013021469116211e-03 8.6354779005050659e+00 2.2388275861740112e+00
-4.1524946689605713e-02 2.2124402940273285e+01 -0.0000000000000000e+00
-1.4066457748413086e-02 5.1965324282646179e+00 0.0000000000000000e+00
ITEM: ATOMS id type xs ys zs fx fy fz
1 1 0.900851 0.33829 0.593597 0 6.16312e-05 0
2 1 0.400851 0.33829 0.593597 0 6.1512e-05 0
3 1 0.165266 0.297091 0.0935971 0 4.3273e-05 0
4 1 0.665266 0.297091 0.0935971 0 4.31538e-05 -1.19209e-07
5 1 0.107626 0.46183 0.593597 0 -0.000176191 0
6 1 0.607626 0.46183 0.593597 0 -0.000175476 1.19209e-07
7 1 0.871903 0.421027 0.0935971 0 0.000258207 -1.19209e-07
8 1 0.371903 0.421027 0.0935971 0 0.000258207 0
9 1 0.814339 0.585548 0.593597 0 -0.000258446 0
10 1 0.31434 0.585548 0.593597 0 -0.000258565 0
11 1 0.0209763 0.709483 0.593597 0 -4.27961e-05 -1.19209e-07
12 1 0.520976 0.709483 0.593597 0 -4.33922e-05 0
13 1 0.785391 0.668284 0.0935971 0 -6.19888e-05 0
14 1 0.0786161 0.544744 0.0935971 0 0.000175834 0
15 1 0.578616 0.544744 0.0935971 0 0.000176311 0
16 1 0.285391 0.668284 0.0935971 0 -6.18696e-05 1.19209e-07
17 1 0.727332 0.834223 0.593597 0 -0.000180721 0
18 1 0.227332 0.834223 0.593597 0 -0.000180721 1.19209e-07
19 1 0.933202 0.96035 0.593597 0 0.000525832 0
20 1 0.433202 0.96035 0.593597 0 0.000526071 0
21 1 0.99226 0.791557 0.0935971 0 -0.000139594 0
22 1 0.49226 0.791557 0.0935971 0 -0.000139475 -3.57628e-07
23 1 0.699508 0.913745 0.0935971 0 -7.49826e-05 2.38419e-07
24 1 0.199508 0.913745 0.0935971 0 -7.4625e-05 0
25 1 0.986734 0.0928289 0.593597 0 7.45058e-05 -3.57628e-07
26 1 0.486734 0.0928289 0.593597 0 7.48634e-05 -3.57628e-07
27 1 0.253041 0.0462245 0.0935971 0 -0.000525832 5.96046e-07
28 1 0.753041 0.0462245 0.0935971 0 -0.000525713 0
29 1 0.193982 0.215018 0.593597 0 0.000139952 -2.38419e-07
30 1 0.693982 0.215018 0.593597 0 0.000139475 0
31 1 0.958911 0.172351 0.0935971 0 0.000180364 3.57628e-07
32 1 0.458911 0.172351 0.0935971 0 0.000181198 1.19209e-07
ITEM: TIMESTEP
8
ITEM: NUMBER OF ATOMS
32
ITEM: BOX BOUNDS xy xz yz pp pp pp
-2.1013021469116211e-03 8.6354779005050659e+00 2.2388275861740112e+00
-4.1524946689605713e-02 2.2124402940273285e+01 -0.0000000000000000e+00
-1.4066457748413086e-02 5.1965324282646179e+00 0.0000000000000000e+00
ITEM: ATOMS id type xs ys zs fx fy fz
1 1 0.900851 0.338291 0.593597 0 2.47955e-05 -2.38419e-07
2 1 0.400851 0.338291 0.593597 0 2.5034e-05 0
3 1 0.165265 0.297094 0.0935971 0 5.99623e-05 0
4 1 0.665265 0.297094 0.0935971 0 5.97239e-05 2.38419e-07
5 1 0.107628 0.461827 0.593597 0 -2.49147e-05 -1.19209e-07
6 1 0.607628 0.461827 0.593597 0 -2.55108e-05 0
7 1 0.871901 0.421032 0.0935971 0 8.79765e-05 1.19209e-07
8 1 0.371901 0.421032 0.0935971 0 8.76188e-05 0
9 1 0.814341 0.585542 0.593597 0 -8.73804e-05 1.19209e-07
10 1 0.314341 0.585542 0.593597 0 -8.74996e-05 1.19209e-07
11 1 0.0209774 0.70948 0.593597 0 -6.00815e-05 2.38419e-07
12 1 0.520977 0.70948 0.593597 0 -5.98431e-05 -1.19209e-07
13 1 0.785392 0.668283 0.0935971 0 -2.44379e-05 -1.19209e-07
14 1 0.0786149 0.544748 0.0935971 0 2.47955e-05 -2.38419e-07
15 1 0.578615 0.544748 0.0935971 0 2.45571e-05 0
16 1 0.285392 0.668283 0.0935971 0 -2.45571e-05 -2.38419e-07
17 1 0.727333 0.834219 0.593597 0 0.000109434 0
18 1 0.227333 0.834219 0.593597 0 0.000108957 1.19209e-07
19 1 0.933198 0.96036 0.593597 0 -0.000105262 0
20 1 0.433198 0.96036 0.593597 0 -0.0001055 0
21 1 0.99226 0.791556 0.0935971 0 -0.000221729 -1.19209e-07
22 1 0.49226 0.791556 0.093597 0 -0.000221252 2.38419e-07
23 1 0.699509 0.913742 0.0935971 0 -0.000162363 0
24 1 0.199509 0.913742 0.0935971 0 -0.000162721 0
25 1 0.986733 0.0928321 0.593597 0 0.000163436 4.76837e-07
26 1 0.486733 0.0928321 0.593597 0 0.000163674 5.96046e-07
27 1 0.253044 0.0462148 0.0935971 0 0.000104547 -4.76837e-07
28 1 0.753044 0.0462148 0.0935971 0 0.000105143 -1.19209e-07
29 1 0.193982 0.215019 0.593597 0 0.000221252 3.57628e-07
30 1 0.693982 0.215018 0.593597 0 0.000220656 1.19209e-07
31 1 0.958909 0.172355 0.0935971 0 -0.000109076 -4.76837e-07
32 1 0.458909 0.172355 0.0935971 0 -0.000109434 -4.76837e-07
ITEM: TIMESTEP
9
ITEM: NUMBER OF ATOMS
32
ITEM: BOX BOUNDS xy xz yz pp pp pp
-2.1013021469116211e-03 8.6354779005050659e+00 2.2388275861740112e+00
-4.1524946689605713e-02 2.2124402940273285e+01 -0.0000000000000000e+00
-1.4066457748413086e-02 5.1965324282646179e+00 0.0000000000000000e+00
ITEM: ATOMS id type xs ys zs fx fy fz
1 1 0.90085 0.338292 0.593597 0 9.48906e-05 1.19209e-07
2 1 0.400851 0.338292 0.593597 0 9.44138e-05 2.38419e-07
3 1 0.165264 0.297097 0.0935971 0 4.02927e-05 0
4 1 0.665264 0.297097 0.0935971 0 4.05312e-05 0
5 1 0.107628 0.461825 0.593597 0 3.82662e-05 -1.19209e-07
6 1 0.607628 0.461825 0.593597 0 3.82662e-05 0
7 1 0.8719 0.421036 0.0935971 0 -3.016e-05 -1.19209e-07
8 1 0.3719 0.421036 0.0935971 0 -3.05176e-05 -2.38419e-07
9 1 0.814343 0.585539 0.593597 0 2.99215e-05 -1.19209e-07
10 1 0.314343 0.585539 0.593597 0 2.95639e-05 0
11 1 0.0209782 0.709478 0.593597 0 -4.02927e-05 -2.38419e-07
12 1 0.520978 0.709478 0.593597 0 -4.01735e-05 0
13 1 0.785392 0.668282 0.0935971 0 -9.50098e-05 2.38419e-07
14 1 0.0786143 0.544749 0.0935971 0 -3.75509e-05 1.19209e-07
15 1 0.578614 0.544749 0.0935971 0 -3.79086e-05 -1.19209e-07
16 1 0.285392 0.668282 0.0935971 0 -9.48906e-05 1.19209e-07
17 1 0.727333 0.83422 0.593597 0 -6.09159e-05 0
18 1 0.227333 0.83422 0.593597 0 -5.97239e-05 -1.19209e-07
19 1 0.933198 0.96036 0.593597 0 -8.46386e-06 2.38419e-07
20 1 0.433198 0.96036 0.593597 0 -8.46386e-06 1.19209e-07
21 1 0.992262 0.791551 0.0935971 0 -4.673e-05 3.57628e-07
22 1 0.492262 0.791551 0.0935971 0 -4.73261e-05 -1.19209e-07
23 1 0.699511 0.913738 0.0935971 0 3.79086e-05 -3.57628e-07
24 1 0.199511 0.913738 0.0935971 0 3.77893e-05 0
25 1 0.986732 0.0928368 0.593597 0 -3.91006e-05 -3.57628e-07
26 1 0.486732 0.0928368 0.593597 0 -4.00543e-05 -4.76837e-07
27 1 0.253044 0.0462143 0.0935971 0 9.53674e-06 3.57628e-07
28 1 0.753044 0.0462143 0.0935971 0 9.41753e-06 0
29 1 0.19398 0.215024 0.593597 0 4.75645e-05 -2.38419e-07
30 1 0.69398 0.215024 0.593597 0 4.8399e-05 -3.57628e-07
31 1 0.95891 0.172354 0.0935971 0 6.06775e-05 4.76837e-07
32 1 0.45891 0.172354 0.093597 0 5.98431e-05 5.96046e-07
ITEM: TIMESTEP
10
ITEM: NUMBER OF ATOMS
32
ITEM: BOX BOUNDS xy xz yz pp pp pp
-2.1013021469116211e-03 8.6354779005050659e+00 2.2388275861740112e+00
-4.1524946689605713e-02 2.2124402940273285e+01 -0.0000000000000000e+00
-1.4066457748413086e-02 5.1965324282646179e+00 0.0000000000000000e+00
ITEM: ATOMS id type xs ys zs fx fy fz
1 1 0.900849 0.338295 0.593597 0 -1.43051e-06 3.57628e-07
2 1 0.40085 0.338295 0.593597 0 -1.19209e-06 -3.57628e-07
3 1 0.165264 0.297098 0.0935971 0 2.38419e-06 1.19209e-07
4 1 0.665264 0.297098 0.0935971 0 2.6226e-06 -1.19209e-07
5 1 0.107628 0.461826 0.593597 0 4.82798e-05 4.76837e-07
6 1 0.607628 0.461826 0.593597 0 4.8399e-05 -2.38419e-07
7 1 0.8719 0.421036 0.0935971 0 2.5034e-05 -1.19209e-07
8 1 0.3719 0.421036 0.0935971 0 2.58684e-05 1.19209e-07
9 1 0.814343 0.585539 0.593597 0 -2.49147e-05 1.19209e-07
10 1 0.314343 0.585539 0.593597 0 -2.43187e-05 -2.38419e-07
11 1 0.0209788 0.709476 0.593597 0 -2.98023e-06 3.57628e-07
12 1 0.520979 0.709476 0.593597 0 -2.74181e-06 -1.19209e-07
13 1 0.785393 0.668279 0.0935971 0 1.78814e-06 -2.38419e-07
14 1 0.0786145 0.544749 0.0935971 0 -4.91142e-05 -1.19209e-07
15 1 0.578615 0.544749 0.0935971 0 -4.85182e-05 1.19209e-07
16 1 0.285393 0.668279 0.0935971 0 1.78814e-06 0
17 1 0.727333 0.834219 0.593597 0 -2.74181e-05 -3.57628e-07
18 1 0.227333 0.834219 0.593597 0 -2.88486e-05 1.19209e-07
19 1 0.933198 0.96036 0.593597 0 -3.09944e-05 -5.96046e-07
20 1 0.433198 0.96036 0.593597 0 -3.14713e-05 -2.38419e-07
21 1 0.992263 0.791548 0.0935971 0 2.94447e-05 -5.96046e-07
22 1 0.492263 0.791548 0.093597 0 2.98023e-05 3.57628e-07
23 1 0.699511 0.913738 0.093597 0 -4.08888e-05 7.15256e-07
24 1 0.199511 0.913738 0.0935971 0 -4.01735e-05 3.57628e-07
25 1 0.986732 0.0928368 0.593597 0 4.26769e-05 5.96046e-07
26 1 0.486732 0.0928368 0.593597 0 4.41074e-05 5.96046e-07
27 1 0.253044 0.0462144 0.0935971 0 2.93255e-05 -3.57628e-07
28 1 0.753044 0.0462144 0.0935971 0 2.92063e-05 -1.19209e-07
29 1 0.193979 0.215026 0.593597 0 -3.1352e-05 0
30 1 0.693979 0.215026 0.593597 0 -3.12328e-05 3.57628e-07
31 1 0.958909 0.172356 0.0935971 0 2.7895e-05 -5.96046e-07
32 1 0.458909 0.172356 0.0935971 0 2.89679e-05 -3.57628e-07
ITEM: TIMESTEP
11
ITEM: NUMBER OF ATOMS
32
ITEM: BOX BOUNDS xy xz yz pp pp pp
-2.1013021469116211e-03 8.6354779005050659e+00 2.2388275861740112e+00
-4.1524946689605713e-02 2.2124402940273285e+01 -0.0000000000000000e+00
-1.4066457748413086e-02 5.1965324282646179e+00 0.0000000000000000e+00
ITEM: ATOMS id type xs ys zs fx fy fz
1 1 0.900849 0.338296 0.593597 0 -9.77516e-06 -1.19209e-07
2 1 0.400849 0.338296 0.593597 0 -9.41753e-06 -2.38419e-07
3 1 0.165263 0.297099 0.0935971 0 7.39098e-06 0
4 1 0.665263 0.297099 0.0935971 0 7.15256e-06 1.19209e-07
5 1 0.107628 0.461827 0.593597 0 -5.00679e-06 -1.19209e-07
6 1 0.607628 0.461827 0.593597 0 -4.41074e-06 0
7 1 0.8719 0.421036 0.0935971 0 2.38419e-07 1.19209e-07
8 1 0.3719 0.421036 0.0935971 0 9.53674e-07 0
9 1 0.814343 0.585538 0.593597 0 -7.15256e-07 -1.19209e-07
10 1 0.314343 0.585538 0.593597 0 -8.34465e-07 1.19209e-07
11 1 0.0209789 0.709476 0.593597 0 -6.91414e-06 -1.19209e-07
12 1 0.520979 0.709476 0.593597 0 -7.27177e-06 4.76837e-07
13 1 0.785393 0.668279 0.0935971 0 9.05991e-06 -2.38419e-07
14 1 0.0786148 0.544748 0.0935971 0 5.126e-06 1.19209e-07
15 1 0.578615 0.544748 0.0935971 0 4.52995e-06 -1.19209e-07
16 1 0.285393 0.668279 0.0935971 0 9.65595e-06 -2.38419e-07
17 1 0.727333 0.834218 0.593597 0 -1.39475e-05 2.38419e-07
18 1 0.227333 0.834218 0.593597 0 -1.43051e-05 0
19 1 0.933198 0.96036 0.593597 0 1.78814e-06 5.96046e-07
20 1 0.433198 0.96036 0.593597 0 1.78814e-06 2.38419e-07
21 1 0.992263 0.791548 0.0935971 0 4.76837e-07 0
22 1 0.492263 0.791548 0.0935971 0 9.53674e-07 0
23 1 0.699511 0.913737 0.0935971 0 3.57628e-06 -3.57628e-07
24 1 0.199511 0.913737 0.0935971 0 3.09944e-06 -1.19209e-07
25 1 0.986732 0.0928374 0.593597 0 -3.93391e-06 -1.19209e-07
26 1 0.486731 0.0928374 0.593597 0 -3.45707e-06 -1.19209e-07
27 1 0.253044 0.0462148 0.0935971 0 -1.43051e-06 -3.57628e-07
28 1 0.753044 0.0462149 0.0935971 0 -1.90735e-06 1.19209e-07
29 1 0.193979 0.215026 0.593597 0 1.19209e-07 2.38419e-07
30 1 0.693979 0.215026 0.593597 0 -7.15256e-07 4.76837e-07
31 1 0.958909 0.172356 0.0935971 0 1.39475e-05 -1.19209e-07
32 1 0.458909 0.172356 0.0935971 0 1.41859e-05 -3.57628e-07
ITEM: TIMESTEP
12
ITEM: NUMBER OF ATOMS
32
ITEM: BOX BOUNDS xy xz yz pp pp pp
-2.1013021469116211e-03 8.6354779005050659e+00 2.2388275861740112e+00
-4.1524946689605713e-02 2.2124402940273285e+01 -0.0000000000000000e+00
-1.4066457748413086e-02 5.1965324282646179e+00 0.0000000000000000e+00
ITEM: ATOMS id type xs ys zs fx fy fz
1 1 0.900849 0.338295 0.593597 0 8.34465e-07 0
2 1 0.400849 0.338295 0.593597 0 8.34465e-07 4.76837e-07
3 1 0.165263 0.297099 0.0935971 0 3.09944e-06 -1.19209e-07
4 1 0.665263 0.297099 0.0935971 0 3.09944e-06 -3.57628e-07
5 1 0.107628 0.461827 0.593597 0 -5.96046e-06 1.19209e-07
6 1 0.607628 0.461827 0.593597 0 -6.79493e-06 0
7 1 0.8719 0.421036 0.0935971 0 1.3113e-06 0
8 1 0.3719 0.421036 0.0935971 0 8.34465e-07 0
9 1 0.814343 0.585538 0.593597 0 -9.53674e-07 0
10 1 0.314343 0.585538 0.593597 0 -3.57628e-07 -1.19209e-07
11 1 0.020979 0.709475 0.593597 0 -3.8147e-06 -1.19209e-07
12 1 0.520979 0.709475 0.593597 0 -3.21865e-06 -3.57628e-07
13 1 0.785393 0.668279 0.0935971 0 -2.38419e-07 2.38419e-07
14 1 0.0786148 0.544748 0.0935971 0 5.60284e-06 -1.19209e-07
15 1 0.578615 0.544748 0.0935971 0 6.91414e-06 0
16 1 0.285393 0.668279 0.0935971 0 -8.34465e-07 4.76837e-07
17 1 0.727334 0.834218 0.593597 0 2.38419e-06 0
18 1 0.227334 0.834218 0.593597 0 2.5034e-06 1.19209e-07
19 1 0.933198 0.96036 0.593597 0 -6.79493e-06 -1.19209e-07
20 1 0.433198 0.96036 0.593597 0 -5.84126e-06 -3.57628e-07
21 1 0.992263 0.791548 0.0935971 0 1.3113e-06 -1.19209e-07
22 1 0.492263 0.791548 0.0935971 0 8.34465e-07 -1.19209e-07
23 1 0.699511 0.913737 0.093597 0 -3.57628e-06 3.57628e-07
24 1 0.199511 0.913737 0.0935971 0 -3.09944e-06 3.57628e-07
25 1 0.986732 0.0928374 0.593597 0 3.69549e-06 -1.19209e-07
26 1 0.486731 0.0928374 0.593597 0 3.45707e-06 -3.57628e-07
27 1 0.253044 0.0462148 0.0935971 0 6.4373e-06 0
28 1 0.753044 0.0462149 0.0935971 0 6.4373e-06 0
29 1 0.193979 0.215026 0.593597 0 -1.66893e-06 -1.19209e-07
30 1 0.693979 0.215026 0.593597 0 -1.3113e-06 -3.57628e-07
31 1 0.958909 0.172357 0.0935971 0 -2.86102e-06 2.38419e-07
32 1 0.458909 0.172357 0.0935971 0 -2.26498e-06 4.76837e-07
ITEM: TIMESTEP
13
ITEM: NUMBER OF ATOMS
32
ITEM: BOX BOUNDS xy xz yz pp pp pp
-2.1013021469116211e-03 8.6354779005050659e+00 2.2388275861740112e+00
-4.1524946689605713e-02 2.2124402940273285e+01 -0.0000000000000000e+00
-1.4066457748413086e-02 5.1965324282646179e+00 0.0000000000000000e+00
ITEM: ATOMS id type xs ys zs fx fy fz
1 1 0.900849 0.338295 0.593597 0 1.19209e-07 0
2 1 0.400849 0.338295 0.593597 0 1.19209e-07 -1.19209e-07
3 1 0.165263 0.297099 0.0935971 0 -1.78814e-06 0
4 1 0.665263 0.297099 0.0935971 0 -1.78814e-06 0
5 1 0.107628 0.461827 0.593597 0 -2.38419e-07 -1.19209e-07
6 1 0.607628 0.461827 0.593597 0 0 0
7 1 0.8719 0.421036 0.0935971 0 3.57628e-06 -1.19209e-07
8 1 0.3719 0.421036 0.0935971 0 3.33786e-06 3.57628e-07
9 1 0.814343 0.585538 0.593597 0 -3.21865e-06 1.19209e-07
10 1 0.314343 0.585538 0.593597 0 -3.09944e-06 1.19209e-07
11 1 0.020979 0.709475 0.593597 0 1.54972e-06 0
12 1 0.520979 0.709475 0.593597 0 1.78814e-06 -1.19209e-07
13 1 0.785393 0.668279 0.0935971 0 2.38419e-07 0
14 1 0.0786148 0.544748 0.0935971 0 2.38419e-07 -1.19209e-07
15 1 0.578615 0.544748 0.0935971 0 0 0
16 1 0.285393 0.668279 0.0935971 0 -7.15256e-07 -1.19209e-07
17 1 0.727334 0.834218 0.593597 0 3.57628e-07 0
18 1 0.227334 0.834218 0.593597 0 3.57628e-07 0
19 1 0.933198 0.960359 0.593597 0 -3.57628e-07 -2.38419e-07
20 1 0.433199 0.960359 0.593597 0 -5.96046e-07 1.19209e-07
21 1 0.992263 0.791548 0.0935971 0 -1.19209e-06 0
22 1 0.492263 0.791548 0.0935971 0 -1.54972e-06 0
23 1 0.699511 0.913737 0.0935971 0 1.66893e-06 3.57628e-07
24 1 0.199511 0.913737 0.0935971 0 2.02656e-06 -1.19209e-07
25 1 0.986732 0.0928374 0.593597 0 -1.66893e-06 1.19209e-07
26 1 0.486731 0.0928374 0.593597 0 -2.26498e-06 1.19209e-07
27 1 0.253044 0.0462149 0.0935971 0 2.38419e-07 1.19209e-07
28 1 0.753044 0.0462149 0.0935971 0 8.34465e-07 -4.76837e-07
29 1 0.193979 0.215026 0.593597 0 1.54972e-06 0
30 1 0.693979 0.215026 0.593597 0 1.66893e-06 -1.19209e-07
31 1 0.958909 0.172357 0.0935971 0 -3.57628e-07 2.38419e-07
32 1 0.458909 0.172357 0.0935971 0 -8.34465e-07 0
ITEM: TIMESTEP
14
ITEM: NUMBER OF ATOMS
32
ITEM: BOX BOUNDS xy xz yz pp pp pp
-2.1013021469116211e-03 8.6354779005050659e+00 2.2388275861740112e+00
-4.1524946689605713e-02 2.2124402940273285e+01 -0.0000000000000000e+00
-1.4066457748413086e-02 5.1965324282646179e+00 0.0000000000000000e+00
ITEM: ATOMS id type xs ys zs fx fy fz
1 1 0.900849 0.338295 0.593597 0 1.07288e-06 0
2 1 0.400849 0.338295 0.593597 0 5.96046e-07 0
3 1 0.165263 0.297099 0.0935971 0 2.38419e-07 0
4 1 0.665263 0.297099 0.0935971 0 5.96046e-07 1.19209e-07