ITEM: TIMESTEP
0
ITEM: NUMBER OF ATOMS
32
ITEM: BOX BOUNDS xy xz yz pp pp pp
-4.7826766967773438e-03 7.5992063879966736e+00 1.1998746991157532e+00
-3.7661075592041016e-02 2.2120539069175720e+01 0.0000000000000000e+00
-1.1393904685974121e-02 5.1938598752021790e+00 0.0000000000000000e+00
ITEM: ATOMS id type xs ys zs fx fy fz
1 1 0.956159 0.336542 0.593597 0 0.000833511 5.72205e-06
2 1 0.456159 0.336542 0.593597 0 0.000827789 5.72205e-06
3 1 0.213937 0.295033 0.0935973 0 -0.00172234 -3.8147e-06
4 1 0.713937 0.295033 0.0935973 0 -0.00172234 -1.90735e-06
5 1 0.182739 0.461543 0.593597 0 0.000900269 0
6 1 0.682739 0.461543 0.593597 0 0.000904083 5.72205e-06
7 1 0.940515 0.420037 0.0935973 0 -0.00140762 -7.62939e-06
8 1 0.440516 0.420037 0.0935973 0 -0.00140762 -3.8147e-06
9 1 0.909319 0.586543 0.593597 0 0.0013485 0
10 1 0.409319 0.586543 0.593597 0 0.00134659 0
11 1 0.1359 0.711539 0.593597 0 0.0018158 7.62939e-06
12 1 0.6359 0.711539 0.593597 0 0.00181007 3.8147e-06
13 1 0.893675 0.670042 0.0935972 0 -0.00107002 -3.8147e-06
14 1 0.167095 0.545043 0.0935972 0 -0.00100708 0
15 1 0.667095 0.545043 0.0935972 0 -0.00100327 0
16 1 0.393675 0.670042 0.0935972 0 -0.00107193 -7.62939e-06
17 1 0.862481 0.836533 0.593597 0 0.010704 7.62939e-06
18 1 0.362481 0.836533 0.593597 0 0.010704 3.8147e-06
19 1 0.0890613 0.961533 0.593597 0 -0.347221 0
20 1 0.589061 0.961533 0.593597 0 -0.347218 1.90735e-06
21 1 0.120256 0.795035 0.0935971 0 0.00174332 -3.8147e-06
22 1 0.620256 0.795035 0.0935971 0 0.00174904 -1.90735e-06
23 1 0.846836 0.920032 0.0935971 0 -0.573788 -5.72205e-06
24 1 0.346837 0.920032 0.0935971 0 -0.573786 0
25 1 0.00299991 0.0865377 0.593597 0 0.573519 0
26 1 0.503 0.0865377 0.593597 0 0.573519 0
27 1 0.260777 0.045031 0.093597 0 0.347593 -1.90735e-06
28 1 0.760777 0.045031 0.093597 0 0.347593 0
29 1 0.22958 0.211541 0.593597 0 -0.0017643 0
30 1 0.72958 0.211541 0.593597 0 -0.0017643 0
31 1 0.987357 0.170031 0.093597 0 -0.010479 0
32 1 0.487357 0.170031 0.093597 0 -0.010479 0
ITEM: TIMESTEP
1
ITEM: NUMBER OF ATOMS
32
ITEM: BOX BOUNDS xy xz yz pp pp pp
-4.7826766967773438e-03 7.5992063879966736e+00 1.1998746991157532e+00
-3.7661075592041016e-02 2.2120539069175720e+01 0.0000000000000000e+00
-1.1393904685974121e-02 5.1938598752021790e+00 0.0000000000000000e+00
ITEM: ATOMS id type xs ys zs fx fy fz
1 1 0.956158 0.336549 0.593597 0 0.000131607 -1.90735e-06
2 1 0.456158 0.336549 0.593597 0 0.000139236 0
3 1 0.213939 0.295019 0.0935972 0 0.000543594 1.90735e-06
4 1 0.713939 0.295019 0.0935972 0 0.000543594 0
5 1 0.182738 0.46155 0.593597 0 0.00133896 1.90735e-06
6 1 0.682738 0.46155 0.593597 0 0.00133705 -1.90735e-06
7 1 0.940517 0.420026 0.093597 0 -0.00185966 0
8 1 0.440518 0.420026 0.0935972 0 -0.00186539 0
9 1 0.909317 0.586554 0.593597 0 0.00179672 3.8147e-06
10 1 0.409317 0.586554 0.593597 0 0.00180244 0
11 1 0.135897 0.711553 0.593597 0 -0.0004673 0
12 1 0.635897 0.711553 0.593597 0 -0.000461578 -1.90735e-06
13 1 0.893676 0.670034 0.0935971 0 -0.000282288 0
14 1 0.167096 0.545035 0.0935972 0 -0.00147247 -1.90735e-06
15 1 0.667096 0.545035 0.0935972 0 -0.00147438 -1.90735e-06
16 1 0.393676 0.670034 0.0935969 0 -0.000282288 1.90735e-06
17 1 0.862465 0.836617 0.593597 0 -0.0943527 0
18 1 0.362465 0.836617 0.593597 0 -0.0943565 -1.90735e-06
19 1 0.089573 0.958802 0.593597 0 0.0578671 1.90735e-06
20 1 0.589573 0.958802 0.593597 0 0.0578613 -1.90735e-06
21 1 0.120254 0.795048 0.093597 0 -0.106327 0
22 1 0.620254 0.795048 0.093597 0 -0.106327 1.90735e-06
23 1 0.847682 0.915519 0.0935969 0 -0.0753689 0
24 1 0.347682 0.915519 0.0935971 0 -0.0753727 -1.90735e-06
25 1 0.00215475 0.0910486 0.593597 0 0.0755272 0
26 1 0.502155 0.0910486 0.593597 0 0.0755329 -3.8147e-06
27 1 0.260265 0.0477649 0.0935969 0 -0.0578213 3.8147e-06
28 1 0.760265 0.0477649 0.093597 0 -0.0578232 0
29 1 0.229582 0.211527 0.593597 0 0.106207 0
30 1 0.729582 0.211527 0.593597 0 0.106205 0
31 1 0.987372 0.169949 0.093597 0 0.0945435 1.90735e-06
32 1 0.487372 0.169949 0.093597 0 0.0945377 0
ITEM: TIMESTEP
2
ITEM: NUMBER OF ATOMS
32
ITEM: BOX BOUNDS xy xz yz pp pp pp
-4.7826766967773438e-03 7.5992063879966736e+00 1.1998746991157532e+00
-3.7661075592041016e-02 2.2120539069175720e+01 0.0000000000000000e+00
-1.1393904685974121e-02 5.1938598752021790e+00 0.0000000000000000e+00
ITEM: ATOMS id type xs ys zs fx fy fz
1 1 0.956157 0.336553 0.593597 0 0.0570984 0
2 1 0.456157 0.336553 0.593597 0 0.0570927 0
3 1 0.213937 0.295032 0.0935974 0 0.0715275 -3.8147e-06
4 1 0.713937 0.295032 0.0935972 0 0.0715237 -1.90735e-06
5 1 0.182732 0.461585 0.593597 0 2.09808e-05 -3.8147e-06
6 1 0.682732 0.461585 0.593597 0 2.86102e-05 1.90735e-06
7 1 0.940527 0.419978 0.093597 0 0.00127983 1.90735e-06
8 1 0.440527 0.419978 0.0935972 0 0.00128365 0
9 1 0.909308 0.586601 0.593597 0 -0.0012989 -7.62939e-06
10 1 0.409308 0.586601 0.593597 0 -0.00131035 1.90735e-06
11 1 0.135899 0.711542 0.593597 0 -0.071558 0
12 1 0.635899 0.711542 0.593597 0 -0.0715618 0
13 1 0.893678 0.670026 0.0935971 0 -0.0572262 1.90735e-06
14 1 0.167103 0.544996 0.093597 0 -0.000110626 1.90735e-06
15 1 0.667103 0.544996 0.093597 0 -0.000116348 3.8147e-06
16 1 0.393678 0.670026 0.0935971 0 -0.0572262 -1.90735e-06
17 1 0.862919 0.834193 0.593597 0 0.0370789 -7.62939e-06
18 1 0.36292 0.834193 0.593597 0 0.037075 0
19 1 0.0893209 0.960147 0.593597 0 -0.0175762 -1.90735e-06
20 1 0.589321 0.960147 0.593597 0 -0.0175648 1.90735e-06
21 1 0.120766 0.792312 0.093597 0 -0.00613976 3.8147e-06
22 1 0.620766 0.792312 0.0935972 0 -0.00614166 0
23 1 0.84809 0.913341 0.0935969 0 -0.0451393 3.8147e-06
24 1 0.348091 0.913341 0.0935969 0 -0.045126 0
25 1 0.00174593 0.0932306 0.593597 0 0.0450249 1.90735e-06
26 1 0.501746 0.0932308 0.593597 0 0.0450134 9.53674e-06
27 1 0.260517 0.0464209 0.0935974 0 0.0177727 -5.72205e-06
28 1 0.760517 0.0464209 0.093597 0 0.0177784 -1.90735e-06
29 1 0.22907 0.21426 0.593597 0 0.00625992 3.8147e-06
30 1 0.72907 0.21426 0.593597 0 0.00626373 3.8147e-06
31 1 0.986917 0.172378 0.0935972 0 -0.0370197 -1.90735e-06
32 1 0.486917 0.172378 0.093597 0 -0.0370064 -3.8147e-06
ITEM: TIMESTEP
3
ITEM: NUMBER OF ATOMS
32
ITEM: BOX BOUNDS xy xz yz pp pp pp
-4.7826766967773438e-03 7.5992063879966736e+00 1.1998746991157532e+00
-3.7661075592041016e-02 2.2120539069175720e+01 0.0000000000000000e+00
-1.1393904685974121e-02 5.1938598752021790e+00 0.0000000000000000e+00
ITEM: ATOMS id type xs ys zs fx fy fz
1 1 0.955949 0.337663 0.593597 0 0.0233574 1.90735e-06
2 1 0.455949 0.337663 0.593597 0 0.0233555 -5.72205e-06
3 1 0.213676 0.296426 0.0935971 0 0.0111847 3.8147e-06
4 1 0.713676 0.296426 0.0935971 0 0.0111809 -1.90735e-06
5 1 0.182729 0.461596 0.593597 0 0.0192719 0
6 1 0.682729 0.461596 0.593597 0 0.019268 3.8147e-06
7 1 0.940525 0.419987 0.0935972 0 0.0370674 -1.90735e-06
8 1 0.440525 0.419987 0.0935972 0 0.037077 1.90735e-06
9 1 0.90931 0.586591 0.593597 0 -0.0371647 0
10 1 0.40931 0.586591 0.593597 0 -0.0371475 -3.8147e-06
11 1 0.136161 0.710149 0.593597 0 -0.0111504 -1.90735e-06
12 1 0.636161 0.710149 0.593597 0 -0.011158 1.90735e-06
13 1 0.893886 0.668912 0.0935972 0 -0.0233097 1.90735e-06
14 1 0.167106 0.544982 0.0935971 0 -0.019331 1.90735e-06
15 1 0.667106 0.544982 0.0935972 0 -0.0193272 0
16 1 0.393887 0.668912 0.093597 0 -0.0233097 1.90735e-06
17 1 0.862931 0.834128 0.593597 0 -0.00562668 7.62939e-06
18 1 0.362932 0.834128 0.593597 0 -0.00562286 -1.90735e-06
19 1 0.0893032 0.960241 0.593597 0 0.0161762 -1.90735e-06
20 1 0.589303 0.960241 0.593597 0 0.0161743 -1.90735e-06
21 1 0.120955 0.791307 0.0935973 0 -0.0242901 -3.8147e-06
22 1 0.620955 0.791307 0.0935973 0 -0.0242882 -5.72205e-06
23 1 0.848387 0.911759 0.0935972 0 0.0441189 -1.90735e-06
24 1 0.348387 0.911759 0.0935968 0 0.0441055 3.8147e-06
25 1 0.0014497 0.0948117 0.593597 0 -0.0439415 -5.72205e-06
26 1 0.50145 0.0948116 0.593597 0 -0.0439339 -9.53674e-06
27 1 0.260533 0.0463308 0.093597 0 -0.0161934 1.90735e-06
28 1 0.760533 0.0463308 0.0935968 0 -0.0162029 7.62939e-06
29 1 0.228882 0.215267 0.593597 0 0.0242462 -5.72205e-06
30 1 0.728882 0.215267 0.593597 0 0.0242443 -3.8147e-06
31 1 0.986904 0.172446 0.0935971 0 0.00558662 7.62939e-06
32 1 0.486905 0.172446 0.0935967 0 0.00558281 9.53674e-06
ITEM: TIMESTEP
4
ITEM: NUMBER OF ATOMS
32
ITEM: BOX BOUNDS xy xz yz pp pp pp
-4.7826766967773438e-03 7.5992063879966736e+00 1.1998746991157532e+00
-3.7661075592041016e-02 2.2120539069175720e+01 0.0000000000000000e+00
-1.1393904685974121e-02 5.1938598752021790e+00 0.0000000000000000e+00
ITEM: ATOMS id type xs ys zs fx fy fz
1 1 0.955757 0.338691 0.593597 0 0.00614166 5.72205e-06
2 1 0.455757 0.338691 0.593597 0 0.00614166 7.62939e-06
3 1 0.213506 0.297333 0.0935973 0 -0.00580215 -9.53674e-06
4 1 0.713506 0.297333 0.0935968 0 -0.00579834 -3.8147e-06
5 1 0.182652 0.462009 0.593597 0 0.00152588 1.14441e-05
6 1 0.682652 0.462009 0.593597 0 0.00152779 -3.8147e-06
7 1 0.940377 0.420774 0.0935971 0 0.0172234 -1.90735e-06
8 1 0.440378 0.420774 0.0935973 0 0.0172234 -3.8147e-06
9 1 0.909458 0.585802 0.593597 0 -0.0172329 7.62939e-06
10 1 0.409458 0.585802 0.593597 0 -0.0172462 5.72205e-06
11 1 0.13633 0.709242 0.593597 0 0.00575256 5.72205e-06
12 1 0.63633 0.709242 0.593597 0 0.0057621 0
13 1 0.894079 0.667884 0.0935975 0 -0.00613213 -7.62939e-06
14 1 0.167184 0.544567 0.0935973 0 -0.00154877 -9.53674e-06
15 1 0.667184 0.544567 0.0935974 0 -0.00154877 -1.90735e-06
16 1 0.394079 0.667884 0.0935972 0 -0.0061264 -5.72205e-06
17 1 0.86296 0.833978 0.593597 0 -0.00954628 5.72205e-06
18 1 0.36296 0.833978 0.593597 0 -0.00954056 5.72205e-06
19 1 0.0892307 0.960628 0.593597 0 -0.0165844 1.90735e-06
20 1 0.589231 0.960628 0.593597 0 -0.0165806 1.90735e-06
21 1 0.121142 0.79031 0.0935971 0 0.0105362 -3.8147e-06
22 1 0.621142 0.79031 0.0935968 0 0.0105343 0
23 1 0.848355 0.911927 0.0935972 0 -0.00686646 -5.72205e-06
24 1 0.348355 0.911927 0.0935971 0 -0.00685883 -3.8147e-06
25 1 0.00148068 0.0946463 0.593597 0 0.00686073 3.8147e-06
26 1 0.501481 0.0946464 0.593597 0 0.00685692 5.72205e-06
27 1 0.260606 0.0459456 0.093597 0 0.0165882 0
28 1 0.760606 0.0459455 0.0935975 0 0.0165939 -7.62939e-06
29 1 0.228695 0.216263 0.593597 0 -0.0104809 7.62939e-06
30 1 0.728695 0.216263 0.593597 0 -0.0104752 3.8147e-06
31 1 0.986876 0.172596 0.0935978 0 0.00955009 -9.53674e-06
32 1 0.486876 0.172596 0.0935974 0 0.00955009 -1.90735e-06
ITEM: TIMESTEP
5
ITEM: NUMBER OF ATOMS
32
ITEM: BOX BOUNDS xy xz yz pp pp pp
-4.7826766967773438e-03 7.5992063879966736e+00 1.1998746991157532e+00
-3.7661075592041016e-02 2.2120539069175720e+01 0.0000000000000000e+00
-1.1393904685974121e-02 5.1938598752021790e+00 0.0000000000000000e+00
ITEM: ATOMS id type xs ys zs fx fy fz
1 1 0.955712 0.33893 0.593597 0 -0.00238991 -7.62939e-06
2 1 0.455712 0.33893 0.593597 0 -0.00239563 -7.62939e-06
3 1 0.2135 0.297362 0.0935967 0 0.00442123 9.53674e-06
4 1 0.7135 0.297362 0.0935965 0 0.00442123 9.53674e-06
5 1 0.182637 0.462089 0.593598 0 -0.00553131 -1.33514e-05
6 1 0.682637 0.462089 0.593597 0 -0.00553703 5.72205e-06
7 1 0.940305 0.421161 0.0935969 0 -0.00142288 5.72205e-06
8 1 0.440305 0.421161 0.0935971 0 -0.00142288 5.72205e-06
9 1 0.90953 0.585414 0.593597 0 0.00140381 0
10 1 0.409531 0.585414 0.593597 0 0.00139999 -3.8147e-06
11 1 0.136336 0.709213 0.593597 0 -0.00443077 -7.62939e-06
12 1 0.636336 0.709213 0.593597 0 -0.00442505 -1.90735e-06
13 1 0.894124 0.667644 0.093597 0 0.00240326 3.8147e-06
14 1 0.167199 0.544485 0.0935967 0 0.00552177 5.72205e-06
15 1 0.667199 0.544485 0.0935972 0 0.0055294 -1.90735e-06
16 1 0.394124 0.667644 0.0935968 0 0.00239944 1.90735e-06
17 1 0.862992 0.833802 0.593597 0 -0.00593185 -5.72205e-06
18 1 0.362993 0.833802 0.593597 0 -0.00592804 -5.72205e-06
19 1 0.0892716 0.96041 0.593597 0 -0.00340843 -1.90735e-06
20 1 0.589272 0.96041 0.593597 0 -0.00341988 0
21 1 0.121135 0.790347 0.0935968 0 0.000110626 3.8147e-06
22 1 0.621135 0.790347 0.0935968 0 9.34601e-05 5.72205e-06
23 1 0.848372 0.911838 0.0935968 0 0.00427628 5.72205e-06
24 1 0.348372 0.911838 0.0935969 0 0.00426483 3.8147e-06
25 1 0.00146392 0.0947358 0.593597 0 -0.00427055 0
26 1 0.501464 0.0947357 0.593597 0 -0.00426292 0
27 1 0.260565 0.0461638 0.093597 0 0.00341797 0
28 1 0.760565 0.0461638 0.093597 0 0.00342369 0
29 1 0.228702 0.216228 0.593597 0 -8.96454e-05 -5.72205e-06
30 1 0.728702 0.216228 0.593597 0 -8.96454e-05 -3.8147e-06
31 1 0.986843 0.172772 0.0935972 0 0.00593567 -1.90735e-06
32 1 0.486843 0.172772 0.0935974 0 0.00593376 1.90735e-06
ITEM: TIMESTEP
6
ITEM: NUMBER OF ATOMS
32
ITEM: BOX BOUNDS xy xz yz pp pp pp
-4.7826766967773438e-03 7.5992063879966736e+00 1.1998746991157532e+00
-3.7661075592041016e-02 2.2120539069175720e+01 0.0000000000000000e+00
-1.1393904685974121e-02 5.1938598752021790e+00 0.0000000000000000e+00
ITEM: ATOMS id type xs ys zs fx fy fz
1 1 0.955715 0.338914 0.593597 0 -0.00403214 1.33514e-05
2 1 0.455715 0.338914 0.593596 0 -0.0040226 1.90735e-05
3 1 0.213475 0.297495 0.0935977 0 0.00243759 -1.33514e-05
4 1 0.713475 0.297495 0.0935976 0 0.00244522 -1.14441e-05
5 1 0.182663 0.461948 0.593596 0 0.00187302 1.52588e-05
6 1 0.682663 0.461948 0.593598 0 0.00187111 -5.72205e-06
7 1 0.940297 0.421205 0.0935976 0 0.00160217 -1.14441e-05
8 1 0.440297 0.421205 0.0935977 0 0.00159454 -1.33514e-05
9 1 0.909539 0.585369 0.593597 0 -0.00159264 -3.8147e-06
10 1 0.409539 0.585369 0.593597 0 -0.00159073 7.62939e-06
11 1 0.136361 0.709079 0.593597 0 -0.00242615 1.90735e-06
12 1 0.636361 0.709079 0.593597 0 -0.00244331 5.72205e-06
13 1 0.894121 0.667661 0.0935973 0 0.00401306 -3.8147e-06
14 1 0.167173 0.544626 0.0935972 0 -0.00186348 -1.90735e-06
15 1 0.667173 0.544626 0.093597 0 -0.00187111 5.72205e-06
16 1 0.394121 0.667661 0.0935969 0 0.00401878 -5.72205e-06
17 1 0.863032 0.833593 0.593597 0 0.000675201 7.62939e-06
18 1 0.363032 0.833593 0.593596 0 0.000669479 1.14441e-05
19 1 0.0892989 0.960264 0.593597 0 -0.000574112 3.8147e-06
20 1 0.589299 0.960264 0.593597 0 -0.00056076 5.72205e-06
21 1 0.121133 0.790358 0.0935972 0 0.000486374 -3.8147e-06
22 1 0.621133 0.790357 0.0935974 0 0.000514984 -9.53674e-06
23 1 0.848352 0.911942 0.0935974 0 -0.00154686 -7.62939e-06
24 1 0.348353 0.911941 0.0935973 0 -0.00153732 -9.53674e-06
25 1 0.00148325 0.0946326 0.593597 0 0.00156403 -1.90735e-06
26 1 0.501484 0.0946328 0.593597 0 0.00155067 3.8147e-06
27 1 0.260537 0.0463099 0.093597 0 0.000566483 -1.90735e-06
28 1 0.760537 0.0463101 0.0935969 0 0.00056076 1.90735e-06
29 1 0.228704 0.216217 0.593597 0 -0.000513077 5.72205e-06
30 1 0.728704 0.216217 0.593597 0 -0.000516891 1.90735e-06
31 1 0.986804 0.172981 0.0935968 0 -0.000675201 3.8147e-06
32 1 0.486804 0.172981 0.0935976 0 -0.000677109 -9.53674e-06
ITEM: TIMESTEP
7
ITEM: NUMBER OF ATOMS
32
ITEM: BOX BOUNDS xy xz yz pp pp pp
-4.7826766967773438e-03 7.5992063879966736e+00 1.1998746991157532e+00
-3.7661075592041016e-02 2.2120539069175720e+01 0.0000000000000000e+00
-1.1393904685974121e-02 5.1938598752021790e+00 0.0000000000000000e+00
ITEM: ATOMS id type xs ys zs fx fy fz
1 1 0.955727 0.338848 0.593597 0 -8.2016e-05 -7.62939e-06
2 1 0.455727 0.338848 0.593597 0 -8.2016e-05 -7.62939e-06
3 1 0.213465 0.297552 0.093597 0 0.000295639 9.53674e-06
4 1 0.713465 0.297552 0.093597 0 0.000291824 1.90735e-06
5 1 0.182662 0.461957 0.593597 0 -0.00066185 0
6 1 0.682662 0.461957 0.593598 0 -0.000658035 -5.72205e-06
7 1 0.940291 0.421236 0.0935969 0 0.000425339 7.62939e-06
8 1 0.440291 0.421236 0.0935969 0 0.000427246 1.14441e-05
9 1 0.909545 0.585338 0.593597 0 -0.000415802 0
10 1 0.409545 0.585338 0.593597 0 -0.000413895 -5.72205e-06
11 1 0.136372 0.709022 0.593597 0 -0.00028801 1.90735e-06
12 1 0.636372 0.709022 0.593597 0 -0.00028801 -5.72205e-06
13 1 0.894108 0.667726 0.0935971 0 7.05719e-05 -1.90735e-06
14 1 0.167174 0.544617 0.0935972 0 0.00066185 0
15 1 0.667174 0.544617 0.0935973 0 0.000658035 -1.90735e-06
16 1 0.394109 0.667726 0.0935966 0 6.10352e-05 5.72205e-06
17 1 0.863035 0.833574 0.593597 0 7.62939e-06 -7.62939e-06
18 1 0.363036 0.833574 0.593597 0 5.72205e-06 -3.8147e-06
19 1 0.0893045 0.960235 0.593597 0 0.00109482 0
20 1 0.589304 0.960235 0.593597 0 0.00110435 -1.90735e-06
21 1 0.121131 0.790367 0.093597 0 0.000465393 1.90735e-06
22 1 0.621131 0.790367 0.0935969 0 0.000469208 5.72205e-06
23 1 0.848354 0.911932 0.093597 0 -9.53674e-06 3.8147e-06
24 1 0.348354 0.911932 0.0935968 0 -3.8147e-06 3.8147e-06
25 1 0.00148144 0.0946422 0.593597 0 3.8147e-06 1.90735e-06
26 1 0.501482 0.0946423 0.593597 0 -1.90735e-06 -1.90735e-06
27 1 0.260532 0.0463397 0.0935969 0 -0.00108719 3.8147e-06
28 1 0.760532 0.0463398 0.093597 0 -0.00109863 0
29 1 0.228705 0.216208 0.593597 0 -0.000471115 -5.72205e-06
30 1 0.728705 0.216208 0.593597 0 -0.000471115 -3.8147e-06
31 1 0.9868 0.173001 0.093597 0 -3.8147e-06 1.90735e-06
32 1 0.486801 0.173001 0.093597 0 -5.72205e-06 0
ITEM: TIMESTEP
8
ITEM: NUMBER OF ATOMS
32
ITEM: BOX BOUNDS xy xz yz pp pp pp
-4.7826766967773438e-03 7.5992063879966736e+00 1.1998746991157532e+00
-3.7661075592041016e-02 2.2120539069175720e+01 0.0000000000000000e+00
-1.1393904685974121e-02 5.1938598752021790e+00 0.0000000000000000e+00
ITEM: ATOMS id type xs ys zs fx fy fz
1 1 0.955728 0.338841 0.593597 0 -1.71661e-05 9.53674e-06
2 1 0.455729 0.338841 0.593597 0 -2.28882e-05 7.62939e-06
3 1 0.213463 0.297563 0.0935978 0 -0.000135422 -1.52588e-05
4 1 0.713463 0.297563 0.0935971 0 -0.000135422 -7.62939e-06
5 1 0.182664 0.461944 0.593597 0 -0.000244141 5.72205e-06
6 1 0.682664 0.461944 0.593597 0 -0.000242233 7.62939e-06
7 1 0.940289 0.421248 0.0935975 0 0.000198364 -9.53674e-06
8 1 0.440289 0.421248 0.0935979 0 0.000204086 -1.14441e-05
9 1 0.909547 0.585327 0.593597 0 -0.000213623 3.8147e-06
10 1 0.409547 0.585327 0.593597 0 -0.000213623 3.8147e-06
11 1 0.136374 0.709011 0.593597 0 0.000127792 5.72205e-06
12 1 0.636374 0.709011 0.593597 0 0.000135422 9.53674e-06
13 1 0.894107 0.667733 0.0935969 0 2.86102e-05 -3.8147e-06
14 1 0.167172 0.54463 0.0935972 0 0.000246048 -1.90735e-06
15 1 0.667172 0.54463 0.0935972 0 0.00025177 -3.8147e-06
16 1 0.394108 0.667733 0.093597 0 4.19617e-05 -5.72205e-06
17 1 0.863036 0.833572 0.593597 0 0.000221252 3.8147e-06
18 1 0.363036 0.833572 0.593597 0 0.000221252 7.62939e-06
19 1 0.0893007 0.960255 0.593597 0 -0.000152588 0
20 1 0.589301 0.960255 0.593597 0 -0.000154495 1.90735e-06
21 1 0.121129 0.790377 0.0935972 0 -0.000104904 -1.90735e-06
22 1 0.621129 0.790377 0.0935974 0 -0.000108719 -7.62939e-06
23 1 0.848354 0.911931 0.0935973 0 -0.00019455 -5.72205e-06
24 1 0.348355 0.911931 0.093597 0 -0.000196457 -3.8147e-06
25 1 0.00148127 0.0946431 0.593597 0 0.00018692 1.90735e-06
26 1 0.501482 0.094643 0.593597 0 0.000202179 0
27 1 0.260536 0.0463199 0.0935972 0 0.000150681 1.90735e-06
28 1 0.760536 0.0463197 0.093597 0 0.000156403 0
29 1 0.228707 0.216197 0.593597 0 0.000102997 7.62939e-06
30 1 0.728707 0.216197 0.593597 0 9.72748e-05 5.72205e-06
31 1 0.9868 0.173002 0.0935972 0 -0.000217438 -3.8147e-06
32 1 0.4868 0.173002 0.0935969 0 -0.000219345 -1.90735e-06
ITEM: TIMESTEP
9
ITEM: NUMBER OF ATOMS
32
ITEM: BOX BOUNDS xy xz yz pp pp pp
-4.7826766967773438e-03 7.5992063879966736e+00 1.1998746991157532e+00
-3.7661075592041016e-02 2.2120539069175720e+01 0.0000000000000000e+00
-1.1393904685974121e-02 5.1938598752021790e+00 0.0000000000000000e+00
ITEM: ATOMS id type xs ys zs fx fy fz
1 1 0.955728 0.338841 0.593597 0 -1.71661e-05 9.53674e-06
2 1 0.455729 0.338841 0.593597 0 -2.28882e-05 7.62939e-06
3 1 0.213463 0.297563 0.0935978 0 -0.000135422 -1.52588e-05
4 1 0.713463 0.297563 0.0935971 0 -0.000135422 -7.62939e-06
5 1 0.182664 0.461944 0.593597 0 -0.000244141 5.72205e-06
6 1 0.682664 0.461944 0.593597 0 -0.000242233 7.62939e-06
7 1 0.940289 0.421248 0.0935975 0 0.000198364 -9.53674e-06
8 1 0.440289 0.421248 0.0935979 0 0.000204086 -1.14441e-05
9 1 0.909547 0.585327 0.593597 0 -0.000213623 3.8147e-06
10 1 0.409547 0.585327 0.593597 0 -0.000213623 3.8147e-06
11 1 0.136374 0.709011 0.593597 0 0.000127792 5.72205e-06
12 1 0.636374 0.709011 0.593597 0 0.000135422 9.53674e-06
13 1 0.894107 0.667733 0.0935969 0 2.86102e-05 -3.8147e-06
14 1 0.167172 0.54463 0.0935972 0 0.000246048 -1.90735e-06
15 1 0.667172 0.54463 0.0935972 0 0.00025177 -3.8147e-06
16 1 0.394108 0.667733 0.093597 0 4.19617e-05 -5.72205e-06
17 1 0.863036 0.833572 0.593597 0 0.000221252 3.8147e-06
18 1 0.363036 0.833572 0.593597 0 0.000221252 7.62939e-06
19 1 0.0893007 0.960255 0.593597 0 -0.000152588 0
20 1 0.589301 0.960255 0.593597 0 -0.000154495 1.90735e-06
21 1 0.121129 0.790377 0.0935972 0 -0.000104904 -1.90735e-06
22 1 0.621129 0.790377 0.0935974 0 -0.000108719 -7.62939e-06
23 1 0.848354 0.911931 0.0935973 0 -0.00019455 -5.72205e-06
24 1 0.348355 0.911931 0.093597 0 -0.000196457 -3.8147e-06
25 1 0.00148127 0.0946431 0.593597 0 0.00018692 1.90735e-06
26 1 0.501482 0.094643 0.593597 0 0.000202179 0
27 1 0.260536 0.0463199 0.0935972 0 0.000150681 1.90735e-06
28 1 0.760536 0.0463197 0.093597 0 0.000156403 0
29 1 0.228707 0.216197 0.593597 0 0.000102997 7.62939e-06
30 1 0.728707 0.216197 0.593597 0 9.72748e-05 5.72205e-06
31 1 0.9868 0.173002 0.0935972 0 -0.000217438 -3.8147e-06
32 1 0.4868 0.173002 0.0935969 0 -0.000219345 -1.90735e-06
