LAMMPS data file via write_data, version 4 May 2022, timestep = 62

32 atoms
3 atom types

-0.0024071335792541504 6.3992393016815186 xlo xhi
-0.00916212797164917 5.529593288898468 ylo yhi
0.05496615171432495 20.670420289039612 zlo zhi
0 0 4.838394127786159 xy xz yz
Masses

1 24.305
2 65.40900000000001
3 88.90600000000001

Atoms # atomic

1 1 6.399149686473813 3.681244266046901 1.2868357215063375 0 0 0
2 1 3.198326462738437 3.6812442644798593 1.286835723244086 0 0 0
3 1 1.5979148574107926 0.9118677224310681 1.2867967213008098 0 0 0
4 1 4.7987380705307965 0.9118677222208733 1.2867967246088903 0 0 0
5 1 6.399149681582715 3.681314101251276 6.440798553817973 0 0 0
6 1 1.5979148573387931 2.7623559163168836 3.863864117821231 0 0 0
7 1 4.7987380704660865 2.7623559144566046 3.8638641201659314 0 0 0
8 1 3.19832646563122 3.6813140948843013 6.440798555336116 0 0 0
9 1 6.399149680547004 -0.007019204879786691 3.8638315038025053 0 0 0
10 1 1.5979148556820162 0.9119299010487737 6.4407701469775755 0 0 0
11 1 3.198326465494517 -0.007019200513904056 3.8638315034567077 0 0 0
12 1 4.798738070950447 0.9119298987038635 6.4407701469775755 0 0 0
13 1 6.39914968000406 3.6812147918068194 11.594415468259687 0 0 0
14 1 3.1983264660374604 3.6812147913280784 11.594415468878744 0 0 0
15 1 1.597914857682826 0.911841613383802 11.594418553756183 0 0 0
16 1 4.798738071294478 0.9118416098664371 11.594418554928534 0 0 0
17 1 1.5979148576803277 2.762371403830324 9.017623489156891 0 0 0
18 1 4.798738073295287 2.762371401964151 9.017623487984544 0 0 0
19 1 6.3991496826954295 -0.007000999393232384 9.017625896736371 0 0 0
20 1 3.1983264660374604 -0.007000996982204226 9.017625897372222 0 0 0
21 1 6.399149684064266 3.681177375421859 16.74818787504849 0 0 0
22 1 1.597914855130657 2.762257911094835 14.17126152120849 0 0 0
23 1 3.1983264639755635 3.6811773737584157 16.74818787401297 0 0 0
24 1 4.798738074193178 2.7622579105407166 14.171261520036136 0 0 0
25 1 6.399149681582715 -0.0071248053019539025 14.171240519733242 0 0 0
26 1 1.5979148571289685 0.9118016467772512 16.748169806638366 0 0 0
27 1 4.798738073020756 0.911801648374876 16.74816980477441 0 0 0
28 1 3.1983264644587983 -0.007124805975447545 14.17124051812617 0 0 0
29 1 1.597914857200967 2.76227899343846 19.325215782675034 0 0 0
30 1 4.798738070813743 2.762278996687282 19.32521578336662 0 0 0
31 1 6.399149685721041 -0.007103326534873621 19.32518644963686 0 0 0
32 1 3.198326462665317 -0.00710332328039983 19.325186447553335 0 0 0

Velocities

1 0 0 0
2 0 0 0
3 0 0 0
4 0 0 0
5 0 0 0
6 0 0 0
7 0 0 0
8 0 0 0
9 0 0 0
10 0 0 0
11 0 0 0
12 0 0 0
13 0 0 0
14 0 0 0
15 0 0 0
16 0 0 0
17 0 0 0
18 0 0 0
19 0 0 0
20 0 0 0
21 0 0 0
22 0 0 0
23 0 0 0
24 0 0 0
25 0 0 0
26 0 0 0
27 0 0 0
28 0 0 0
29 0 0 0
30 0 0 0
31 0 0 0
32 0 0 0
