LAMMPS (4 May 2022)
## variable
variable        temp            equal 666
variable        eql_step        equal 500000
variable        rd_seed         equal 1

variable        temp_damp       equal 0.2 # tau_NVT = timestep * 100
variable        t_step          equal 0.002
variable        rlx_step        equal 20000

variable        thermo_freq     equal 100
variable        dump_freq       equal 100

## units
dimension       3
boundary        p p p
units           metal
atom_style      atomic
neighbor        1.0 bin
neigh_modify    every 10 delay 0 check no

## data.lmp, potential
read_data       data.lmp
Reading data file ...
  orthogonal box = (0 0 0) to (26.38965 26.38965 25.40376)
  1 by 1 by 1 MPI processor grid
  reading atoms ...
  900 atoms
  read_data CPU = 0.002 seconds
pair_style      mdpu model.pb
pair_coeff * *

## velocity, timestep
velocity        all create ${temp} ${rd_seed} loop geom
velocity        all create 666 ${rd_seed} loop geom
velocity        all create 666 1 loop geom
timestep        ${t_step}
timestep        0.002

## nvt-relax
fix             equil all nvt temp ${temp} ${temp} ${temp_damp}
fix             equil all nvt temp 666 ${temp} ${temp_damp}
fix             equil all nvt temp 666 666 ${temp_damp}
fix             equil all nvt temp 666 666 0.2
run             ${rlx_step}
run             20000
Generated 0 of 6 mixed pair_coeff terms from geometric mixing rule
Neighbor list info ...
  update every 10 steps, delay 0 steps, check no
  max neighbors/atom: 2000, page size: 100000
  master list distance cutoff = 8
  ghost atom cutoff = 8
  binsize = 4, bins = 7 7 7
  1 neighbor lists, perpetual/occasional/extra = 1 0 0
  (1) pair mdpu, perpetual
      attributes: full, newton on
      pair build: full/bin/atomonly
      stencil: full/bin/3d
      bin: standard
Per MPI rank memory allocation (min/avg/max) = 3.057 | 3.057 | 3.057 Mbytes
   Step          Temp          E_pair         E_mol          TotEng         Press     
         0   666            199.06477      0              276.45721      10130.905    
     20000   654.76134      274.16182      0              350.24827      12254.345    
Loop time of 12.1118 on 1 procs for 20000 steps with 900 atoms

Performance: 285.342 ns/day, 0.084 hours/ns, 1651.288 timesteps/s
53.9% CPU use with 1 MPI tasks x no OpenMP threads

MPI task timing breakdown:
Section |  min time  |  avg time  |  max time  |%varavg| %total
---------------------------------------------------------------
Pair    | 7.7047     | 7.7047     | 7.7047     |   0.0 | 63.61
Neigh   | 4.1165     | 4.1165     | 4.1165     |   0.0 | 33.99
Comm    | 0.139      | 0.139      | 0.139      |   0.0 |  1.15
Output  | 1.5635e-05 | 1.5635e-05 | 1.5635e-05 |   0.0 |  0.00
Modify  | 0.12784    | 0.12784    | 0.12784    |   0.0 |  1.06
Other   |            | 0.02366    |            |       |  0.20

Nlocal:            900 ave         900 max         900 min
Histogram: 1 0 0 0 0 0 0 0 0 0
Nghost:           2795 ave        2795 max        2795 min
Histogram: 1 0 0 0 0 0 0 0 0 0
Neighs:              0 ave           0 max           0 min
Histogram: 1 0 0 0 0 0 0 0 0 0
FullNghs:        97954 ave       97954 max       97954 min
Histogram: 1 0 0 0 0 0 0 0 0 0

Total # of neighbors = 97954
Ave neighs/atom = 108.83778
Neighbor list builds = 2000
Dangerous builds not checked
unfix           equil

## nvt-equal
reset_timestep  0
fix             equil all nvt temp ${temp} ${temp} ${temp_damp}
fix             equil all nvt temp 666 ${temp} ${temp_damp}
fix             equil all nvt temp 666 666 ${temp_damp}
fix             equil all nvt temp 666 666 0.2
fix             com all recenter INIT INIT INIT

## thermo_style
thermo_style    custom step time temp ke etotal press
thermo          ${thermo_freq}
thermo          100
thermo_modify   flush yes
dump            1 all custom ${dump_freq} dump.lammpstraj id type x y z
dump            1 all custom 100 dump.lammpstraj id type x y z
run             500000
Generated 0 of 6 mixed pair_coeff terms from geometric mixing rule
Per MPI rank memory allocation (min/avg/max) = 4.341 | 4.341 | 4.341 Mbytes
   Step          Time           Temp          KinEng         TotEng         Press     
         0   0              654.76134      76.086456      350.24827      12254.345    
       100   0.2            668.84213      77.722713      350.93516      12227.621    
       200   0.4            685.91704      79.7069        354.74888      11597.405    
       300   0.6            708.73189      82.358098      358.59654      15389.723    
       400   0.8            691.00084      80.297663      355.37506      13221.847    
       500   1              667.28348      77.54159       352.28708      15102.087    
       600   1.2            656.45433      76.283191      350.6701       14964.108    
       700   1.4            636.33543      73.945277      348.93087      14816.564    
       800   1.6            688.04088      79.953701      349.38373      16926.911    
       900   1.8            671.87156      78.074747      352.20786      13151.669    
      1000   2              700.77092      81.432994      355.6671       15761.56     
      1100   2.2            683.5291       79.429411      354.40347      15554.689    
      1200   2.4            665.65912      77.352831      349.04162      14203.029    
      1300   2.6            655.85572      76.213628      347.91554      15868.423    
      1400   2.8            648.40708      75.348061      348.75554      14177.36     
      1500   3              686.88979      79.819939      351.68999      14020.749    
      1600   3.2            683.71073      79.450517      353.40061      15654.553    
      1700   3.4            677.09573      78.681822      353.78019      13721.35     
      1800   3.6            697.25163      81.024035      351.62231      11738.596    
      1900   3.8            630.25331      73.238504      347.97659      14092.724    
      2000   4              659.62639      76.651799      347.80694      12853.76     
      2100   4.2            650.98624      75.647772      350.61491      14536.541    
      2200   4.4            691.87654      80.399424      355.14828      13535.569    
      2300   4.6            702.69955      81.65711       356.12676      14216.378    
      2400   4.8            678.69938      78.868173      353.94852      15662.562    
      2500   5              669.28048      77.773651      352.11874      12554.453    
      2600   5.2            686.47654      79.771917      351.60428      11927.034    
      2700   5.4            674.68879      78.402124      351.51987      12914.933    
      2800   5.6            661.158        76.82978       350.5849       12097.341    
      2900   5.8            657.1805       76.367575      347.5325       11531.83     
      3000   6              656.24333      76.258671      344.98245      12330.126    
      3100   6.2            632.95142      73.552037      346.64464      12100.094    
      3200   6.4            663.3363       77.082909      351.97311      13605.998    
      3300   6.6            690.76907      80.27073       352.73146      14554.62     
      3400   6.8            641.19374      74.509835      350.54859      14702.85     
      3500   7              658.48706      76.519404      348.33347      13066.412    
      3600   7.2            633.68939      73.637793      344.26422      13268.151    
      3700   7.4            647.90548      75.289773      343.43314      15076.195    
      3800   7.6            658.68866      76.54283       350.1969       15308.843    
      3900   7.8            675.33748      78.477504      352.81943      14031.203    
      4000   8              686.04518      79.721791      353.45759      15079.59     
      4100   8.2            690.60764      80.251972      350.36736      14265.16     
      4200   8.4            642.84056      74.701204      346.72984      13712.848    
      4300   8.6            673.21119      78.230419      347.85848      15257.494    
      4400   8.8            656.57067      76.29671       350.0959       13454.042    
      4500   9              697.73796      81.080549      352.52264      14013.423    
      4600   9.2            713.32918      82.892325      351.89532      12811.659    
      4700   9.4            653.70302      75.963474      351.01965      10842.554    
      4800   9.6            671.30768      78.009222      350.27736      14639.867    
      4900   9.8            664.41743      77.208541      348.572        13245.404    
      5000   10             664.04546      77.165316      347.80661      13397.5      
      5100   10.2           655.81357      76.20873       348.67785      14556.361    
      5200   10.4           655.84486      76.212367      352.65931      13602.871    
      5300   10.6           660.94884      76.805474      355.19057      13625.469    
      5400   10.8           662.52982      76.989192      352.66097      12945.739    
      5500   11             652.91873      75.872337      349.02096      14275.264    
      5600   11.2           663.9678       77.156292      348.74988      12368.58     
      5700   11.4           685.77939      79.690905      350.37216      14101.36     
      5800   11.6           685.16109      79.619056      351.80459      15442.352    
      5900   11.8           692.72476      80.49799       352.72817      13552.437    
      6000   12             682.70102      79.333183      353.87541      15941.006    
      6100   12.2           677.56148      78.735944      352.50249      13380.464    
      6200   12.4           660.02657      76.698303      348.30358      12724.284    
      6300   12.6           671.87748      78.075436      347.17377      12695.996    
      6400   12.8           667.45355      77.561353      349.87537      13434.001    
      6500   13             669.80248      77.834311      354.91776      13821.93     
      6600   13.2           694.70391      80.727978      354.77307      12928.281    
      6700   13.4           684.63975      79.558473      352.3097       15480.561    
      6800   13.6           661.37367      76.854842      350.09451      12102.615    
      6900   13.8           657.09564      76.357713      349.39808      11669.33     
      7000   14             680.44469      79.070986      351.90401      14782.451    
      7100   14.2           712.81437      82.832501      356.90278      15889.132    
      7200   14.4           691.92074      80.40456       356.15058      15486.162    
      7300   14.6           679.75877      78.99128       351.57124      16650.911    
      7400   14.8           686.98209      79.830665      349.64973      14790.199    
      7500   15             662.3096       76.963601      349.34724      14118.067    
      7600   15.2           667.6568       77.584972      350.10999      13631.999    
      7700   15.4           686.47273      79.771475      353.66707      16156.799    
      7800   15.6           706.04768      82.046179      356.22034      14804.883    
      7900   15.8           688.25244      79.978286      352.94698      13553.035    
      8000   16             680.65417      79.09533       348.34907      12900.271    
      8100   16.2           655.06311      76.121524      348.40954      16071.08     
      8200   16.4           664.56979      77.226247      350.99789      14219.38     
      8300   16.6           679.97345      79.016226      353.79658      14489.241    
      8400   16.8           647.79357      75.276767      355.15388      14718.668    
      8500   17             664.0414       77.164844      350.49375      14987.447    
      8600   17.2           623.0639       72.40306       346.79069      14952.375    
      8700   17.4           653.28031      75.914354      348.5302       13483.339    
      8800   17.6           660.13742      76.711183      352.28514      13840.303    
      8900   17.8           682.80288      79.34502       353.99334      15272.076    
      9000   18             682.12554      79.26631       352.43238      13807.673    
      9100   18.2           678.09371      78.797792      350.62836      15158.08     
      9200   18.4           699.0577       81.23391       350.22237      15058.733    
      9300   18.6           679.83372      78.999989      350.89688      12570.43     
      9400   18.8           665.10471      77.288406      351.33003      16204.376    
      9500   19             648.43299      75.351072      350.13052      15556.434    
      9600   19.2           656.12867      76.245347      347.27527      14082.611    
      9700   19.4           629.46069      73.146398      345.85182      15046.003    
      9800   19.6           671.12017      77.987432      350.00855      14855.955    
      9900   19.8           675.15545      78.456351      353.67339      13826.359    
     10000   20             681.99692      79.251364      353.52091      13679.522    
     10100   20.2           659.8938       76.682873      350.69245      16563.743    
     10200   20.4           639.89805      74.35927       347.45972      12191.174    
     10300   20.6           628.33551      73.015647      344.63021      12741.358    
     10400   20.8           649.00486      75.417525      345.89645      13751.041    
     10500   21             654.42805      76.047727      351.28599      12569.214    
     10600   21.2           685.52689      79.661564      354.00681      13773.648    
     10700   21.4           681.83883      79.232993      354.24396      14413.677    
     10800   21.6           677.70703      78.752858      351.10679      14873.405    
     10900   21.8           655.34937      76.154788      347.21566      15434.959    
     11000   22             659.13541      76.594745      347.75902      13466.8      
     11100   22.2           675.43041      78.488304      349.86569      15172.099    
     11200   22.4           669.8737       77.842586      350.86039      14990.177    
     11300   22.6           668.32971      77.663167      350.99938      13361.664    
     11400   22.8           667.47316      77.563632      350.87807      15648.395    
     11500   23             675.67875      78.517161      351.22613      16664.43     
     11600   23.2           679.02107      78.905555      352.4171       14339.32     
     11700   23.4           664.33062      77.198454      353.20839      15182.821    
     11800   23.6           687.20993      79.85714       350.77579      14221.702    
     11900   23.8           649.74524      75.503561      347.3446       14435.831    
     12000   24             659.96585      76.691246      347.36586      12022.952    
     12100   24.2           678.5579       78.851732      352.56815      12716.491    
     12200   24.4           687.31786      79.869683      355.22049      14238.743    
     12300   24.6           667.88359      77.611325      353.3126       12477.662    
     12400   24.8           663.14298      77.060444      350.43852      15470.371    
     12500   25             667.85         77.607423      350.40705      12639.217    
     12600   25.2           682.03349      79.255613      353.45285      14835.927    
     12700   25.4           726.63096      84.438056      358.69077      15280.323    
     12800   25.6           664.67717      77.238724      355.72346      13180.54     
     12900   25.8           667.52549      77.569713      352.73345      14569.597    
     13000   26             664.20553      77.183917      349.98928      13582.484    
     13100   26.2           652.73367      75.850832      348.88419      13588.659    
     13200   26.4           661.23511      76.83874       350.70105      9200.2283    
     13300   26.6           680.84027      79.116955      355.17364      14671.725    
     13400   26.8           689.57789      80.132309      357.35682      15727.388    
     13500   27             672.95613      78.20078       352.95934      12064.717    
     13600   27.2           632.231        73.468322      348.34554      14148.084    
     13700   27.4           653.19381      75.904302      348.89956      14441.529    
     13800   27.6           709.97458      82.502504      350.88921      11165.019    
     13900   27.8           703.96036      81.803623      353.51432      15100.143    
     14000   28             683.60194      79.437875      353.32359      14728.418    
     14100   28.2           661.98123      76.925443      348.46479      11602.669    
     14200   28.4           652.60125      75.835444      346.78754      11774.425    
     14300   28.6           644.44494      74.88764       348.92704      14105.239    
     14400   28.8           689.95067      80.175628      352.98691      13504.723    
     14500   29             667.76544      77.597597      353.02806      12610.879    
     14600   29.2           685.9282       79.708198      352.06078      13393.911    
     14700   29.4           679.80647      78.996823      350.95193      13469.063    
     14800   29.6           628.50816      73.03571       348.02758      12076.08     
     14900   29.8           659.33818      76.618308      345.77199      12826.741    
     15000   30             631.30118      73.360272      348.72514      15833.59     
     15100   30.2           699.23494      81.254506      353.16659      12935.117    
     15200   30.4           692.33801      80.453049      352.93031      13877.429    
     15300   30.6           672.44708      78.141626      350.80387      13953.708    
     15400   30.8           652.52859      75.827         346.99027      13079.358    
     15500   31             637.90451      74.12761       344.25663      14926.426    
     15600   31.2           642.11001      74.616311      346.28192      13067.482    
     15700   31.4           693.31776      80.5669        352.28044      15046.044    
     15800   31.6           663.86149      77.143939      354.1594       14724.516    
     15900   31.8           679.70435      78.984956      353.92311      15214.643    
     16000   32             652.14896      75.782886      351.05545      16031.974    
     16100   32.2           682.00653      79.25248       347.42745      13708.726    
     16200   32.4           655.00606      76.114894      345.92593      13307.022    
     16300   32.6           679.0804       78.91245       349.92962      17443.62     
     16400   32.8           677.88849      78.773944      354.11071      13671.486    
     16500   33             691.97179      80.410492      352.46621      14624.65     
     16600   33.2           668.87428      77.726449      348.62291      12790.11     
     16700   33.4           691.06336      80.304928      347.41542      13494.51     
     16800   33.6           665.84302      77.374202      347.91318      14176.189    
     16900   33.8           676.91474      78.66079       349.48957      13759.682    
     17000   34             657.60193      76.416547      349.65954      13136.47     
     17100   34.2           654.30154      76.033025      349.77041      14967.026    
     17200   34.4           671.02399      77.976255      352.23696      15091.892    
     17300   34.6           668.66936      77.702636      354.869        13546.476    
     17400   34.8           678.97257      78.89992       355.15533      15832.168    
     17500   35             665.63108      77.349574      349.99548      13834.108    
     17600   35.2           645.48363      75.008342      347.02682      13751.32     
     17700   35.4           672.26502      78.12047       348.12939      13237.514    
     17800   35.6           673.88638      78.308879      352.1786       14014.579    
     17900   35.8           679.78756      78.994625      354.34952      14336.484    
     18000   36             687.69322      79.913301      352.98242      15755.625    
     18100   36.2           673.39704      78.252015      351.59384      12446.224    
     18200   36.4           669.29373      77.775191      350.29252      15911.684    
     18300   36.6           675.42222      78.487352      349.93861      13398.512    
     18400   36.8           660.69131      76.775548      348.99356      13255.093    
     18500   37             667.91779      77.6153        347.60508      14006.017    
     18600   37.2           672.586        78.157769      348.46601      14240.862    
     18700   37.4           648.98226      75.414899      352.19359      10879.978    
     18800   37.6           674.00843      78.323062      354.69131      14599.457    
     18900   37.8           674.56876      78.388175      353.19296      12721.972    
     19000   38             648.54108      75.363632      347.72505      13563.656    
     19100   38.2           663.17895      77.064624      347.40759      13400.677    
     19200   38.4           663.26113      77.074174      349.1666       13123.953    
     19300   38.6           643.38226      74.764152      351.41701      13490.324    
     19400   38.8           674.05414      78.328374      354.17589      14792.784    
     19500   39             703.10217      81.703897      357.66831      15897.382    
     19600   39.2           706.69841      82.121797      358.69774      12551.384    
     19700   39.4           692.54698      80.477332      352.91837      16928.203    
     19800   39.6           644.01631      74.837832      349.77413      12503.174    
     19900   39.8           651.45374      75.702097      347.9265       14519.089    
     20000   40             683.08079      79.377315      347.66188      13944.064    
     20100   40.2           676.50515      78.613194      350.95915      13287.165    
     20200   40.4           679.22005      78.928678      355.08544      13420.134    
     20300   40.6           679.48843      78.959865      354.61563      13583.987    
     20400   40.8           663.02732      77.047004      351.27617      12492.613    
     20500   41             634.82573      73.769842      346.67615      12621.242    
     20600   41.2           643.44055      74.770926      347.25288      12696.761    
     20700   41.4           673.92171      78.312985      350.46413      15588.52     
     20800   41.6           676.83964      78.652062      352.13416      11939.037    
     20900   41.8           665.35528      77.317524      350.38439      14194.417    
     21000   42             651.83313      75.746184      345.8589       13909.987    
     21100   42.2           638.27312      74.170445      343.53943      13471.084    
     21200   42.4           670.53942      77.919947      349.19138      15067.518    
     21300   42.6           664.65987      77.236714      352.31253      12831.048    
     21400   42.8           673.41127      78.25367       352.70065      15328.863    
     21500   43             678.67093      78.864867      350.79653      13028.515    
     21600   43.2           684.02283      79.486785      347.94454      11661.678    
     21700   43.4           661.58708      76.879641      346.73625      12737.218    
     21800   43.6           661.19721      76.834337      350.39716      16703.677    
     21900   43.8           667.34201      77.548392      354.49199      14121.979    
     22000   44             690.73423      80.266682      353.57221      14279.788    
     22100   44.2           673.56853      78.271944      349.76047      15341.023    
     22200   44.4           663.1598       77.062398      347.88421      12960.583    
     22300   44.6           662.80972      77.021717      348.63252      14850.071    
     22400   44.8           658.68404      76.542293      350.4081       14650.146    
     22500   45             673.0282       78.209155      351.71154      15089.52     
     22600   45.2           682.95595      79.362808      351.27877      13411.996    
     22700   45.4           658.44562      76.514588      349.198        14693.672    
     22800   45.6           630.62729      73.281962      343.8291       13141.135    
     22900   45.8           641.26693      74.518341      345.14564      14189.665    
     23000   46             654.541        76.060852      349.83091      14079.606    
     23100   46.2           657.25631      76.376384      351.69392      14832.497    
     23200   46.4           664.29229      77.194         353.0752       15563.368    
     23300   46.6           658.82816      76.55904       353.34326      13318.016    
     23400   46.8           665.15374      77.294104      350.65148      12993.098    
     23500   47             642.09361      74.614405      347.39204      12765.015    
     23600   47.2           673.25487      78.235495      347.78566      13506.15     
     23700   47.4           667.13149      77.523928      352.16881      11817.302    
     23800   47.6           686.52038      79.777011      354.04667      15204.48     
     23900   47.8           688.94189      80.058403      352.87478      13793.257    
     24000   48             681.2361       79.162953      350.68707      13128.382    
     24100   48.2           682.18474      79.273189      350.30452      13464.476    
     24200   48.4           652.56297      75.830996      350.86636      14662.062    
     24300   48.6           693.31702      80.566815      352.912        13873.235    
     24400   48.8           680.35914      79.061046      354.41605      13475.672    
     24500   49             672.75701      78.177642      353.23677      15286.705    
     24600   49.2           685.12783      79.615191      348.41081      12221.617    
     24700   49.4           636.14212      73.922812      347.0689       12057.382    
     24800   49.6           639.39983      74.301375      348.94981      15361.573    
     24900   49.8           714.2541       82.999805      352.01413      16237.181    
     25000   50             689.08067      80.074529      352.66373      15446.51     
     25100   50.2           658.41886      76.511478      351.66104      13645.199    
     25200   50.4           646.98649      75.182982      349.59645      16436.87     
     25300   50.6           632.73642      73.527054      347.4557       15055.904    
     25400   50.8           651.76837      75.738659      345.36003      12052.303    
     25500   51             641.31307      74.523702      345.50239      15208.699    
     25600   51.2           667.55674      77.573345      350.15282      13586.487    
     25700   51.4           677.4478       78.722734      352.66438      13612.339    
     25800   51.6           666.4014       77.439089      351.79734      13503.192    
     25900   51.8           665.91084      77.382083      348.79944      13678.603    
     26000   52             642.23368      74.630681      344.22353      12651.562    
     26100   52.2           647.27562      75.216579      344.03101      12469.087    
     26200   52.4           657.2044       76.370352      351.30846      12513.555    
     26300   52.6           665.81314      77.370729      353.66027      13554.638    
     26400   52.8           683.2001       79.391179      354.08747      16210.701    
     26500   53             680.59032      79.08791       351.38138      12013.089    
     26600   53.2           657.42486      76.395971      348.01463      14634.702    
     26700   53.4           651.86217      75.749559      347.62579      14148.246    
     26800   53.6           685.23304      79.627417      352.80689      13813.096    
     26900   53.8           712.04968      82.743641      355.69412      13648.092    
     27000   54             691.14393      80.314291      353.52899      15628.879    
     27100   54.2           661.49665      76.869133      350.46829      13126.148    
     27200   54.4           653.14929      75.899128      348.98342      13517.281    
     27300   54.6           649.93144      75.525199      349.69421      14448.964    
     27400   54.8           658.27492      76.494751      350.69894      15793.434    
     27500   55             655.86592      76.214814      351.44481      10983.542    
     27600   55.2           718.60063      83.504893      354.46032      13873.922    
     27700   55.4           685.13485      79.616006      354.87581      14601.825    
     27800   55.6           675.736        78.523814      351.38836      15642.328    
     27900   55.8           647.47155      75.239347      347.47149      15751.223    
     28000   56             659.29013      76.612725      347.59402      12591.006    
     28100   56.2           675.02775      78.441512      350.79793      12563.555    
     28200   56.4           695.1306       80.777561      354.78916      16216.539    
     28300   56.6           677.88995      78.774114      354.49752      11191.651    
     28400   56.8           666.10502      77.404648      352.82947      14129.842    
     28500   57             675.12806      78.453169      349.84589      16282.735    
     28600   57.2           635.40629      73.837305      346.89323      12572.498    
     28700   57.4           639.85351      74.354094      347.63104      14944.832    
     28800   57.6           668.74478      77.711401      352.85856      15104.341    
     28900   57.8           670.90562      77.962501      354.97239      17487.215    
     29000   58             640.18637      74.392774      353.12786      13400.336    
     29100   58.2           671.05747      77.980147      351.06034      13000.757    
     29200   58.4           623.77881      72.486135      348.8754       14077.825    
     29300   58.6           642.97158      74.716429      345.21006      14143.798    
     29400   58.8           622.60687      72.349951      341.66861      14186.861    
     29500   59             637.69021      74.102708      345.86217      15460.747    
     29600   59.2           627.01501      72.862197      348.95441      14273.82     
     29700   59.4           675.92178      78.545403      351.65475      13104.967    
     29800   59.6           692.2922       80.447725      353.28243      15844.293    
     29900   59.8           687.92071      79.939737      352.47075      14021.604    
     30000   60             658.94323      76.572412      347.33042      11862.324    
     30100   60.2           632.81117      73.53574       346.39327      14691.681    
     30200   60.4           657.61146      76.417655      349.53495      14037.357    
     30300   60.6           683.91537      79.474297      352.38167      12879.293    
     30400   60.8           674.65373      78.398049      352.70933      15717.456    
     30500   61             663.75039      77.131028      352.75049      15476.505    
     30600   61.2           672.38097      78.133944      350.99425      12262.999    
     30700   61.4           630.8882       73.312282      346.26361      14853.121    
     30800   61.6           639.45135      74.307361      346.08861      12219.678    
     30900   61.8           655.81429      76.208814      350.19926      14395.414    
     31000   62             665.57105      77.342598      352.47436      14665.939    
     31100   62.2           660.3389       76.734596      352.37845      12794.594    
     31200   62.4           665.3963       77.322291      350.51938      13924.763    
     31300   62.6           656.56032      76.295507      347.57804      13243.029    
     31400   62.8           647.44542      75.236311      345.69045      13254.376    
     31500   63             673.50101      78.264097      349.77497      12682.647    
     31600   63.2           684.65046      79.559718      353.6806       13766.207    
     31700   63.4           678.34211      78.826657      353.23349      13683.396    
     31800   63.6           669.31466      77.777624      350.18919      13863.565    
     31900   63.8           641.91228      74.593333      346.77606      14669.755    
     32000   64             633.12046      73.571681      346.97946      13045.66     
     32100   64.2           654.92726      76.105737      349.47262      12707.675    
     32200   64.4           662.99802      77.043599      351.41553      13649.389    
     32300   64.6           677.99485      78.786304      351.21635      12555.477    
     32400   64.8           648.88799      75.403945      349.04623      14375.171    
     32500   65             640.33322      74.409838      347.95995      13652.004    
     32600   65.2           650.49987      75.591253      349.87785      12479.379    
     32700   65.4           663.3435       77.083745      354.49258      15284.688    
     32800   65.6           700.10181      81.35524       355.54713      14750.557    
     32900   65.8           633.79014      73.649502      352.25565      12919.834    
     33000   66             659.66938      76.656794      349.46658      14747.817    
     33100   66.2           649.93223      75.52529       349.7265       14413.421    
     33200   66.4           670.80641      77.950972      351.00215      11942.319    
     33300   66.6           672.18212      78.110837      351.73167      13993.414    
     33400   66.8           671.987        78.088163      352.21246      13576.595    
     33500   67             659.66968      76.656829      351.87999      16057.561    
     33600   67.2           667.83031      77.605134      350.7239       13224.3      
     33700   67.4           664.42863      77.209843      350.09445      12860.499    
     33800   67.6           665.4197       77.32501       350.97446      14267.552    
     33900   67.8           668.3147       77.661423      352.03193      13186.7      
     34000   68             686.51255      79.776102      354.93353      15007.414    
     34100   68.2           672.33999      78.129182      355.25402      13779.788    
     34200   68.4           676.36012      78.59634       350.57813      13915.467    
     34300   68.6           678.06986      78.79502       348.14427      14623.423    
     34400   68.8           648.63662      75.374735      349.16863      15603.896    
     34500   69             679.3844       78.947776      352.15398      14833.044    
     34600   69.2           668.08987      77.635297      355.15533      17339.755    
     34700   69.4           711.12831      82.636573      360.5611       15133.943    
     34800   69.6           711.56599      82.687434      360.61355      14155.169    
     34900   69.8           680.98949      79.134296      354.6088       13645.885    
     35000   70             652.03874      75.770078      351.59158      12983.441    
     35100   70.2           650.15504      75.551182      348.53599      13602.95     
     35200   70.4           669.53587      77.803329      347.41367      15349.469    
     35300   70.6           669.89363      77.844902      349.41474      12662.144    
     35400   70.8           666.25896      77.422536      353.91612      13929.676    
     35500   71             662.89433      77.031549      354.51932      17841.894    
     35600   71.2           675.44816      78.490366      351.78647      14376.552    
     35700   71.4           646.48799      75.125053      346.88154      13832.434    
     35800   71.6           644.82879      74.932246      342.4964       13981.343    
     35900   71.8           646.56878      75.134441      345.65127      14703.722    
     36000   72             668.02618      77.627896      350.36862      13904.017    
     36100   72.2           671.81041      78.067642      353.64447      13969.329    
     36200   72.4           698.8884       81.214236      354.94082      14831.76     
     36300   72.6           665.24067      77.304206      352.49756      12832.156    
     36400   72.8           650.71675      75.616456      348.30637      13964.404    
     36500   73             659.86217      76.679198      348.29128      13849.987    
     36600   73.2           662.2233       76.953572      350.04561      14586.218    
     36700   73.4           661.96789      76.923893      351.60282      14320.938    
     36800   73.6           646.22666      75.094686      352.21752      14811.63     
     36900   73.8           643.25494      74.749356      353.10027      14887.501    
     37000   74             683.30353      79.403198      355.58789      14390.408    
     37100   74.2           669.34833      77.781536      356.21166      15811.181    
     37200   74.4           651.39297      75.695036      351.78541      12220.549    
     37300   74.6           645.49149      75.009255      349.29818      13262.567    
     37400   74.8           650.61235      75.604324      348.5317       14383.161    
     37500   75             658.96038      76.574406      351.83549      13596.156    
     37600   75.2           723.9822       84.130257      356.82194      12098.024    
     37700   75.4           673.60718      78.276435      355.13836      14495.323    
     37800   75.6           674.25749      78.352004      351.5957       11718.579    
     37900   75.8           646.16354      75.087351      349.39037      14779.614    
     38000   76             656.02822      76.233675      350.48985      13823.645    
     38100   76.2           673.2729       78.237591      351.32279      12436.448    
     38200   76.4           661.37794      76.855338      351.2062       16345.172    
     38300   76.6           662.2724       76.959278      351.10662      16644.833    
     38400   76.8           639.34074      74.294508      351.03252      13533.831    
     38500   77             695.04694      80.76784       351.06368      14794.418    
     38600   77.2           669.19034      77.763177      350.58965      14461.701    
     38700   77.4           656.15847      76.24881       349.22315      13085.39     
     38800   77.6           649.90368      75.521973      348.02679      12960.958    
     38900   77.8           634.80388      73.767302      348.12279      14923.715    
     39000   78             652.53504      75.82775       352.20975      12473.439    
     39100   78.2           691.24883      80.32648       354.4138       15938.651    
     39200   78.4           661.78823      76.903016      351.93525      15802.237    
     39300   78.6           655.63626      76.188127      347.89872      13231.114    
     39400   78.8           671.24317      78.001725      348.02539      14632.728    
     39500   79             657.02159      76.349109      349.66222      14302.659    
     39600   79.2           675.57219      78.504779      351.71419      11319.652    
     39700   79.4           687.98902      79.947675      354.76953      13818.714    
     39800   79.6           675.83263      78.535043      358.41895      16055.245    
     39900   79.8           699.74736      81.314052      361.02476      13609.856    
     40000   80             697.28271      81.027646      355.28779      14783.368    
     40100   80.2           669.64025      77.815459      351.64517      14059.839    
     40200   80.4           664.88492      77.262866      349.14399      13622.359    
     40300   80.6           667.29788      77.543263      347.68043      13898.818    
     40400   80.8           677.03373      78.674617      349.13331      12091.683    
     40500   81             663.27938      77.076295      353.91766      14460.623    
     40600   81.2           680.41493      79.067529      355.12953      16188.496    
     40700   81.4           688.35761      79.990507      352.21868      12551.455    
     40800   81.6           642.82277      74.699137      347.36415      12472.356    
     40900   81.8           646.02186      75.070886      348.18804      12713.333    
     41000   82             649.2624       75.447453      351.39264      13879.778    
     41100   82.2           672.03681      78.093951      353.64813      16675.79     
     41200   82.4           653.07742      75.890777      353.0967       15054.397    
     41300   82.6           652.06601      75.773246      347.57342      15948.916    
     41400   82.8           661.0283       76.814708      346.01758      15567.193    
     41500   83             635.48644      73.84662       348.12929      15192.565    
     41600   83.2           648.46737      75.355067      351.25824      15323.721    
     41700   83.4           668.66031      77.701585      352.28861      15569.27     
     41800   83.6           667.27294      77.540365      352.18142      16073.518    
     41900   83.8           682.71174      79.33443       352.43595      14520.288    
     42000   84             645.46187      75.005813      348.64312      14850.095    
     42100   84.2           655.19301      76.136619      345.34573      14847.298    
     42200   84.4           668.46713      77.679136      347.72935      15086.306    
     42300   84.6           671.20658      77.997473      351.04012      15782.491    
     42400   84.8           684.79278      79.576256      352.08102      14645.524    
     42500   85             674.50905      78.381237      350.92399      15063.085    
     42600   85.2           652.8184       75.860677      349.55939      15236.371    
     42700   85.4           658.81712      76.557758      349.45817      12134.627    
     42800   85.6           690.19729      80.204287      352.91793      15708.154    
     42900   85.8           698.25755      81.140928      356.30208      13182.2      
     43000   86             674.40158      78.368749      354.24369      15484.498    
     43100   86.2           653.19422      75.90435       349.46046      15123.133    
     43200   86.4           674.04494      78.327305      348.25407      12446.479    
     43300   86.6           646.66205      75.14528       348.99288      13126.2      
     43400   86.8           674.52718      78.383344      352.08938      14545.5      
     43500   87             685.32568      79.638181      356.50629      14599.695    
     43600   87.2           696.36418      80.920909      359.08144      15774.688    
     43700   87.4           690.71057      80.263932      354.83591      15807.145    
     43800   87.6           649.91086      75.522807      349.66619      15100.857    
     43900   87.8           635.94947      73.900425      347.78781      14140.27     
     44000   88             646.1612       75.087078      349.80435      14806.926    
     44100   88.2           680.42429      79.068616      353.87452      14408.965    
     44200   88.4           679.85399      79.002345      354.69478      14193.757    
     44300   88.6           665.4932       77.33355       352.19742      15163.834    
     44400   88.8           681.22687      79.16188       350.80163      13244.809    
     44500   89             640.69508      74.451888      350.5134       13348.31     
     44600   89.2           673.31914      78.242963      351.77805      15097.34     
     44700   89.4           669.7061       77.823111      351.94567      13910.756    
     44800   89.6           675.25587      78.46802       348.94455      12608.329    
     44900   89.8           632.2605       73.471749      345.35936      13024.626    
     45000   90             677.41212      78.718587      347.19925      12977.978    
     45100   90.2           688.19286      79.971362      351.45555      14455.698    
     45200   90.4           684.70289      79.56581       352.52447      13703.266    
     45300   90.6           663.5543       77.108241      351.61199      13739.953    
     45400   90.8           670.02376      77.860024      350.33847      14793.362    
     45500   91             639.1273       74.269706      347.28791      14744        
     45600   91.2           613.48377      71.289802      343.64999      12638.105    
     45700   91.4           635.77544      73.880202      345.52804      14339.876    
     45800   91.6           665.91711      77.382812      351.2777       14421.111    
     45900   91.8           681.23124      79.162388      352.79247      12363.012    
     46000   92             685.5863       79.668467      353.42729      13288.209    
     46100   92.2           669.01772      77.743118      351.50272      13298.451    
     46200   92.4           633.87193      73.659006      347.21779      14197.006    
     46300   92.6           658.20172      76.486246      346.76279      12937.75     
     46400   92.8           678.7572       78.874893      350.77504      13599.911    
     46500   93             692.0859       80.423752      354.67377      14515.348    
     46600   93.2           680.99476      79.134908      353.91955      12548.466    
     46700   93.4           688.97863      80.062672      350.82406      15659.492    
     46800   93.6           654.93326      76.106435      348.13871      16050.461    
     46900   93.8           652.46314      75.819395      348.53485      12694.536    
     47000   94             680.49562      79.076905      353.66733      15299.453    
     47100   94.2           686.36728      79.759221      356.44191      14631.781    
     47200   94.4           663.89481      77.14781       353.56069      13719.821    
     47300   94.6           653.18325      75.903075      350.5555       15922.017    
     47400   94.8           669.70606      77.823106      349.45156      15716.622    
     47500   95             629.46164      73.146508      349.64778      14062.892    
     47600   95.2           688.77186      80.038645      352.95618      14506.879    
     47700   95.4           697.3482       81.035257      359.0379       15911.63     
     47800   95.6           702.88391      81.678534      357.15917      15352.109    
     47900   95.8           660.97102      76.808052      353.06811      13018.094    
     48000   96             666.83861      77.489894      350.13824      14672.134    
     48100   96.2           658.05227      76.468878      347.96626      16191.794    
     48200   96.4           654.6308       76.071287      347.88254      13126.95     
     48300   96.6           676.60173      78.624416      353.27014      11646.154    
     48400   96.8           683.18125      79.388988      355.88003      14001.601    
     48500   97             687.14799      79.849943      354.07017      14503.728    
     48600   97.2           677.06259      78.67797       350.9548       14712.841    
     48700   97.4           684.66252      79.561119      349.74243      13270.968    
     48800   97.6           662.31259      76.963949      348.93689      16515.952    
     48900   97.8           662.7476       77.014499      349.60845      12919.093    
     49000   98             661.02956      76.814855      351.07129      14842.364    
     49100   98.2           687.00077      79.832835      357.18677      16773.641    
     49200   98.4           696.48341      80.934764      358.67059      13574.478    
     49300   98.6           669.54705      77.804628      355.05347      15639.77     
     49400   98.8           671.626        78.046213      351.4565       13749.31     
     49500   99             646.54118      75.131234      348.8447       13381.251    
     49600   99.2           658.35131      76.503629      348.35492      14747.439    
     49700   99.4           682.38471      79.296426      350.51835      13787.446    
     49800   99.6           686.79408      79.808818      356.57027      12196.06     
     49900   99.8           701.04436      81.464769      355.52225      17546.936    
     50000   100            671.12021      77.987437      351.54581      13566.189    
     50100   100.2          659.5782       76.6462        349.51334      15653.381    
     50200   100.4          672.11503      78.10304       348.92415      14947.265    
     50300   100.6          664.94947      77.270367      349.27997      14579.9      
     50400   100.8          667.46931      77.563185      351.13966      14363.388    
     50500   101            662.03933      76.932195      353.51859      15202.526    
     50600   101.2          686.01446      79.718222      353.07731      16687.382    
     50700   101.4          655.88898      76.217494      348.75087      15080.747    
     50800   101.6          630.20269      73.232622      346.1702       15491.201    
     50900   101.8          658.74992      76.549949      347.15544      16709.57     
     51000   102            647.9405       75.293842      349.80018      15175.382    
     51100   102.2          676.75121      78.641787      351.29049      17635.275    
     51200   102.4          674.06561      78.329707      351.19252      13786.948    
     51300   102.6          650.91252      75.639205      350.81012      15289.255    
     51400   102.8          665.99317      77.39165       349.41701      16451.899    
     51500   103            658.45296      76.515441      346.59173      14273.938    
     51600   103.2          620.67153      72.125055      347.21021      14093.647    
     51700   103.4          686.61999      79.788587      352.18816      12049.033    
     51800   103.6          672.86727      78.190453      353.40664      15513.634    
     51900   103.8          680.71681      79.102609      352.36864      11471.867    
     52000   104            654.15607      76.016121      348.73292      13232.926    
     52100   104.2          644.76761      74.925137      344.55802      12848.295    
     52200   104.4          627.27367      72.892256      345.74944      13166.442    
     52300   104.6          658.02925      76.466204      352.11022      13887.131    
     52400   104.8          668.05745      77.63153       353.97569      15463.151    
     52500   105            686.55568      79.781114      352.49422      13466.08     
     52600   105.2          660.73328      76.780425      348.98646      12854.201    
     52700   105.4          652.73975      75.851538      347.38623      14100.145    
     52800   105.6          669.51663      77.801094      350.18755      12944.51     
     52900   105.8          703.51946      81.752388      355.77331      15958.49     
     53000   106            686.46981      79.771135      355.58727      15919.469    
     53100   106.2          667.4547       77.561487      352.79739      14242.106    
     53200   106.4          659.59894      76.648609      350.3494       13238.991    
     53300   106.6          660.22511      76.721373      349.60405      14364.698    
     53400   106.8          684.16629      79.503455      350.69592      13450.288    
     53500   107            677.88202      78.773193      354.04222      14006.281    
     53600   107.2          686.50709      79.775468      355.3067       12893.756    
     53700   107.4          656.60775      76.301018      351.68002      14228.302    
     53800   107.6          630.45695      73.262168      348.98104      12349.715    
     53900   107.8          647.60426      75.254769      349.3474       13836.778    
     54000   108            688.69833      80.030101      353.18817      14364.054    
     54100   108.2          701.76214      81.548179      358.89214      11174.329    
     54200   108.4          713.01998      82.856394      357.75865      14927.4      
     54300   108.6          682.20145      79.275131      353.58861      13912.478    
     54400   108.8          650.48437      75.589452      349.95238      13180.038    
     54500   109            619.88245      72.03336       348.69851      13092.77     
     54600   109.2          694.20537      80.670045      350.19486      15196.131    
     54700   109.4          684.45965      79.537545      352.59921      15429.945    
     54800   109.6          672.64759      78.164926      355.53488      15539.213    
     54900   109.8          669.89192      77.844703      354.50636      15341.35     
     55000   110            659.51954      76.639383      348.84366      13365.102    
     55100   110.2          655.50774      76.173192      347.45397      14383.337    
     55200   110.4          656.84569      76.328668      348.2716       14318.783    
     55300   110.6          687.83128      79.929345      352.75518      13675.471    
     55400   110.8          691.42615      80.347087      354.71647      14482.606    
     55500   111            670.31229      77.893552      353.32808      15682.858    
     55600   111.2          662.89058      77.031113      351.10089      13792.345    
     55700   111.4          659.41321      76.627026      349.71829      14168.449    
     55800   111.6          659.77712      76.669315      348.70675      14580.727    
     55900   111.8          645.96355      75.064111      346.54445      13622.974    
     56000   112            687.93352      79.941225      347.5348       15311.758    
     56100   112.2          664.46294      77.21383       351.53489      14772.716    
     56200   112.4          682.25795      79.281697      353.84966      16779.718    
     56300   112.6          681.16614      79.154823      353.29595      12965.027    
     56400   112.8          652.22725      75.791983      349.25996      12856.63     
     56500   113            649.32692      75.45495       345.12002      13572.476    
     56600   113.2          651.2216       75.675122      346.49367      14087.465    
     56700   113.4          654.41217      76.045882      349.39632      13642.411    
     56800   113.6          665.13776      77.292247      352.28445      15500.789    
     56900   113.8          668.88488      77.727681      352.88481      13913.906    
     57000   114            650.34911      75.573733      350.45753      15988.708    
     57100   114.2          620.52328      72.107827      344.99011      13433.665    
     57200   114.4          628.91746      73.083272      343.51514      12629.266    
     57300   114.6          640.78085      74.461856      346.46382      14116.302    
     57400   114.8          639.48526      74.311302      349.52145      14090.401    
     57500   115            669.80734      77.834875      352.10976      15312.786    
     57600   115.2          650.28403      75.566171      353.25043      13541.014    
     57700   115.4          681.70111      79.216989      352.96973      15366.846    
     57800   115.6          686.03792      79.720948      351.52107      14423.33     
     57900   115.8          646.47628      75.123693      347.85282      13857.656    
     58000   116            675.67838      78.517119      347.65794      14082.161    
     58100   116.2          679.37922      78.947175      351.56257      14126.248    
     58200   116.4          698.77313      81.20084       354.61598      15143.732    
     58300   116.6          656.9919       76.345659      353.8807       13798.862    
     58400   116.8          692.78473      80.50496       352.51044      14867.958    
     58500   117            650.62891      75.606248      350.14309      15113.231    
     58600   117.2          671.0574       77.980138      348.90789      16129.424    
     58700   117.4          659.56501      76.644667      348.82112      14793.076    
     58800   117.6          695.30581      80.797922      351.96816      13859.611    
     58900   117.8          706.95422      82.151523      355.68102      15407.9      
     59000   118            700.25039      81.372506      355.31845      15052.076    
     59100   118.2          674.08058      78.331446      350.09815      14353.932    
     59200   118.4          668.12163      77.638988      348.8985       14379.408    
     59300   118.6          685.31436      79.636866      349.69848      13550.603    
     59400   118.8          653.52048      75.942262      351.54122      13475.676    
     59500   119            691.8652       80.398106      355.68425      15307.114    
     59600   119.2          688.26656      79.979927      357.99968      14801.897    
     59700   119.4          672.77799      78.180079      354.39935      12704.116    
     59800   119.6          655.51474      76.174006      349.82248      15890.391    
     59900   119.8          644.64787      74.911222      349.05473      12355.932    
     60000   120            645.60857      75.02286       349.34867      14849.605    
     60100   120.2          650.17181      75.553131      351.09899      14178.906    
     60200   120.4          670.15679      77.875483      353.60614      14110.575    
     60300   120.6          675.42387      78.487543      354.31004      16106.274    
     60400   120.8          650.1495       75.550538      350.2928       16064.933    
     60500   121            649.54663      75.480481      347.30162      15971.762    
     60600   121.2          682.01955      79.253994      348.55636      15353.757    
     60700   121.4          684.84823      79.5827        352.25028      14310.464    
     60800   121.6          678.15475      78.804884      355.16616      15929.189    
     60900   121.8          697.93663      81.103635      354.02914      16045.206    
     61000   122            667.10208      77.52051       350.58531      15643.5      
     61100   122.2          651.98694      75.764058      348.08721      11722.261    
     61200   122.4          676.74407      78.640957      349.59576      14198.992    
     61300   122.6          668.15015      77.642302      353.80151      15108.387    
     61400   122.8          694.29741      80.680741      356.02536      16520.754    
     61500   123            677.54882      78.734473      350.22926      14408.97     
     61600   123.2          663.65622      77.120085      346.8375       13912.41     
     61700   123.4          664.79583      77.252513      348.20624      14311.657    
     61800   123.6          664.57849      77.227257      352.06591      14618.363    
     61900   123.8          698.09077      81.121548      353.66771      13213.568    
     62000   124            663.95675      77.155008      352.20351      14289.88     
     62100   124.2          655.4234       76.163391      346.7595       12823.088    
     62200   124.4          637.26535      74.053337      345.97182      14113.281    
     62300   124.6          647.97281      75.297596      348.17607      15145.516    
     62400   124.8          658.46247      76.516545      350.1163       14855.154    
     62500   125            676.65551      78.630665      350.56822      13511.427    
     62600   125.2          663.90006      77.14842       351.30068      13430.119    
     62700   125.4          653.67358      75.960054      351.77084      13813.778    
     62800   125.6          665.8597       77.37614       353.17141      13616.745    
     62900   125.8          669.81318      77.835554      353.42346      13951.072    
     63000   126            679.26426      78.933815      352.00037      13068.511    
     63100   126.2          660.204        76.71892       348.58889      13927.294    
     63200   126.4          628.81912      73.071844      346.75529      12813.814    
     63300   126.6          651.31625      75.68612       350.92123      12388.234    
     63400   126.8          695.12477      80.776884      354.77256      14631.653    
     63500   127            689.45939      80.118539      353.52413      13469.138    
     63600   127.2          663.70486      77.125737      350.0796       12278.695    
     63700   127.4          650.38555      75.577969      348.66293      13848.681    
     63800   127.6          666.87658      77.494307      349.57698      13494.061    
     63900   127.8          680.57304      79.085902      355.32626      13098.023    
     64000   128            686.34017      79.75607       356.87123      15799.812    
     64100   128.2          700.80906      81.437426      352.93718      12565.891    
     64200   128.4          658.83948      76.560357      349.90211      14554.04     
     64300   128.6          668.34746      77.66523       349.39889      12399.882    
     64400   128.8          662.71522      77.010737      349.81534      13534.377    
     64500   129            684.6204       79.556225      355.09608      15006.077    
     64600   129.2          681.01795      79.137603      357.51704      14294.683    
     64700   129.4          661.9681       76.923917      354.74041      17465.738    
     64800   129.6          692.00134      80.413926      351.90306      14850.747    
     64900   129.8          676.49956      78.612544      350.73298      13797.708    
     65000   130            659.21708      76.604235      350.0873       14328.619    
     65100   130.2          664.46292      77.213827      349.37473      15294.053    
     65200   130.4          645.4719       75.006979      349.17587      14164.37     
     65300   130.6          664.18069      77.181031      352.06685      14665.531    
     65400   130.8          672.68923      78.169765      354.97466      13553.227    
     65500   131            668.27752      77.657103      354.81302      13638.716    
     65600   131.2          662.32627      76.965538      349.66924      14078.007    
     65700   131.4          636.73097      73.991239      347.36173      12142.229    
     65800   131.6          642.28316      74.636431      349.35496      14602.794    
     65900   131.8          664.35107      77.20083       352.00729      14830.203    
     66000   132            651.94616      75.759319      352.56011      13550.691    
     66100   132.2          661.39278      76.857062      352.30765      13594.635    
     66200   132.4          670.85194      77.956263      351.89093      14618.306    
     66300   132.6          663.65532      77.11998       351.49028      15811.024    
     66400   132.8          659.20325      76.602628      350.90388      15252.455    
     66500   133            664.84396      77.258106      350.86728      16759.196    
     66600   133.2          673.84177      78.303695      350.37729      12873.925    
     66700   133.4          654.25719      76.027872      349.28575      13983.468    
     66800   133.6          662.90838      77.033182      348.1984       14741.831    
     66900   133.8          676.80102      78.647575      349.80196      13326.754    
     67000   134            689.85414      80.164411      353.43862      14336.694    
     67100   134.2          685.82038      79.695669      355.36326      13005.709    
     67200   134.4          652.64003      75.83995       351.68326      15532.812    
     67300   134.6          645.45728      75.00528       346.9128       11914.252    
     67400   134.8          663.72909      77.128553      347.93362      13201.627    
     67500   135            651.58184      75.716983      351.47812      14182.5      
     67600   135.2          667.16041      77.52729       353.46458      13433.599    
     67700   135.4          662.5788       76.994884      352.80356      15398.883    
     67800   135.6          666.32969      77.430756      351.31805      13809.341    
     67900   135.8          672.01907      78.091889      351.20563      12239.744    
     68000   136            652.18725      75.787334      351.09748      13040.686    
     68100   136.2          687.60577      79.903139      351.76995      14314.684    
     68200   136.4          650.7529       75.620656      352.15125      12155.073    
     68300   136.6          683.43914      79.418956      351.76533      12797.371    
     68400   136.8          677.05306      78.676863      349.55629      15098.175    
     68500   137            653.41834      75.930394      347.27232      13783.405    
     68600   137.2          649.77607      75.507144      347.94474      12386.686    
     68700   137.4          690.32921      80.219616      353.39473      14768.498    
     68800   137.6          677.99443      78.786255      354.39054      16298.554    
     68900   137.8          682.92513      79.359226      352.93361      14502.289    
     69000   138            671.30988      78.009477      349.47754      14167.012    
     69100   138.2          641.67461      74.565715      345.50679      14826.402    
     69200   138.4          684.50684      79.543029      348.07824      14126.685    
     69300   138.6          682.36036      79.293597      354.32026      13945.144    
     69400   138.8          687.45119      79.885176      353.11083      14499.699    
     69500   139            659.09285      76.5898        349.68664      15676.562    
     69600   139.2          663.62534      77.116496      348.68202      13747.779    
     69700   139.4          656.21917      76.255863      349.4919       13021.845    
     69800   139.6          686.87205      79.817878      352.66776      15954.305    
     69900   139.8          681.82286      79.231137      355.52758      15127.311    
     70000   140            668.02719      77.628013      352.41528      13762.731    
     70100   140.2          662.74669      77.014393      348.79489      14683.254    
     70200   140.4          659.75238      76.66644       349.21566      13534.081    
     70300   140.6          661.71462      76.894462      350.97347      14828.916    
     70400   140.8          703.39513      81.73794       354.54426      13732.196    
     70500   141            696.81941      80.973809      356.81451      14997.984    
     70600   141.2          678.86049      78.886895      354.70048      13491.746    
     70700   141.4          667.15713      77.526908      349.99972      14826.573    
     70800   141.6          665.77821      77.366671      347.90662      11836.687    
     70900   141.8          666.05717      77.399087      347.7874       11750.42     
     71000   142            678.52425      78.847823      352.3639       13553.39     
     71100   142.2          683.33861      79.407275      355.3387       13356.517    
     71200   142.4          691.61762      80.369336      354.16679      14434.454    
     71300   142.6          665.60577      77.346632      352.05307      15136.198    
     71400   142.8          677.06701      78.678484      351.02321      12395.366    
     71500   143            662.68129      77.006794      350.98958      16049.199    
     71600   143.2          668.61601      77.696436      351.66462      14300.423    
     71700   143.4          673.80747      78.29971       352.77787      13275.015    
     71800   143.6          673.97342      78.318993      352.67719      14240.83     
     71900   143.8          691.47753      80.353056      350.57683      13577.951    
     72000   144            643.43781      74.770607      347.23361      14285.982    
     72100   144.2          644.76701      74.925066      346.98141      13762.891    
     72200   144.4          649.23726      75.444531      351.35831      13290.147    
     72300   144.6          696.65133      80.954277      355.42238      14436.842    
     72400   144.8          681.82309      79.231164      353.3407       14747.159    
     72500   145            695.54641      80.825881      350.69793      14850.716    
     72600   145.2          668.66084      77.701646      349.02659      13167.259    
     72700   145.4          690.36128      80.223343      349.22394      12806.077    
     72800   145.6          669.53624      77.803372      351.1377       14863.321    
     72900   145.8          708.84351      82.371068      357.72156      14183.139    
     73000   146            681.86395      79.235912      356.15094      15958.258    
     73100   146.2          690.96373      80.29335       352.11945      14807.994    
     73200   146.4          686.18596      79.738151      349.82989      14784.667    
     73300   146.6          658.03774      76.467191      348.55339      15951.656    
     73400   146.8          663.0004       77.043876      349.01925      14003.959    
     73500   147            710.43926      82.556502      354.79904      13820.313    
     73600   147.2          680.68832      79.099298      355.94131      15215.199    
     73700   147.4          665.73804      77.362003      353.31947      13537.009    
     73800   147.6          660.74874      76.782222      350.00066      15295.731    
     73900   147.8          664.37954      77.204138      349.50442      15453.054    
     74000   148            668.43733      77.675673      350.21359      13719.847    
     74100   148.2          676.11653      78.568034      353.1191       15683.708    
     74200   148.4          676.25746      78.58441       354.85286      14832.32     
     74300   148.6          661.35388      76.852541      349.56677      13122.37     
     74400   148.8          632.6643       73.518673      346.2957       15111.69     
     74500   149            648.35494      75.342002      348.04922      14180.644    
     74600   149.2          668.73906      77.710735      351.81309      14852.363    
     74700   149.4          674.47549      78.377337      353.21833      12599.053    
     74800   149.6          667.37878      77.552665      351.93862      15037.784    
     74900   149.8          670.5746       77.924034      348.73299      13310.47     
     75000   150            606.65261      70.495988      342.39386      14953.439    
     75100   150.2          632.35981      73.48329       342.40145      13752.455    
     75200   150.4          646.94473      75.178128      346.13432      15225.169    
     75300   150.6          645.73397      75.037432      350.76921      13065.65     
     75400   150.8          683.50303      79.426381      352.66043      14056.57     
     75500   151            664.27752      77.192283      351.25264      15650.807    
     75600   151.2          622.30637      72.315031      347.41749      12656.389    
     75700   151.4          630.64265      73.283747      347.43436      13561.042    
     75800   151.6          663.73972      77.129788      353.88849      14990.668    
     75900   151.8          687.87244      79.934128      355.40165      15144.721    
     76000   152            670.49432      77.914705      352.31929      13692.271    
     76100   152.2          658.69344      76.543386      349.09625      15884.967    
     76200   152.4          658.08838      76.473075      348.23783      14547.736    
     76300   152.6          671.82619      78.069476      350.64937      12526.432    
     76400   152.8          683.13273      79.383351      356.46924      14694.426    
     76500   153            698.60973      81.181854      356.66539      15960.851    
     76600   153.2          690.31808      80.218323      353.90446      13904.445    
     76700   153.4          677.04412      78.675824      350.87301      12906.603    
     76800   153.6          658.56313      76.528243      349.02954      14293.184    
     76900   153.8          643.49335      74.777061      349.51424      14142.57     
     77000   154            660.18644      76.71688       352.58794      13231.256    
     77100   154.2          686.7997       79.80947       355.87641      14364.165    
     77200   154.4          662.06185      76.934811      352.9287       14029.887    
     77300   154.6          650.02191      75.535712      349.21977      12728.776    
     77400   154.8          637.21054      74.046968      348.70225      13221.626    
     77500   155            648.28247      75.33358       350.08193      12169.56     
     77600   155.2          672.9621       78.201473      351.87657      13467.914    
     77700   155.4          693.51462      80.589776      356.44862      15076.152    
     77800   155.6          687.53673      79.895116      360.32405      15511.025    
     77900   155.8          698.92088      81.21801       356.28151      13537.946    
     78000   156            676.47573      78.609774      353.18211      12270.206    
     78100   156.2          643.84145      74.817512      350.96012      14054.273    
     78200   156.4          653.43743      75.932611      349.63478      12900.289    
     78300   156.6          658.41275      76.510768      348.48175      13050.384    
     78400   156.8          656.98217      76.344528      350.10416      13731.048    
     78500   157            679.66484      78.980365      354.51745      15536.967    
     78600   157.2          677.83993      78.768301      354.93763      13756.608    
     78700   157.4          686.68726      79.796404      351.2055       14653.254    
     78800   157.6          660.44496      76.746921      348.99131      14486.303    
     78900   157.8          677.76944      78.76011       349.17718      15763.775    
     79000   158            655.1237       76.128564      350.64416      12381.046    
     79100   158.2          666.04372      77.397524      352.10051      15579.024    
     79200   158.4          694.0431       80.651189      354.82068      14547.271    
     79300   158.6          694.83027      80.742661      359.18022      13931.934    
     79400   158.8          696.87931      80.98077       356.8097       14055.02     
     79500   159            682.96894      79.364317      351.32594      11934.148    
     79600   159.2          658.20926      76.487121      350.07045      14504.34     
     79700   159.4          631.44175      73.376607      349.9667       15297.046    
     79800   159.6          659.85232      76.678054      352.3624       13562.657    
     79900   159.8          649.53628      75.479279      356.06833      15787.436    
     80000   160            676.13167      78.569793      357.67026      16284.107    
     80100   160.2          658.92906      76.570766      351.17956      13839.305    
     80200   160.4          647.08405      75.194319      349.30087      16851.943    
     80300   160.6          674.99008      78.437135      351.05445      13658.809    
     80400   160.8          678.20653      78.810902      353.67503      12817.31     
     80500   161            661.8619       76.911576      354.53059      18151.685    
     80600   161.2          659.74951      76.666106      352.21684      13550.907    
     80700   161.4          658.22651      76.489126      348.01755      12747.142    
     80800   161.6          639.57931      74.32223       347.12086      14077.414    
     80900   161.8          667.76207      77.597205      351.33074      13629.49     
     81000   162            664.85512      77.259403      353.61502      12860.445    
     81100   162.2          683.74536      79.454541      352.7742       12227.026    
     81200   162.4          676.38049      78.598707      351.21981      16061.39     
     81300   162.6          671.65493      78.049574      348.48934      11639.343    
     81400   162.8          646.97721      75.181903      344.50754      12571.094    
     81500   163            656.36368      76.272656      347.41767      14547.776    
     81600   163.2          680.59878      79.088893      352.03242      13883.83     
     81700   163.4          689.4827       80.121248      352.17693      15634.794    
     81800   163.6          653.26377      75.912431      350.50173      13610.461    
     81900   163.8          660.43853      76.746173      348.81807      14667.337    
     82000   164            657.53597      76.408882      349.39452      15406.833    
     82100   164.2          682.51979      79.312123      352.84909      14385.529    
     82200   164.4          658.5947       76.531912      355.38228      14434.571    
     82300   164.6          653.95419      75.992662      353.36411      15360.481    
     82400   164.8          640.39182      74.416649      348.57969      17365.348    
     82500   165            630.01767      73.211122      348.70178      14832.253    
     82600   165.2          657.95621      76.457716      350.60572      13303.175    
     82700   165.4          673.75011      78.293044      352.86451      15076.713    
     82800   165.6          637.92193      74.129635      354.67682      13637.08     
     82900   165.8          673.55524      78.2704        355.68317      16053.952    
     83000   166            686.82458      79.812361      352.72478      15639.849    
     83100   166.2          626.3115       72.780447      349.00375      12164.644    
     83200   166.4          660.56956      76.7614        348.79726      14786.821    
     83300   166.6          670.1746       77.877552      351.86456      14602.488    
     83400   166.8          682.41351      79.299774      356.11617      15317.037    
     83500   167            677.60157      78.740602      356.12755      15698.739    
     83600   167.2          689.26622      80.096091      353.59543      13875.896    
     83700   167.4          697.50912      81.053956      351.03231      14331.604    
     83800   167.6          665.16267      77.295142      349.72819      14525.601    
     83900   167.8          676.25836      78.584515      348.73292      13744.064    
     84000   168            644.66847      74.913616      347.57375      12706.797    
     84100   168.2          664.51421      77.219788      351.47571      16308.382    
     84200   168.4          691.81791      80.39261       355.09792      15177.335    
     84300   168.6          672.0449       78.094891      353.40804      13248.345    
     84400   168.8          654.67899      76.076887      349.3588       14607.584    
     84500   169            639.5693       74.321067      347.7067       12688.547    
     84600   169.2          681.21178      79.160127      348.65392      15263.175    
     84700   169.4          668.70787      77.707111      350.33637      14771.689    
     84800   169.6          676.83039      78.650988      351.68533      14180.647    
     84900   169.8          684.9075       79.589588      351.53279      14538.507    
     85000   170            669.71272      77.82388       350.38143      14821.045    
     85100   170.2          662.88554      77.030528      349.49992      13585.816    
     85200   170.4          647.25913      75.214663      346.74935      13990.234    
     85300   170.6          649.95157      75.527537      345.8771       14162.29     
     85400   170.8          667.29568      77.543008      348.54509      12924.964    
     85500   171            676.40968      78.602099      352.01965      17045.591    
     85600   171.2          663.53749      77.106289      352.68472      14852.312    
     85700   171.4          642.44677      74.655444      349.85299      13458.949    
     85800   171.6          637.72776      74.107072      344.87391      15471.352    
     85900   171.8          659.492        76.636182      345.98961      14134.119    
     86000   172            661.65332      76.887338      349.92429      14723.62     
     86100   172.2          675.97451      78.55153       351.20496      14788.784    
     86200   172.4          645.25853      74.982184      352.40982      14908.282    
     86300   172.6          664.72163      77.24389       353.86093      15820.234    
     86400   172.8          677.38751      78.715728      352.42652      15174.524    
     86500   173            636.92587      74.013889      347.89349      15125.813    
     86600   173.2          667.37527      77.552256      346.61547      15200.128    
     86700   173.4          649.8431       75.514933      349.21764      15388.573    
     86800   173.6          672.36124      78.131651      353.22091      15378.904    
     86900   173.8          662.7819       77.018485      353.61301      13174.567    
     87000   174            656.83588      76.327528      352.00427      14507.644    
[...]
    478600   957.2          675.97111      78.551136      350.29682      13268.084    
    478700   957.4          656.98213      76.344524      346.26848      14175.121    
    478800   957.6          650.46457      75.587151      344.65851      14724.896    
    478900   957.8          656.32942      76.268676      348.47121      14197.104    
    479000   958            652.60162      75.835486      351.86213      13586.014    
    479100   958.2          681.15664      79.153719      352.45594      14404.507    
    479200   958.4          674.45063      78.374448      351.01219      14369.356    
    479300   958.6          656.05931      76.237287      347.42483      14691.32     
    479400   958.8          628.84427      73.074766      343.07618      12861.675    
    479500   959            623.51564      72.455554      343.89963      13466.72     
    479600   959.2          672.10534      78.101914      349.81009      13595.708    
    479700   959.4          649.6074       75.487544      351.19423      14910.356    
    479800   959.6          666.03676      77.396715      351.92113      14824.608    
    479900   959.8          658.28485      76.495906      352.46163      14643.069    
    480000   960            679.47115      78.957857      351.87812      12791.98     
    480100   960.2          657.40474      76.393632      349.32765      14290.672    
    480200   960.4          646.54509      75.131689      347.20808      14779.21     
    480300   960.6          633.79456      73.650015      346.43003      13858.49     
    480400   960.8          668.45324      77.677522      349.82535      15364.963    
    480500   961            678.34763      78.827299      353.48963      12215.121    
    480600   961.2          685.80472      79.693849      352.99708      14293.621    
    480700   961.4          664.76437      77.248857      348.53485      12081.183    
    480800   961.6          646.34323      75.108231      346.29973      14047.734    
    480900   961.8          666.79415      77.484727      348.04378      14687.969    
    481000   962            678.87404      78.88847       351.83371      14338.135    
    481100   962.2          688.50185      80.007268      353.90423      12542.044    
    481200   962.4          674.98045      78.436016      353.11839      14139.937    
    481300   962.6          642.95076      74.71401       349.65444      12948.546    
    481400   962.8          645.67102      75.030117      344.38613      13585.405    
    481500   963            644.48357      74.892129      343.53608      13302.081    
    481600   963.2          649.37798      75.460884      346.16205      14865.545    
    481700   963.4          656.72915      76.315126      348.21538      14406.642    
    481800   963.6          669.20407      77.764772      351.5264       15882.122    
    481900   963.8          678.05967      78.793836      353.57996      15929.175    
    482000   964            685.66032      79.677069      352.22852      13287.124    
    482100   964.2          650.32583      75.571029      346.25628      14528.434    
    482200   964.4          650.91635      75.639651      346.66817      13859.29     
    482300   964.6          667.60149      77.578545      349.97723      12448.422    
    482400   964.8          669.7924       77.833139      352.04328      16996.487    
    482500   965            653.86933      75.982801      352.36987      14724.922    
    482600   965.2          663.8922       77.147507      351.72034      14773.051    
    482700   965.4          640.65274      74.446968      348.33351      14115.648    
    482800   965.6          651.68712      75.729217      344.81278      14277.55     
    482900   965.8          658.46105      76.516381      347.46941      13972.866    
    483000   966            660.28777      76.728655      351.88508      15862.401    
    483100   966.2          671.59933      78.043113      353.28622      14385.532    
    483200   966.4          683.41422      79.416061      352.61895      14269.517    
    483300   966.6          651.39017      75.69471       348.6926       16008.612    
    483400   966.8          659.49137      76.636109      345.38579      14475.59     
    483500   967            646.92392      75.17571       346.90581      12012.396    
    483600   967.2          647.08247      75.194134      348.91145      16150.626    
    483700   967.4          652.06052      75.772609      350.98523      14611.757    
    483800   967.6          658.68244      76.542108      353.33445      13355.219    
    483900   967.8          681.12682      79.150253      355.32292      15045.176    
    484000   968            680.46967      79.07389       356.42527      12373.609    
    484100   968.2          686.77493      79.806592      353.64599      13974.847    
    484200   968.4          668.18241      77.646051      349.28836      14483.817    
    484300   968.6          653.51357      75.94146       348.09365      14705.032    
    484400   968.8          653.11957      75.895675      350.56048      14444.228    
    484500   969            683.3291       79.40617       355.14685      12719.749    
    484600   969.2          695.13203      80.777727      355.7963       13456.955    
    484700   969.4          688.59109      80.017639      353.99452      13751.253    
    484800   969.6          673.88201      78.308372      352.5821       13083.92     
    484900   969.8          641.92475      74.594783      351.07416      16839.637    
    485000   970            650.48443      75.589459      348.92256      13138.933    
    485100   970.2          632.40874      73.488976      346.00925      12669.51     
    485200   970.4          631.71519      73.408382      345.48283      13480.185    
    485300   970.6          686.13674      79.73243       350.97408      16264.178    
    485400   970.8          652.8895       75.86894       353.3729       16158.982    
    485500   971            663.68013      77.122863      354.27704      13056.759    
    485600   971.2          667.59612      77.577921      352.43094      15181.388    
    485700   971.4          645.2402       74.980054      347.68317      13486.52     
    485800   971.6          648.53978      75.363481      346.01272      10801.653    
    485900   971.8          658.37882      76.506826      348.54861      13123.944    
    486000   972            653.34393      75.921747      350.49937      15370.059    
    486100   972.2          637.05745      74.029178      351.17306      13015.625    
    486200   972.4          711.64609      82.696742      352.96273      14780.581    
    486300   972.6          703.80813      81.785933      356.29835      13320.158    
    486400   972.8          684.65145      79.559833      359.98654      16561.606    
    486500   973            692.09934      80.425314      356.73476      16165.204    
    486600   973.2          680.07277      79.027768      351.58774      14172.212    
    486700   973.4          661.00287      76.811752      350.08139      15201.106    
    486800   973.6          649.4981       75.474842      348.20262      14379.011    
    486900   973.8          653.22986      75.908491      349.24519      14929.402    
    487000   974            691.96215      80.409372      353.43732      13412.232    
    487100   974.2          688.30068      79.983891      354.83791      13671.584    
    487200   974.4          667.4232       77.557826      352.2907       14355.037    
    487300   974.6          661.06367      76.818818      346.52187      13215.109    
    487400   974.8          650.93892      75.642272      347.06758      16926.189    
    487500   975            645.91955      75.058998      350.71055      11997.313    
    487600   975.2          692.98043      80.527701      352.92191      14565.277    
    487700   975.4          670.13092      77.872477      352.93744      15061.626    
    487800   975.6          656.11636      76.243916      350.88775      11881.869    
    487900   975.8          630.2743       73.240943      345.35392      13611.343    
    488000   976            648.59783      75.370227      345.87149      14519.486    
    488100   976.2          648.9956       75.416449      348.32351      13235.514    
    488200   976.4          663.18447      77.065265      351.50228      13931.332    
    488300   976.6          675.6427       78.512972      353.79961      12373.159    
    488400   976.8          697.05265      81.000913      354.12591      14743.371    
    488500   977            659.36499      76.621423      348.94796      13553.733    
    488600   977.2          629.9231       73.200132      346.63919      12895.83     
    488700   977.4          653.45302      75.934423      348.31065      15471.92     
    488800   977.6          662.82292      77.023252      350.46619      12643.653    
    488900   977.8          671.15593      77.991588      353.08281      13643.472    
    489000   978            668.07674      77.633771      353.92912      15210.712    
    489100   978.2          611.79212      71.093224      348.32463      13660.549    
    489200   978.4          652.93322      75.87402       345.9205       12948.727    
    489300   978.6          667.18338      77.529958      348.46453      12870.33     
    489400   978.8          684.20071      79.507455      352.55515      11809.941    
    489500   979            680.31337      79.055727      353.91347      13505.869    
    489600   979.2          653.57187      75.948234      352.34019      13633.432    
    489700   979.4          656.05289      76.236541      347.61952      15116.296    
    489800   979.6          632.06943      73.449546      344.89454      11530.586    
    489900   979.8          640.59488      74.440245      347.35755      12067.799    
    490000   980            651.7442       75.735851      348.87986      14141.417    
    490100   980.2          637.16586      74.041776      350.92245      11879.715    
    490200   980.4          672.57973      78.15704       353.78865      12832.306    
    490300   980.6          677.85567      78.77013       357.00859      14237.436    
    490400   980.8          729.04011      84.718011      361.38326      12737.909    
    490500   981            695.26713      80.793427      356.30691      12600.993    
    490600   981.2          692.15896      80.432242      352.26652      15334.356    
    490700   981.4          661.69059      76.891669      350.56008      12811.002    
    490800   981.6          631.19485      73.347915      349.88461      13055.361    
    490900   981.8          637.93306      74.130929      352.13914      13302.972    
    491000   982            687.58685      79.900941      356.51363      16296.296    
    491100   982.2          678.3768       78.830689      355.73498      15586.109    
    491200   982.4          679.03823      78.907549      352.66558      14955.417    
    491300   982.6          657.56044      76.411726      350.7638       14511.592    
    491400   982.8          660.17998      76.716129      350.92288      16186.657    
    491500   983            673.89252      78.309593      352.52183      14779.623    
    491600   983.2          660.64609      76.770293      353.71238      14868.978    
    491700   983.4          653.54168      75.944727      351.08433      13480.122    
    491800   983.6          623.13933      72.411825      347.19805      14890.169    
    491900   983.8          676.64097      78.628976      347.96862      13429.253    
    492000   984            674.58761      78.390365      352.31815      12887.513    
    492100   984.2          687.34296      79.8726        354.39411      14094.989    
    492200   984.4          676.408        78.601904      352.99876      13604.476    
    492300   984.6          664.2628       77.190572      350.32548      15087.855    
    492400   984.8          666.15739      77.410733      348.72148      12925.758    
    492500   985            676.57752      78.621603      349.86794      12607.37     
    492600   985.2          699.34699      81.267526      355.78032      13759.858    
    492700   985.4          686.85496      79.815892      355.93089      15753.736    
    492800   985.6          667.7287       77.593327      351.86902      13734.356    
    492900   985.8          659.01076      76.58026       349.9519       13650.059    
    493000   986            647.43009      75.23453       349.66656      15144.415    
    493100   986.2          668.08259      77.634451      350.90518      16353.368    
    493200   986.4          675.75131      78.525593      355.23632      12464.149    
    493300   986.6          667.02818      77.511923      358.15         14866.678    
    493400   986.8          663.29233      77.077799      354.77444      16880.314    
    493500   987            684.06125      79.491249      351.48245      13232.335    
    493600   987.2          672.33214      78.128269      351.31049      15320.303    
    493700   987.4          662.56455      76.993227      351.63645      14677.262    
    493800   987.6          651.39988      75.695839      351.70626      13519.799    
    493900   987.8          690.28155      80.214078      352.29314      15513.012    
    494000   988            660.4997       76.753281      352.11829      15037.478    
    494100   988.2          647.22248      75.210405      351.81934      13384.706    
    494200   988.4          670.44749      77.909263      350.44624      15351.784    
    494300   988.6          663.46136      77.097442      348.61185      16005.591    
    494400   988.8          661.19607      76.834204      348.03048      12285.82     
    494500   989            683.78836      79.459537      351.42936      13052.697    
    494600   989.2          677.01018      78.67188       354.87936      15354.998    
    494700   989.4          689.77349      80.155039      355.05752      13238.009    
    494800   989.6          657.69597      76.427476      350.53268      15358.895    
    494900   989.8          645.35171      74.993012      347.69367      14080.122    
    495000   990            635.31019      73.826138      348.28194      14034.875    
    495100   990.2          674.83696      78.419341      351.21906      14194.546    
    495200   990.4          658.66989      76.540649      353.41487      16231.058    
    495300   990.6          646.85806      75.168057      353.56249      15592.501    
    495400   990.8          666.32022      77.429655      351.0558       14579.572    
    495500   991            663.79626      77.136358      346.2421       14822.759    
    495600   991.2          655.21247      76.13888       345.7817       12058.474    
    495700   991.4          680.80869      79.113285      349.95256      14585.237    
    495800   991.6          672.09521      78.100737      352.52202      13297.48     
    495900   991.8          685.68679      79.680144      353.0463       12865.137    
    496000   992            670.31425      77.893781      351.65903      13600.464    
    496100   992.2          667.36457      77.551013      349.13234      11772.944    
    496200   992.4          630.56815      73.27509       342.85204      10974.188    
    496300   992.6          622.99923      72.395545      343.27675      13587.038    
    496400   992.8          664.45255      77.212622      347.13763      12485.923    
    496500   993            676.29276      78.588513      350.17862      15004.815    
    496600   993.2          678.62951      78.860054      351.92489      14827.97     
    496700   993.4          698.25557      81.140698      352.2338       15016.726    
    496800   993.6          640.73058      74.456014      348.51398      13858.359    
    496900   993.8          624.82154      72.607306      344.82255      12064.724    
    497000   994            645.69728      75.033169      347.14512      13709.331    
    497100   994.2          663.15412      77.061739      350.46114      14230.419    
    497200   994.4          658.68872      76.542838      351.73117      15077.329    
    497300   994.6          654.49409      76.0554        351.64938      14888.129    
    497400   994.8          631.91852      73.432009      350.91794      15727.732    
    497500   995            644.09648      74.847148      348.6342       11022.037    
    497600   995.2          654.44306      76.04947       346.12018      15782.732    
    497700   995.4          639.97437      74.368139      347.15493      13237.453    
    497800   995.6          672.15696      78.107913      352.40281      14256.122    
    497900   995.8          649.51258      75.476525      353.45158      13996.912    
    498000   996            665.33365      77.31501       352.2575       14256.603    
    498100   996.2          653.25509      75.911423      349.02816      13988.332    
    498200   996.4          645.57133      75.018533      344.48363      14033.772    
    498300   996.6          632.83044      73.53798       343.28462      12840.748    
    498400   996.8          664.14408      77.176777      350.3461       15101.901    
    498500   997            674.54905      78.385885      352.00035      15489.423    
    498600   997.2          671.36368      78.015729      351.65039      17177.413    
    498700   997.4          664.08224      77.169591      349.18836      13153.846    
    498800   997.6          651.01316      75.650899      346.64401      15963.852    
    498900   997.8          655.40304      76.161025      345.98819      14793.658    
    499000   998            682.62982      79.32491       350.07329      12847.376    
    499100   998.2          690.94888      80.291625      354.09961      14278.458    
    499200   998.4          669.73885      77.826916      353.48616      16694.405    
    499300   998.6          693.31193      80.566223      349.78303      13035.907    
    499400   998.8          657.74564      76.433247      347.71574      12090.425    
    499500   999            653.20112      75.905151      348.66235      15191.064    
    499600   999.2          670.4053       77.904362      349.6761       13181.129    
    499700   999.4          658.819        76.557977      351.4598       13098.918    
    499800   999.6          687.34926      79.873332      353.01315      14214.344    
    499900   999.8          691.8986       80.401988      355.30877      14416.843    
    500000   1000           686.45625      79.76956       356.31676      15110.977    
Loop time of 327.246 on 1 procs for 500000 steps with 900 atoms

Performance: 264.022 ns/day, 0.091 hours/ns, 1527.905 timesteps/s
54.1% CPU use with 1 MPI tasks x no OpenMP threads

MPI task timing breakdown:
Section |  min time  |  avg time  |  max time  |%varavg| %total
---------------------------------------------------------------
Pair    | 209.56     | 209.56     | 209.56     |   0.0 | 64.04
Neigh   | 105.36     | 105.36     | 105.36     |   0.0 | 32.20
Comm    | 3.9543     | 3.9543     | 3.9543     |   0.0 |  1.21
Output  | 2.1416     | 2.1416     | 2.1416     |   0.0 |  0.65
Modify  | 5.5418     | 5.5418     | 5.5418     |   0.0 |  1.69
Other   |            | 0.6899     |            |       |  0.21

Nlocal:            900 ave         900 max         900 min
Histogram: 1 0 0 0 0 0 0 0 0 0
Nghost:           2802 ave        2802 max        2802 min
Histogram: 1 0 0 0 0 0 0 0 0 0
Neighs:              0 ave           0 max           0 min
Histogram: 1 0 0 0 0 0 0 0 0 0
FullNghs:        97862 ave       97862 max       97862 min
Histogram: 1 0 0 0 0 0 0 0 0 0

Total # of neighbors = 97862
Ave neighs/atom = 108.73556
Neighbor list builds = 50000
Dangerous builds not checked

Total wall time: 0:05:46
