ITEM: TIMESTEP
0
ITEM: NUMBER OF ATOMS
32
ITEM: BOX BOUNDS xy xz yz pp pp pp
-4.0532350540161133e-03 6.4008854031562805e+00 0.0000000000000000e+00
-9.1640949249267578e-03 1.0920950651168823e+01 0.0000000000000000e+00
-4.7960281372070312e-02 2.0773346722126007e+01 5.3913553953170776e+00
ITEM: ATOMS id type xs ys zs fx fy fz
1 1 0.999986 0.607998 0.0597509 0 0 0.00428009
2 1 0.499986 0.607998 0.0597509 0 0 0.00428009
3 1 0.249986 0.107997 0.0597519 0 0 0.00424194
4 1 0.749986 0.107997 0.0597519 0 0 0.00424194
5 1 0.999986 0.364662 0.309753 0 0 -5.72205e-06
6 1 0.249986 0.320678 0.184753 0 0 -0.000190735
7 1 0.749986 0.320678 0.184753 0 0 -0.000190735
8 1 0.499986 0.364662 0.309753 0 0 -5.72205e-06
9 1 0.999986 0.820677 0.184753 0 0 -0.000164032
10 1 0.249986 0.864663 0.309753 0 0 -5.72205e-05
11 1 0.499986 0.820677 0.184753 0 0 -0.000164032
12 1 0.749986 0.864663 0.309753 0 0 -5.72205e-05
13 1 0.999986 0.121306 0.559749 0 0 4.95911e-05
14 1 0.499986 0.121306 0.559749 0 0 4.95911e-05
15 1 0.249986 0.621304 0.55975 0 0 3.8147e-05
16 1 0.749986 0.621304 0.55975 0 0 3.8147e-05
17 1 0.249986 0.0773327 0.434752 0 0 -4.95911e-05
18 1 0.749986 0.0773327 0.434752 0 0 -4.95911e-05
19 1 0.999986 0.577333 0.434752 0 0 -2.67029e-05
20 1 0.499986 0.577333 0.434752 0 0 -2.67029e-05
21 1 0.999986 0.877951 0.809748 0 0 0.000175476
22 1 0.249986 0.833971 0.684748 0 0 2.67029e-05
23 1 0.499986 0.877951 0.809748 0 0 0.000175476
24 1 0.749986 0.833971 0.684748 0 0 2.67029e-05
25 1 0.999986 0.33397 0.684749 0 0 9.53674e-06
26 1 0.249986 0.377952 0.809748 0 0 0.00018692
27 1 0.749986 0.377952 0.809748 0 0 0.00018692
28 1 0.499986 0.33397 0.684749 0 0 9.53674e-06
29 1 0.249986 0.590628 0.934749 0 0 -0.00423813
30 1 0.749986 0.590628 0.934749 0 0 -0.00423813
31 1 0.999986 0.0906284 0.93475 0 0 -0.00427628
32 1 0.499986 0.0906284 0.93475 0 0 -0.00427628
ITEM: TIMESTEP
1
ITEM: NUMBER OF ATOMS
32
ITEM: BOX BOUNDS xy xz yz pp pp pp
-4.0532350540161133e-03 6.4008854031562805e+00 0.0000000000000000e+00
-9.1640949249267578e-03 1.0920950651168823e+01 0.0000000000000000e+00
-4.7960281372070312e-02 2.0773346722126007e+01 5.3913553953170776e+00
ITEM: ATOMS id type xs ys zs fx fy fz
1 1 0.999986 0.607944 0.0598063 0 0 3.05176e-05
2 1 0.499986 0.607944 0.0598063 0 0 3.05176e-05
3 1 0.249986 0.107944 0.0598069 0 0 2.09808e-05
4 1 0.749986 0.107944 0.0598069 0 0 2.09808e-05
5 1 0.999986 0.364663 0.309753 0 0 7.62939e-06
6 1 0.249986 0.32068 0.184751 0 0 0.00118065
7 1 0.749986 0.32068 0.184751 0 0 0.00118065
8 1 0.499986 0.364663 0.309753 0 0 7.62939e-06
9 1 0.999986 0.820679 0.184751 0 0 0.00117302
10 1 0.249986 0.864663 0.309753 0 0 1.14441e-05
11 1 0.499986 0.820679 0.184751 0 0 0.00117302
12 1 0.749986 0.864663 0.309753 0 0 1.14441e-05
13 1 0.999986 0.121305 0.55975 0 0 1.14441e-05
14 1 0.499986 0.121305 0.55975 0 0 1.14441e-05
15 1 0.249986 0.621304 0.55975 0 0 5.72205e-06
16 1 0.749986 0.621304 0.55975 0 0 5.72205e-06
17 1 0.249986 0.0773333 0.434752 0 0 -2.09808e-05
18 1 0.749986 0.0773333 0.434752 0 0 -2.09808e-05
19 1 0.999986 0.577333 0.434751 0 0 -1.14441e-05
20 1 0.499986 0.577333 0.434751 0 0 -1.14441e-05
21 1 0.999986 0.877949 0.80975 0 0 -0.00118065
22 1 0.249986 0.833971 0.684749 0 0 3.8147e-06
23 1 0.499986 0.877949 0.80975 0 0 -0.00118065
24 1 0.749986 0.833971 0.684749 0 0 3.8147e-06
25 1 0.999986 0.33397 0.684749 0 0 -7.62939e-06
26 1 0.249986 0.377949 0.80975 0 0 -0.00117874
27 1 0.749986 0.377949 0.80975 0 0 -0.00117874
28 1 0.499986 0.33397 0.684749 0 0 -7.62939e-06
29 1 0.249986 0.590682 0.934694 0 0 -1.90735e-05
30 1 0.749986 0.590682 0.934694 0 0 -1.90735e-05
31 1 0.999986 0.0906823 0.934695 0 0 -2.67029e-05
32 1 0.499986 0.0906823 0.934695 0 0 -2.67029e-05
ITEM: TIMESTEP
2
ITEM: NUMBER OF ATOMS
32
ITEM: BOX BOUNDS xy xz yz pp pp pp
-4.0532350540161133e-03 6.4008854031562805e+00 0.0000000000000000e+00
-9.1640949249267578e-03 1.0920950651168823e+01 0.0000000000000000e+00
-4.7960281372070312e-02 2.0773346722126007e+01 5.3913553953170776e+00
ITEM: ATOMS id type xs ys zs fx fy fz
1 1 0.999986 0.607936 0.0598151 0 0 -2.67029e-05
2 1 0.499986 0.607936 0.0598151 0 0 -2.67029e-05
3 1 0.249986 0.107936 0.0598153 0 0 -3.05176e-05
4 1 0.749986 0.107936 0.0598153 0 0 -3.05176e-05
5 1 0.999986 0.364662 0.309753 0 0 0.000646591
6 1 0.249986 0.320655 0.184777 0 0 1.71661e-05
7 1 0.749986 0.320655 0.184777 0 0 1.71661e-05
8 1 0.499986 0.364662 0.309753 0 0 0.000646591
9 1 0.999986 0.820653 0.184778 0 0 2.09808e-05
10 1 0.249986 0.864663 0.309753 0 0 0.000648499
11 1 0.499986 0.820653 0.184778 0 0 2.09808e-05
12 1 0.749986 0.864663 0.309753 0 0 0.000648499
13 1 0.999986 0.121305 0.55975 0 0 -5.34058e-05
14 1 0.499986 0.121305 0.55975 0 0 -5.34058e-05
15 1 0.249986 0.621303 0.55975 0 0 -5.72205e-05
16 1 0.749986 0.621303 0.55975 0 0 -5.72205e-05
17 1 0.249986 0.0773339 0.434751 0 0 6.29425e-05
18 1 0.749986 0.0773339 0.434751 0 0 6.29425e-05
19 1 0.999986 0.577333 0.434751 0 0 5.14984e-05
20 1 0.499986 0.577333 0.434751 0 0 5.14984e-05
21 1 0.999986 0.877975 0.809724 0 0 -1.71661e-05
22 1 0.249986 0.833971 0.684749 0 0 -0.000656128
23 1 0.499986 0.877975 0.809724 0 0 -1.71661e-05
24 1 0.749986 0.833971 0.684749 0 0 -0.000656128
25 1 0.999986 0.33397 0.684749 0 0 -0.000650406
26 1 0.249986 0.377975 0.809724 0 0 -2.09808e-05
27 1 0.749986 0.377975 0.809724 0 0 -2.09808e-05
28 1 0.499986 0.33397 0.684749 0 0 -0.000650406
29 1 0.249986 0.59069 0.934686 0 0 3.62396e-05
30 1 0.749986 0.59069 0.934686 0 0 3.62396e-05
31 1 0.999986 0.0906908 0.934686 0 0 2.86102e-05
32 1 0.499986 0.0906908 0.934686 0 0 2.86102e-05
ITEM: TIMESTEP
3
ITEM: NUMBER OF ATOMS
32
ITEM: BOX BOUNDS xy xz yz pp pp pp
-4.0532350540161133e-03 6.4008854031562805e+00 0.0000000000000000e+00
-9.1640949249267578e-03 1.0920950651168823e+01 0.0000000000000000e+00
-4.7960281372070312e-02 2.0773346722126007e+01 5.3913553953170776e+00
ITEM: ATOMS id type xs ys zs fx fy fz
1 1 0.999986 0.607933 0.0598175 0 0 7.43866e-05
2 1 0.499986 0.607933 0.0598175 0 0 7.43866e-05
3 1 0.249986 0.107934 0.0598176 0 0 7.62939e-05
4 1 0.749986 0.107934 0.0598176 0 0 7.62939e-05
5 1 0.999986 0.364644 0.309772 0 0 -2.09808e-05
6 1 0.249986 0.320645 0.184788 0 0 -1.52588e-05
7 1 0.749986 0.320645 0.184788 0 0 -1.52588e-05
8 1 0.499986 0.364644 0.309772 0 0 -2.09808e-05
9 1 0.999986 0.820643 0.184788 0 0 -1.90735e-05
10 1 0.249986 0.864645 0.309772 0 0 -2.09808e-05
11 1 0.499986 0.820643 0.184788 0 0 -1.90735e-05
12 1 0.749986 0.864645 0.309772 0 0 -2.09808e-05
13 1 0.999986 0.121306 0.559749 0 0 -0.000394821
14 1 0.499986 0.121306 0.559749 0 0 -0.000394821
15 1 0.249986 0.621305 0.559749 0 0 -0.000391006
16 1 0.749986 0.621305 0.559749 0 0 -0.000391006
17 1 0.249986 0.0773323 0.434753 0 0 0.000391006
18 1 0.749986 0.0773323 0.434753 0 0 0.000391006
19 1 0.999986 0.577332 0.434752 0 0 0.000385284
20 1 0.499986 0.577332 0.434752 0 0 0.000385284
21 1 0.999986 0.877985 0.809714 0 0 1.14441e-05
22 1 0.249986 0.833989 0.68473 0 0 3.05176e-05
23 1 0.499986 0.877985 0.809714 0 0 1.14441e-05
24 1 0.749986 0.833989 0.68473 0 0 3.05176e-05
25 1 0.999986 0.333989 0.68473 0 0 3.05176e-05
26 1 0.249986 0.377985 0.809713 0 0 1.90735e-05
27 1 0.749986 0.377985 0.809713 0 0 1.90735e-05
28 1 0.499986 0.333989 0.68473 0 0 3.05176e-05
29 1 0.249986 0.590692 0.934684 0 0 -8.58307e-05
30 1 0.749986 0.590692 0.934684 0 0 -8.58307e-05
31 1 0.999986 0.0906931 0.934684 0 0 -7.05719e-05
32 1 0.499986 0.0906931 0.934684 0 0 -7.05719e-05
ITEM: TIMESTEP
4
ITEM: NUMBER OF ATOMS
32
ITEM: BOX BOUNDS xy xz yz pp pp pp
-4.0532350540161133e-03 6.4008854031562805e+00 0.0000000000000000e+00
-9.1640949249267578e-03 1.0920950651168823e+01 0.0000000000000000e+00
-4.7960281372070312e-02 2.0773346722126007e+01 5.3913553953170776e+00
ITEM: ATOMS id type xs ys zs fx fy fz
1 1 0.999986 0.607933 0.0598175 0 0 7.43866e-05
2 1 0.499986 0.607933 0.0598175 0 0 7.43866e-05
3 1 0.249986 0.107934 0.0598176 0 0 7.62939e-05
4 1 0.749986 0.107934 0.0598176 0 0 7.62939e-05
5 1 0.999986 0.364644 0.309772 0 0 -2.09808e-05
6 1 0.249986 0.320645 0.184788 0 0 -1.52588e-05
7 1 0.749986 0.320645 0.184788 0 0 -1.52588e-05
8 1 0.499986 0.364644 0.309772 0 0 -2.09808e-05
9 1 0.999986 0.820643 0.184788 0 0 -1.90735e-05
10 1 0.249986 0.864645 0.309772 0 0 -2.09808e-05
11 1 0.499986 0.820643 0.184788 0 0 -1.90735e-05
12 1 0.749986 0.864645 0.309772 0 0 -2.09808e-05
13 1 0.999986 0.121306 0.559749 0 0 -0.000394821
14 1 0.499986 0.121306 0.559749 0 0 -0.000394821
15 1 0.249986 0.621305 0.559749 0 0 -0.000391006
16 1 0.749986 0.621305 0.559749 0 0 -0.000391006
17 1 0.249986 0.0773323 0.434753 0 0 0.000391006
18 1 0.749986 0.0773323 0.434753 0 0 0.000391006
19 1 0.999986 0.577332 0.434752 0 0 0.000385284
20 1 0.499986 0.577332 0.434752 0 0 0.000385284
21 1 0.999986 0.877985 0.809714 0 0 1.14441e-05
22 1 0.249986 0.833989 0.68473 0 0 3.05176e-05
23 1 0.499986 0.877985 0.809714 0 0 1.14441e-05
24 1 0.749986 0.833989 0.68473 0 0 3.05176e-05
25 1 0.999986 0.333989 0.68473 0 0 3.05176e-05
26 1 0.249986 0.377985 0.809713 0 0 1.90735e-05
27 1 0.749986 0.377985 0.809713 0 0 1.90735e-05
28 1 0.499986 0.333989 0.68473 0 0 3.05176e-05
29 1 0.249986 0.590692 0.934684 0 0 -8.58307e-05
30 1 0.749986 0.590692 0.934684 0 0 -8.58307e-05
31 1 0.999986 0.0906931 0.934684 0 0 -7.05719e-05
32 1 0.499986 0.0906931 0.934684 0 0 -7.05719e-05
