LAMMPS (23 Jun 2022 - Update 1)
OMP_NUM_THREADS environment is not set. Defaulting to 1 thread. (src/comm.cpp:98)
  using 1 OpenMP thread(s) per MPI task
Loaded 1 plugins from /software/deepmd-kit/2.1.5/gpu/lib/deepmd_lmp
Loaded 0 plugins from 
Reading data file ...
  orthogonal box = (0 0 0) to (26.25021 26.25021 25.3108)
  1 by 1 by 1 MPI processor grid
  reading atoms ...
  900 atoms
  read_data CPU = 0.005 seconds
Summary of lammps deepmd module ...
  >>> Info of deepmd-kit:
  installed to:       /software/deepmd-kit/2.1.5/gpu
  source:             v2.1.5
  source branch:       HEAD
  source commit:      6e3d4a62
  source commit at:   2022-09-23 16:10:28 +0800
  surpport model ver.:1.1 
  build float prec:   double
  build variant:      cuda
  build with tf inc:  /software/deepmd-kit/2.1.5/gpu/include;/software/deepmd-kit/2.1.5/gpu/include
  build with tf lib:  /software/deepmd-kit/2.1.5/gpu/lib/libtensorflow_cc.so;/software/deepmd-kit/2.1.5/gpu/lib/libtensorflow_framework.so
  set tf intra_op_parallelism_threads: 0
  set tf inter_op_parallelism_threads: 0
  >>> Info of lammps module:
  use deepmd-kit at:  /software/deepmd-kit/2.1.5/gpuDeePMD-kit WARNING: Environmental variable TF_INTRA_OP_PARALLELISM_THREADS is not set. Tune TF_INTRA_OP_PARALLELISM_THREADS for the best performance.
DeePMD-kit WARNING: Environmental variable TF_INTER_OP_PARALLELISM_THREADS is not set. Tune TF_INTER_OP_PARALLELISM_THREADS for the best performance.
DeePMD-kit WARNING: Environmental variable OMP_NUM_THREADS is not set. Tune OMP_NUM_THREADS for the best performance.
2023-03-03 14:56:35.773050: I tensorflow/core/platform/cpu_feature_guard.cc:193] This TensorFlow binary is optimized with oneAPI Deep Neural Network Library (oneDNN) to use the following CPU instructions in performance-critical operations:  SSE4.1 SSE4.2 AVX
To enable them in other operations, rebuild TensorFlow with the appropriate compiler flags.
2023-03-03 14:56:36.425572: I tensorflow/core/common_runtime/gpu/gpu_device.cc:1532] Created device /job:localhost/replica:0/task:0/device:GPU:0 with 10059 MB memory:  -> device: 0, name: GeForce GTX 1080 Ti, pci bus id: 0000:04:00.0, compute capability: 6.1
2023-03-03 14:56:36.425874: I tensorflow/core/common_runtime/process_util.cc:146] Creating new thread pool with default inter op setting: 2. Tune using inter_op_parallelism_threads for best performance.
2023-03-03 14:56:36.472083: I tensorflow/compiler/mlir/mlir_graph_optimization_pass.cc:354] MLIR V1 optimization pass is not enabled
  >>> Info of model(s):
  using   1 model(s): model.pb 
  rcut in model:      6
  ntypes in model:    4

CITE-CITE-CITE-CITE-CITE-CITE-CITE-CITE-CITE-CITE-CITE-CITE-CITE

Your simulation uses code contributions which should be cited:
- USER-DEEPMD package:
The log file lists these citations in BibTeX format.

CITE-CITE-CITE-CITE-CITE-CITE-CITE-CITE-CITE-CITE-CITE-CITE-CITE

Generated 0 of 6 mixed pair_coeff terms from geometric mixing rule
Neighbor list info ...
  update every 10 steps, delay 0 steps, check no
  max neighbors/atom: 2000, page size: 100000
  master list distance cutoff = 7
  ghost atom cutoff = 7
  binsize = 3.5, bins = 8 8 8
  1 neighbor lists, perpetual/occasional/extra = 1 0 0
  (1) pair deepmd, perpetual
      attributes: full, newton on
      pair build: full/bin/atomonly
      stencil: full/bin/3d
      bin: standard
Setting up Verlet run ...
  Unit style    : metal
  Current step  : 0
  Time step     : 0.002
Per MPI rank memory allocation (min/avg/max) = 2.657 | 2.657 | 2.657 Mbytes
   Step          Temp          E_pair         E_mol          TotEng         Press     
         0   500           -3889.3627      0             -3831.2602      12523.097    
      2000   533.10257     -3836.5832      0             -3774.6341      15422.22     
Loop time of 112.027 on 1 procs for 2000 steps with 900 atoms

Performance: 3.085 ns/day, 7.780 hours/ns, 17.853 timesteps/s
58.9% CPU use with 1 MPI tasks x 1 OpenMP threads

MPI task timing breakdown:
Section |  min time  |  avg time  |  max time  |%varavg| %total
---------------------------------------------------------------
Pair    | 110.97     | 110.97     | 110.97     |   0.0 | 99.05
Neigh   | 0.95615    | 0.95615    | 0.95615    |   0.0 |  0.85
Comm    | 0.042064   | 0.042064   | 0.042064   |   0.0 |  0.04
Output  | 0.00035047 | 0.00035047 | 0.00035047 |   0.0 |  0.00
Modify  | 0.047089   | 0.047089   | 0.047089   |   0.0 |  0.04
Other   |            | 0.01532    |            |       |  0.01

Nlocal:            900 ave         900 max         900 min
Histogram: 1 0 0 0 0 0 0 0 0 0
Nghost:           2460 ave        2460 max        2460 min
Histogram: 1 0 0 0 0 0 0 0 0 0
Neighs:              0 ave           0 max           0 min
Histogram: 1 0 0 0 0 0 0 0 0 0
FullNghs:        65742 ave       65742 max       65742 min
Histogram: 1 0 0 0 0 0 0 0 0 0

Total # of neighbors = 65742
Ave neighs/atom = 73.046667
Neighbor list builds = 200
Dangerous builds not checked
Generated 0 of 6 mixed pair_coeff terms from geometric mixing rule
Setting up Verlet run ...
  Unit style    : metal
  Current step  : 0
  Time step     : 0.002
Per MPI rank memory allocation (min/avg/max) = 3.941 | 3.941 | 3.941 Mbytes
   Step          Time           Temp          KinEng         TotEng         Press     
         0   0              533.10257      61.949115     -3774.6341      15422.22     
       100   0.2            507.22285      58.941765     -3776.8192      13271.589    
       200   0.4            504.52323      58.628056     -3779.8486      14111.186    
       300   0.6            500.04411      58.107561     -3779.9941      12942.103    
       400   0.8            509.80499      59.241823     -3778.7367      15385.272    
       500   1              522.31144      60.695133     -3778.1864      14712.187    
       600   1.2            510.59232      59.333314     -3777.6042      14248.927    
       700   1.4            487.53031      56.653396     -3778.6101      15385.307    
       800   1.6            498.47531      57.925258     -3781.0353      13816.194    
       900   1.8            503.4304       58.501065     -3782.1213      15201.998    
      1000   2              482.95311      56.121503     -3780.2458      16132.531    
      1100   2.2            501.15395      58.23653      -3776.3853      15048.724    
      1200   2.4            510.0465       59.269887     -3776.7051      15017.437    
      1300   2.6            489.32095      56.861478     -3778.8616      13257.694    
      1400   2.8            497.95057      57.864281     -3780.9881      15283.458    
      1500   3              505.68897      58.763522     -3781.5257      13697.893    
      1600   3.2            477.88374      55.532418     -3780.7366      14921.839    
      1700   3.4            505.98984      58.798484     -3780.0092      14012.152    
      1800   3.6            501.73997      58.304628     -3779.2036      12810.604    
      1900   3.8            503.29572      58.485414     -3778.0388      16668.472    
      2000   4              503.72554      58.535361     -3776.9883      13083.53     
      2100   4.2            507.46806      58.97026      -3777.864       14610.7      
      2200   4.4            514.15438      59.747243     -3781.0406      14754.447    
      2300   4.6            485.14227      56.375894     -3782.2724      12582.522    
      2400   4.8            504.55165      58.631359     -3781.1109      15400.138    
      2500   5              503.56038      58.516169     -3776.6318      13421.706    
      2600   5.2            522.42133      60.707903     -3776.0987      15019.86     
      2700   5.4            496.83907      57.735119     -3778.2599      14297.47     
      2800   5.6            501.85004      58.317419     -3780.1317      12205.498    
      2900   5.8            491.5751       57.123421     -3781.2601      15743.677    
      3000   6              501.69524      58.29943      -3780.3656      13483.715    
      3100   6.2            497.5993       57.823462     -3779.4619      13811.421    
      3200   6.4            490.60223      57.010368     -3779.1786      14997.928    
      3300   6.6            500.66455      58.179659     -3778.9301      14755.02     
      3400   6.8            503.84969      58.549787     -3779.668       15344.922    
      3500   7              483.61972      56.198966     -3782.9609      14682.452    
      3600   7.2            482.81319      56.105245     -3783.1201      14190.333    
      3700   7.4            507.48922      58.972719     -3779.6787      13300.369    
      3800   7.6            511.21967      59.406216     -3778.176       15440.459    
      3900   7.8            511.91832      59.487402     -3778.7223      16550.864    
      4000   8              487.7928       56.683899     -3781.0772      14671.936    
      4100   8.2            484.9198       56.350043     -3783.1957      15864.313    
      4200   8.4            494.86136      57.5053       -3782.1316      15028.266    
      4300   8.6            496.39763      57.683822     -3776.697       13656.939    
      4400   8.8            509.91439      59.254536     -3776.4602      15087.84     
      4500   9              498.96144      57.981749     -3779.1501      16066.988    
      4600   9.2            492.54725      57.236389     -3781.4724      14549.431    
      4700   9.4            473.02192      54.967451     -3782.2061      13725.906    
      4800   9.6            509.76088      59.236697     -3779.72        15440.929    
      4900   9.8            511.707        59.462846     -3776.6033      12130.195    
      5000   10             505.99275      58.798822     -3777.2964      15410.697    
      5100   10.2           527.33843      61.279293     -3778.8792      13903.227    
      5200   10.4           479.38014      55.706307     -3780.4207      13292.308    
      5300   10.6           491.44281      57.108048     -3780.9219      14859.008    
      5400   10.8           522.39783      60.705172     -3780.1659      14540.18     
      5500   11             504.08676      58.577337     -3777.0182      11757.481    
      5600   11.2           519.93951      60.419503     -3774.9037      16831.78     
      5700   11.4           524.19728      60.914277     -3777.3857      13051.277    
      5800   11.6           494.79951      57.498113     -3780.3093      12563.784    
      5900   11.8           493.37883      57.333024     -3780.798       12333.944    
      6000   12             487.20141      56.615177     -3780.7461      14035.133    
      6100   12.2           504.84113      58.664998     -3780.908       13515.599    
      6200   12.4           501.32771      58.256721     -3781.4492      14463.282    
      6300   12.6           502.9052       58.440033     -3780.8442      12910.655    
      6400   12.8           498.47436      57.925149     -3779.0145      13324.795    
      6500   13             516.2784       59.994065     -3776.8083      12895.504    
      6600   13.2           514.29891      59.764038     -3776.6396      13824.33     
      6700   13.4           482.06128      56.017869     -3781.0914      13204.203    
      6800   13.6           480.08821      55.788588     -3781.7456      12739.927    
      6900   13.8           494.99134      57.520405     -3779.9277      14655.148    
      7000   14             501.40627      58.26585      -3778.1622      14011.504    
      7100   14.2           512.05137      59.502863     -3778.0155      11738.786    
      7200   14.4           494.45024      57.457526     -3781.5108      15259.722    
      7300   14.6           494.46946      57.45976      -3783.9463      12929.643    
      7400   14.8           476.0163       55.315412     -3783.7394      11865.341    
      7500   15             504.57585      58.634171     -3779.9501      15877.861    
      7600   15.2           510.89957      59.369018     -3778.6264      14912.164    
      7700   15.4           499.75128      58.073533     -3779.6479      12968.527    
      7800   15.6           497.21063      57.778296     -3781.4883      15895.637    
      7900   15.8           495.64539      57.596408     -3784.1807      12764.244    
      8000   16             473.25248      54.994243     -3786.0136      13151.233    
      8100   16.2           501.69534      58.299442     -3782.4843      14238.842    
      8200   16.4           504.30748      58.602985     -3779.6638      14345.023    
      8300   16.6           511.5505       59.44466      -3778.8218      12102.23     
      8400   16.8           525.31241      61.04386      -3778.1954      15052.156    
      8500   17             488.17179      56.72794      -3778.93        13802.577    
      8600   17.2           490.69154      57.020746     -3781.9919      13863.316    
      8700   17.4           474.99509      55.196743     -3783.7215      15415.033    
      8800   17.6           501.90999      58.324385     -3781.9018      13547.356    
      8900   17.8           486.80407      56.569003     -3778.3818      14530.283    
      9000   18             504.8854       58.670143     -3778.4287      13787.001    
      9100   18.2           513.22801      59.639595     -3779.8304      14630.644    
      9200   18.4           480.56069      55.843493     -3781.8559      15094.36     
      9300   18.6           499.66281      58.063252     -3782.4431      14195.003    
      9400   18.8           492.37347      57.216195     -3780.1415      15872.292    
      9500   19             511.1102       59.393494     -3776.9476      14812.04     
      9600   19.2           504.71134      58.649916     -3777.4557      13408.323    
      9700   19.4           512.95637      59.608029     -3780.5021      13784.958    
      9800   19.6           492.32304      57.210335     -3782.6226      13855.374    
      9900   19.8           489.50639      56.883027     -3782.0529      12174.802    
     10000   20             489.9602       56.935762     -3780.5946      14685.312    
     10100   20.2           484.61722      56.314881     -3778.5305      15187.444    
     10200   20.4           518.49758      60.251944     -3775.887       14470.293    
     10300   20.6           545.55189      63.395786     -3772.5936      13932.762    
     10400   20.8           516.42349      60.010925     -3775.4052      14404.193    
     10500   21             506.11271      58.812762     -3779.0206      13539.845    
     10600   21.2           494.13431      57.420814     -3780.6693      13950.635    
     10700   21.4           494.34837      57.445688     -3781.396       12929.684    
     10800   21.6           507.46454      58.969851     -3780.843       14871.882    
     10900   21.8           492.23463      57.200062     -3778.6219      12672.894    
     11000   22             513.65703      59.689449     -3777.0434      14246.232    
     11100   22.2           522.87682      60.760833     -3779.1114      14135.762    
     11200   22.4           495.21244      57.546098     -3782.5691      12518.586    
     11300   22.6           490.54878      57.004157     -3782.2475      11902.958    
     11400   22.8           511.40136      59.427329     -3780.5281      13644.681    
     11500   23             495.60758      57.592014     -3778.3148      13577.982    
     11600   23.2           513.64606      59.688174     -3773.9879      13485.483    
     11700   23.4           523.01418      60.776795     -3774.3759      14920.608    
     11800   23.6           503.39784      58.497281     -3777.8413      14303.402    
     11900   23.8           516.53637      60.024042     -3779.9141      13197.743    
     12000   24             480.3649       55.820741     -3782.1558      12466.967    
     12100   24.2           491.50895      57.115734     -3783.3105      14514.669    
     12200   24.4           481.26354      55.925167     -3781.9276      14182.648    
     12300   24.6           508.26945      59.063386     -3778.0253      11797.689    
     12400   24.8           518.80891      60.288122     -3777.9297      13694.647    
     12500   25             501.90769      58.324118     -3780.1009      15126.822    
     12600   25.2           502.42474      58.384202     -3781.5379      13581.701    
     12700   25.4           482.33226      56.049358     -3781.5999      11977.176    
     12800   25.6           509.75417      59.235917     -3780.5108      14749.365    
     12900   25.8           495.49172      57.578551     -3779.2928      14048.956    
     13000   26             516.35935      60.003471     -3776.0524      13413.319    
     13100   26.2           498.1939       57.892558     -3773.9489      15064.8      
     13200   26.4           513.01267      59.614571     -3777.2126      15222.732    
     13300   26.6           498.80217      57.963241     -3779.5377      14254.11     
     13400   26.8           515.43012      59.895491     -3781.0038      13537.325    
     13500   27             484.90675      56.348526     -3782.4204      14808.406    
     13600   27.2           486.69347      56.556151     -3783.0332      12764.156    
     13700   27.4           494.52309      57.465992     -3780.8468      11813.971    
     13800   27.6           503.58118      58.518586     -3777.7648      15762.19     
     13900   27.8           513.22866      59.63967      -3778.0356      12585.473    
     14000   28             506.11952      58.813553     -3781.0335      10776.361    
     14100   28.2           494.48057      57.46105      -3782.7679      15375.858    
     14200   28.4           504.99767      58.683189     -3782.0022      13966.444    
     14300   28.6           497.36535      57.796276     -3780.92        12930.264    
     14400   28.8           506.34428      58.839671     -3779.7544      15493.958    
     14500   29             497.98603      57.868402     -3779.4249      11110.338    
     14600   29.2           507.6334       58.989474     -3778.6102      12921.743    
     14700   29.4           508.21137      59.056637     -3778.2759      16116.175    
     14800   29.6           517.26199      60.108362     -3779.7245      12108.11     
     14900   29.8           486.59479      56.544685     -3782.2777      14734.254    
     15000   30             490.07076      56.948609     -3782.8348      14500.02     
     15100   30.2           511.21551      59.405732     -3780.3972      13822.155    
     15200   30.4           521.87705      60.644655     -3776.6219      14774.455    
     15300   30.6           519.33326      60.349055     -3776.9983      14502.179    
     15400   30.8           488.33677      56.747111     -3779.8966      13764.602    
     15500   31             513.70126      59.694588     -3780.576       14074.709    
     15600   31.2           493.47872      57.34463      -3780.9424      13862.326    
     15700   31.4           487.26215      56.622235     -3781.0709      14779.451    
     15800   31.6           507.09705      58.927147     -3778.639       12639.273    
     15900   31.8           513.39082      59.658514     -3776.1776      12715.663    
     16000   32             517.20632      60.101893     -3777.408       13863.297    
     16100   32.2           502.89107      58.438392     -3780.9014      14597.041    
     16200   32.4           489.20982      56.848563     -3781.8971      12603.113    
     16300   32.6           482.64909      56.086175     -3781.2142      15589.531    
     16400   32.8           507.1882       58.937739     -3778.694       14132.003    
     16500   33             520.97458      60.539784     -3775.9426      12959.405    
     16600   33.2           522.67622      60.737522     -3777.1469      12526.793    
     16700   33.4           497.01624      57.755708     -3782.116       11866.05     
     16800   33.6           505.41269      58.731416     -3782.9585      15562.083    
     16900   33.8           497.8617       57.853955     -3781.4891      12462.37     
     17000   34             504.41807      58.615837     -3778.8117      15300.91     
     17100   34.2           502.65533      58.410998     -3778.373       13321.954    
     17200   34.4           489.9029       56.929103     -3781.6732      14911.099    
     17300   34.6           465.5336       54.097272     -3784.2167      13820.893    
     17400   34.8           476.20661      55.337527     -3782.6987      14023.952    
     17500   35             497.11971      57.767732     -3780.5685      12790.501    
     17600   35.2           486.97853      56.589276     -3779.8456      13006.396    
     17700   35.4           498.3622       57.912115     -3779.0973      15371.802    
     17800   35.6           499.7352       58.071664     -3779.9493      13320.417    
     17900   35.8           498.88949      57.973388     -3782.7079      15286.402    
     18000   36             478.46131      55.599535     -3783.0919      13326.734    
     18100   36.2           474.66951      55.158909     -3780.376       13690.679    
     18200   36.4           504.6802       58.646297     -3777.6407      13466.463    
     18300   36.6           506.57617      58.866618     -3778.3165      15068.564    
     18400   36.8           491.47609      57.111915     -3779.7372      12021.347    
     18500   37             503.82468      58.546882     -3780.6085      13928.679    
     18600   37.2           507.60371      58.986023     -3781.4882      14636.787    
     18700   37.4           511.70884      59.46306      -3781.9333      11819.706    
     18800   37.6           502.30005      58.369713     -3780.5368      14778.798    
     18900   37.8           513.01872      59.615274     -3778.0721      12242.131    
     19000   38             514.03786      59.733703     -3776.6363      12949.016    
     19100   38.2           495.55176      57.585528     -3778.6861      14677.995    
     19200   38.4           480.98388      55.89267      -3782.3292      13011.484    
     19300   38.6           489.11162      56.837152     -3782.0697      14345.158    
     19400   38.8           492.86434      57.273236     -3780.2399      13026.167    
     19500   39             507.42607      58.965381     -3778.4552      14054.48     
     19600   39.2           539.25193      62.663701     -3777.3964      12834.058    
     19700   39.4           507.86988      59.016954     -3776.547       14021.103    
     19800   39.6           509.21549      59.17332      -3778.9151      13370.651    
     19900   39.8           499.79823      58.078989     -3781.5846      13287.765    
     20000   40             485.40983      56.406986     -3782.0043      15438.827    
     20100   40.2           495.4953       57.578967     -3779.7902      13309.579    
     20200   40.4           513.67188      59.691174     -3776.3196      15948.959    
     20300   40.6           518.37844      60.2381       -3777.4511      14282.847    
     20400   40.8           500.05999      58.109407     -3778.9706      13593.294    
     20500   41             489.7358       56.909685     -3780.1122      14745.891    
     20600   41.2           497.345        57.793911     -3780.3762      14050.458    
     20700   41.4           488.46755      56.762309     -3779.9982      13214.223    
     20800   41.6           516.11437      59.975004     -3779.5194      15491.647    
     20900   41.8           487.84431      56.689885     -3779.3758      13564.689    
     21000   42             497.42229      57.802893     -3779.1401      13236.291    
     21100   42.2           510.17063      59.284311     -3779.6724      15476.404    
     21200   42.4           490.61817      57.012221     -3782.2024      12590.758    
     21300   42.6           474.76726      55.170268     -3784.2952      16461.363    
     21400   42.8           501.31648      58.255417     -3782.1927      14071.306    
     21500   43             497.79719      57.846458     -3778.488       12553.005    
     21600   43.2           508.93224      59.140405     -3778.5294      16250.131    
     21700   43.4           494.53705      57.467613     -3780.4061      15719.524    
     21800   43.6           467.51205      54.327177     -3782.5299      14040.822    
     21900   43.8           488.45533      56.760888     -3783.4503      14244.759    
     22000   44             486.26289      56.506116     -3782.7981      15550.595    
     22100   44.2           497.43341      57.804185     -3779.9808      15606.249    
     22200   44.4           497.58187      57.821437     -3777.839       15527.254    
     22300   44.6           499.63961      58.060556     -3778.6937      14074.36     
     22400   44.8           486.09268      56.486337     -3782.0435      12426.683    
     22500   45             494.13311      57.420674     -3782.378       13940.361    
     22600   45.2           487.20466      56.615555     -3781.2759      14809.493    
     22700   45.4           509.61916      59.220228     -3780.4904      12533.27     
     22800   45.6           518.20527      60.217976     -3779.8396      13714.381    
     22900   45.8           491.18664      57.07828      -3779.6463      14278.478    
     23000   46             492.9801       57.286689     -3778.1456      12387.717    
     23100   46.2           500.71094      58.18505      -3776.9876      15638.577    
     23200   46.4           525.23088      61.034387     -3778.4128      14936.569    
     23300   46.6           478.309        55.581836     -3781.5197      13068.484    
     23400   46.8           481.86008      55.994488     -3782.4225      14326.696    
     23500   47             489.9344       56.932763     -3780.7653      13514.995    
     23600   47.2           523.78504      60.866373     -3776.6766      13750.491    
     23700   47.4           496.45596      57.690601     -3776.5403      14038.708    
     23800   47.6           517.16315      60.096876     -3778.2469      11428.05     
     23900   47.8           482.42497      56.060131     -3780.6185      14453.184    
     24000   48             493.8546       57.38831      -3781.7935      13948.329    
     24100   48.2           500.39189      58.147975     -3782.1308      13042.84     
     24200   48.4           528.70316      61.437882     -3778.1992      13540.004    
     24300   48.6           519.02852      60.313642     -3776.8852      14236.957    
     24400   48.8           511.59648      59.450003     -3778.8352      13246.411    
     24500   49             482.644        56.085584     -3781.9749      14320.083    
     24600   49.2           497.50626      57.812651     -3782.1267      16815.226    
     24700   49.4           486.58147      56.543136     -3780.741       14234.925    
     24800   49.6           500.41918      58.151145     -3778.6017      14287.384    
     24900   49.8           513.05334      59.619297     -3778.2084      15349.108    
     25000   50             508.56243      59.097431     -3778.8782      14838.633    
     25100   50.2           504.31704      58.604096     -3780.6219      15696.253    
     25200   50.4           478.96498      55.658064     -3785.1614      15461.213    
     25300   50.6           457.81506      53.200339     -3784.4414      12353.086    
     25400   50.8           501.62434      58.291192     -3781.0451      14191.908    
     25500   51             503.33158      58.489581     -3779.5525      13752.722    
     25600   51.2           494.70611      57.48726      -3778.3357      15054.37     
     25700   51.4           519.14846      60.327579     -3777.8603      13118.506    
     25800   51.6           502.37656      58.378603     -3780.0684      15963.381    
     25900   51.8           489.04274      56.829148     -3783.0399      15423.714    
     26000   52             494.79378      57.497447     -3782.4241      13523.699    
     26100   52.2           507.84315      59.013848     -3779.3388      13847.647    
     26200   52.4           506.2          58.822905     -3777.6096      15156.175    
     26300   52.6           503.69504      58.531817     -3777.8535      12852.486    
     26400   52.8           520.07343      60.435066     -3779.1452      13375.262    
     26500   53             493.36249      57.331124     -3780.8022      16019.56     
     26600   53.2           480.0101       55.779511     -3782.3515      13814.588    
     26700   53.4           464.85809      54.018775     -3784.3159      13160.602    
     26800   53.6           486.68677      56.555373     -3782.3547      14636.284    
     26900   53.8           495.61249      57.592585     -3779.2275      14530.131    
     27000   54             493.90067      57.393663     -3778.0612      13394.543    
     27100   54.2           506.61678      58.871337     -3777.9653      15327.306    
     27200   54.4           517.74654      60.16467      -3780.9981      14476.919    
     27300   54.6           504.20045      58.590548     -3783.7503      14099.853    
     27400   54.8           505.53774      58.745947     -3782.2107      11828.473    
     27500   55             501.32284      58.256156     -3779.3991      14825.454    
     27600   55.2           513.76654      59.702174     -3778.5182      13845.159    
     27700   55.4           511.24219      59.408833     -3779.443       13736.391    
     27800   55.6           476.79725      55.406163     -3781.5193      14099.392    
     27900   55.8           508.74263      59.118371     -3784.0321      14429.209    
     28000   56             477.57948      55.497062     -3785.7404      12868.979    
     28100   56.2           493.45662      57.342062     -3781.9204      14511.488    
     28200   56.4           513.00806      59.614035     -3779.3504      13714.881    
     28300   56.6           504.86066      58.667268     -3777.8983      14838.146    
     28400   56.8           515.09098      59.856081     -3777.1032      12475.94     
     28500   57             487.58969      56.660297     -3778.9018      14933.432    
     28600   57.2           482.68287      56.090101     -3782.1913      13993.261    
     28700   57.4           478.7267       55.630374     -3782.567       11919.08     
     28800   57.6           487.47653      56.647147     -3779.7519      14845.352    
     28900   57.8           486.02611      56.478601     -3778.5361      15453.768    
     29000   58             498.32694      57.908018     -3778.4102      13158.679    
     29100   58.2           483.33812      56.166243     -3779.4444      14357.046    
     29200   58.4           504.54253      58.6303       -3781.5784      13830.998    
     29300   58.6           490.14471      56.957202     -3782.9764      14046.396    
     29400   58.8           488.24916      56.73693      -3781.7242      15018.606    
     29500   59             523.42837      60.824926     -3777.7894      13722.082    
     29600   59.2           516.4555       60.014645     -3777.6927      14663.442    
     29700   59.4           515.83469      59.942503     -3779.2977      15271.435    
     29800   59.6           500.18523      58.12396      -3782.4063      12468.017    
     29900   59.8           494.6415       57.479751     -3783.3355      15157.301    
     30000   60             515.29019      59.87923      -3781.0537      13639.628    
     30100   60.2           501.37781      58.262544     -3779.6677      13190.844    
     30200   60.4           492.22909      57.199418     -3779.589       14680.891    
     30300   60.6           506.67333      58.877908     -3779.5926      14032.673    
     30400   60.8           479.36491      55.704538     -3780.0424      13197.31     
     30500   61             506.1743       58.819919     -3780.3742      14833.851    
     30600   61.2           496.7864       57.728999     -3780.7157      12861.008    
     30700   61.4           490.81149      57.034685     -3780.7553      13030.716    
     30800   61.6           505.75854      58.771606     -3780.2159      15171.966    
     30900   61.8           517.97688      60.191436     -3778.6605      13623.927    
     31000   62             520.79497      60.518912     -3776.8617      13037.664    
     31100   62.2           508.55826      59.096946     -3776.5665      16512.14     
     31200   62.4           491.35282      57.097591     -3780.2409      14155.972    
     31300   62.6           495.06323      57.528758     -3782.1178      13604.324    
     31400   62.8           506.79394      58.891924     -3781.4731      14130.988    
     31500   63             500.74054      58.188489     -3779.2073      13027.261    
     31600   63.2           528.19262      61.378555     -3775.3848      14337.959    
     31700   63.4           526.33069      61.162189     -3775.303       15336.34     
     31800   63.6           504.84457      58.665398     -3777.1122      12731.368    
     31900   63.8           521.70625      60.624807     -3779.2709      15346.993    
     32000   64             491.96662      57.168917     -3781.5508      12518.036    
     32100   64.2           483.68749      56.206842     -3782.2064      14264.547    
     32200   64.4           486.0257       56.478554     -3780.5242      14667.662    
     32300   64.6           515.06566      59.853138     -3776.4753      12423.589    
     32400   64.8           505.29021      58.717183     -3777.3018      15624.83     
     32500   65             494.66763      57.482788     -3780.0427      11435.409    
     32600   65.2           495.54933      57.585245     -3781.4238      13439.381    
     32700   65.4           494.58523      57.473212     -3781.4887      15316.588    
     32800   65.6           505.38849      58.728604     -3780.6376      13071.559    
     32900   65.8           510.8371       59.361759     -3779.6322      14073.147    
     33000   66             502.60961      58.405685     -3777.6295      14486.305    
     33100   66.2           507.97187      59.028806     -3777.2221      15238.539    
     33200   66.4           489.3709       56.867281     -3779.9016      12283.185    
     33300   66.6           498.62809      57.943013     -3782.2266      14560.904    
     33400   66.8           490.17657      56.960905     -3782.3466      13535.016    
     33500   67             506.50512      58.858362     -3778.954       14203.273    
     33600   67.2           501.78885      58.310309     -3777.0336      14056.676    
     33700   67.4           498.16478      57.889174     -3778.0892      12273.285    
     33800   67.6           511.03586      59.384856     -3780.4367      14583.129    
     33900   67.8           485.50091      56.417571     -3782.0245      12311.022    
     34000   68             502.90889      58.440462     -3781.173       14136.823    
     34100   68.2           528.62483      61.42878      -3776.407       13083.955    
     34200   68.4           512.22285      59.52279      -3776.3809      13548.227    
     34300   68.6           505.52542      58.744516     -3778.8885      14649.876    
     34400   68.8           507.14515      58.932737     -3781.0907      13381.487    
     34500   69             496.85504      57.736976     -3781.2162      12747.475    
     34600   69.2           501.10912      58.23132      -3780.4274      14598.217    
     34700   69.4           519.31616      60.347067     -3776.7993      14277.282    
     34800   69.6           523.59607      60.844414     -3773.8078      15276.223    
     34900   69.8           506.76166      58.888173     -3776.2773      15041.905    
     35000   70             519.48597      60.366799     -3778.7615      13506.699    
     35100   70.2           497.30704      57.789501     -3780.8324      15086.131    
     35200   70.4           500.26606      58.133352     -3781.6118      14290.309    
     35300   70.6           495.87619      57.623228     -3780.6556      13171.487    
     35400   70.8           515.25477      59.875114     -3776.4915      14815.72     
     35500   71             525.19142      61.029801     -3776.9423      17250.604    
     35600   71.2           518.73723      60.279793     -3779.5084      13749.227    
     35700   71.4           492.99742      57.288701     -3780.9126      14688.813    
     35800   71.6           515.26821      59.876675     -3780.7333      14891.074    
     35900   71.8           500.09939      58.113985     -3779.9062      14246.142    
     36000   72             513.02755      59.6163       -3779.0733      13951.874    
     36100   72.2           500.49871      58.160388     -3778.3804      14495.412    
     36200   72.4           519.35984      60.352142     -3778.7653      12438.394    
     36300   72.6           490.55722      57.005138     -3780.6682      13207.635    
     36400   72.8           500.92302      58.209695     -3782.2574      13626.73     
     36500   73             495.62582      57.594134     -3781.7196      13899.356    
     36600   73.2           501.31028      58.254696     -3778.0148      12587.932    
     36700   73.4           494.15103      57.422757     -3777.0538      16897.932    
     36800   73.6           499.43602      58.036897     -3778.7864      13023.203    
     36900   73.8           501.40021      58.265146     -3779.906       13938.691    
     37000   74             502.30226      58.369969     -3780.4023      14857.364    
     37100   74.2           476.84303      55.411482     -3780.2171      12433.757    
     37200   74.4           504.76721      58.656409     -3780.1539      14432.503    
     37300   74.6           494.17117      57.425097     -3780.5815      13630.042    
     37400   74.8           489.33591      56.863216     -3780.5063      13225.977    
     37500   75             512.62032      59.568978     -3779.6262      12851.391    
     37600   75.2           502.9389       58.44395      -3777.6238      12811.564    
     37700   75.4           523.80926      60.869187     -3775.9254      14966.97     
     37800   75.6           502.5394       58.397526     -3777.8423      14075.45     
     37900   75.8           512.03213      59.500628     -3781.5265      13720.945    
     38000   76             513.22284      59.638993     -3782.1737      13604.136    
     38100   76.2           488.71886      56.791511     -3780.6748      14839.671    
     38200   76.4           503.85553      58.550467     -3777.3829      14074.152    
     38300   76.6           504.25166      58.596499     -3776.9104      14675.738    
     38400   76.8           501.71568      58.301806     -3778.0748      15820.215    
     38500   77             486.00016      56.475585     -3779.2387      13455.691    
     38600   77.2           503.22776      58.477517     -3780.081       14023.336    
     38700   77.4           486.27835      56.507912     -3781.4969      15140.146    
     38800   77.6           473.5459       55.02834      -3784.9187      13788.899    
     38900   77.8           505.12326      58.697783     -3784.6949      13703.023    
     39000   78             495.28959      57.555063     -3780.8562      14338.926    
     39100   78.2           504.00788      58.56817      -3779.6503      12975.558    
     39200   78.4           492.87719      57.27473      -3779.0212      13629.117    
     39300   78.6           501.90053      58.323286     -3778.9395      14330.9      
     39400   78.8           492.17869      57.193561     -3780.4538      14111.243    
     39500   79             481.9794       56.008354     -3783.6834      14155.646    
     39600   79.2           475.91646      55.303811     -3783.7217      13228.762    
     39700   79.4           494.07307      57.413697     -3780.4887      11980.699    
     39800   79.6           503.98792      58.565851     -3778.703       15204.859    
     39900   79.8           522.33687      60.698089     -3779.0193      13978.713    
     40000   80             495.16069      57.540084     -3780.758       12572.268    
     40100   80.2           495.7609       57.609832     -3782.6969      14055.799    
     40200   80.4           467.17083      54.287526     -3784.3672      11902.469    
     40300   80.6           480.91075      55.884172     -3784.9745      13074.621    
     40400   80.8           484.1401       56.259437     -3781.637       15663.826    
     40500   81             506.69981      58.880986     -3779.1581      13615.478    
     40600   81.2           516.28179      59.994458     -3778.5649      14077.225    
     40700   81.4           499.09672      57.997469     -3779.29        17667.844    
     40800   81.6           495.63438      57.595128     -3783.0271      13117.222    
     40900   81.8           496.45676      57.690693     -3784.4687      14262.456    
     41000   82             485.62657      56.432173     -3782.6288      15078.958    
     41100   82.2           501.76105      58.307078     -3780.8537      14663.163    
     41200   82.4           499.65584      58.062442     -3780.4163      15625.48     
     41300   82.6           494.20929      57.429527     -3780.5736      14562.032    
     41400   82.8           495.71067      57.603994     -3781.6144      15460.332    
     41500   83             483.81654      56.221838     -3784.14        14845.98     
     41600   83.2           486.98789      56.590364     -3784.5741      14562.663    
     41700   83.4           508.83486      59.129089     -3780.787       12805.44     
     41800   83.6           506.52793      58.861012     -3779.197       13763.493    
     41900   83.8           496.48714      57.694224     -3780.0618      13273.809    
     42000   84             500.35728      58.143952     -3782.0282      13839.282    
     42100   84.2           470.51877      54.676573     -3784.5098      12228.926    
     42200   84.4           500.21749      58.127709     -3784.9467      12291.685    
     42300   84.6           492.12118      57.186878     -3781.2211      13062.567    
     42400   84.8           500.77087      58.192015     -3778.829       12348.837    
     42500   85             525.28377      61.040532     -3779.1476      12435.974    
     42600   85.2           494.93231      57.513545     -3781.2958      13931.563    
     42700   85.4           501.62559      58.291337     -3783.8554      12211.26     
     42800   85.6           504.57089      58.633594     -3783.1968      12888.127    
     42900   85.8           505.65852      58.759982     -3778.133       14533.459    
     43000   86             516.41114      60.00949      -3778.3228      13453.516    
     43100   86.2           501.35271      58.259626     -3780.4268      14094.108    
     43200   86.4           499.73794      58.071982     -3782.2382      14441.801    
     43300   86.6           496.15185      57.655261     -3782.3253      12996.093    
     43400   86.8           508.56122      59.097291     -3778.3466      15732.657    
     43500   87             510.12731      59.279278     -3776.3614      14744.582    
     43600   87.2           498.78915      57.961729     -3777.8101      12584.852    
     43700   87.4           490.98192      57.054491     -3780.4936      16403.31     
     43800   87.6           508.87467      59.133715     -3781.0102      13387.185    
     43900   87.8           500.4116       58.150265     -3780.9898      14346.531    
     44000   88             499.31979      58.023391     -3780.8107      15786.274    
     44100   88.2           488.78997      56.799776     -3781.3278      12550.122    
     44200   88.4           497.49074      57.810847     -3782.3529      14610.082    
     44300   88.6           499.98019      58.100134     -3782.3929      15728.957    
     44400   88.8           498.58655      57.938186     -3780.4231      12660.023    
     44500   89             500.19193      58.124738     -3778.2356      14391.257    
     44600   89.2           493.87882      57.391124     -3778.3404      16882.493    
     44700   89.4           489.21498      56.849163     -3781.9173      14524.468    
     44800   89.6           481.93746      56.00348      -3784.0604      13587.014    
     44900   89.8           503.06125      58.458168     -3782.7772      12692.783    
     45000   90             480.30377      55.813638     -3781.0182      12896.296    
     45100   90.2           515.99454      59.961079     -3779.7281      13259.891    
     45200   90.4           503.33794      58.49032      -3779.2991      13016.413    
     45300   90.6           508.00794      59.032997     -3779.7546      14206.459    
     45400   90.8           502.18636      58.356501     -3779.9212      14624.155    
     45500   91             496.73174      57.722647     -3779.7268      14326.315    
     45600   91.2           514.26886      59.760546     -3779.5629      14073.465    
     45700   91.4           495.97685      57.634926     -3780.362       14606.151    
     45800   91.6           497.52018      57.814268     -3781.5271      14248.002    
     45900   91.8           499.66841      58.063903     -3781.717       16059.018    
     46000   92             515.87452      59.947131     -3779.0435      14481.949    
     46100   92.2           523.1299       60.790242     -3776.6449      14184.655    
     46200   92.4           521.54114      60.60562      -3777.9392      15139.623    
     46300   92.6           498.96707      57.982404     -3780.9819      15394.951    
     46400   92.8           493.93611      57.397781     -3781.6227      14580.476    
     46500   93             494.08339      57.414896     -3780.534       14427.421    
     46600   93.2           489.59954      56.893851     -3778.5492      15649.367    
     46700   93.4           510.15007      59.281923     -3776.8131      13966.051    
     46800   93.6           496.34867      57.678133     -3777.8566      14480.072    
     46900   93.8           481.29286      55.928575     -3781.6637      14058.83     
     47000   94             484.69158      56.323522     -3782.1711      15819.373    
     47100   94.2           495.99689      57.637254     -3779.212       14422.292    
     47200   94.4           508.83802      59.129456     -3777.4377      13164.938    
     47300   94.6           506.75992      58.88797      -3778.2714      15771.816    
     47400   94.8           491.79967      57.149517     -3780.1874      14222.55     
     47500   95             506.98656      58.914307     -3781.3694      14207.8      
     47600   95.2           487.90681      56.697147     -3781.4683      14782.843    
     47700   95.4           516.38651      60.006627     -3778.0627      13952.544    
     47800   95.6           512.93534      59.605584     -3775.6231      15764.773    
     47900   95.8           514.76377      59.818057     -3778.1315      13578.618    
     48000   96             495.48846      57.578172     -3781.1553      14275.39     
     48100   96.2           505.18558      58.705025     -3781.9469      11753.685    
     48200   96.4           505.72701      58.767942     -3781.1541      14735.948    
     48300   96.6           498.5406       57.932845     -3778.3037      15817.233    
     48400   96.8           513.17078      59.632943     -3775.2891      13168.894    
     48500   97             522.2637       60.689586     -3777.4434      13171.692    
     48600   97.2           492.25678      57.202635     -3779.5793      14202.215    
     48700   97.4           509.82276      59.243887     -3780.3654      12520.717    
     48800   97.6           487.64619      56.666863     -3781.4384      14287.809    
     48900   97.8           484.23741      56.270746     -3782.1545      15271.964    
     49000   98             496.03414      57.641582     -3781.3609      13951.837    
     49100   98.2           506.33589      58.838696     -3778.4777      12677.067    
     49200   98.4           521.14171      60.559205     -3777.3879      14712.128    
     49300   98.6           522.92471      60.766398     -3779.2289      13852.96     
     49400   98.8           485.2535       56.38882      -3782.8421      13874.096    
     49500   99             487.19589      56.614536     -3782.609       14727.497    
     49600   99.2           517.71979      60.161562     -3780.4302      15063.604    
     49700   99.4           500.25741      58.132348     -3779.3578      13181.831    
     49800   99.6           509.69276      59.228781     -3779.0961      14271.611    
     49900   99.8           507.24861      58.94476      -3779.5315      15689.177    
     50000   100            486.78751      56.56708      -3780.1676      13963.098    
     50100   100.2          497.46466      57.807816     -3782.5404      14506.25     
     50200   100.4          472.81442      54.943339     -3784.8208      15923.994    
     50300   100.6          485.98856      56.474237     -3782.8962      14526.492    
     50400   100.8          516.00316      59.96208      -3779.7525      13501.746    
     50500   101            517.39906      60.124291     -3778.9381      14867.948    
     50600   101.2          499.73383      58.071505     -3779.3071      14932.123    
     50700   101.4          481.92675      56.002236     -3782.4981      11894.336    
     50800   101.6          479.65057      55.737733     -3784.8967      15833.062    
     50900   101.8          486.49651      56.533264     -3783.1517      13370.955    
     51000   102            489.58204      56.891818     -3781.3833      13443.159    
     51100   102.2          511.33312      59.419398     -3780.0911      15569.599    
     51200   102.4          502.11106      58.347751     -3778.8618      14518.241    
     51300   102.6          511.82149      59.47615      -3778.824       15018.248    
     51400   102.8          493.96927      57.401635     -3782.05        14026.77     
     51500   103            511.79117      59.472626     -3784.0412      12700.994    
     51600   103.2          499.22565      58.012452     -3782.2652      13959.085    
     51700   103.4          492.27944      57.205268     -3779.1557      12347.362    
     51800   103.6          514.83218      59.826007     -3778.8137      13949.026    
     51900   103.8          513.52732      59.674376     -3778.7205      11811.766    
     52000   104            500.98605      58.217019     -3780.3732      12320.677    
     52100   104.2          495.15758      57.539723     -3784.0047      12510.279    
     52200   104.4          477.85767      55.529388     -3783.8223      13221.324    
     52300   104.6          483.1987       56.150043     -3781.3465      11840.36     
     52400   104.8          500.29082      58.13623      -3780.2732      15478.023    
     52500   105            481.61789      55.966344     -3779.7818      13843.616    
     52600   105.2          495.5885       57.589797     -3779.0364      15070.613    
     52700   105.4          498.77178      57.95971      -3778.9201      14382.634    
     52800   105.6          512.85113      59.595799     -3779.7265      13268.277    
     52900   105.8          502.39145      58.380333     -3782.1322      13457.158    
     53000   106            467.26058      54.297955     -3782.8958      12712.135    
     53100   106.2          493.02144      57.291493     -3780.4944      13302.004    
     53200   106.4          514.9627       59.841174     -3776.9793      14790.953    
     53300   106.6          519.90386      60.415361     -3777.8882      13476.405    
     53400   106.8          480.24694      55.807033     -3780.5052      13631.837    
     53500   107            499.66022      58.062951     -3781.3285      14935.595    
     53600   107.2          502.72203      58.418748     -3780.8975      12894.561    
     53700   107.4          499.70241      58.067854     -3778.0591      14171.038    
     53800   107.6          531.30967      61.740772     -3773.8544      15775.87     
     53900   107.8          523.60445      60.845387     -3776.0851      13176.336    
     54000   108            512.53746      59.559349     -3779.0549      12367.15     
     54100   108.2          510.55546      59.329031     -3780.2501      14725.467    
     54200   108.4          492.94403      57.282497     -3780.8647      12506.232    
     54300   108.6          503.66511      58.528338     -3779.4023      14212.511    
     54400   108.8          526.95366      61.234582     -3776.0184      15465.905    
     54500   109            505.86786      58.784309     -3776.3761      15021.031    
     54600   109.2          494.72988      57.490022     -3779.8102      12406.688    
     54700   109.4          510.82661      59.36054      -3780.7706      14357.498    
     54800   109.6          482.79225      56.102811     -3780.5602      14695.33     
     54900   109.8          519.34591      60.350524     -3778.7015      13651.559    
     55000   110            515.44413      59.897119     -3777.8         15404.912    
     55100   110.2          493.72242      57.37295      -3778.8058      15919.811    
     55200   110.4          496.03565      57.641759     -3781.8535      13700.925    
     55300   110.6          483.10149      56.138746     -3782.9656      14375.911    
     55400   110.8          488.87228      56.80934      -3780.414       16632.346    
     55500   111            517.90071      60.182585     -3777.74        14242.095    
     55600   111.2          523.05227      60.781222     -3778.3985      13852.504    
     55700   111.4          492.49011      57.22975      -3780.0724      13620.437    
     55800   111.6          497.3219       57.791227     -3780.9153      16371.895    
     55900   111.8          486.39528      56.521501     -3784.1619      14989.86     
     56000   112            491.29406      57.090763     -3786.238       12732.63     
     56100   112.2          486.20663      56.499578     -3783.4481      16778.695    
     56200   112.4          515.22547      59.871708     -3781.0651      13645.888    
     56300   112.6          504.23732      58.594833     -3779.8649      15025.812    
     56400   112.8          503.42196      58.500084     -3779.2199      15311.157    
     56500   113            486.04138      56.480375     -3779.1953      14377.335    
     56600   113.2          498.8008       57.963082     -3779.714       16368.484    
     56700   113.4          505.73059      58.768357     -3780.4812      13415.515    
     56800   113.6          482.86391      56.111138     -3781.8214      14810.213    
     56900   113.8          485.60924      56.430159     -3781.6344      13327.777    
     57000   114            516.85972      60.061617     -3778.6749      14137.923    
     57100   114.2          503.12255      58.465291     -3776.9625      15561.257    
     57200   114.4          518.07036      60.202299     -3778.048       14427.691    
     57300   114.6          498.40642      57.917253     -3782.0682      14008.961    
     57400   114.8          480.69741      55.85938      -3782.5392      15029.368    
     57500   115            495.94293      57.630984     -3780.8093      11934.022    
     57600   115.2          512.43075      59.546949     -3778.8507      14991.283    
     57700   115.4          506.44442      58.851308     -3778.166       15944.396    
     57800   115.6          503.14692      58.468123     -3779.965       14490.503    
     57900   115.8          483.01335      56.128503     -3784.039       15153.811    
     58000   116            490.50965      56.99961      -3783.6326      13294.732    
     58100   116.2          473.30065      54.999841     -3780.5727      14693.909    
     58200   116.4          494.56499      57.47086      -3779.0284      14395.367    
     58300   116.6          523.08948      60.785545     -3779.0271      12213.88     
     58400   116.8          501.80975      58.312736     -3780.2952      12768.914    
     58500   117            480.74447      55.864849     -3784.613       13369.934    
     58600   117.2          482.75384      56.098347     -3785.4706      13521.482    
     58700   117.4          476.66883      55.391239     -3782.9042      14524.841    
     58800   117.6          489.82502      56.920053     -3781.1567      13312.434    
     58900   117.8          493.95856      57.40039      -3779.8808      15287.626    
     59000   118            488.1561       56.726117     -3778.4904      14715.177    
     59100   118.2          517.22453      60.104009     -3778.3438      14552.836    
     59200   118.4          515.06276      59.852801     -3781.0337      15953.959    
     59300   118.6          501.72872      58.303321     -3783.4272      10782.865    
     59400   118.8          470.92748      54.724067     -3782.9328      14434.111    
     59500   119            501.78233      58.309551     -3779.3687      14878.067    
     59600   119.2          514.45215      59.781846     -3778.5015      15283.268    
     59700   119.4          484.24064      56.271121     -3779.6563      15465.723    
     59800   119.6          502.54673      58.398377     -3781.2071      16220.803    
     59900   119.8          481.07925      55.903752     -3782.7339      13380.743    
     60000   120            462.83764      53.783988     -3785.3046      13976.589    
     60100   120.2          467.50425      54.326271     -3786.2933      14319.295    
     60200   120.4          490.61044      57.011323     -3782.3972      14553.58     
     60300   120.6          510.9977       59.380422     -3780.1322      12943.463    
     60400   120.8          506.32775      58.83775      -3779.3995      14939.342    
     60500   121            492.22461      57.198897     -3779.6337      14316.396    
     60600   121.2          483.03965      56.13156      -3781.7349      12722.443    
     60700   121.4          479.49588      55.719756     -3784.2965      15450.659    
     60800   121.6          473.70967      55.047371     -3783.5966      11715.172    
     60900   121.8          504.33419      58.606089     -3779.4369      12861.819    
     61000   122            489.23765      56.851798     -3778.8352      14834.882    
     61100   122.2          495.44817      57.57349      -3779.9526      12418.53     
     61200   122.4          491.55056      57.120569     -3781.4987      15466.638    
     61300   122.6          474.39494      55.127003     -3784.0489      13033.312    
     61400   122.8          479.77113      55.751742     -3785.9195      14540.438    
     61500   123            499.01388      57.987843     -3782.6018      13735.353    
     61600   123.2          509.85234      59.247325     -3779.5058      14942.882    
     61700   123.4          515.7041       59.927328     -3779.0009      14993.778    
     61800   123.6          495.00693      57.522216     -3779.4447      15198.738    
     61900   123.8          501.94496      58.328449     -3781.8287      13538.332    
     62000   124            486.08067      56.484941     -3784.2368      14251.786    
     62100   124.2          487.19678      56.614639     -3781.9935      12334.339    
     62200   124.4          507.71248      58.998663     -3778.8495      15540.901    
     62300   124.6          486.52689      56.536794     -3779.107       13943.112    
     62400   124.8          503.67933      58.529991     -3780.0576      13024.102    
     62500   125            497.0311       57.757434     -3781.5306      13026.991    
     62600   125.2          482.19262      56.033131     -3783.2026      13227.31     
     62700   125.4          476.01388      55.315132     -3783.6064      15181.504    
     62800   125.6          493.8514       57.387938     -3780.2343      11273.078    
     62900   125.8          519.41489      60.358539     -3777.8118      17136.889    
     63000   126            494.60057      57.474995     -3778.0888      12281.41     
     63100   126.2          497.62289      57.826204     -3780.8008      13274.694    
     63200   126.4          500.7844       58.193586     -3783.1825      14220.458    
     63300   126.6          498.99971      57.986197     -3782.3259      11102.835    
     63400   126.8          520.23061      60.453331     -3780.5255      12452.546    
     63500   127            516.99563      60.07741      -3778.7901      15456.252    
     63600   127.2          509.15335      59.166099     -3778.033       13318.956    
     63700   127.4          507.991        59.031029     -3779.2934      16046.223    
     63800   127.6          488.48061      56.763826     -3783.5877      15680.073    
     63900   127.8          489.35133      56.865008     -3783.1604      12860.295    
     64000   128            501.40092      58.265229     -3780.2925      15036.147    
     64100   128.2          521.5592       60.607719     -3779.2232      14795.691    
     64200   128.4          500.59962      58.172114     -3780.0064      14179.102    
     64300   128.6          491.44672      57.108503     -3784.3746      14853.902    
     64400   128.8          476.88075      55.415865     -3785.5276      13980.849    
     64500   129            501.23438      58.245876     -3782.2433      15338.796    
     64600   129.2          497.08821      57.764071     -3779.8875      15580.305    
     64700   129.4          514.19339      59.751777     -3779.0594      15883.73     
     64800   129.6          504.09006      58.57772      -3779.9421      13667.556    
     64900   129.8          503.36104      58.493004     -3783.1942      14100.087    
     65000   130            491.84264      57.15451      -3785.1747      14068.146    
     65100   130.2          489.54739      56.88779      -3783.4038      14110.994    
     65200   130.4          500.13128      58.11769      -3781.2863      14399.377    
     65300   130.6          508.22962      59.058757     -3780.3597      14497.952    
     65400   130.8          489.51131      56.883599     -3779.2299      15016.657    
     65500   131            511.70606      59.462736     -3777.7318      14640.003    
     65600   131.2          514.16663      59.748667     -3777.7379      14262.291    
     65700   131.4          486.42723      56.525213     -3781.4218      14235.021    
     65800   131.6          486.76705      56.564702     -3782.8536      14284.735    
     65900   131.8          486.05488      56.481944     -3782.0859      13426.834    
     66000   132            505.06743      58.691296     -3778.3204      14262.568    
     66100   132.2          511.47192      59.435528     -3777.5802      13842.312    
     66200   132.4          518.31162      60.230334     -3778.4873      13697.105    
     66300   132.6          493.0748       57.297693     -3779.8675      12576.67     
     66400   132.8          512.31272      59.533233     -3780.4106      15106.482    
     66500   133            495.59909      57.591028     -3781.7648      13996.869    
     66600   133.2          482.12128      56.024841     -3785.3784      13214.562    
     66700   133.4          468.80015      54.476861     -3784.6808      14263.302    
     66800   133.6          489.00117      56.824317     -3781.128       14111.512    
     66900   133.8          504.79954      58.660165     -3779.4002      14169.724    
     67000   134            509.40285      59.195093     -3778.1279      13590.969    
     67100   134.2          489.04664      56.829602     -3778.4003      13218.066    
     67200   134.4          509.95459      59.259207     -3779.9711      14422.949    
     67300   134.6          494.89959      57.509743     -3782.5107      12100.153    
     67400   134.8          487.4895       56.648654     -3782.4302      13001.731    
     67500   135            492.97073      57.2856       -3778.7303      15586.401    
     67600   135.2          478.86121      55.646005     -3777.5267      12572.784    
     67700   135.4          479.39766      55.708343     -3777.6879      15080.692    
     67800   135.6          493.42366      57.338232     -3778.9993      15420.84     
     67900   135.8          481.6227       55.966904     -3781.399       12946.76     
     68000   136            473.91533      55.07127      -3785.6923      15166.281    
     68100   136.2          460.05923      53.461123     -3784.8957      13259.365    
     68200   136.4          498.95113      57.980551     -3782.1918      14108.028    
     68300   136.6          486.77236      56.565319     -3779.6817      14217.263    
     68400   136.8          499.49824      58.044128     -3778.0121      12618.887    
     68500   137            505.48924      58.740312     -3777.6702      16136.092    
     68600   137.2          495.60354      57.591546     -3779.6614      14239.025    
     68700   137.4          484.63144      56.316534     -3783.2128      12279.88     
     68800   137.6          476.3819       55.357897     -3783.3194      14154.159    
     68900   137.8          505.8688       58.784419     -3780.6789      15019.574    
     69000   138            493.33977      57.328484     -3779.3278      12377.414    
     69100   138.2          495.35409      57.562557     -3779.3094      14937.709    
     69200   138.4          499.54769      58.049875     -3780.3855      13034.871    
     69300   138.6          483.10409      56.139048     -3782.7832      13708.676    
     69400   138.8          464.45632      53.972087     -3785.1105      13598.153    
     69500   139            471.30284      54.767685     -3783.3612      12329.936    
     69600   139.2          495.01065      57.522649     -3779.1248      13129.706    
     69700   139.4          512.7714       59.586534     -3777.4472      14834.296    
     69800   139.6          510.63148      59.337865     -3777.4251      12536.115    
     69900   139.8          510.78262      59.355429     -3779.3277      14077.497    
     70000   140            478.64625      55.621025     -3782.3582      13139.22     
     70100   140.2          494.53169      57.46699      -3782.3052      13569.573    
     70200   140.4          487.73427      56.677098     -3780.0867      13353.377    
     70300   140.6          506.73648      58.885246     -3778.3932      13817.896    
     70400   140.8          498.56435      57.935606     -3778.5583      14200.16     
     70500   141            501.36587      58.261156     -3779.2761      14979.924    
     70600   141.2          506.60946      58.870486     -3780.3311      15584.319    
     70700   141.4          500.82742      58.198585     -3781.0121      13405.447    
     70800   141.6          494.40849      57.452675     -3780.3453      16499.86     
     70900   141.8          509.73371      59.23354      -3778.0827      13114.129    
     71000   142            513.56353      59.678584     -3776.4088      13654.521    
     71100   142.2          521.43622      60.593428     -3776.8846      15186.353    
     71200   142.4          489.27797      56.856483     -3781.5066      14963.286    
     71300   142.6          503.96778      58.563511     -3782.3787      14891.924    
     71400   142.8          501.01906      58.220855     -3780.9153      13498.756    
     71500   143            524.29277      60.925374     -3778.391       14347.329    
     71600   143.2          498.17072      57.889864     -3777.2775      13628.625    
     71700   143.4          504.27156      58.598812     -3780.0276      14976.244    
     71800   143.6          480.53285      55.840257     -3783.2187      13063.928    
     71900   143.8          488.58798      56.776303     -3782.703       14530.594    
     72000   144            494.56929      57.471361     -3779.5034      14262.035    
     72100   144.2          504.19159      58.589519     -3778.066       14926.697    
     72200   144.4          495.20262      57.544956     -3778.6611      14027.641    
     72300   144.6          505.55445      58.74789      -3779.7568      15894.732    
     72400   144.8          497.60388      57.823994     -3781.7153      12727.297    
     72500   145            471.8642       54.832918     -3785.5047      14763.911    
     72600   145.2          476.34038      55.353073     -3784.3766      12763.777    
     72700   145.4          488.46438      56.76194      -3781.2077      15040.242    
     72800   145.6          506.27561      58.831692     -3779.8398      15168.943    
     72900   145.8          504.60611      58.637687     -3779.0527      14022.326    
     73000   146            519.79317      60.402498     -3778.1188      15228.723    
     73100   146.2          505.82852      58.779738     -3776.9976      14608.837    
     73200   146.4          531.10411      61.716884     -3777.864       14871.749    
     73300   146.6          488.89344      56.811799     -3781.0932      14007.033    
     73400   146.8          485.00567      56.360021     -3782.2265      13533.934    
     73500   147            497.82328      57.84949      -3780.4323      14433.405    
     73600   147.2          521.21868      60.568149     -3776.2918      14478.196    
     73700   147.4          515.24861      59.874398     -3776.1226      13421.014    
     73800   147.6          510.3604       59.306364     -3778.0085      15832.93     
     73900   147.8          490.15284      56.958147     -3780.3097      14541.287    
     74000   148            500.60541      58.172787     -3781.2839      13749.915    
     74100   148.2          510.83723      59.361774     -3780.7774      15512.73     
     74200   148.4          510.32977      59.302805     -3777.6948      12827.327    
     74300   148.6          521.99601      60.658479     -3775.9795      14764.695    
     74400   148.8          502.65422      58.410868     -3778.7348      13936.623    
     74500   149            492.45023      57.225115     -3781.1208      15890.082    
     74600   149.2          502.62417      58.407376     -3781.2632      13288.368    
     74700   149.4          515.46058      59.899029     -3780.0271      13704.151    
     74800   149.6          504.06371      58.574659     -3776.6418      15456.908    
     74900   149.8          520.53238      60.488398     -3773.6876      12140.487    
     75000   150            486.11425      56.488843     -3776.0831      16261.948    
     75100   150.2          503.03383      58.454981     -3777.694       14926.93     
     75200   150.4          509.68764      59.228187     -3779.6889      13713.479    
     75300   150.6          492.57194      57.239259     -3781.6272      15680.57     
     75400   150.8          490.86946      57.041421     -3781.7898      13449.086    
     75500   151            509.07059      59.156482     -3778.174       13759.113    
     75600   151.2          529.27534      61.504372     -3775.7582      15802.944    
     75700   151.4          506.57411      58.866379     -3776.9962      11772.961    
     75800   151.6          499.51543      58.046125     -3779.3725      13468.423    
     75900   151.8          490.62582      57.01311      -3779.8253      12911.506    
     76000   152            488.8637       56.808343     -3779.8164      13587.853    
     76100   152.2          506.95894      58.911098     -3779.2341      12628.607    
     76200   152.4          514.36921      59.772207     -3776.2828      14489.193    
     76300   152.6          524.77153      60.981007     -3774.443       14522.152    
     76400   152.8          508.88581      59.13501      -3777.3922      14127.055    
     76500   153            500.07637      58.111309     -3780.6462      14094.599    
     76600   153.2          488.77116      56.797589     -3781.0088      13488.015    
     76700   153.4          504.26449      58.59799      -3780.1495      12476.546    
     76800   153.6          508.2015       59.05549      -3777.8675      15871.928    
     76900   153.8          518.27385      60.225946     -3775.3053      13949.145    
     77000   154            515.50508      59.904201     -3775.4618      13777.94     
     77100   154.2          482.06935      56.018807     -3780.1294      13260.322    
     77200   154.4          494.34614      57.445429     -3781.1529      12803.234    
     77300   154.6          505.04675      58.688892     -3780.2122      14426.244    
     77400   154.8          492.43936      57.223852     -3777.7328      13740.826    
     77500   155            514.94817      59.839485     -3775.4668      13511.423    
     77600   155.2          498.82829      57.966277     -3777.5499      15798.44     
     77700   155.4          506.48917      58.856508     -3781.4299      15240.054    
     77800   155.6          467.21031      54.292113     -3782.0312      12784.075    
     77900   155.8          506.8543       58.898938     -3780.2414      15381.149    
     78000   156            518.84165      60.291927     -3777.3674      15115.756    
     78100   156.2          511.021        59.383128     -3776.9146      16147.781    
     78200   156.4          495.82395      57.617158     -3781.8463      15317.148    
     78300   156.6          492.80159      57.265945     -3782.771       14130.306    
     78400   156.8          498.78849      57.961652     -3781.4264      14660.763    
     78500   157            522.60591      60.729352     -3778.5519      14868.754    
     78600   157.2          504.26767      58.59836      -3777.6948      14237.762    
     78700   157.4          477.45683      55.482809     -3779.7902      16698.284    
     78800   157.6          488.93949      56.817151     -3783.909       14378.716    
     78900   157.8          480.64509      55.8533       -3784.3651      11094.329    
     79000   158            492.61738      57.244539     -3782.317       13964.12     
     79100   158.2          502.209        58.359132     -3779.7274      15305.329    
     79200   158.4          502.3798       58.37898      -3778.4639      13279.792    
     79300   158.6          503.71892      58.534592     -3777.3141      14485.984    
     79400   158.8          529.02827      61.475662     -3776.0611      15280.781    
     79500   159            513.65467      59.689175     -3777.976       13744.198    
     79600   159.2          498.82117      57.96545      -3781.3114      14922.533    
     79700   159.4          498.70518      57.951971     -3781.5173      14519.089    
     79800   159.6          500.82872      58.198737     -3779.5239      12761.592    
     79900   159.8          500.49064      58.15945      -3776.5504      14125.155    
     80000   160            522.45997      60.712393     -3775.8953      14558.212    
     80100   160.2          504.17033      58.587048     -3781.2331      15049.931    
     80200   160.4          463.57616      53.869808     -3783.2144      15179.193    
     80300   160.6          494.71279      57.488036     -3781.5169      13657.872    
     80400   160.8          493.1731       57.309116     -3778.8317      13145.136    
     80500   161            506.76038      58.888024     -3777.6586      13895.261    
     80600   161.2          500.39334      58.148143     -3778.2009      11731.648    
     80700   161.4          481.95292      56.005277     -3781.9653      15146.475    
     80800   161.6          486.95376      56.586398     -3782.7939      13309.971    
     80900   161.8          484.71975      56.326796     -3780.47        12270.233    
     81000   162            506.36382      58.841942     -3779.0311      15367.567    
     81100   162.2          502.08233      58.344412     -3779.137       13328.528    
     81200   162.4          482.0868       56.020834     -3779.5696      13876.798    
     81300   162.6          483.49399      56.184357     -3780.3081      14857.687    
     81400   162.8          498.40328      57.916888     -3781.5183      12131.186    
     81500   163            486.95376      56.586398     -3781.4527      13749.697    
     81600   163.2          480.984        55.892683     -3778.9049      13780.516    
     81700   163.4          528.10656      61.368555     -3776.6058      13898.668    
     81800   163.6          523.13623      60.790977     -3777.3242      14775.791    
     81900   163.8          485.16181      56.378165     -3781.5633      13903.974    
     82000   164            475.77975      55.287924     -3782.9936      13740.879    
     82100   164.2          494.96706      57.517583     -3781.7148      13629.708    
     82200   164.4          490.92778      57.048199     -3778.9109      15644.162    
     82300   164.6          491.58972      57.12512      -3777.5501      15070.463    
     82400   164.8          501.42316      58.267813     -3778.4051      14836.687    
     82500   165            492.82847      57.269069     -3780.219       14071.244    
     82600   165.2          513.23528      59.640439     -3783.0758      12388.964    
     82700   165.4          475.63572      55.271187     -3787.003       14258.565    
     82800   165.6          484.31082      56.279276     -3784.1152      13744.609    
     82900   165.8          496.84272      57.735544     -3780.8897      12644.037    
     83000   166            517.05482      60.084288     -3778.5182      14683.597    
     83100   166.2          510.62897      59.337574     -3777.433       13997.387    
     83200   166.4          500.1658       58.121701     -3779.1276      14287.917    
     83300   166.6          490.77738      57.030721     -3782.7298      12731.101    
     83400   166.8          481.51554      55.954451     -3782.0849      14928.548    
     83500   167            504.35837      58.608899     -3780.0596      12774.937    
     83600   167.2          511.85135      59.479619     -3779.0608      13786.742    
     83700   167.4          510.00065      59.26456      -3778.4073      14536.7      
     83800   167.6          508.12962      59.047136     -3780.0292      15455.653    
     83900   167.8          481.56436      55.960124     -3783.8608      12033.628    
     84000   168            474.15555      55.099185     -3783.1342      14276.305    
     84100   168.2          518.27179      60.225707     -3779.9833      13360.604    
     84200   168.4          493.02387      57.291775     -3779.6263      15202.937    
     84300   168.6          510.49334      59.321812     -3780.1862      14276.714    
     84400   168.8          487.76544      56.68072      -3781.354       12619.245    
     84500   169            491.12983      57.071679     -3784.2472      15037.264    
     84600   169.2          494.77416      57.495167     -3785.1329      13555.809    
     84700   169.4          498.26099      57.900354     -3781.5346      13388.457    
     84800   169.6          523.17469      60.795446     -3779.4043      14589.146    
     84900   169.8          505.37343      58.726854     -3779.5122      12337.684    
     85000   170            500.94338      58.21206      -3780.2058      14063.052    
     85100   170.2          489.34171      56.86389      -3782.4809      13571.729    
     85200   170.4          471.87391      54.834046     -3784.276       13274.844    
     85300   170.6          489.40804      56.871598     -3782.3484      13616.596    
     85400   170.8          501.86847      58.31956      -3778.6274      14286.879    
     85500   171            505.39926      58.729856     -3778.1167      13487.234    
     85600   171.2          516.06908      59.969741     -3779.4636      12816.842    
     85700   171.4          492.2115       57.197374     -3782.7492      13558.356    
[...]
    478600   957.2          493.8169       57.383929     -3782.2334      15404.222    
    478700   957.4          507.14643      58.932885     -3779.7162      11687.563    
    478800   957.6          497.06785      57.761705     -3777.4174      15486.62     
    478900   957.8          515.76569      59.934485     -3777.7986      12800.197    
    479000   958            495.33294      57.560101     -3781.482       12239.315    
    479100   958.2          501.99009      58.333694     -3783.1074      12929.79     
    479200   958.4          497.79387      57.846072     -3781.8678      11781.627    
    479300   958.6          490.79021      57.032213     -3779.7562      14584.769    
    479400   958.8          496.59555      57.706822     -3778.7577      15455.883    
    479500   959            486.79538      56.567995     -3779.2805      14169.8      
    479600   959.2          507.48148      58.971819     -3780.3809      13685.858    
    479700   959.4          512.28151      59.529606     -3780.4918      13871.626    
    479800   959.6          501.01755      58.220679     -3780.3876      14742.113    
    479900   959.8          509.98973      59.26329      -3780.476       13959.514    
    480000   960            490.477        56.995816     -3781.2836      14878.349    
    480100   960.2          499.52815      58.047604     -3781.0095      14974.984    
    480200   960.4          499.90514      58.091411     -3779.2215      13103.965    
    480300   960.6          510.84869      59.363106     -3777.7429      14150.901    
    480400   960.8          531.63845      61.778977     -3777.1904      14313.338    
    480500   961            501.33454      58.257515     -3780.4268      12437.648    
    480600   961.2          493.49772      57.346838     -3782.4569      15439.599    
    480700   961.4          478.42549      55.595372     -3781.4102      14075.718    
    480800   961.6          512.20236      59.520408     -3778.5068      13790.63     
    480900   961.8          501.33509      58.257579     -3777.8364      16628.713    
    481000   962            506.10451      58.811809     -3778.7396      13739.086    
    481100   962.2          497.19522      57.776506     -3779.7355      15610.732    
    481200   962.4          484.00558      56.243805     -3781.5421      15004.714    
    481300   962.6          488.04673      56.713406     -3782.605       13057.825    
    481400   962.8          475.44505      55.24903      -3783.2462      14374.554    
    481500   963            500.31475      58.139011     -3780.5067      13468.733    
    481600   963.2          507.22263      58.94174      -3777.4689      14527.789    
    481700   963.4          518.96896      60.306721     -3777.2357      14850.376    
    481800   963.6          497.35383      57.794938     -3779.7887      13757.001    
    481900   963.8          493.88563      57.391916     -3782.3681      15279.381    
    482000   964            474.44618      55.132957     -3782.1136      14062.244    
    482100   964.2          495.31231      57.557703     -3781.3482      14362.203    
    482200   964.4          496.74643      57.724354     -3779.9483      13675.03     
    482300   964.6          514.8091       59.823325     -3778.313       15487.861    
    482400   964.8          492.9321       57.281111     -3775.9473      12922.348    
    482500   965            522.6204       60.731036     -3774.7456      13363.989    
    482600   965.2          500.08609      58.11244      -3778.5893      13980.002    
    482700   965.4          496.43741      57.688444     -3780.8876      13340.124    
    482800   965.6          488.69486      56.788723     -3782.0892      14667.558    
    482900   965.8          503.45575      58.50401      -3781.5256      13124.872    
    483000   966            501.17606      58.2391       -3777.6094      14673.274    
    483100   966.2          525.08232      61.017123     -3776.6519      14958.844    
    483200   966.4          512.37162      59.540078     -3778.3902      15428.362    
    483300   966.6          491.58602      57.124689     -3780.4565      14048.314    
    483400   966.8          505.99386      58.798951     -3781.2364      14110.019    
    483500   967            504.76473      58.65612      -3781.1317      14178.388    
    483600   967.2          489.24219      56.852325     -3779.7238      13983.732    
    483700   967.4          517.16631      60.097243     -3775.2924      14946.345    
    483800   967.6          507.13351      58.931384     -3775.6502      13463.96     
    483900   967.8          507.20669      58.939888     -3778.7021      14989.237    
    484000   968            509.66142      59.225139     -3780.3374      12195.984    
    484100   968.2          486.92646      56.583226     -3780.9293      13642.113    
    484200   968.4          495.53954      57.584108     -3780.4907      14081.82     
    484300   968.6          493.13717      57.30494      -3777.732       14679.493    
    484400   968.8          494.12591      57.419838     -3775.778       14522.67     
    484500   969            507.4264       58.965419     -3778.0416      13055.347    
    484600   969.2          499.67017      58.064108     -3781.5036      15410.068    
    484700   969.4          481.80819      55.988459     -3781.6381      14747.995    
    484800   969.6          492.70985      57.255285     -3780.4436      12997.31     
    484900   969.8          495.1293       57.536436     -3778.1751      15310.379    
    485000   970            522.17522      60.679304     -3775.2418      13837.528    
    485100   970.2          521.78623      60.634102     -3775.8725      14006.934    
    485200   970.4          491.16888      57.076216     -3780.8818      15990.923    
    485300   970.6          494.00177      57.405412     -3781.6764      13319.386    
    485400   970.8          500.48616      58.158929     -3780.6236      12814.077    
    485500   971            513.31011      59.649135     -3778.067       13681.204    
    485600   971.2          504.04853      58.572894     -3777.1873      14213.876    
    485700   971.4          502.24843      58.363714     -3778.283       15007.385    
    485800   971.6          487.12523      56.606324     -3781.7144      12594.679    
    485900   971.8          470.89428      54.720209     -3782.8208      13792.159    
    486000   972            495.20934      57.545737     -3780.0197      14405.493    
    486100   972.2          492.92962      57.280822     -3777.8643      14836.089    
    486200   972.4          498.28782      57.903472     -3777.8694      15060.154    
    486300   972.6          505.84504      58.781658     -3778.7292      13357.807    
    486400   972.8          500.64825      58.177765     -3780.2995      12861.089    
    486500   973            480.25274      55.807708     -3783.1828      13329.835    
    486600   973.2          483.8999       56.231526     -3783.4816      12506.131    
    486700   973.4          499.86613      58.086879     -3779.4963      14421.686    
    486800   973.6          486.3284       56.513729     -3778.1585      13607.416    
    486900   973.8          484.78275      56.334117     -3779.3753      14823.545    
    487000   974            492.72296      57.256807     -3781.3443      14472.291    
    487100   974.2          460.60737      53.524819     -3783.5681      13056.138    
    487200   974.4          483.52951      56.188484     -3783.2891      11897.948    
    487300   974.6          500.50166      58.16073      -3779.0393      15128.144    
    487400   974.8          491.21602      57.081694     -3777.6615      15028.106    
    487500   975            506.19073      58.821829     -3777.8113      14329.506    
    487600   975.2          499.02024      57.988583     -3779.8452      14585.035    
    487700   975.4          483.05697      56.133572     -3782.6159      13461.356    
    487800   975.6          495.68495      57.601005     -3782.0468      13785.507    
    487900   975.8          496.42555      57.687067     -3777.7969      15197.888    
    488000   976            497.75628      57.841704     -3776.2733      15148.378    
    488100   976.2          514.20348      59.752948     -3778.1941      13982.377    
    488200   976.4          502.1798       58.355739     -3780.9968      12960.105    
    488300   976.6          459.2585       53.368075     -3781.9326      14654.022    
    488400   976.8          500.6315       58.175819     -3780.8924      13815.705    
    488500   977            513.15011      59.630542     -3776.6421      13075.979    
    488600   977.2          495.43048      57.571435     -3775.3579      15533.423    
    488700   977.4          507.42033      58.964714     -3777.7668      14029.163    
    488800   977.6          491.68747      57.136479     -3780.1056      15604.548    
    488900   977.8          502.1007       58.346547     -3780.8237      15082.364    
    489000   978            514.52748      59.790599     -3780.09        14324.222    
    489100   978.2          504.35202      58.608161     -3778.0694      16512.222    
    489200   978.4          521.4392       60.593775     -3774.3884      13597.171    
    489300   978.6          511.17813      59.401389     -3775.0306      14082.334    
    489400   978.8          493.77891      57.379514     -3778.7532      14590.521    
    489500   979            501.99035      58.333724     -3779.9321      12034.441    
    489600   979.2          481.61081      55.965522     -3780.7687      14261.837    
    489700   979.4          503.49138      58.50815      -3780.7066      14847.805    
    489800   979.6          530.00432      61.589083     -3778.5109      14893.124    
    489900   979.8          511.33915      59.420099     -3776.3525      13874.814    
    490000   980            533.92308      62.044463     -3777.1535      15606.55     
    490100   980.2          481.5898       55.96308      -3781.5367      13522.64     
    490200   980.4          500.91523      58.208789     -3781.6085      14056.461    
    490300   980.6          487.31609      56.628503     -3780.229       15082.169    
    490400   980.8          520.34533      60.466662     -3777.626       14912.233    
    490500   981            522.36438      60.701285     -3776.8108      15751.488    
    490600   981.2          493.87084      57.390197     -3780.9339      13955.147    
    490700   981.4          485.32145      56.396717     -3782.8924      13427.09     
    490800   981.6          469.91262      54.606135     -3781.468       13383.169    
    490900   981.8          515.59154      59.914248     -3778.6237      15662.101    
    491000   982            512.72677      59.581348     -3777.6428      13767.478    
    491100   982.2          506.8788       58.901785     -3778.7435      14204.189    
    491200   982.4          463.47846      53.858455     -3783.6362      15850.13     
    491300   982.6          466.87082      54.252663     -3784.1127      12254.522    
    491400   982.8          512.26167      59.527301     -3781.3797      15232.201    
    491500   983            503.30226      58.486174     -3779.4168      13893.065    
    491600   983.2          495.88027      57.623702     -3778.7112      13700.751    
    491700   983.4          514.60885      59.800054     -3778.7881      13022.045    
    491800   983.6          493.15663      57.307202     -3782.1636      14504.514    
    491900   983.8          479.17996      55.683046     -3784.0351      13494.091    
    492000   984            494.50294      57.46365      -3781.8527      14282.668    
    492100   984.2          507.10996      58.928647     -3779.2026      12698.414    
    492200   984.4          518.23783      60.22176      -3778.4254      14656.08     
    492300   984.6          484.26314      56.273735     -3779.1166      13582.087    
    492400   984.8          487.45211      56.644309     -3779.6131      15468.407    
    492500   985            487.35026      56.632474     -3781.7188      13952.083    
    492600   985.2          478.4339       55.59635      -3784.3654      13511.057    
    492700   985.4          479.31562      55.69881      -3782.7492      13227.361    
    492800   985.6          496.19083      57.659792     -3779.0264      14363.848    
    492900   985.8          494.89044      57.508679     -3778.1147      14077.999    
    493000   986            499.69545      58.067045     -3778.0493      14876.302    
    493100   986.2          492.09482      57.183815     -3779.7838      15049.004    
    493200   986.4          481.23771      55.922166     -3782.5747      13061.569    
    493300   986.6          477.11304      55.442858     -3782.7907      14922.359    
    493400   986.8          496.25379      57.667108     -3778.4289      15055.329    
    493500   987            508.41797      59.080645     -3776.6788      12607.822    
    493600   987.2          500.2762       58.134531     -3777.5807      15483.953    
    493700   987.4          499.32884      58.024444     -3780.4006      13392.009    
    493800   987.6          490.3309       56.978838     -3781.8548      13766.045    
    493900   987.8          499.81107      58.080481     -3780.7496      12717.562    
    494000   988            509.94013      59.257527     -3775.1767      15476.946    
    494100   988.2          535.6397       62.243942     -3774.9468      14797.523    
    494200   988.4          498.15918      57.888523     -3778.7991      14785.333    
    494300   988.6          493.96972      57.401688     -3780.7344      12630.481    
    494400   988.8          522.40062      60.705496     -3781.274       14579.88     
    494500   989            507.31778      58.952797     -3779.6316      14541.512    
    494600   989.2          521.67897      60.621637     -3775.9053      14027.229    
    494700   989.4          530.55673      61.653275     -3775.608       15248.571    
    494800   989.6          519.78454      60.401495     -3777.4354      13714.152    
    494900   989.8          499.63581      58.060115     -3779.0549      15276.965    
    495000   990            495.07361      57.529964     -3779.5609      14933.673    
    495100   990.2          486.09034      56.486065     -3778.8399      11911.227    
    495200   990.4          501.80782      58.312513     -3777.8268      16582.428    
    495300   990.6          506.25256      58.829013     -3775.8963      14043.175    
    495400   990.8          511.22429      59.406753     -3776.0389      15559.849    
    495500   991            482.44428      56.062375     -3779.8922      15035.967    
    495600   991.2          485.44603      56.411193     -3781.3013      14522.052    
    495700   991.4          515.14126      59.861923     -3780.962       14865.105    
    495800   991.6          507.69835      58.997021     -3778.0274      13913.842    
    495900   991.8          530.50364      61.647107     -3775.039       15287.813    
    496000   992            516.39132      60.007186     -3776.4127      14568.527    
    496100   992.2          507.22765      58.942324     -3778.7058      14048.68     
    496200   992.4          495.72338      57.605472     -3780.0058      14781.419    
    496300   992.6          495.00668      57.522187     -3780.412       14499.967    
    496400   992.8          494.21436      57.430115     -3779.3534      13319.507    
    496500   993            503.82627      58.547066     -3776.7361      15130.961    
    496600   993.2          522.42172      60.707948     -3775.3098      13356.108    
    496700   993.4          495.0968       57.532659     -3778.6705      14202.892    
    496800   993.6          498.49455      57.927495     -3781.0766      15618.478    
    496900   993.8          519.17946      60.331182     -3780.6152      13599.426    
    497000   994            519.70362      60.392092     -3779.5422      13415.75     
    497100   994.2          505.30946      58.719421     -3779.1751      14393.879    
    497200   994.4          501.67077      58.296587     -3780.685       14702.134    
    497300   994.6          499.5922       58.055046     -3782.2303      12883.557    
    497400   994.8          487.45655      56.644825     -3781.6997      14644.354    
    497500   995            515.0596       59.852434     -3778.219       12796.173    
    497600   995.2          493.78692      57.380445     -3776.9943      15104.79     
    497700   995.4          510.33512      59.303426     -3777.8573      13275.528    
    497800   995.6          512.76271      59.585525     -3780.2661      14430.411    
    497900   995.8          501.60295      58.288706     -3781.8519      15041.346    
    498000   996            487.90186      56.696572     -3781.4634      14783.116    
    498100   996.2          505.34824      58.723927     -3780.0334      13449.604    
    498200   996.4          508.22245      59.057924     -3778.4699      15530.263    
    498300   996.6          500.21606      58.127542     -3777.2402      14776.899    
    498400   996.8          527.91111      61.345842     -3776.5882      14561.954    
    498500   997            481.07933      55.903761     -3779.366       14529.222    
    498600   997.2          467.23939      54.295493     -3781.7794      15035.946    
    498700   997.4          476.17734      55.334126     -3782.3926      13836.832    
    498800   997.6          510.79327      59.356666     -3780.6676      13746.488    
    498900   997.8          509.46744      59.202598     -3776.4358      13575.469    
    499000   998            506.44744      58.851659     -3776.5095      15720.875    
    499100   998.2          516.70966      60.044179     -3779.0333      13488.389    
    499200   998.4          505.53184      58.745261     -3780.6196      13340.082    
    499300   998.6          517.89157      60.181522     -3780.6457      14934.67     
    499400   998.8          488.03869      56.712473     -3780.0649      14178.382    
    499500   999            535.03625      62.173818     -3777.2676      12436.662    
    499600   999.2          521.69814      60.623865     -3773.7435      15762.006    
    499700   999.4          510.12396      59.278889     -3775.7156      14631.802    
    499800   999.6          494.99083      57.520345     -3780.0008      13692.803    
    499900   999.8          495.11622      57.534917     -3781.1109      14599.376    
    500000   1000           514.62489      59.801919     -3781.7971      13204.74     
Loop time of 29853 on 1 procs for 500000 steps with 900 atoms

Performance: 2.894 ns/day, 8.292 hours/ns, 16.749 timesteps/s
59.9% CPU use with 1 MPI tasks x 1 OpenMP threads

MPI task timing breakdown:
Section |  min time  |  avg time  |  max time  |%varavg| %total
---------------------------------------------------------------
Pair    | 29550      | 29550      | 29550      |   0.0 | 98.99
Neigh   | 256.6      | 256.6      | 256.6      |   0.0 |  0.86
Comm    | 10.979     | 10.979     | 10.979     |   0.0 |  0.04
Output  | 11.539     | 11.539     | 11.539     |   0.0 |  0.04
Modify  | 19.522     | 19.522     | 19.522     |   0.0 |  0.07
Other   |            | 4.009      |            |       |  0.01

Nlocal:            900 ave         900 max         900 min
Histogram: 1 0 0 0 0 0 0 0 0 0
Nghost:           2424 ave        2424 max        2424 min
Histogram: 1 0 0 0 0 0 0 0 0 0
Neighs:              0 ave           0 max           0 min
Histogram: 1 0 0 0 0 0 0 0 0 0
FullNghs:        65618 ave       65618 max       65618 min
Histogram: 1 0 0 0 0 0 0 0 0 0

Total # of neighbors = 65618
Ave neighs/atom = 72.908889
Neighbor list builds = 50000
Dangerous builds not checked
Total wall time: 8:19:28
