ITEM: TIMESTEP
0
ITEM: NUMBER OF ATOMS
56
ITEM: BOX BOUNDS xy xz yz pp pp pp
-4.6646600961685181e-01 1.2185099840164185e+01 0.0000000000000000e+00
0.0000000000000000e+00 5.5264081358909607e+00 -4.6646600961685181e-01
0.0000000000000000e+00 1.9019960045814514e+01 0.0000000000000000e+00
ITEM: ATOMS id type xs ys zs fx fy fz
1 1 0.555183 8.90091e-07 0.132369 -0.000775933 0.000359535 -0.000112772
2 1 0.305183 0.166666 0.132369 -0.000752449 -0.000350475 -0.000112534
3 1 0.198025 9.12308e-06 0.275226 -0.000147104 0.000124574 -3.31402e-05
4 1 0.948024 0.166658 0.275226 -0.00013423 -0.000119567 -3.29018e-05
5 1 0.84084 9.05422e-06 0.418084 2.52724e-05 7.62939e-05 -5.79357e-05
6 1 0.0551821 8.90153e-07 0.132369 -0.000736833 0.000355721 -0.000109196
7 1 0.983748 0.500044 0.0609391 -0.00132143 0.000273228 -1.03712e-05
8 1 0.805182 0.166666 0.132369 -0.000712395 -0.000352979 -0.000108957
9 1 0.733748 0.666623 0.0609392 -0.00128937 -0.000278831 -1.27554e-05
10 1 0.698024 9.12314e-06 0.275227 -0.00010252 0.000124812 -3.6478e-05
11 1 0.590842 0.166658 0.418084 -3.21865e-05 -7.65324e-05 -5.60284e-05
12 1 0.483661 9.61873e-06 0.560938 -0.000115633 0.000119686 0.000105143
13 1 0.23366 0.166657 0.560938 -9.56059e-05 -0.000113368 0.000102282
14 1 0.126467 9.05696e-06 0.703794 0.000137448 0.000122309 0.000187397
15 1 0.876467 0.166658 0.703794 0.000147581 -0.000112295 0.000186205
16 1 0.769294 8.34659e-06 0.846658 0.00031507 0.000148416 -0.000148416
17 1 0.626612 0.500009 0.203795 -0.00031805 0.000141859 0.000146747
18 1 0.448026 0.166658 0.275226 -0.000158668 -0.000115395 -3.40939e-05
19 1 0.376611 0.666659 0.203795 -0.000287414 -0.0001477 0.00014329
20 1 0.340841 9.05416e-06 0.418084 4.76837e-07 8.18968e-05 -5.82933e-05
21 1 0.269438 0.500009 0.346658 -0.000137925 0.000116348 -0.000187874
22 1 0.0908402 0.166658 0.418084 1.2517e-05 -7.56979e-05 -5.79357e-05
23 1 0.019437 0.666658 0.346658 -0.00012207 -0.00012219 -0.000186682
24 1 0.983659 9.61879e-06 0.560938 -8.03471e-05 0.000117421 9.82285e-05
25 1 0.912245 0.50001 0.489515 9.47714e-05 0.000113487 -9.97782e-05
26 1 0.733659 0.166657 0.560938 -5.32866e-05 -0.000112891 9.48906e-05
27 1 0.662244 0.666658 0.489515 0.0001266 -0.00011766 -0.000102162
28 1 0.48375 0.500044 0.0609391 -0.00134683 0.00026834 -1.10865e-05
29 1 0.233749 0.666623 0.0609391 -0.00133383 -0.000278234 -9.77516e-06
30 1 0.12661 0.500009 0.203795 -0.000273943 0.000141859 0.000142932
31 1 0.87661 0.666659 0.203795 -0.000261903 -0.000142455 0.000142813
32 1 0.769437 0.500009 0.346658 -9.88245e-05 0.000118732 -0.000186086
33 1 0.519296 0.166659 0.846658 0.000253677 -0.000143528 -0.000138283
34 1 0.412157 4.36878e-05 0.989514 0.00132024 0.000278711 1.04904e-05
35 1 0.162156 0.166623 0.989514 0.00133479 -0.000272274 9.77516e-06
36 1 0.626469 9.05689e-06 0.703794 9.2864e-05 0.000121593 0.000189543
37 1 0.555066 0.500009 0.632368 -4.13656e-05 7.65324e-05 6.25849e-05
38 1 0.376468 0.166658 0.703794 0.000123024 -0.000117779 0.000187635
39 1 0.305065 0.666658 0.632368 -1.41859e-05 -8.03471e-05 5.97239e-05
40 1 0.269295 8.34652e-06 0.846658 0.000273228 0.000147939 -0.000141859
41 1 0.197881 0.500009 0.775226 0.000133395 0.000119925 3.43323e-05
42 1 0.0192942 0.166659 0.846658 0.000288367 -0.000141621 -0.00014627
43 1 0.94788 0.666658 0.775226 0.000146985 -0.000124931 3.33786e-05
44 1 0.912156 4.36878e-05 0.989514 0.00134492 0.000273824 1.07288e-05
45 1 0.840722 0.500001 0.918084 0.000771284 0.000352859 0.000104904
46 1 0.519438 0.666658 0.346658 -0.000160575 -0.000123739 -0.000188828
47 1 0.412246 0.50001 0.489515 7.03335e-05 0.000108361 -9.89437e-05
48 1 0.162246 0.666658 0.489515 8.13007e-05 -0.000117898 -9.95398e-05
49 1 0.0550641 0.500009 0.632369 1.19209e-06 7.62939e-05 5.56707e-05
50 1 0.805064 0.666658 0.632369 2.13385e-05 -8.33273e-05 5.25713e-05
51 1 0.697879 0.500009 0.775226 0.000178456 0.000119448 3.21865e-05
52 1 0.662158 0.166623 0.989514 0.00128913 -0.00027287 1.23978e-05
53 1 0.590724 0.666666 0.918084 0.000708938 -0.000357866 0.000115991
54 1 0.447881 0.666658 0.775226 0.000122905 -0.000120401 3.48091e-05
55 1 0.340723 0.500001 0.918084 0.000737071 0.000349879 0.000112176
56 1 0.0907223 0.666666 0.918084 0.000751734 -0.000357032 0.000110149
ITEM: TIMESTEP
1
ITEM: NUMBER OF ATOMS
56
ITEM: BOX BOUNDS xy xz yz pp pp pp
-4.6712195873260498e-01 1.2185709118843079e+01 0.0000000000000000e+00
-2.7632713317871094e-04 5.5266844630241394e+00 -4.6651268005371094e-01
-9.5099210739135742e-04 1.9020911037921906e+01 0.0000000000000000e+00
ITEM: ATOMS id type xs ys zs fx fy fz
1 1 0.555183 8.90822e-07 0.132369 -0.000775576 0.000358105 -0.000112176
2 1 0.305183 0.166666 0.132369 -0.000751376 -0.00034976 -0.000112891
3 1 0.198025 9.12333e-06 0.275226 -0.00014627 0.000124454 -3.33786e-05
4 1 0.948024 0.166658 0.275226 -0.00013423 -0.000120521 -3.31402e-05
5 1 0.84084 9.05438e-06 0.418084 2.46763e-05 7.60555e-05 -5.82933e-05
6 1 0.0551821 8.90877e-07 0.132369 -0.000736594 0.000355244 -0.000109553
7 1 0.983748 0.500044 0.0609391 -0.00132036 0.000272632 -1.10865e-05
8 1 0.805182 0.166666 0.132369 -0.000712037 -0.00035274 -0.000109911
9 1 0.733748 0.666623 0.0609392 -0.00128853 -0.000278115 -1.28746e-05
10 1 0.698024 9.12339e-06 0.275227 -0.000102401 0.000124335 -3.65973e-05
11 1 0.590842 0.166658 0.418084 -3.23057e-05 -7.62939e-05 -5.65052e-05
12 1 0.483661 9.61898e-06 0.560938 -0.000115633 0.000119805 0.000105143
13 1 0.23366 0.166657 0.560938 -9.52482e-05 -0.000112534 0.000101805
14 1 0.126467 9.05721e-06 0.703794 0.000136495 0.00012207 0.000187159
15 1 0.876467 0.166658 0.703794 0.000147343 -0.000112414 0.000186086
16 1 0.769294 8.34689e-06 0.846658 0.000315309 0.000147581 -0.000148296
17 1 0.626612 0.500009 0.203795 -0.000318408 0.000141978 0.000146508
18 1 0.448026 0.166658 0.275226 -0.000158668 -0.000115395 -3.39746e-05
19 1 0.376611 0.666659 0.203795 -0.000287294 -0.000146866 0.000143409
20 1 0.340841 9.05433e-06 0.418084 3.57628e-07 8.15392e-05 -5.76973e-05
21 1 0.269438 0.500009 0.346658 -0.000137925 0.000116348 -0.000187635
22 1 0.0908402 0.166658 0.418084 1.21593e-05 -7.55787e-05 -5.82933e-05
23 1 0.019437 0.666658 0.346658 -0.00012207 -0.000120997 -0.000186324
24 1 0.983659 9.61903e-06 0.560938 -8.02279e-05 0.000116825 9.799e-05
25 1 0.912245 0.50001 0.489515 9.50098e-05 0.000112891 -0.000100136
26 1 0.733659 0.166657 0.560938 -5.26905e-05 -0.000112891 9.46522e-05
27 1 0.662244 0.666658 0.489515 0.000126481 -0.00011754 -0.000102282
28 1 0.48375 0.500044 0.0609391 -0.0013454 0.000267267 -1.12057e-05
29 1 0.233749 0.666623 0.0609391 -0.00133371 -0.000277519 -9.89437e-06
30 1 0.12661 0.500009 0.203795 -0.000273943 0.000141144 0.000142694
31 1 0.87661 0.666659 0.203795 -0.000262618 -0.000141859 0.000143886
32 1 0.769437 0.500009 0.346658 -9.84669e-05 0.000118256 -0.000186324
33 1 0.519296 0.166659 0.846658 0.000254035 -0.000143766 -0.000138164
34 1 0.412157 4.36884e-05 0.989514 0.00131965 0.000278831 1.13249e-05
35 1 0.162156 0.166623 0.989514 0.00133407 -0.000271797 9.89437e-06
36 1 0.626469 9.05714e-06 0.703794 9.17912e-05 0.000121355 0.000188828
37 1 0.555066 0.500009 0.632368 -4.1008e-05 7.689e-05 6.33001e-05
38 1 0.376468 0.166658 0.703794 0.000123024 -0.00011766 0.000188112
39 1 0.305065 0.666658 0.632368 -1.43051e-05 -8.01086e-05 5.91278e-05
40 1 0.269295 8.34682e-06 0.846658 0.000272751 0.000147462 -0.000141859
41 1 0.197881 0.500009 0.775226 0.000133157 0.000119448 3.45707e-05
42 1 0.0192942 0.166659 0.846658 0.000288486 -0.000141025 -0.000146151
43 1 0.94788 0.666658 0.775226 0.00014782 -0.000124574 3.29018e-05
44 1 0.912156 4.36884e-05 0.989514 0.00134408 0.000273108 1.03712e-05
45 1 0.840722 0.500001 0.918084 0.000771046 0.000352383 0.000105858
46 1 0.519438 0.666658 0.346658 -0.000160813 -0.000123262 -0.00018847
47 1 0.412246 0.50001 0.489515 7.00951e-05 0.000107527 -9.85861e-05
48 1 0.162246 0.666658 0.489515 8.16584e-05 -0.00011754 -9.9659e-05
49 1 0.0550641 0.500009 0.632369 1.19209e-06 7.66516e-05 5.61476e-05
50 1 0.805064 0.666658 0.632369 2.14577e-05 -8.29697e-05 5.29289e-05
51 1 0.697879 0.500009 0.775226 0.000178099 0.000118971 3.29018e-05
52 1 0.662158 0.166623 0.989514 0.00128877 -0.00027287 1.26362e-05
53 1 0.590724 0.666666 0.918084 0.000708699 -0.000356555 0.000115871
54 1 0.447881 0.666658 0.775226 0.000122547 -0.000119925 3.45707e-05
55 1 0.340723 0.500001 0.918084 0.000736237 0.000350475 0.000112772
56 1 0.0907223 0.666666 0.918084 0.000751615 -0.000356555 0.000109911
ITEM: TIMESTEP
2
ITEM: NUMBER OF ATOMS
56
ITEM: BOX BOUNDS xy xz yz pp pp pp
-4.6777784824371338e-01 1.2186318397521973e+01 0.0000000000000000e+00
-5.5265426635742188e-04 5.5269607901573181e+00 -4.6655929088592529e-01
-1.9019842147827148e-03 1.9021862030029297e+01 0.0000000000000000e+00
ITEM: ATOMS id type xs ys zs fx fy fz
1 1 0.555183 8.91575e-07 0.132369 -0.00077486 0.000358582 -0.000111938
2 1 0.305183 0.166666 0.132369 -0.000751138 -0.000350237 -0.00011301
3 1 0.198025 9.12359e-06 0.275226 -0.000146508 0.000124454 -3.29018e-05
4 1 0.948024 0.166658 0.275226 -0.000133753 -0.000120044 -3.34978e-05
5 1 0.84084 9.05454e-06 0.418084 2.41995e-05 7.65324e-05 -5.82933e-05
6 1 0.0551821 8.91623e-07 0.132369 -0.00073576 0.000355959 -0.000110269
7 1 0.983748 0.500044 0.0609391 -0.00132012 0.000272393 -1.12057e-05
8 1 0.805182 0.166666 0.132369 -0.000712037 -0.000352502 -0.000109434
9 1 0.733748 0.666623 0.0609392 -0.00128841 -0.000277281 -1.29938e-05
10 1 0.698024 9.12365e-06 0.275227 -0.000102997 0.000124812 -3.63588e-05
11 1 0.590842 0.166658 0.418084 -3.15905e-05 -7.61747e-05 -5.66244e-05
12 1 0.483661 9.61923e-06 0.560938 -0.000115037 0.000119686 0.000105143
13 1 0.23366 0.166657 0.560938 -9.47714e-05 -0.000112414 0.000102043
14 1 0.126467 9.05747e-06 0.703794 0.000136495 0.000121474 0.000187159
15 1 0.876467 0.166658 0.703794 0.000147223 -0.000112653 0.000186086
16 1 0.769294 8.3472e-06 0.846658 0.000315189 0.0001477 -0.00014782
17 1 0.626612 0.500009 0.203795 -0.000317812 0.000141621 0.000145793
18 1 0.448026 0.166658 0.275226 -0.000158906 -0.000115395 -3.44515e-05
19 1 0.376611 0.666659 0.203795 -0.000287056 -0.000147462 0.000143766
20 1 0.340841 9.0545e-06 0.418084 2.38419e-07 8.17776e-05 -5.85318e-05
21 1 0.269438 0.500009 0.346658 -0.000137687 0.000115871 -0.000187874
22 1 0.0908402 0.166658 0.418084 1.23978e-05 -7.55787e-05 -5.8651e-05
23 1 0.019437 0.666658 0.346658 -0.000121474 -0.000120997 -0.000185847
24 1 0.983659 9.61927e-06 0.560938 -8.03471e-05 0.000116706 9.83477e-05
25 1 0.912245 0.50001 0.489515 9.52482e-05 0.000113487 -9.9659e-05
26 1 0.733659 0.166657 0.560938 -5.30481e-05 -0.000112534 9.46522e-05
27 1 0.662244 0.666658 0.489515 0.000125885 -0.00011766 -0.000101924
28 1 0.48375 0.500044 0.0609391 -0.00134432 0.000267267 -1.12057e-05
29 1 0.233749 0.666623 0.0609391 -0.00133252 -0.000277281 -9.89437e-06
30 1 0.12661 0.500009 0.203795 -0.000273705 0.000141382 0.000142694
31 1 0.87661 0.666659 0.203795 -0.00026238 -0.000142097 0.000143409
32 1 0.769437 0.500009 0.346658 -9.91821e-05 0.000117779 -0.000186086
33 1 0.519296 0.166659 0.846658 0.000253916 -0.000143766 -0.000137448
34 1 0.412157 4.36889e-05 0.989514 0.00131917 0.000278354 1.06096e-05
35 1 0.162156 0.166623 0.989514 0.00133359 -0.000272155 1.0252e-05
36 1 0.626469 9.05739e-06 0.703794 9.20296e-05 0.000121117 0.000189424
37 1 0.555066 0.500009 0.632368 -4.07696e-05 7.61747e-05 6.28233e-05
38 1 0.376468 0.166658 0.703794 0.000122309 -0.000116944 0.000187993
39 1 0.305065 0.666658 0.632368 -1.41859e-05 -8.05855e-05 5.9247e-05
40 1 0.269295 8.34713e-06 0.846658 0.00027287 0.000147343 -0.000141263
41 1 0.197881 0.500009 0.775226 0.000133276 0.000119686 3.40939e-05
42 1 0.0192942 0.166659 0.846658 0.000288844 -0.000140786 -0.000144958
43 1 0.94788 0.666658 0.775226 0.000147104 -0.000124812 3.3617e-05
44 1 0.912156 4.3689e-05 0.989514 0.00134325 0.000272751 1.07288e-05
45 1 0.840722 0.500001 0.918084 0.000769973 0.00035274 0.000105739
46 1 0.519438 0.666658 0.346658 -0.000160098 -0.000123501 -0.000188589
47 1 0.412246 0.50001 0.489515 7.03335e-05 0.000107884 -9.91821e-05
48 1 0.162246 0.666658 0.489515 8.13007e-05 -0.000117779 -9.93013e-05
49 1 0.0550641 0.500009 0.632369 1.54972e-06 7.59363e-05 5.56707e-05
50 1 0.805064 0.666658 0.632369 2.09808e-05 -8.27312e-05 5.25713e-05
51 1 0.697879 0.500009 0.775226 0.000178099 0.000119448 3.23057e-05
52 1 0.662158 0.166623 0.989514 0.00128794 -0.000271559 1.26362e-05
53 1 0.590724 0.666666 0.918084 0.000708461 -0.000357389 0.000115752
54 1 0.447881 0.666658 0.775226 0.00012219 -0.000120282 3.39746e-05
55 1 0.340723 0.500001 0.918084 0.000735521 0.000350118 0.00011301
56 1 0.0907223 0.666666 0.918084 0.000750899 -0.000356436 0.000109673
ITEM: TIMESTEP
3
ITEM: NUMBER OF ATOMS
56
ITEM: BOX BOUNDS xy xz yz pp pp pp
-4.6843379735946655e-01 1.2186927676200867e+01 0.0000000000000000e+00
-8.2898139953613281e-04 5.5272371172904968e+00 -4.6660596132278442e-01
-2.8529763221740723e-03 1.9022813022136688e+01 0.0000000000000000e+00
ITEM: ATOMS id type xs ys zs fx fy fz
1 1 0.555183 8.92353e-07 0.132369 -0.000774741 0.000358462 -0.000112176
2 1 0.305183 0.166666 0.132369 -0.000750661 -0.000349522 -0.000112772
3 1 0.198025 9.12386e-06 0.275226 -0.000146747 0.000124574 -3.31402e-05
4 1 0.948024 0.166658 0.275226 -0.00013411 -0.000119567 -3.37362e-05
5 1 0.84084 9.0547e-06 0.418084 2.43187e-05 7.58171e-05 -5.75781e-05
6 1 0.0551821 8.92396e-07 0.132369 -0.000735164 0.000355601 -0.000109911
7 1 0.983748 0.500044 0.0609391 -0.00131965 0.000271797 -1.19209e-05
8 1 0.805182 0.166666 0.132369 -0.000712395 -0.000352621 -0.000109434
9 1 0.733748 0.666623 0.0609392 -0.00128818 -0.0002774 -1.33514e-05
10 1 0.698024 9.12393e-06 0.275227 -0.000102997 0.000124574 -3.61204e-05
11 1 0.590842 0.166658 0.418084 -3.18289e-05 -7.59363e-05 -5.62668e-05
12 1 0.483661 9.61949e-06 0.560938 -0.000115156 0.000119448 0.000105143
13 1 0.23366 0.166657 0.560938 -9.5129e-05 -0.000112891 0.000101686
14 1 0.126467 9.05773e-06 0.703794 0.000136375 0.000121474 0.000187159
15 1 0.876467 0.166658 0.703794 0.000146747 -0.000111818 0.00018549
16 1 0.769294 8.34752e-06 0.846658 0.000314713 0.000147581 -0.00014782
17 1 0.626612 0.500009 0.203795 -0.000317574 0.000141978 0.000145674
18 1 0.448026 0.166658 0.275226 -0.00015831 -0.000115037 -3.42131e-05
19 1 0.376611 0.666659 0.203795 -0.000286937 -0.0001477 0.000142694
20 1 0.340841 9.05468e-06 0.418084 5.96046e-07 8.14199e-05 -5.84126e-05
21 1 0.269438 0.500009 0.346658 -0.000137925 0.000115395 -0.000188112
22 1 0.0908402 0.166658 0.418084 1.23978e-05 -7.58171e-05 -5.88894e-05
23 1 0.019437 0.666658 0.346658 -0.000121474 -0.000120521 -0.000185728
24 1 0.983659 9.61953e-06 0.560938 -8.05855e-05 0.000117183 9.84669e-05
25 1 0.912245 0.50001 0.489515 9.54866e-05 0.000112772 -0.000100017
26 1 0.733659 0.166657 0.560938 -5.34058e-05 -0.000112772 9.50098e-05
27 1 0.662244 0.666658 0.489515 0.000126004 -0.000117421 -0.000101447
28 1 0.48375 0.500044 0.0609391 -0.00134408 0.00026691 -1.16825e-05
29 1 0.233749 0.666623 0.0609391 -0.0013324 -0.000277042 -1.03712e-05
30 1 0.12661 0.500009 0.203795 -0.000273824 0.000141621 0.000142455
31 1 0.87661 0.666659 0.203795 -0.000261784 -0.000141978 0.000143409
32 1 0.769437 0.500009 0.346658 -9.89437e-05 0.000118136 -0.000186086
33 1 0.519296 0.166659 0.846658 0.000254035 -0.000142813 -0.000137091
34 1 0.412157 4.36895e-05 0.989514 0.00131881 0.000277638 1.0848e-05
35 1 0.162156 0.166623 0.989514 0.00133252 -0.000271559 1.01328e-05
36 1 0.626469 9.05766e-06 0.703794 9.19104e-05 0.000121355 0.000188947
37 1 0.555066 0.500009 0.632368 -4.04119e-05 7.60555e-05 6.23465e-05
38 1 0.376468 0.166658 0.703794 0.000122428 -0.000117183 0.000187516
39 1 0.305065 0.666658 0.632368 -1.41859e-05 -8.02279e-05 5.8651e-05
40 1 0.269295 8.34745e-06 0.846658 0.000272989 0.000147343 -0.00014174
41 1 0.197881 0.500009 0.775226 0.000133753 0.00011909 3.49283e-05
42 1 0.0192942 0.166659 0.846658 0.000288248 -0.000140786 -0.000144958
43 1 0.94788 0.666658 0.775226 0.000146985 -0.000124693 3.32594e-05
44 1 0.912156 4.36896e-05 0.989514 0.00134349 0.000272274 1.0848e-05
45 1 0.840722 0.500001 0.918084 0.000769854 0.000352621 0.000105739
46 1 0.519438 0.666658 0.346658 -0.000160098 -0.000122905 -0.000187993
47 1 0.412246 0.50001 0.489515 7.03335e-05 0.000108123 -9.94205e-05
48 1 0.162246 0.666658 0.489515 8.17776e-05 -0.000117779 -9.91821e-05
49 1 0.0550641 0.500009 0.632369 1.54972e-06 7.64132e-05 5.60284e-05
50 1 0.805064 0.666658 0.632369 2.0504e-05 -8.30889e-05 5.30481e-05
51 1 0.697879 0.500009 0.775226 0.000178337 0.000118971 3.23057e-05
52 1 0.662158 0.166623 0.989514 0.00128841 -0.000271559 1.32322e-05
53 1 0.590724 0.666666 0.918084 0.000708461 -0.000357628 0.000116467
54 1 0.447881 0.666658 0.775226 0.000122428 -0.000119328 3.40939e-05
55 1 0.340723 0.500001 0.918084 0.000735044 0.000349522 0.000113487
56 1 0.0907223 0.666666 0.918084 0.000750184 -0.000356555 0.000110507
ITEM: TIMESTEP
4
ITEM: NUMBER OF ATOMS
56
ITEM: BOX BOUNDS xy xz yz pp pp pp
-4.6908968687057495e-01 1.2187536954879761e+01 0.0000000000000000e+00
-1.1053085327148438e-03 5.5275134444236755e+00 -4.6665257215499878e-01
-3.8039684295654297e-03 1.9023764014244080e+01 0.0000000000000000e+00
ITEM: ATOMS id type xs ys zs fx fy fz
1 1 0.555183 8.93158e-07 0.132369 -0.000774741 0.000357866 -0.000112534
2 1 0.305183 0.166666 0.132369 -0.000749946 -0.00034976 -0.00011301
3 1 0.198025 9.12414e-06 0.275226 -0.000146627 0.000124335 -3.31402e-05
4 1 0.948024 0.166658 0.275226 -0.000133872 -0.000119448 -3.3617e-05
5 1 0.84084 9.05487e-06 0.418084 2.43187e-05 7.65324e-05 -5.72205e-05
6 1 0.0551821 8.93195e-07 0.132369 -0.000734806 0.000355124 -0.000110149
7 1 0.983748 0.500044 0.0609391 -0.00131941 0.000271678 -1.13249e-05
8 1 0.805182 0.166666 0.132369 -0.000711322 -0.000353217 -0.000109792
9 1 0.733748 0.666623 0.0609392 -0.00128722 -0.000276446 -1.40667e-05
10 1 0.698024 9.12421e-06 0.275227 -0.000102282 0.000124335 -3.61204e-05
11 1 0.590842 0.166658 0.418084 -3.18289e-05 -7.60555e-05 -5.66244e-05
12 1 0.483661 9.61976e-06 0.560938 -0.000115037 0.000119448 0.000105619
13 1 0.23366 0.166657 0.560938 -9.47714e-05 -0.00011301 0.000102162
14 1 0.126467 9.058e-06 0.703794 0.000136852 0.000121832 0.000186324
15 1 0.876467 0.166658 0.703794 0.0001477 -0.000112176 0.000185728
16 1 0.769294 8.34786e-06 0.846658 0.000313997 0.000147581 -0.0001477
17 1 0.626612 0.500009 0.203795 -0.000317216 0.000141144 0.000145555
18 1 0.448026 0.166658 0.275226 -0.000158429 -0.000114679 -3.44515e-05
19 1 0.376611 0.666659 0.203795 -0.000286818 -0.000147939 0.00014317
20 1 0.340841 9.05486e-06 0.418084 -1.19209e-07 8.16584e-05 -5.81741e-05
21 1 0.269438 0.500009 0.346658 -0.000137687 0.000115752 -0.000187039
22 1 0.0908402 0.166658 0.418084 1.18017e-05 -7.62939e-05 -5.84126e-05
23 1 0.019437 0.666658 0.346658 -0.000121951 -0.000120878 -0.000186324
24 1 0.983659 9.61979e-06 0.560938 -7.96318e-05 0.000117064 9.81092e-05
25 1 0.912245 0.50001 0.489515 9.50098e-05 0.000112772 -9.9659e-05
26 1 0.733659 0.166657 0.560938 -5.29289e-05 -0.000112653 9.47714e-05
27 1 0.662244 0.666658 0.489515 0.000126362 -0.000116944 -0.000101686
28 1 0.48375 0.500044 0.0609391 -0.00134349 0.000267029 -1.10865e-05
29 1 0.233749 0.666623 0.0609391 -0.00133193 -0.000276804 -1.10865e-05
30 1 0.12661 0.500009 0.203795 -0.000273347 0.00014174 0.000142455
31 1 0.87661 0.666659 0.203795 -0.00026226 -0.000142217 0.000142455
32 1 0.769437 0.500009 0.346658 -9.88245e-05 0.000118256 -0.00018537
33 1 0.519296 0.166659 0.846658 0.000254035 -0.000143409 -0.00013721
34 1 0.412157 4.36902e-05 0.989514 0.00131786 0.000277281 1.07288e-05
35 1 0.162156 0.166623 0.989514 0.00133252 -0.000270844 1.0848e-05
36 1 0.626469 9.05793e-06 0.703794 9.17912e-05 0.000121355 0.000189066
37 1 0.555066 0.500009 0.632368 -4.17233e-05 7.60555e-05 6.23465e-05
38 1 0.376468 0.166658 0.703794 0.000122905 -0.000116944 0.000187039
39 1 0.305065 0.666658 0.632368 -1.43051e-05 -8.04663e-05 5.9247e-05
40 1 0.269295 8.34778e-06 0.846658 0.000272512 0.0001477 -0.000140905
41 1 0.197881 0.500009 0.775226 0.000133276 0.000119686 3.43323e-05
42 1 0.0192942 0.166659 0.846658 0.00028801 -0.000140548 -0.000144958
43 1 0.94788 0.666658 0.775226 0.000147343 -0.000124454 3.33786e-05
44 1 0.912156 4.36902e-05 0.989514 0.00134277 0.000271678 1.07288e-05
45 1 0.840722 0.500001 0.918084 0.000769854 0.000352502 0.0001055
46 1 0.519438 0.666658 0.346658 -0.000160456 -0.000122547 -0.00018847
47 1 0.412246 0.50001 0.489515 7.02143e-05 0.000108242 -9.85861e-05
48 1 0.162246 0.666658 0.489515 8.13007e-05 -0.000117898 -9.94205e-05
49 1 0.0550641 0.500009 0.632369 1.3113e-06 7.65324e-05 5.55515e-05
50 1 0.805064 0.666658 0.632369 2.07424e-05 -8.33273e-05 5.29289e-05
51 1 0.697879 0.500009 0.775226 0.000178456 0.000118613 3.20673e-05
52 1 0.662158 0.166623 0.989514 0.00128722 -0.000271082 1.33514e-05
53 1 0.590724 0.666666 0.918084 0.000707626 -0.000356913 0.000116587
54 1 0.447881 0.666658 0.775226 0.000122547 -0.00011909 3.43323e-05
55 1 0.340723 0.500001 0.918084 0.000734687 0.000349522 0.000113726
56 1 0.0907223 0.666666 0.918084 0.000749946 -0.00035727 0.00011003
ITEM: TIMESTEP
5
ITEM: NUMBER OF ATOMS
56
ITEM: BOX BOUNDS xy xz yz pp pp pp
-4.6974563598632812e-01 1.2188146233558655e+01 0.0000000000000000e+00
-1.3816356658935547e-03 5.5277897715568542e+00 -4.6669924259185791e-01
-4.7549605369567871e-03 1.9024715006351471e+01 0.0000000000000000e+00
ITEM: ATOMS id type xs ys zs fx fy fz
1 1 0.555183 8.93991e-07 0.132369 -0.000774026 0.000357509 -0.000112653
2 1 0.305183 0.166666 0.132369 -0.000749826 -0.000349283 -0.000112414
3 1 0.198025 9.12443e-06 0.275226 -0.000146031 0.000124574 -3.33786e-05
4 1 0.948024 0.166658 0.275226 -0.000133634 -0.00011909 -3.32594e-05
5 1 0.84084 9.05505e-06 0.418084 2.45571e-05 7.61747e-05 -5.76973e-05
6 1 0.0551821 8.94021e-07 0.132369 -0.000734568 0.000355124 -0.000109792
7 1 0.983748 0.500044 0.0609391 -0.00131857 0.000271678 -1.13249e-05
8 1 0.805182 0.166666 0.132369 -0.000711441 -0.000352859 -0.000109196
9 1 0.733748 0.666623 0.0609392 -0.00128698 -0.000276566 -1.33514e-05
10 1 0.698024 9.12449e-06 0.275227 -0.00010252 0.000123739 -3.61204e-05
11 1 0.590842 0.166658 0.418084 -3.21865e-05 -7.64132e-05 -5.65052e-05
12 1 0.483661 9.62004e-06 0.560938 -0.000115037 0.000119686 0.000105381
13 1 0.23366 0.166657 0.560938 -9.46522e-05 -0.000112414 0.000102162
14 1 0.126467 9.05829e-06 0.703794 0.000136375 0.000121593 0.000186443
15 1 0.876467 0.166658 0.703794 0.000147581 -0.000112295 0.00018537
16 1 0.769294 8.3482e-06 0.846658 0.000314713 0.000147581 -0.000147462
17 1 0.626612 0.500009 0.203795 -0.000317335 0.000141859 0.000145316
18 1 0.448026 0.166658 0.275226 -0.00015831 -0.000115275 -3.44515e-05
19 1 0.376611 0.666659 0.203795 -0.000285983 -0.00014782 0.000142694
20 1 0.340841 9.05505e-06 0.418084 -5.96046e-07 8.14199e-05 -5.80549e-05
21 1 0.269438 0.500009 0.346658 -0.000138044 0.000115395 -0.000187039
22 1 0.0908402 0.166658 0.418084 1.15633e-05 -7.62939e-05 -5.81741e-05
23 1 0.019437 0.666658 0.346658 -0.000121593 -0.00012064 -0.000185728
24 1 0.983659 9.62006e-06 0.560938 -7.95126e-05 0.000116944 9.82285e-05
25 1 0.912245 0.50001 0.489515 9.48906e-05 0.000112414 -0.000100255
26 1 0.733659 0.166657 0.560938 -5.31673e-05 -0.00011313 9.47714e-05
27 1 0.662244 0.666658 0.489515 0.000126243 -0.000116706 -0.000102162
28 1 0.48375 0.500044 0.0609391 -0.00134313 0.00026691 -1.18017e-05
29 1 0.233749 0.666623 0.0609391 -0.00133169 -0.000276685 -1.20401e-05
30 1 0.12661 0.500009 0.203795 -0.000273585 0.000141501 0.000141978
31 1 0.87661 0.666659 0.203795 -0.000260711 -0.000142574 0.000142813
32 1 0.769437 0.500009 0.346658 -9.91821e-05 0.000118256 -0.000185728
33 1 0.519296 0.166659 0.846658 0.000253677 -0.000143528 -0.000137091
34 1 0.412157 4.36908e-05 0.989514 0.00131798 0.000277519 1.0848e-05
35 1 0.162156 0.166623 0.989514 0.00133157 -0.000270128 1.16825e-05
36 1 0.626469 9.05821e-06 0.703794 9.16719e-05 0.000121474 0.000188947
37 1 0.555066 0.500009 0.632368 -4.06504e-05 7.58171e-05 6.22272e-05
38 1 0.376468 0.166658 0.703794 0.000122309 -0.000117064 0.000187278
39 1 0.305065 0.666658 0.632368 -1.34706e-05 -7.98702e-05 5.94854e-05
40 1 0.269295 8.34813e-06 0.846658 0.000272393 0.000147104 -0.000140786
41 1 0.197881 0.500009 0.775226 0.000133157 0.000119328 3.45707e-05
42 1 0.0192942 0.166659 0.846658 0.000287771 -0.000141025 -0.000145078
43 1 0.94788 0.666658 0.775226 0.000146985 -0.000124216 3.3617e-05
44 1 0.912156 4.36908e-05 0.989514 0.00134206 0.000272036 1.10865e-05
45 1 0.840722 0.500001 0.918084 0.000769496 0.000352144 0.000105619
46 1 0.519438 0.666658 0.346658 -0.00015986 -0.000123143 -0.000188112
47 1 0.412246 0.50001 0.489515 6.9499e-05 0.000108361 -9.88245e-05
48 1 0.162246 0.666658 0.489515 8.14199e-05 -0.000116944 -9.9659e-05
49 1 0.0550641 0.500009 0.632369 1.78814e-06 7.62939e-05 5.56707e-05
50 1 0.805064 0.666658 0.632369 2.12193e-05 -8.33273e-05 5.30481e-05
51 1 0.697879 0.500009 0.775226 0.00017786 0.000119328 3.18289e-05
52 1 0.662158 0.166623 0.989514 0.00128639 -0.000271201 1.33514e-05
53 1 0.590724 0.666666 0.918084 0.00070703 -0.000356793 0.00011611
54 1 0.447881 0.666658 0.775226 0.000122309 -0.000119805 3.43323e-05
55 1 0.340723 0.500001 0.918084 0.000734329 0.000349879 0.000113606
56 1 0.0907223 0.666666 0.918084 0.000749469 -0.000356555 0.000109673
ITEM: TIMESTEP
6
ITEM: NUMBER OF ATOMS
56
ITEM: BOX BOUNDS xy xz yz pp pp pp
-4.7040158510208130e-01 1.2188755512237549e+01 0.0000000000000000e+00
-1.6579627990722656e-03 5.5280660986900330e+00 -4.6674591302871704e-01
-5.7059526443481445e-03 1.9025665998458862e+01 0.0000000000000000e+00
ITEM: ATOMS id type xs ys zs fx fy fz
1 1 0.555183 8.94854e-07 0.132369 -0.00077343 0.000357628 -0.000112772
2 1 0.305183 0.166666 0.132369 -0.000749826 -0.000349045 -0.000112653
3 1 0.198025 9.12473e-06 0.275226 -0.000145912 0.000124454 -3.38554e-05
4 1 0.948024 0.166658 0.275226 -0.000133514 -0.000119209 -3.33786e-05
5 1 0.84084 9.05524e-06 0.418084 2.43187e-05 7.62939e-05 -5.78165e-05
6 1 0.0551821 8.94879e-07 0.132369 -0.000733733 0.000354767 -0.000110269
7 1 0.983748 0.500044 0.0609391 -0.00131774 0.00027144 -1.06096e-05
8 1 0.805182 0.166666 0.132369 -0.000710607 -0.000352621 -0.000109434
9 1 0.733748 0.666623 0.0609392 -0.00128579 -0.00027597 -1.39475e-05
10 1 0.698024 9.12479e-06 0.275227 -0.000102282 0.000123858 -3.5882e-05
11 1 0.590842 0.166658 0.418084 -3.23057e-05 -7.56979e-05 -5.62668e-05
12 1 0.483661 9.62032e-06 0.560938 -0.000114679 0.000118971 0.000104666
13 1 0.23366 0.166657 0.560938 -9.47714e-05 -0.00011158 0.000102043
14 1 0.126467 9.05858e-06 0.703794 0.000136137 0.000121474 0.000186205
15 1 0.876467 0.166658 0.703794 0.000146747 -0.000112057 0.000185728
16 1 0.769294 8.34856e-06 0.846658 0.000314593 0.000147343 -0.000146747
17 1 0.626612 0.500009 0.203795 -0.000317454 0.000140786 0.000144839
18 1 0.448026 0.166658 0.275226 -0.000158072 -0.000114679 -3.49283e-05
19 1 0.376611 0.666659 0.203795 -0.000286818 -0.000147343 0.000142694
20 1 0.340841 9.05525e-06 0.418084 3.57628e-07 8.13007e-05 -5.82933e-05
21 1 0.269438 0.500009 0.346658 -0.000137568 0.000115156 -0.000186801
22 1 0.0908402 0.166658 0.418084 1.22786e-05 -7.64132e-05 -5.76973e-05
23 1 0.019437 0.666658 0.346658 -0.000121236 -0.000120997 -0.000185013
24 1 0.983659 9.62034e-06 0.560938 -7.95126e-05 0.000116229 9.82285e-05
25 1 0.912245 0.50001 0.489515 9.48906e-05 0.000112176 -9.9659e-05
26 1 0.733659 0.166657 0.560938 -5.26905e-05 -0.000112534 9.42945e-05
27 1 0.662244 0.666658 0.489515 0.000125408 -0.000116706 -0.000102162
28 1 0.48375 0.500044 0.0609391 -0.00134242 0.000265956 -1.15633e-05
29 1 0.233749 0.666623 0.0609391 -0.00133014 -0.000277042 -1.14441e-05
30 1 0.12661 0.500009 0.203795 -0.000273705 0.000141025 0.000141621
31 1 0.87661 0.666659 0.203795 -0.000261545 -0.000141382 0.000142455
32 1 0.769437 0.500009 0.346658 -9.87053e-05 0.000117898 -0.000184536
33 1 0.519296 0.166659 0.846658 0.000253558 -0.000143051 -0.000136852
34 1 0.412157 4.36915e-05 0.989514 0.00131702 0.000277042 1.14441e-05
35 1 0.162156 0.166623 0.989514 0.00133061 -0.000270247 1.10865e-05
36 1 0.626469 9.0585e-06 0.703794 9.20296e-05 0.000121593 0.000188231
37 1 0.555066 0.500009 0.632368 -4.04119e-05 7.55787e-05 6.17504e-05
38 1 0.376468 0.166658 0.703794 0.00012207 -0.000116467 0.00018692
39 1 0.305065 0.666658 0.632368 -1.35899e-05 -8.07047e-05 5.9247e-05
40 1 0.269295 8.34848e-06 0.846658 0.000272393 0.000146627 -0.000139952
41 1 0.197881 0.500009 0.775226 0.000133038 0.000119448 3.44515e-05
42 1 0.0192942 0.166659 0.846658 0.000288606 -0.000140667 -0.000144958
43 1 0.94788 0.666658 0.775226 0.000147223 -0.000123858 3.38554e-05
44 1 0.912156 4.36915e-05 0.989514 0.00134134 0.000271916 1.13249e-05
45 1 0.840722 0.500001 0.918084 0.000768423 0.000352621 0.000105977
46 1 0.519438 0.666658 0.346658 -0.000159979 -0.000123143 -0.000187635
47 1 0.412246 0.50001 0.489515 6.96182e-05 0.000107646 -9.91821e-05
48 1 0.162246 0.666658 0.489515 8.02279e-05 -0.000116587 -9.98974e-05
49 1 0.0550641 0.500009 0.632369 1.43051e-06 7.58171e-05 5.54323e-05
50 1 0.805064 0.666658 0.632369 2.11e-05 -8.27312e-05 5.31673e-05
51 1 0.697879 0.500009 0.775226 0.000177383 0.000118852 3.15905e-05
52 1 0.662158 0.166623 0.989514 0.00128579 -0.000270009 1.34706e-05
53 1 0.590724 0.666666 0.918084 0.000706196 -0.000356436 0.000116229
54 1 0.447881 0.666658 0.775226 0.000122547 -0.000119925 3.38554e-05
55 1 0.340723 0.500001 0.918084 0.000733972 0.000348926 0.000114083
56 1 0.0907223 0.666666 0.918084 0.000749111 -0.000355721 0.000109315
ITEM: TIMESTEP
7
ITEM: NUMBER OF ATOMS
56
ITEM: BOX BOUNDS xy xz yz pp pp pp
-4.7105747461318970e-01 1.2189364790916443e+01 0.0000000000000000e+00
-1.9342899322509766e-03 5.5283424258232117e+00 -4.6679252386093140e-01
-6.6569447517395020e-03 1.9026616990566254e+01 0.0000000000000000e+00
ITEM: ATOMS id type xs ys zs fx fy fz
1 1 0.555183 8.95751e-07 0.132369 -0.000772953 0.000357389 -0.00011313