ITEM: TIMESTEP
0
ITEM: NUMBER OF ATOMS
32
ITEM: BOX BOUNDS xy xz yz pp pp pp
-4.0532350540161133e-03 6.4008854031562805e+00 0.0000000000000000e+00
-9.1640949249267578e-03 5.9443148970603943e+00 0.0000000000000000e+00
-4.7960281372070312e-02 2.0773346722126007e+01 4.1471964120864868e-01
ITEM: ATOMS id type xs ys zs fx fy fz
1 1 0.999986 0.661685 0.0597509 0 0 0.0754623
2 1 0.499986 0.661685 0.0597509 0 0 0.0754623
3 1 0.249986 0.161685 0.0597519 0 0 0.0753918
4 1 0.749986 0.161685 0.0597519 0 0 0.0753918
5 1 0.999986 0.642979 0.309753 0 0 -8.96454e-05
6 1 0.249986 0.486681 0.184753 0 0 -0.000854492
7 1 0.749986 0.486681 0.184753 0 0 -0.000854492
8 1 0.499986 0.642979 0.309753 0 0 -8.96454e-05
9 1 0.999986 0.986679 0.184753 0 0 -0.000829697
10 1 0.249986 0.142979 0.309753 0 0 -0.000143051
11 1 0.499986 0.986679 0.184753 0 0 -0.000829697
12 1 0.749986 0.142979 0.309753 0 0 -0.000143051
13 1 0.999986 0.624247 0.559749 0 0 5.72205e-05
14 1 0.499986 0.624247 0.559749 0 0 5.72205e-05
15 1 0.249986 0.124245 0.55975 0 0 4.3869e-05
16 1 0.749986 0.124245 0.55975 0 0 4.3869e-05
17 1 0.249986 0.467962 0.434752 0 0 -5.72205e-05
18 1 0.749986 0.467962 0.434752 0 0 -5.72205e-05
19 1 0.999986 0.967962 0.434752 0 0 -3.24249e-05
20 1 0.499986 0.967962 0.434752 0 0 -3.24249e-05
21 1 0.999986 0.605519 0.809748 0 0 0.000835419
22 1 0.249986 0.449225 0.684748 0 0 0.000108719
23 1 0.499986 0.605519 0.809748 0 0 0.000835419
24 1 0.749986 0.449225 0.684748 0 0 0.000108719
25 1 0.999986 0.949225 0.684749 0 0 8.96454e-05
26 1 0.249986 0.105519 0.809748 0 0 0.000860214
27 1 0.749986 0.105519 0.809748 0 0 0.000860214
28 1 0.499986 0.949225 0.684749 0 0 8.96454e-05
29 1 0.249986 0.430511 0.934749 0 0 -0.075388
30 1 0.749986 0.430511 0.934749 0 0 -0.075388
31 1 0.999986 0.930512 0.93475 0 0 -0.0754547
32 1 0.499986 0.930512 0.93475 0 0 -0.0754547
ITEM: TIMESTEP
1
ITEM: NUMBER OF ATOMS
32
ITEM: BOX BOUNDS xy xz yz pp pp pp
-4.0532350540161133e-03 6.4008854031562805e+00 0.0000000000000000e+00
-9.1640949249267578e-03 5.9443148970603943e+00 0.0000000000000000e+00
-4.7960281372070312e-02 2.0773346722126007e+01 4.1471964120864868e-01
ITEM: ATOMS id type xs ys zs fx fy fz
1 1 0.999986 0.661618 0.0606519 0 0 -0.00288391
2 1 0.499986 0.661618 0.0606519 0 0 -0.00288391
3 1 0.249986 0.161618 0.0606521 0 0 -0.00288582
4 1 0.749986 0.161618 0.0606521 0 0 -0.00288582
5 1 0.999986 0.642979 0.309752 0 0 0.00122452
6 1 0.249986 0.486682 0.184743 0 0 0.0214653
7 1 0.749986 0.486682 0.184743 0 0 0.0214653
8 1 0.499986 0.642979 0.309752 0 0 0.00122452
9 1 0.999986 0.98668 0.184743 0 0 0.0214615
10 1 0.249986 0.142979 0.309752 0 0 0.0012207
11 1 0.499986 0.98668 0.184743 0 0 0.0214615
12 1 0.749986 0.142979 0.309752 0 0 0.0012207
13 1 0.999986 0.624247 0.55975 0 0 0.000137329
14 1 0.499986 0.624247 0.55975 0 0 0.000137329
15 1 0.249986 0.124245 0.55975 0 0 0.000125885
16 1 0.749986 0.124245 0.55975 0 0 0.000125885
17 1 0.249986 0.467962 0.434752 0 0 -0.000139236
18 1 0.749986 0.467962 0.434752 0 0 -0.000139236
19 1 0.999986 0.967962 0.434751 0 0 -0.000137329
20 1 0.499986 0.967962 0.434751 0 0 -0.000137329
21 1 0.999986 0.605518 0.809758 0 0 -0.0214691
22 1 0.249986 0.449225 0.68475 0 0 -0.00120926
23 1 0.499986 0.605518 0.809758 0 0 -0.0214691
24 1 0.749986 0.449225 0.68475 0 0 -0.00120926
25 1 0.999986 0.949225 0.68475 0 0 -0.00122452
26 1 0.249986 0.105518 0.809758 0 0 -0.0214672
27 1 0.749986 0.105518 0.809758 0 0 -0.0214672
28 1 0.499986 0.949225 0.68475 0 0 -0.00122452
29 1 0.249986 0.430578 0.933849 0 0 0.00289345
30 1 0.749986 0.430578 0.933849 0 0 0.00289345
31 1 0.999986 0.930579 0.933849 0 0 0.00288773
32 1 0.499986 0.930579 0.933849 0 0 0.00288773
ITEM: TIMESTEP
2
ITEM: NUMBER OF ATOMS
32
ITEM: BOX BOUNDS xy xz yz pp pp pp
-4.0532350540161133e-03 6.4008854031562805e+00 0.0000000000000000e+00
-9.1640949249267578e-03 5.9443148970603943e+00 0.0000000000000000e+00
-4.7960281372070312e-02 2.0773346722126007e+01 4.1471964120864868e-01
ITEM: ATOMS id type xs ys zs fx fy fz
1 1 0.999986 0.661607 0.0607991 0 0 -0.00323105
2 1 0.499986 0.661607 0.0607991 0 0 -0.00323105
3 1 0.249986 0.161607 0.060799 0 0 -0.00320244
4 1 0.749986 0.161607 0.060799 0 0 -0.00320244
5 1 0.999986 0.642977 0.309779 0 0 0.0116425
6 1 0.249986 0.486645 0.185228 0 0 0.000396729
7 1 0.749986 0.486645 0.185228 0 0 0.000396729
8 1 0.499986 0.642977 0.309779 0 0 0.0116425
9 1 0.999986 0.986644 0.185228 0 0 0.000383377
10 1 0.249986 0.142977 0.309779 0 0 0.0116386
11 1 0.499986 0.986644 0.185228 0 0 0.000383377
12 1 0.749986 0.142977 0.309779 0 0 0.0116386
13 1 0.999986 0.624246 0.559753 0 0 -0.00152588
14 1 0.499986 0.624246 0.559753 0 0 -0.00152588
15 1 0.249986 0.124245 0.559753 0 0 -0.00151634
16 1 0.749986 0.124245 0.559753 0 0 -0.00151634
17 1 0.249986 0.467963 0.434748 0 0 0.00152206
18 1 0.749986 0.467963 0.434748 0 0 0.00152206
19 1 0.999986 0.967962 0.434748 0 0 0.00151443
20 1 0.499986 0.967962 0.434748 0 0 0.00151443
21 1 0.999986 0.605555 0.809273 0 0 -0.000375748
22 1 0.249986 0.449227 0.684722 0 0 -0.0116444
23 1 0.499986 0.605555 0.809273 0 0 -0.000375748
24 1 0.749986 0.449227 0.684722 0 0 -0.0116444
25 1 0.999986 0.949227 0.684722 0 0 -0.0116405
26 1 0.249986 0.105555 0.809274 0 0 -0.000392914
27 1 0.749986 0.105555 0.809274 0 0 -0.000392914
28 1 0.499986 0.949227 0.684722 0 0 -0.0116405
29 1 0.249986 0.430589 0.933702 0 0 0.00320625
30 1 0.749986 0.430589 0.933702 0 0 0.00320625
31 1 0.999986 0.93059 0.933702 0 0 0.00322533
32 1 0.499986 0.93059 0.933702 0 0 0.00322533
ITEM: TIMESTEP
3
ITEM: NUMBER OF ATOMS
32
ITEM: BOX BOUNDS xy xz yz pp pp pp
-4.0532350540161133e-03 6.4008854031562805e+00 0.0000000000000000e+00
-9.1640949249267578e-03 5.9443148970603943e+00 0.0000000000000000e+00
-4.7960281372070312e-02 2.0773346722126007e+01 4.1471964120864868e-01
ITEM: ATOMS id type xs ys zs fx fy fz
1 1 0.999986 0.66161 0.0607574 0 0 0.00428009
2 1 0.499986 0.66161 0.0607574 0 0 0.00428009
3 1 0.249986 0.16161 0.060758 0 0 0.00425911
4 1 0.749986 0.16161 0.060758 0 0 0.00425911
5 1 0.999986 0.642954 0.310086 0 0 0.000226974
6 1 0.249986 0.486634 0.185374 0 0 -0.000759125
7 1 0.749986 0.486634 0.185374 0 0 -0.000759125
8 1 0.499986 0.642954 0.310086 0 0 0.000226974
9 1 0.999986 0.986633 0.185374 0 0 -0.000738144
10 1 0.249986 0.142954 0.310086 0 0 0.000226974
11 1 0.499986 0.986633 0.185374 0 0 -0.000738144
12 1 0.749986 0.142954 0.310086 0 0 0.000226974
13 1 0.999986 0.624249 0.559715 0 0 -0.00579834
14 1 0.499986 0.624249 0.559715 0 0 -0.00579834
15 1 0.249986 0.124248 0.559715 0 0 -0.00579834
16 1 0.749986 0.124248 0.559715 0 0 -0.00579834
17 1 0.249986 0.46796 0.434786 0 0 0.00580215
18 1 0.749986 0.46796 0.434786 0 0 0.00580215
19 1 0.999986 0.967959 0.434786 0 0 0.00580215
20 1 0.499986 0.967959 0.434786 0 0 0.00580215
21 1 0.999986 0.605565 0.809128 0 0 0.000740051
22 1 0.249986 0.44925 0.684415 0 0 -0.000232697
23 1 0.499986 0.605565 0.809128 0 0 0.000740051
24 1 0.749986 0.44925 0.684415 0 0 -0.000232697
25 1 0.999986 0.94925 0.684415 0 0 -0.000228882
26 1 0.249986 0.105566 0.809127 0 0 0.000751495
27 1 0.749986 0.105566 0.809127 0 0 0.000751495
28 1 0.499986 0.94925 0.684415 0 0 -0.000228882
29 1 0.249986 0.430586 0.933744 0 0 -0.00426102
30 1 0.749986 0.430586 0.933744 0 0 -0.00426102
31 1 0.999986 0.930587 0.933744 0 0 -0.00427246
32 1 0.499986 0.930587 0.933744 0 0 -0.00427246
ITEM: TIMESTEP
4
ITEM: NUMBER OF ATOMS
32
ITEM: BOX BOUNDS xy xz yz pp pp pp
-4.0532350540161133e-03 6.4008854031562805e+00 0.0000000000000000e+00
-9.1640949249267578e-03 5.9443148970603943e+00 0.0000000000000000e+00
-4.7960281372070312e-02 2.0773346722126007e+01 4.1471964120864868e-01
ITEM: ATOMS id type xs ys zs fx fy fz
1 1 0.999986 0.661605 0.060814 0 0 0.000219345
2 1 0.499986 0.661605 0.060814 0 0 0.000219345
3 1 0.249986 0.161606 0.0608145 0 0 0.000192642
4 1 0.749986 0.161606 0.0608145 0 0 0.000192642
5 1 0.999986 0.642948 0.310158 0 0 -0.000659943
6 1 0.249986 0.486633 0.185395 0 0 0.00141335
7 1 0.749986 0.486633 0.185395 0 0 0.00141335
8 1 0.499986 0.642948 0.310158 0 0 -0.000659943
9 1 0.999986 0.986631 0.185395 0 0 0.00142097
10 1 0.249986 0.142949 0.310158 0 0 -0.000650406
11 1 0.499986 0.986631 0.185395 0 0 0.00142097
12 1 0.749986 0.142949 0.310158 0 0 -0.000650406
13 1 0.999986 0.624257 0.559617 0 0 -7.62939e-05
14 1 0.499986 0.624257 0.559617 0 0 -7.62939e-05
15 1 0.249986 0.124255 0.559617 0 0 -8.58307e-05
16 1 0.749986 0.124255 0.559617 0 0 -8.58307e-05
17 1 0.249986 0.467952 0.434884 0 0 7.24792e-05
18 1 0.749986 0.467952 0.434884 0 0 7.24792e-05
19 1 0.999986 0.967952 0.434884 0 0 8.39233e-05
20 1 0.499986 0.967952 0.434884 0 0 8.39233e-05
21 1 0.999986 0.605567 0.809106 0 0 -0.00141335
22 1 0.249986 0.449255 0.684343 0 0 0.000654221
23 1 0.499986 0.605567 0.809106 0 0 -0.00141335
24 1 0.749986 0.449255 0.684343 0 0 0.000654221
25 1 0.999986 0.949255 0.684343 0 0 0.000663757
26 1 0.249986 0.105567 0.809106 0 0 -0.00141335
27 1 0.749986 0.105567 0.809106 0 0 -0.00141335
28 1 0.499986 0.949255 0.684343 0 0 0.000663757
29 1 0.249986 0.43059 0.933687 0 0 -0.000209808
30 1 0.749986 0.43059 0.933687 0 0 -0.000209808
31 1 0.999986 0.930591 0.933687 0 0 -0.000211716
32 1 0.499986 0.930591 0.933687 0 0 -0.000211716
ITEM: TIMESTEP
5
ITEM: NUMBER OF ATOMS
32
ITEM: BOX BOUNDS xy xz yz pp pp pp
-4.0532350540161133e-03 6.4008854031562805e+00 0.0000000000000000e+00
-9.1640949249267578e-03 5.9443148970603943e+00 0.0000000000000000e+00
-4.7960281372070312e-02 2.0773346722126007e+01 4.1471964120864868e-01
ITEM: ATOMS id type xs ys zs fx fy fz
1 1 0.999986 0.661605 0.06082 0 0 0.000253677
2 1 0.499986 0.661605 0.06082 0 0 0.000253677
3 1 0.249986 0.161605 0.0608201 0 0 0.000265121
4 1 0.749986 0.161605 0.0608201 0 0 0.000265121
5 1 0.999986 0.642949 0.310151 0 0 0.000391006
6 1 0.249986 0.486631 0.185418 0 0 0.000205994
7 1 0.749986 0.486631 0.185418 0 0 0.000205994
8 1 0.499986 0.642949 0.310151 0 0 0.000391006
9 1 0.999986 0.986629 0.185418 0 0 0.000204086
10 1 0.249986 0.14295 0.310151 0 0 0.000398636
11 1 0.499986 0.986629 0.185418 0 0 0.000204086
12 1 0.749986 0.14295 0.310151 0 0 0.000398636
13 1 0.999986 0.624257 0.559612 0 0 0.000476837
14 1 0.499986 0.624257 0.559612 0 0 0.000476837
15 1 0.249986 0.124256 0.559611 0 0 0.000482559
16 1 0.749986 0.124256 0.559611 0 0 0.000482559
17 1 0.249986 0.467952 0.43489 0 0 -0.000476837
18 1 0.749986 0.467952 0.43489 0 0 -0.000476837
19 1 0.999986 0.967951 0.43489 0 0 -0.000478745
20 1 0.499986 0.967951 0.43489 0 0 -0.000478745
21 1 0.999986 0.605569 0.809083 0 0 -0.000211716
22 1 0.249986 0.449255 0.68435 0 0 -0.000392914
23 1 0.499986 0.605569 0.809083 0 0 -0.000211716
24 1 0.749986 0.449255 0.68435 0 0 -0.000392914
25 1 0.999986 0.949255 0.684351 0 0 -0.000398636
26 1 0.249986 0.105569 0.809083 0 0 -0.000213623
27 1 0.749986 0.105569 0.809083 0 0 -0.000213623
28 1 0.499986 0.949255 0.684351 0 0 -0.000398636
29 1 0.249986 0.430591 0.933681 0 0 -0.000253677
30 1 0.749986 0.430591 0.933681 0 0 -0.000253677
31 1 0.999986 0.930592 0.933681 0 0 -0.00025177
32 1 0.499986 0.930592 0.933681 0 0 -0.00025177
ITEM: TIMESTEP
6
ITEM: NUMBER OF ATOMS
32
ITEM: BOX BOUNDS xy xz yz pp pp pp
-4.0532350540161133e-03 6.4008854031562805e+00 0.0000000000000000e+00
-9.1640949249267578e-03 5.9443148970603943e+00 0.0000000000000000e+00
-4.7960281372070312e-02 2.0773346722126007e+01 4.1471964120864868e-01
ITEM: ATOMS id type xs ys zs fx fy fz
1 1 0.999986 0.661605 0.06082 0 0 0.000253677
2 1 0.499986 0.661605 0.06082 0 0 0.000253677
3 1 0.249986 0.161605 0.0608201 0 0 0.000265121
4 1 0.749986 0.161605 0.0608201 0 0 0.000265121
5 1 0.999986 0.642949 0.310151 0 0 0.000391006
6 1 0.249986 0.486631 0.185418 0 0 0.000205994
7 1 0.749986 0.486631 0.185418 0 0 0.000205994
8 1 0.499986 0.642949 0.310151 0 0 0.000391006
9 1 0.999986 0.986629 0.185418 0 0 0.000204086
10 1 0.249986 0.14295 0.310151 0 0 0.000398636
11 1 0.499986 0.986629 0.185418 0 0 0.000204086
12 1 0.749986 0.14295 0.310151 0 0 0.000398636
13 1 0.999986 0.624257 0.559612 0 0 0.000476837
14 1 0.499986 0.624257 0.559612 0 0 0.000476837
15 1 0.249986 0.124256 0.559611 0 0 0.000482559
16 1 0.749986 0.124256 0.559611 0 0 0.000482559
17 1 0.249986 0.467952 0.43489 0 0 -0.000476837
18 1 0.749986 0.467952 0.43489 0 0 -0.000476837
19 1 0.999986 0.967951 0.43489 0 0 -0.000478745
20 1 0.499986 0.967951 0.43489 0 0 -0.000478745
21 1 0.999986 0.605569 0.809083 0 0 -0.000211716
22 1 0.249986 0.449255 0.68435 0 0 -0.000392914
23 1 0.499986 0.605569 0.809083 0 0 -0.000211716
24 1 0.749986 0.449255 0.68435 0 0 -0.000392914
25 1 0.999986 0.949255 0.684351 0 0 -0.000398636
26 1 0.249986 0.105569 0.809083 0 0 -0.000213623
27 1 0.749986 0.105569 0.809083 0 0 -0.000213623
28 1 0.499986 0.949255 0.684351 0 0 -0.000398636
29 1 0.249986 0.430591 0.933681 0 0 -0.000253677
30 1 0.749986 0.430591 0.933681 0 0 -0.000253677
31 1 0.999986 0.930592 0.933681 0 0 -0.00025177
32 1 0.499986 0.930592 0.933681 0 0 -0.00025177
