ITEM: TIMESTEP
0
ITEM: NUMBER OF ATOMS
32
ITEM: BOX BOUNDS xy xz yz pp pp pp
-9.5987319946289062e-04 6.3977920413017273e+00 -0.0000000000000000e+00
-1.0525226593017578e-02 6.4988737702369690e+00 0.0000000000000000e+00
-5.8505058288574219e-02 2.0783891499042511e+01 9.6791738271713257e-01
ITEM: ATOMS id type xs ys zs fx fy fz
1 1 0.999986 0.65623 0.0597507 -1.54972e-06 0 0.508549
2 1 0.499986 0.65623 0.0597507 1.78814e-06 0 0.508549
3 1 0.249986 0.15623 0.0597507 3.57628e-07 0 0.508552
4 1 0.749986 0.15623 0.0597507 -2.38419e-07 0 0.508548
5 1 0.999986 0.612563 0.309751 1.19209e-07 0 0.000729084
6 1 0.249986 0.46773 0.184751 -1.43051e-06 0 -0.00596333
7 1 0.749986 0.46773 0.184751 7.15256e-07 0 -0.0059638
8 1 0.499986 0.612563 0.309751 1.07288e-06 0 0.000730038
9 1 0.999986 0.96773 0.184751 5.96046e-07 0 -0.00596368
10 1 0.249986 0.112563 0.309751 -2.14577e-06 0 0.000727296
11 1 0.499986 0.96773 0.184751 2.38419e-07 0 -0.00596488
12 1 0.749986 0.112563 0.309751 1.54972e-06 0 0.000727773
13 1 0.999986 0.568896 0.559751 -2.38419e-06 0 5.16176e-05
14 1 0.499986 0.568896 0.559751 2.5034e-06 0 5.17368e-05
15 1 0.249986 0.0688961 0.559751 -7.15256e-07 0 5.19753e-05
16 1 0.749986 0.068896 0.559751 8.34465e-07 0 5.25713e-05
17 1 0.249986 0.424063 0.434751 4.76837e-07 0 -5.16176e-05
18 1 0.749986 0.424063 0.434751 -2.38419e-06 0 -5.1856e-05
19 1 0.999986 0.924063 0.434751 9.53674e-07 0 -5.14984e-05
20 1 0.499986 0.924063 0.434751 2.38419e-07 0 -5.11408e-05
21 1 0.999986 0.525229 0.809751 3.57628e-07 0 0.00596309
22 1 0.249986 0.380396 0.684751 2.38419e-07 0 -0.00072825
23 1 0.499986 0.525229 0.809751 -1.07288e-06 0 0.00596368
24 1 0.749986 0.380396 0.684751 3.57628e-07 0 -0.000730038
25 1 0.999986 0.880396 0.684751 -7.15256e-07 0 -0.000728607
26 1 0.249986 0.025229 0.809751 1.19209e-07 0 0.00596416
27 1 0.749986 0.0252291 0.809751 3.57628e-07 0 0.00596368
28 1 0.499986 0.880396 0.684751 3.57628e-07 0 -0.000729322
29 1 0.249986 0.336729 0.934751 -4.76837e-07 0 -0.508552
30 1 0.749986 0.336729 0.934751 1.19209e-07 0 -0.508546
31 1 0.999986 0.836729 0.934751 -5.96046e-07 0 -0.508549
32 1 0.499986 0.836729 0.934751 3.57628e-07 0 -0.50855
ITEM: TIMESTEP
1
ITEM: NUMBER OF ATOMS
32
ITEM: BOX BOUNDS xy xz yz pp pp pp
-9.5987319946289062e-04 6.3977920413017273e+00 -0.0000000000000000e+00
-1.0525226593017578e-02 6.4988737702369690e+00 0.0000000000000000e+00
-5.8505058288574219e-02 2.0783891499042511e+01 9.6791738271713257e-01
ITEM: ATOMS id type xs ys zs fx fy fz
1 1 0.999986 0.655508 0.0638818 -5.96046e-07 0 -0.00809002
2 1 0.499986 0.655508 0.0638818 5.96046e-07 0 -0.00809002
3 1 0.249986 0.155508 0.0638818 1.19209e-07 0 -0.00808954
4 1 0.749986 0.155508 0.0638817 -1.19209e-07 0 -0.00808859
5 1 0.999986 0.612562 0.309757 2.38419e-07 0 0.00538647
6 1 0.249986 0.467738 0.184702 -5.96046e-07 0 0.122652
7 1 0.749986 0.467738 0.184702 0 0 0.122651
8 1 0.499986 0.612562 0.309757 -1.19209e-07 0 0.00538659
9 1 0.999986 0.967738 0.184702 3.57628e-07 0 0.122651
10 1 0.249986 0.112562 0.309757 -1.19209e-07 0 0.00538528
11 1 0.499986 0.967738 0.184702 3.57628e-07 0 0.12265
12 1 0.749986 0.112562 0.309757 0 0 0.00538528
13 1 0.999986 0.568896 0.559751 -3.57628e-07 0 0.000305057
14 1 0.499986 0.568896 0.559751 1.19209e-07 0 0.000305414
15 1 0.249986 0.068896 0.559751 4.76837e-07 0 0.000305891
16 1 0.749986 0.0688959 0.559751 -3.57628e-07 0 0.000305533
17 1 0.249986 0.424063 0.43475 0 0 -0.000305295
18 1 0.749986 0.424063 0.43475 -4.76837e-07 0 -0.000305414
19 1 0.999986 0.924063 0.43475 4.76837e-07 0 -0.000305176
20 1 0.499986 0.924063 0.43475 -1.19209e-07 0 -0.000305295
21 1 0.999986 0.52522 0.809799 -2.38419e-07 0 -0.122651
22 1 0.249986 0.380397 0.684745 -2.38419e-07 0 -0.00538599
23 1 0.499986 0.52522 0.809799 0 0 -0.122651
24 1 0.749986 0.380397 0.684745 2.38419e-07 0 -0.00538671
25 1 0.999986 0.880397 0.684745 0 0 -0.00538635
26 1 0.249986 0.0252205 0.809799 1.19209e-07 0 -0.122651
27 1 0.749986 0.0252206 0.809799 0 0 -0.122651
28 1 0.499986 0.880397 0.684745 3.57628e-07 0 -0.00538623
29 1 0.249986 0.337451 0.93062 -3.57628e-07 0 0.00809038
30 1 0.749986 0.337451 0.93062 9.53674e-07 0 0.0080905
31 1 0.999986 0.83745 0.93062 -3.57628e-07 0 0.00808966
32 1 0.499986 0.83745 0.93062 -3.57628e-07 0 0.00808907
ITEM: TIMESTEP
2
ITEM: NUMBER OF ATOMS
32
ITEM: BOX BOUNDS xy xz yz pp pp pp
-9.5987319946289062e-04 6.3977920413017273e+00 -0.0000000000000000e+00
-1.0525226593017578e-02 6.4988737702369690e+00 0.0000000000000000e+00
-5.8505058288574219e-02 2.0783891499042511e+01 9.6791738271713257e-01
ITEM: ATOMS id type xs ys zs fx fy fz
1 1 0.999986 0.6554 0.0645021 4.76837e-07 0 0.00441074
2 1 0.499986 0.6554 0.0645021 -5.96046e-07 0 0.00441074
3 1 0.249986 0.1554 0.0645021 -2.38419e-07 0 0.00441062
4 1 0.749986 0.1554 0.0645021 1.19209e-07 0 0.00441062
5 1 0.999986 0.612543 0.309865 -3.57628e-07 0 0.0655804
6 1 0.249986 0.467314 0.187132 8.34465e-07 0 -0.00151408
7 1 0.749986 0.467314 0.187132 2.38419e-07 0 -0.00151312
8 1 0.499986 0.612543 0.309865 0 0 0.0655799
9 1 0.999986 0.967314 0.187132 -3.57628e-07 0 -0.00151312
10 1 0.249986 0.112543 0.309865 5.96046e-07 0 0.0655802
11 1 0.499986 0.967314 0.187132 -2.38419e-07 0 -0.00151289
12 1 0.749986 0.112543 0.309865 -3.57628e-07 0 0.06558
13 1 0.999986 0.568895 0.559757 3.57628e-07 0 -0.00601816
14 1 0.499986 0.568895 0.559757 -4.76837e-07 0 -0.00601804
15 1 0.249986 0.0688949 0.559757 -4.76837e-07 0 -0.00601816
16 1 0.749986 0.0688949 0.559757 2.38419e-07 0 -0.0060184
17 1 0.249986 0.424064 0.434744 0 0 0.00601792
18 1 0.749986 0.424064 0.434744 2.38419e-07 0 0.00601792
19 1 0.999986 0.924064 0.434744 -2.38419e-07 0 0.00601792
20 1 0.499986 0.924064 0.434744 3.57628e-07 0 0.00601828
21 1 0.999986 0.525645 0.807369 -3.57628e-07 0 0.00151324
22 1 0.249986 0.380416 0.684637 0 0 -0.0655795
23 1 0.499986 0.525645 0.807369 1.19209e-07 0 0.00151372
24 1 0.749986 0.380416 0.684637 -1.19209e-07 0 -0.06558
25 1 0.999986 0.880416 0.684637 4.76837e-07 0 -0.0655797
26 1 0.249986 0.0256449 0.807369 0 0 0.00151324
27 1 0.749986 0.0256451 0.807369 0 0 0.00151289
28 1 0.499986 0.880416 0.684637 -3.57628e-07 0 -0.0655795
29 1 0.249986 0.337559 0.929999 4.76837e-07 0 -0.0044111
30 1 0.749986 0.337559 0.929999 -9.53674e-07 0 -0.00441086
31 1 0.999986 0.837559 0.929999 2.38419e-07 0 -0.00441098
32 1 0.499986 0.837559 0.929999 3.57628e-07 0 -0.00441074
ITEM: TIMESTEP
3
ITEM: NUMBER OF ATOMS
32
ITEM: BOX BOUNDS xy xz yz pp pp pp
-9.5987319946289062e-04 6.3977920413017273e+00 -0.0000000000000000e+00
-1.0525226593017578e-02 6.4988737702369690e+00 0.0000000000000000e+00
-5.8505058288574219e-02 2.0783891499042511e+01 9.6791738271713257e-01
ITEM: ATOMS id type xs ys zs fx fy fz
1 1 0.999986 0.655341 0.0648372 -4.76837e-07 0 -0.00162327
2 1 0.499986 0.655341 0.0648372 3.57628e-07 0 -0.00162339
3 1 0.249986 0.155342 0.0648372 2.38419e-07 0 -0.00162303
4 1 0.749986 0.155341 0.0648372 -2.38419e-07 0 -0.0016228
5 1 0.999986 0.612244 0.311578 3.57628e-07 0 -0.00504398
6 1 0.249986 0.467168 0.187965 0 0 0.00653875
7 1 0.749986 0.467168 0.187965 -1.19209e-07 0 0.00653815
8 1 0.499986 0.612244 0.311578 -2.38419e-07 0 -0.00504398
9 1 0.999986 0.967168 0.187965 2.38419e-07 0 0.00653827
10 1 0.249986 0.112244 0.311578 -2.38419e-07 0 -0.00504386
11 1 0.499986 0.967168 0.187965 -1.19209e-07 0 0.00653839
12 1 0.749986 0.112244 0.311578 3.57628e-07 0 -0.00504339
13 1 0.999986 0.568921 0.559606 1.19209e-07 0 -0.0384877
14 1 0.499986 0.568921 0.559606 2.38419e-07 0 -0.0384892
15 1 0.249986 0.0689214 0.559606 -2.38419e-07 0 -0.0384893
16 1 0.749986 0.0689213 0.559606 -1.19209e-07 0 -0.0384887
17 1 0.249986 0.424038 0.434896 1.19209e-07 0 0.0384898
18 1 0.749986 0.424038 0.434896 1.19209e-07 0 0.0384889
19 1 0.999986 0.924038 0.434896 -3.57628e-07 0 0.0384896
20 1 0.499986 0.924038 0.434896 0 0 0.0384884
21 1 0.999986 0.52579 0.806536 3.57628e-07 0 -0.00653803
22 1 0.249986 0.380715 0.682923 2.38419e-07 0 0.00504303
23 1 0.499986 0.52579 0.806536 -1.19209e-07 0 -0.00653851
24 1 0.749986 0.380715 0.682923 -5.96046e-07 0 0.00504375
25 1 0.999986 0.880715 0.682923 -4.76837e-07 0 0.00504375
26 1 0.249986 0.0257904 0.806536 -1.19209e-07 0 -0.00653851
27 1 0.749986 0.0257906 0.806536 0 0 -0.00653875
28 1 0.499986 0.880715 0.682923 5.96046e-07 0 0.00504303
29 1 0.249986 0.337617 0.929664 -3.57628e-07 0 0.00162351
30 1 0.749986 0.337618 0.929664 4.76837e-07 0 0.00162292
31 1 0.999986 0.837617 0.929664 0 0 0.00162303
32 1 0.499986 0.837617 0.929664 0 0 0.00162327
ITEM: TIMESTEP
4
ITEM: NUMBER OF ATOMS
32
ITEM: BOX BOUNDS xy xz yz pp pp pp
-9.5987319946289062e-04 6.3977920413017273e+00 -0.0000000000000000e+00
-1.0525226593017578e-02 6.4988737702369690e+00 0.0000000000000000e+00
-5.8505058288574219e-02 2.0783891499042511e+01 9.6791738271713257e-01
ITEM: ATOMS id type xs ys zs fx fy fz
1 1 0.999986 0.655334 0.0648817 1.19209e-07 0 0.00164247
2 1 0.499986 0.655334 0.0648817 0 0 0.00164247
3 1 0.249986 0.155334 0.0648817 -1.19209e-07 0 0.0016433
4 1 0.749986 0.155334 0.0648817 -2.38419e-07 0 0.00164282
5 1 0.999986 0.612197 0.311848 3.57628e-07 0 0.000189185
6 1 0.249986 0.467125 0.188214 -7.15256e-07 0 0.00134611
7 1 0.749986 0.467125 0.188214 -1.19209e-07 0 0.00134611
8 1 0.499986 0.612197 0.311848 0 0 0.000188947
9 1 0.999986 0.967125 0.188214 7.15256e-07 0 0.00134599
10 1 0.249986 0.112197 0.311848 -5.96046e-07 0 0.000189066
11 1 0.499986 0.967125 0.188214 3.57628e-07 0 0.00134611
12 1 0.749986 0.112197 0.311848 2.38419e-07 0 0.000189066
13 1 0.999986 0.569014 0.559073 -4.76837e-07 0 -0.00142312
14 1 0.499986 0.569014 0.559073 2.38419e-07 0 -0.00142288
15 1 0.249986 0.0690145 0.559073 5.96046e-07 0 -0.001423
16 1 0.749986 0.0690144 0.559073 -1.19209e-07 0 -0.00142252
17 1 0.249986 0.423944 0.435429 0 0 0.00142229
18 1 0.749986 0.423945 0.435429 4.76837e-07 0 0.00142324
19 1 0.999986 0.923945 0.435429 1.19209e-07 0 0.00142288
20 1 0.499986 0.923944 0.435429 -5.96046e-07 0 0.00142276
21 1 0.999986 0.525834 0.806287 1.19209e-07 0 -0.00134611
22 1 0.249986 0.380762 0.682653 -3.57628e-07 0 -0.000189304
23 1 0.499986 0.525834 0.806287 -1.19209e-07 0 -0.00134635
24 1 0.749986 0.380762 0.682653 2.38419e-07 0 -0.000188589
25 1 0.999986 0.880762 0.682653 0 0 -0.000188828
26 1 0.249986 0.0258339 0.806287 -1.19209e-07 0 -0.00134575
27 1 0.749986 0.025834 0.806287 -1.19209e-07 0 -0.00134611
28 1 0.499986 0.880762 0.682653 -1.19209e-07 0 -0.000189185
29 1 0.249986 0.337625 0.92962 -5.96046e-07 0 -0.00164235
30 1 0.749986 0.337625 0.92962 4.76837e-07 0 -0.00164235
31 1 0.999986 0.837625 0.92962 2.38419e-07 0 -0.0016433
32 1 0.499986 0.837625 0.92962 1.19209e-07 0 -0.00164306
ITEM: TIMESTEP
5
ITEM: NUMBER OF ATOMS
32
ITEM: BOX BOUNDS xy xz yz pp pp pp
-9.5987319946289062e-04 6.3977920413017273e+00 -0.0000000000000000e+00
-1.0525226593017578e-02 6.4988737702369690e+00 0.0000000000000000e+00
-5.8505058288574219e-02 2.0783891499042511e+01 9.6791738271713257e-01
ITEM: ATOMS id type xs ys zs fx fy fz
1 1 0.999986 0.655329 0.0649099 -1.19209e-07 0 -0.000456452
2 1 0.499986 0.655329 0.0649099 2.38419e-07 0 -0.000456333
3 1 0.249986 0.155329 0.0649099 -3.57628e-07 0 -0.000456929
4 1 0.749986 0.155329 0.0649099 3.57628e-07 0 -0.000456572
5 1 0.999986 0.612196 0.311852 -2.38419e-07 0 0.00130796
6 1 0.249986 0.467121 0.188237 2.38419e-07 0 0.000934362
7 1 0.749986 0.467121 0.188237 2.38419e-07 0 0.000934243
8 1 0.499986 0.612196 0.311852 -1.19209e-07 0 0.00130856
9 1 0.999986 0.967121 0.188237 -4.76837e-07 0 0.000934601
10 1 0.249986 0.112196 0.311852 3.57628e-07 0 0.00130856
11 1 0.499986 0.967121 0.188237 0 0 0.000934482
12 1 0.749986 0.112196 0.311852 0 0 0.0013088
13 1 0.999986 0.569019 0.559048 8.34465e-07 0 0.000531673
14 1 0.499986 0.569019 0.559048 -2.38419e-07 0 0.000531793
15 1 0.249986 0.0690188 0.559048 3.57628e-07 0 0.000531793
16 1 0.749986 0.0690187 0.559048 0 0 0.000531316
17 1 0.249986 0.42394 0.435453 1.19209e-07 0 -0.000531316
18 1 0.749986 0.42394 0.435453 -7.15256e-07 0 -0.000531673
19 1 0.999986 0.92394 0.435453 -1.19209e-07 0 -0.00053215
20 1 0.499986 0.92394 0.435453 -1.19209e-07 0 -0.000531554
21 1 0.999986 0.525838 0.806264 1.19209e-07 0 -0.000934124
22 1 0.249986 0.380763 0.68265 1.19209e-07 0 -0.00130808
23 1 0.499986 0.525838 0.806264 -2.38419e-07 0 -0.000934243
24 1 0.749986 0.380763 0.68265 -1.19209e-07 0 -0.00130832
25 1 0.999986 0.880763 0.68265 -1.19209e-07 0 -0.00130892
26 1 0.249986 0.0258379 0.806264 2.38419e-07 0 -0.00093472
27 1 0.749986 0.0258381 0.806264 -1.19209e-07 0 -0.000934005
28 1 0.499986 0.880763 0.68265 0 0 -0.00130832
29 1 0.249986 0.33763 0.929591 3.57628e-07 0 0.000456214
30 1 0.749986 0.33763 0.929592 -3.57628e-07 0 0.000456095
31 1 0.999986 0.83763 0.929591 -4.76837e-07 0 0.000456691
32 1 0.499986 0.83763 0.929591 3.57628e-07 0 0.000456572
ITEM: TIMESTEP
6
ITEM: NUMBER OF ATOMS
32
ITEM: BOX BOUNDS xy xz yz pp pp pp
-9.5987319946289062e-04 6.3977920413017273e+00 -0.0000000000000000e+00
-1.0525226593017578e-02 6.4988737702369690e+00 0.0000000000000000e+00
-5.8505058288574219e-02 2.0783891499042511e+01 9.6791738271713257e-01
ITEM: ATOMS id type xs ys zs fx fy fz
1 1 0.999986 0.655327 0.0649188 0 0 2.70605e-05
2 1 0.499986 0.655327 0.0649188 -2.38419e-07 0 2.69413e-05
3 1 0.249986 0.155327 0.0649189 7.15256e-07 0 2.65837e-05
4 1 0.749986 0.155327 0.0649189 -2.38419e-07 0 2.65837e-05
5 1 0.999986 0.612189 0.311891 0 0 0.000347853
6 1 0.249986 0.467113 0.188282 5.96046e-07 0 -0.000335693
7 1 0.749986 0.467113 0.188282 -1.19209e-07 0 -0.000335336
8 1 0.499986 0.612189 0.311891 1.19209e-07 0 0.000347376
9 1 0.999986 0.967113 0.188282 -4.76837e-07 0 -0.000335336
10 1 0.249986 0.112189 0.311891 2.38419e-07 0 0.000347257
11 1 0.499986 0.967113 0.188282 -7.15256e-07 0 -0.000334978
12 1 0.749986 0.112189 0.311891 2.38419e-07 0 0.000347376
13 1 0.999986 0.569019 0.559044 -2.38419e-07 0 -0.000240088
14 1 0.499986 0.569019 0.559044 1.19209e-07 0 -0.000239372
15 1 0.249986 0.0690194 0.559044 -1.78814e-06 0 -0.000239491
16 1 0.749986 0.0690194 0.559044 5.96046e-07 0 -0.00023973
17 1 0.249986 0.42394 0.435457 -4.76837e-07 0 0.000239491
18 1 0.749986 0.42394 0.435457 8.34465e-07 0 0.000239611
19 1 0.999986 0.92394 0.435457 0 0 0.000240445
20 1 0.499986 0.92394 0.435457 5.96046e-07 0 0.000239491
21 1 0.999986 0.525846 0.806219 -3.57628e-07 0 0.000335336
22 1 0.249986 0.38077 0.68261 1.19209e-07 0 -0.000347614
23 1 0.499986 0.525846 0.806219 4.76837e-07 0 0.000335693
24 1 0.749986 0.38077 0.68261 0 0 -0.000347733
25 1 0.999986 0.88077 0.68261 0 0 -0.000347257
26 1 0.249986 0.0258457 0.806219 -3.57628e-07 0 0.000334978
27 1 0.749986 0.0258459 0.806219 3.57628e-07 0 0.00033462
28 1 0.499986 0.88077 0.68261 1.19209e-07 0 -0.000347495
29 1 0.249986 0.337632 0.929583 1.19209e-07 0 -2.74181e-05
30 1 0.749986 0.337632 0.929583 1.19209e-07 0 -2.67029e-05
31 1 0.999986 0.837632 0.929583 5.96046e-07 0 -2.59876e-05
32 1 0.499986 0.837632 0.929583 -9.53674e-07 0 -2.64645e-05
ITEM: TIMESTEP
7
ITEM: NUMBER OF ATOMS
32
ITEM: BOX BOUNDS xy xz yz pp pp pp
-9.5987319946289062e-04 6.3977920413017273e+00 -0.0000000000000000e+00
-1.0525226593017578e-02 6.4988737702369690e+00 0.0000000000000000e+00
-5.8505058288574219e-02 2.0783891499042511e+01 9.6791738271713257e-01
ITEM: ATOMS id type xs ys zs fx fy fz
1 1 0.999986 0.655327 0.0649197 2.38419e-07 0 -0.000120759
2 1 0.499986 0.655327 0.0649197 -1.19209e-07 0 -0.00012064
3 1 0.249986 0.155327 0.0649197 4.76837e-07 0 -0.000120044
4 1 0.749986 0.155327 0.0649197 -4.76837e-07 0 -0.000119448
5 1 0.999986 0.612188 0.311898 0 0 -2.67029e-05
6 1 0.249986 0.467113 0.188279 -2.38419e-07 0 3.91006e-05
7 1 0.749986 0.467114 0.188279 -3.57628e-07 0 3.92199e-05
8 1 0.499986 0.612188 0.311898 5.96046e-07 0 -2.69413e-05
9 1 0.999986 0.967113 0.188279 -2.38419e-07 0 3.91006e-05
10 1 0.249986 0.112188 0.311898 1.19209e-07 0 -2.65837e-05
11 1 0.499986 0.967113 0.188279 4.76837e-07 0 3.86238e-05
12 1 0.749986 0.112188 0.311898 -4.76837e-07 0 -2.67029e-05
13 1 0.999986 0.56902 0.559041 -2.38419e-07 0 -0.000106692
14 1 0.499986 0.56902 0.559041 4.76837e-07 0 -0.000107288
15 1 0.249986 0.0690201 0.559041 2.38419e-07 0 -0.000106812
16 1 0.749986 0.06902 0.559041 -2.38419e-07 0 -0.000106692
17 1 0.249986 0.423939 0.435461 7.15256e-07 0 0.000107408
18 1 0.749986 0.423939 0.435461 -5.96046e-07 0 0.000106692
19 1 0.999986 0.923939 0.435461 -4.76837e-07 0 0.000106573
20 1 0.499986 0.923939 0.435461 1.19209e-07 0 0.000107288
21 1 0.999986 0.525845 0.806222 -1.19209e-07 0 -3.89814e-05
22 1 0.249986 0.380771 0.682603 1.19209e-07 0 2.64645e-05
23 1 0.499986 0.525845 0.806222 0 0 -3.86238e-05
24 1 0.749986 0.380771 0.682603 -2.38419e-07 0 2.6226e-05
25 1 0.999986 0.880771 0.682603 0 0 2.63453e-05
26 1 0.249986 0.0258453 0.806222 0 0 -3.8743e-05
27 1 0.749986 0.0258454 0.806222 1.19209e-07 0 -3.8743e-05
28 1 0.499986 0.880771 0.682603 1.19209e-07 0 2.63453e-05
29 1 0.249986 0.337632 0.929582 2.38419e-07 0 0.000120878
30 1 0.749986 0.337632 0.929582 -4.76837e-07 0 0.000120997
31 1 0.999986 0.837632 0.929582 1.19209e-07 0 0.000119328
32 1 0.499986 0.837632 0.929582 1.19209e-07 0 0.000119805
ITEM: TIMESTEP
8
ITEM: NUMBER OF ATOMS
32
ITEM: BOX BOUNDS xy xz yz pp pp pp
-9.5987319946289062e-04 6.3977920413017273e+00 -0.0000000000000000e+00
-1.0525226593017578e-02 6.4988737702369690e+00 0.0000000000000000e+00
-5.8505058288574219e-02 2.0783891499042511e+01 9.6791738271713257e-01
ITEM: ATOMS id type xs ys zs fx fy fz
1 1 0.999986 0.655327 0.0649185 1.19209e-07 0 1.19209e-07
2 1 0.499986 0.655327 0.0649185 3.57628e-07 0 0
3 1 0.249986 0.155327 0.0649185 -7.15256e-07 0 3.57628e-07
4 1 0.749986 0.155327 0.0649185 3.57628e-07 0 -2.38419e-07
5 1 0.999986 0.612188 0.311899 1.19209e-07 0 2.38419e-07
6 1 0.249986 0.467113 0.188279 0 0 0
7 1 0.749986 0.467114 0.188279 1.19209e-07 0 0
8 1 0.499986 0.612188 0.311899 1.19209e-07 0 0
9 1 0.999986 0.967113 0.188279 4.76837e-07 0 -5.96046e-07
10 1 0.249986 0.112188 0.311899 -5.96046e-07 0 2.38419e-07
11 1 0.499986 0.967113 0.188279 -1.19209e-07 0 -3.57628e-07
12 1 0.749986 0.112188 0.311899 2.38419e-07 0 0
13 1 0.999986 0.56902 0.559039 3.57628e-07 0 -3.57628e-07
14 1 0.499986 0.56902 0.559039 -1.19209e-07 0 -7.15256e-07
15 1 0.249986 0.0690203 0.559039 2.38419e-07 0 -3.57628e-07
16 1 0.749986 0.0690203 0.559039 -2.38419e-07 0 -7.15256e-07
17 1 0.249986 0.423939 0.435462 -1.19209e-07 0 4.76837e-07
18 1 0.749986 0.423939 0.435462 0 0 7.15256e-07
19 1 0.999986 0.923939 0.435462 2.38419e-07 0 4.76837e-07
20 1 0.499986 0.923939 0.435462 0 0 5.96046e-07
21 1 0.999986 0.525845 0.806222 3.57628e-07 0 -1.19209e-07
22 1 0.249986 0.380771 0.682603 3.57628e-07 0 -1.19209e-07
23 1 0.499986 0.525845 0.806222 -1.19209e-07 0 -3.57628e-07
24 1 0.749986 0.380771 0.682603 -2.38419e-07 0 0
25 1 0.999986 0.880771 0.682603 1.19209e-07 0 1.19209e-07
26 1 0.249986 0.0258453 0.806222 -2.38419e-07 0 1.19209e-07
27 1 0.749986 0.0258455 0.806222 -2.38419e-07 0 2.38419e-07
28 1 0.499986 0.880771 0.682603 -4.76837e-07 0 -2.38419e-07
29 1 0.249986 0.337632 0.929583 -2.38419e-07 0 7.15256e-07
30 1 0.749986 0.337632 0.929583 2.38419e-07 0 1.19209e-07
31 1 0.999986 0.837632 0.929583 -3.57628e-07 0 -2.38419e-07
32 1 0.499986 0.837632 0.929583 0 0 -1.19209e-07
ITEM: TIMESTEP
9
ITEM: NUMBER OF ATOMS
32
ITEM: BOX BOUNDS xy xz yz pp pp pp
-9.5987319946289062e-04 6.3977920413017273e+00 -0.0000000000000000e+00
-1.0525226593017578e-02 6.4988737702369690e+00 0.0000000000000000e+00
-5.8505058288574219e-02 2.0783891499042511e+01 9.6791738271713257e-01
ITEM: ATOMS id type xs ys zs fx fy fz
1 1 0.999986 0.655327 0.0649185 2.38419e-07 0 -3.57628e-07
2 1 0.499986 0.655327 0.0649185 -3.57628e-07 0 0
3 1 0.249986 0.155327 0.0649185 4.76837e-07 0 2.38419e-07
4 1 0.749986 0.155327 0.0649185 1.19209e-07 0 -1.19209e-07
5 1 0.999986 0.612188 0.311899 0 0 0
6 1 0.249986 0.467113 0.188279 1.19209e-07 0 0
7 1 0.749986 0.467114 0.188279 2.38419e-07 0 0
8 1 0.499986 0.612188 0.311899 0 0 2.38419e-07
9 1 0.999986 0.967113 0.188279 -2.38419e-07 0 3.57628e-07
10 1 0.249986 0.112188 0.311899 3.57628e-07 0 -1.19209e-07
11 1 0.499986 0.967113 0.188279 1.19209e-07 0 1.19209e-07
12 1 0.749986 0.112188 0.311899 -3.57628e-07 0 1.19209e-07
13 1 0.999986 0.56902 0.559039 -4.76837e-07 0 1.19209e-07
14 1 0.499986 0.56902 0.559039 -1.19209e-07 0 0
15 1 0.249986 0.0690203 0.559039 -1.19209e-07 0 -1.19209e-07
16 1 0.749986 0.0690203 0.559039 2.38419e-07 0 3.57628e-07
17 1 0.249986 0.423939 0.435462 0 0 3.57628e-07
18 1 0.749986 0.423939 0.435462 0 0 -2.38419e-07
19 1 0.999986 0.923939 0.435462 0 0 -1.19209e-07
20 1 0.499986 0.923939 0.435462 0 0 -2.38419e-07
21 1 0.999986 0.525845 0.806222 -2.38419e-07 0 0
22 1 0.249986 0.380771 0.682603 1.19209e-07 0 -1.19209e-07
23 1 0.499986 0.525845 0.806222 1.19209e-07 0 1.19209e-07
24 1 0.749986 0.380771 0.682603 4.76837e-07 0 -4.76837e-07
25 1 0.999986 0.880771 0.682603 -5.96046e-07 0 -1.19209e-07
26 1 0.249986 0.0258453 0.806222 -1.19209e-07 0 2.38419e-07
27 1 0.749986 0.0258455 0.806222 0 0 -1.19209e-07
28 1 0.499986 0.880771 0.682603 4.76837e-07 0 1.19209e-07
29 1 0.249986 0.337632 0.929583 0 0 1.19209e-07
30 1 0.749986 0.337632 0.929583 -2.38419e-07 0 -2.38419e-07
31 1 0.999986 0.837632 0.929583 0 0 0
32 1 0.499986 0.837632 0.929583 -2.38419e-07 0 -1.19209e-07
