ITEM: TIMESTEP
0
ITEM: NUMBER OF ATOMS
56
ITEM: BOX BOUNDS xy xz yz pp pp pp
-4.9572983980178833e+00 1.2206987559795380e+01 -4.7683715820312500e-07
-7.5370073318481445e-03 5.5339480042457581e+00 -4.9354102015495300e+00
-3.2569408416748047e-02 1.9052529454231262e+01 2.8610229492187500e-06
ITEM: ATOMS id type xs ys zs fx fy fz
1 1 0.602993 1 0.132369 0 -0.0724407 0.24202
2 1 0.352993 0.166667 0.132369 0 0.0724403 0.242021
3 1 0.297542 1 0.275226 0 0.00248873 -0.00352502
4 1 0.0475421 0.166667 0.275226 0 -0.00248969 -0.00352514
5 1 0.992093 5.00995e-07 0.418084 0 -0.000212789 0.000999093
6 1 0.102993 1 0.132369 0 -0.0724403 0.242021
7 1 0.00571794 0.5 0.0609408 0 2.07554 1.77616
8 1 0.852993 0.166667 0.132369 0 0.0724404 0.242021
9 1 0.755718 0.666667 0.0609408 0 -2.07554 1.77617
10 1 0.797542 1 0.275226 0 0.00248897 -0.00352526
11 1 0.742093 0.166667 0.418084 0 0.000213265 0.000999331
12 1 0.686644 5.53965e-07 0.560941 0 -2.37226e-05 -0.000140667
13 1 0.436644 0.166667 0.560941 0 2.38419e-05 -0.000140786
14 1 0.381195 1.60387e-07 0.703798 0 -8.46386e-05 -0.00295842
15 1 0.131195 0.166667 0.703798 0 8.49962e-05 -0.00295818
16 1 0.0757455 1 0.846655 0 -0.00122428 0.00612295
17 1 0.700267 0.5 0.203798 0 -0.00122356 -0.00612271
18 1 0.547542 0.166667 0.275226 0 -0.00248945 -0.00352502
19 1 0.450267 0.666667 0.203798 0 0.00122488 -0.00612223
20 1 0.492093 5.02326e-07 0.418084 0 -0.000212908 0.000998974
21 1 0.394817 0.5 0.346655 0 -8.46386e-05 0.0029583
22 1 0.242093 0.166667 0.418084 0 0.000213265 0.000999093
23 1 0.144817 0.666667 0.346655 0 8.46386e-05 0.0029583
24 1 0.186644 5.42012e-07 0.560941 0 -2.32458e-05 -0.000141025
25 1 0.0893685 0.500001 0.489512 0 -2.39611e-05 0.000141144
26 1 0.936644 0.166667 0.560941 0 2.40803e-05 -0.000141621
27 1 0.839369 0.666667 0.489512 0 2.34842e-05 0.000141144
28 1 0.505718 0.5 0.0609408 0 2.07554 1.77616
29 1 0.255718 0.666667 0.0609408 0 -2.07555 1.77617
30 1 0.200267 0.5 0.203798 0 -0.00122368 -0.00612307
31 1 0.950267 0.666667 0.203798 0 0.00122476 -0.00612235
32 1 0.894817 0.5 0.346655 0 -8.45194e-05 0.00295854
33 1 0.825745 0.166667 0.846655 0 0.0012238 0.00612319
34 1 0.770295 1 0.989512 0 2.07554 -1.77617
35 1 0.520295 0.166667 0.989512 0 -2.07554 -1.77616
36 1 0.881195 1.92026e-07 0.703798 0 -8.45194e-05 -0.00295854
37 1 0.78392 0.500001 0.632369 0 -0.000213504 -0.000999093
38 1 0.631195 0.166667 0.703798 0 8.47578e-05 -0.00295889
39 1 0.53392 0.666667 0.632369 0 0.000212789 -0.000999212
40 1 0.575745 1 0.846655 0 -0.00122452 0.00612307
41 1 0.478471 0.5 0.775226 0 0.00248981 0.00352514
42 1 0.325745 0.166667 0.846655 0 0.00122428 0.00612259
43 1 0.228471 0.666667 0.775226 0 -0.00248945 0.00352502
44 1 0.270295 1 0.989512 0 2.07555 -1.77617
45 1 0.17302 0.5 0.918083 0 -0.0724407 -0.242021
46 1 0.644817 0.666667 0.346655 0 8.4281e-05 0.00295818
47 1 0.589369 0.500001 0.489512 0 -2.37226e-05 0.000140905
48 1 0.339369 0.666667 0.489512 0 2.3365e-05 0.000140905
49 1 0.28392 0.5 0.632369 0 -0.000213504 -0.000998974
50 1 0.0339198 0.666667 0.632369 0 0.000212789 -0.000999212
51 1 0.978471 0.5 0.775226 0 0.00248945 0.00352514
52 1 0.0202948 0.166667 0.989512 0 -2.07554 -1.77617
53 1 0.92302 0.666667 0.918083 0 0.0724403 -0.24202
54 1 0.728471 0.666667 0.775226 0 -0.00248873 0.00352526
55 1 0.67302 0.5 0.918083 0 -0.0724404 -0.242021
56 1 0.42302 0.666667 0.918083 0 0.0724405 -0.242021
ITEM: TIMESTEP
1
ITEM: NUMBER OF ATOMS
56
ITEM: BOX BOUNDS xy xz yz pp pp pp
-4.9572983980178833e+00 1.2206987559795380e+01 -4.7683715820312500e-07
-7.5370073318481445e-03 5.5339480042457581e+00 -4.9354102015495300e+00
-3.2569408416748047e-02 1.9052529454231262e+01 2.8610229492187500e-06
ITEM: ATOMS id type xs ys zs fx fy fz
1 1 0.603239 0.99937 0.13298 0 0.0713984 0.162903
2 1 0.353239 0.167297 0.13298 0 -0.0713986 0.162903
3 1 0.297539 1.00002 0.275218 0 0.000379801 0.014047
4 1 0.0475385 0.166646 0.275218 0 -0.00037992 0.0140473
5 1 0.992094 -1.34909e-06 0.418086 0 -0.000660419 -0.00112927
6 1 0.103239 0.99937 0.13298 0 0.071398 0.162903
7 1 0.00752759 0.518045 0.0654247 0 0.794793 0.6722
8 1 0.853239 0.167297 0.13298 0 -0.0713989 0.162903
9 1 0.757528 0.648622 0.0654247 0 -0.794792 0.6722
10 1 0.797539 1.00002 0.275218 0 0.000379682 0.0140468
11 1 0.742094 0.166668 0.418086 0 0.000660539 -0.00112855
12 1 0.686644 3.4771e-07 0.56094 0 0.000114202 0.000405073
13 1 0.436644 0.166667 0.56094 0 -0.000113606 0.000404716
14 1 0.381192 -5.75494e-07 0.70379 0 -0.00119483 -0.00892913
15 1 0.131192 0.166668 0.70379 0 0.00119448 -0.00892925
16 1 0.0757517 0.999989 0.84667 0 -0.0197464 -0.10418
17 1 0.700261 0.499989 0.203782 0 -0.0197463 0.10418
18 1 0.547539 0.166646 0.275218 0 -0.000380039 0.0140473
19 1 0.450261 0.666678 0.203782 0 0.0197465 0.10418
20 1 0.492094 -1.34879e-06 0.418086 0 -0.000660777 -0.00112987
21 1 0.39482 0.499999 0.346663 0 -0.00119472 0.00892937
22 1 0.242094 0.166668 0.418086 0 0.000660539 -0.00112903
23 1 0.14482 0.666668 0.346663 0 0.0011946 0.00892949
24 1 0.186644 3.39902e-07 0.56094 0 0.000114083 0.000404239
25 1 0.0893687 0.5 0.489512 0 0.000113845 -0.000404477
26 1 0.936644 0.166667 0.56094 0 -0.000113606 0.000403762
27 1 0.839369 0.666667 0.489512 0 -0.000114322 -0.000404716
28 1 0.507528 0.518045 0.0654247 0 0.794793 0.6722
29 1 0.257528 0.648622 0.0654247 0 -0.794792 0.6722
30 1 0.200261 0.499989 0.203782 0 -0.0197462 0.10418
31 1 0.950261 0.666678 0.203782 0 0.0197467 0.10418
32 1 0.89482 0.499999 0.346663 0 -0.00119436 0.00892925
33 1 0.825752 0.166678 0.84667 0 0.0197462 -0.10418
34 1 0.768485 1.01805 0.985028 0 0.794793 -0.672201
35 1 0.518485 0.148622 0.985028 0 -0.794793 -0.6722
36 1 0.881192 -5.42819e-07 0.70379 0 -0.00119483 -0.00892973
37 1 0.783919 0.499999 0.632367 0 -0.000660419 0.00112927
38 1 0.631192 0.166668 0.70379 0 0.00119448 -0.00892985
39 1 0.533919 0.666668 0.632367 0 0.000660419 0.00112903
40 1 0.575752 0.999989 0.84667 0 -0.0197464 -0.10418
41 1 0.478474 0.500022 0.775235 0 0.000380039 -0.0140469
42 1 0.325752 0.166678 0.84667 0 0.0197468 -0.10418
43 1 0.228474 0.666645 0.775235 0 -0.000379682 -0.0140469
44 1 0.268485 1.01805 0.985028 0 0.794792 -0.6722
45 1 0.172774 0.49937 0.917473 0 0.0713985 -0.162903
46 1 0.64482 0.666668 0.346663 0 0.00119472 0.00892937
47 1 0.589369 0.5 0.489512 0 0.000113964 -0.000404477
48 1 0.339369 0.666667 0.489512 0 -0.000114083 -0.000404239
49 1 0.283919 0.499999 0.632367 0 -0.000660419 0.00112939
50 1 0.0339188 0.666668 0.632367 0 0.000660539 0.00112951
51 1 0.978474 0.500022 0.775235 0 0.000380039 -0.0140469
52 1 0.0184852 0.148622 0.985028 0 -0.794793 -0.6722
53 1 0.922774 0.667297 0.917473 0 -0.071398 -0.162903
54 1 0.728474 0.666646 0.775235 0 -0.00037992 -0.0140473
55 1 0.672774 0.49937 0.917473 0 0.0713981 -0.162903
56 1 0.422774 0.667297 0.917473 0 -0.0713979 -0.162903
ITEM: TIMESTEP
2
ITEM: NUMBER OF ATOMS
56
ITEM: BOX BOUNDS xy xz yz pp pp pp
-4.9572983980178833e+00 1.2206987559795380e+01 -4.7683715820312500e-07
-7.5370073318481445e-03 5.5339480042457581e+00 -4.9354102015495300e+00
-3.2569408416748047e-02 1.9052529454231262e+01 2.8610229492187500e-06
ITEM: ATOMS id type xs ys zs fx fy fz
1 1 0.603673 1.00099 0.134054 0 0.205103 0.0883652
2 1 0.353673 0.165676 0.134054 0 -0.205104 0.0883656
3 1 0.297576 1.00003 0.27531 0 -0.00351644 0.0370804
4 1 0.0475759 0.166637 0.27531 0 0.0035162 0.0370808
5 1 0.992091 -1.63438e-05 0.418079 0 -0.00158608 0.000588775
6 1 0.103673 1.00099 0.134054 0 0.205103 0.0883654
7 1 0.00931608 0.536091 0.0698562 0 0.0688192 -0.0408622
8 1 0.853673 0.165676 0.134054 0 -0.205103 0.0883658
9 1 0.759316 0.630576 0.0698562 0 -0.0688186 -0.0408624
10 1 0.797576 1.00003 0.27531 0 -0.00351596 0.0370806
11 1 0.742091 0.166683 0.418079 0 0.00158632 0.000589252
12 1 0.686645 2.94067e-06 0.560943 0 -0.000212312 -0.000928998
13 1 0.436645 0.166664 0.560943 0 0.000212669 -0.00092876
14 1 0.381169 -2.77041e-05 0.703731 0 -0.00320482 -0.022469
15 1 0.131169 0.166695 0.703731 0 0.0032053 -0.0224688
16 1 0.0754745 0.999541 0.845984 0 -0.0286133 -0.206385
17 1 0.700538 0.499541 0.204469 0 -0.0286132 0.206385
18 1 0.547576 0.166637 0.27531 0 0.0035162 0.0370805
19 1 0.450538 0.667126 0.204469 0 0.0286133 0.206385
20 1 0.492091 -1.63517e-05 0.418079 0 -0.00158608 0.000589371
21 1 0.394844 0.499972 0.346721 0 -0.00320494 0.0224689
22 1 0.242091 0.166683 0.418079 0 0.00158632 0.000589371
23 1 0.144844 0.666695 0.346721 0 0.00320494 0.0224689
24 1 0.186645 2.93015e-06 0.560943 0 -0.000212312 -0.000929117
25 1 0.0893676 0.500003 0.48951 0 -0.000212789 0.00092864
26 1 0.936645 0.166664 0.560943 0 0.000212908 -0.00092876
27 1 0.839368 0.666664 0.48951 0 0.000212193 0.000928998
28 1 0.509316 0.536091 0.0698562 0 0.0688195 -0.0408623
29 1 0.259316 0.630576 0.0698562 0 -0.0688187 -0.0408626
30 1 0.200538 0.499541 0.204469 0 -0.0286129 0.206385
31 1 0.950538 0.667126 0.204469 0 0.0286131 0.206385
32 1 0.894844 0.499972 0.346721 0 -0.00320506 0.0224687
33 1 0.825475 0.167126 0.845984 0 0.0286126 -0.206385
34 1 0.766697 1.03609 0.980597 0 0.0688186 0.0408623
35 1 0.516697 0.130576 0.980597 0 -0.0688195 0.0408623
36 1 0.881169 -2.76714e-05 0.703731 0 -0.00320506 -0.022469
37 1 0.783922 0.499984 0.632374 0 -0.00158632 -0.000588775
38 1 0.631169 0.166695 0.703731 0 0.00320494 -0.0224687
39 1 0.533922 0.666683 0.632374 0 0.00158608 -0.000589013
40 1 0.575475 0.999541 0.845984 0 -0.0286132 -0.206385
41 1 0.478437 0.50003 0.775143 0 -0.0035162 -0.0370805
42 1 0.325475 0.167126 0.845984 0 0.0286133 -0.206385
43 1 0.228437 0.666637 0.775143 0 0.00351644 -0.0370809
44 1 0.266697 1.03609 0.980597 0 0.0688188 0.0408626
45 1 0.17234 0.500991 0.916399 0 0.205104 -0.0883656
46 1 0.644844 0.666695 0.346721 0 0.0032047 0.0224688
47 1 0.589368 0.500003 0.48951 0 -0.000213027 0.00092864
48 1 0.339368 0.666664 0.48951 0 0.000212312 0.000928879
49 1 0.283922 0.499984 0.632374 0 -0.0015862 -0.000588775
50 1 0.0339218 0.666683 0.632374 0 0.00158608 -0.000589013
51 1 0.978437 0.50003 0.775143 0 -0.0035162 -0.0370805
52 1 0.0166967 0.130576 0.980597 0 -0.0688193 0.040862
53 1 0.92234 0.665676 0.916399 0 -0.205103 -0.0883653
54 1 0.728437 0.666637 0.775143 0 0.00351644 -0.0370809
55 1 0.67234 0.500991 0.916399 0 0.205104 -0.0883656
56 1 0.42234 0.665676 0.916399 0 -0.205104 -0.0883657
ITEM: TIMESTEP
3
ITEM: NUMBER OF ATOMS
56
ITEM: BOX BOUNDS xy xz yz pp pp pp
-4.9572983980178833e+00 1.2206987559795380e+01 -4.7683715820312500e-07
-7.5370073318481445e-03 5.5339480042457581e+00 -4.9354102015495300e+00
-3.2569408416748047e-02 1.9052529454231262e+01 2.8610229492187500e-06
ITEM: ATOMS id type xs ys zs fx fy fz
1 1 0.604479 1.0165 0.136052 0 -0.014425 0.0193943
2 1 0.354479 0.150166 0.136052 0 0.0144259 0.0193939
3 1 0.297905 0.999767 0.276125 0 -0.0100534 0.0788696
4 1 0.0479047 0.1669 0.276125 0 0.0100545 0.0788691
5 1 0.992096 -0.000136446 0.418091 0 -0.00476801 0.0222594
6 1 0.104479 1.0165 0.136052 0 -0.0144254 0.0193937
7 1 0.00907484 0.542453 0.0692585 0 0.0991619 0.0770086
8 1 0.854479 0.150166 0.136052 0 0.0144258 0.0193938
9 1 0.759075 0.624214 0.0692585 0 -0.0991635 0.0770093
10 1 0.797905 0.999767 0.276125 0 -0.0100542 0.0788687
11 1 0.742096 0.166804 0.418091 0 0.00476718 0.0222591
12 1 0.686637 -1.28317e-05 0.560923 0 -0.0037744 -0.0120065
13 1 0.436637 0.16668 0.560923 0 0.00377357 -0.0120065
14 1 0.380969 -0.000270172 0.703238 0 -0.0120015 -0.0887988
15 1 0.130969 0.166937 0.703238 0 0.0120014 -0.088799
16 1 0.07364 0.997362 0.841438 0 0.0724478 0.045975
17 1 0.702373 0.497362 0.209015 0 0.0724481 -0.0459759
18 1 0.547905 0.1669 0.276125 0 0.0100545 0.078869
19 1 0.452373 0.669305 0.209015 0 -0.072448 -0.0459753
20 1 0.492096 -0.000136454 0.418091 0 -0.00476813 0.0222594
21 1 0.395043 0.49973 0.347215 0 -0.0120018 0.0887986
22 1 0.242096 0.166804 0.418091 0 0.00476754 0.0222588
23 1 0.145044 0.666937 0.347215 0 0.0120016 0.0887989
24 1 0.186637 -1.28424e-05 0.560923 0 -0.00377429 -0.0120065
25 1 0.0893757 0.499987 0.48953 0 -0.00377309 0.0120072
26 1 0.936637 0.16668 0.560923 0 0.00377309 -0.0120074
27 1 0.839376 0.66668 0.48953 0 0.0037744 0.0120071
28 1 0.509075 0.542453 0.0692585 0 0.0991614 0.0770085
29 1 0.259075 0.624214 0.0692585 0 -0.0991633 0.0770093
30 1 0.202373 0.497362 0.209015 0 0.0724475 -0.0459758
31 1 0.952373 0.669305 0.209015 0 -0.0724475 -0.0459752
32 1 0.895043 0.49973 0.347215 0 -0.0120015 0.0887991
33 1 0.82364 0.169305 0.841438 0 -0.0724474 0.0459751
34 1 0.766938 1.04245 0.981194 0 0.0991637 -0.077009
35 1 0.516938 0.124214 0.981194 0 -0.0991617 -0.0770087
36 1 0.880969 -0.000270157 0.703238 0 -0.0120019 -0.0887986
37 1 0.783917 0.499864 0.632362 0 -0.00476706 -0.0222595
38 1 0.630969 0.166937 0.703238 0 0.0120012 -0.0887991
39 1 0.533917 0.666804 0.632362 0 0.00476766 -0.0222592
40 1 0.57364 0.997362 0.841438 0 0.0724479 0.0459753
41 1 0.478108 0.499767 0.774328 0 -0.0100538 -0.0788691
42 1 0.32364 0.169305 0.841438 0 -0.0724481 0.0459753
43 1 0.228108 0.6669 0.774328 0 0.0100541 -0.0788687
44 1 0.266938 1.04245 0.981194 0 0.0991634 -0.0770093
45 1 0.171534 0.516501 0.914401 0 -0.014426 -0.0193939
46 1 0.645044 0.666937 0.347215 0 0.0120018 0.0887985
47 1 0.589376 0.499987 0.48953 0 -0.00377309 0.012007
48 1 0.339376 0.66668 0.48953 0 0.00377429 0.0120065
49 1 0.283917 0.499864 0.632362 0 -0.00476754 -0.0222596
50 1 0.0339168 0.666804 0.632362 0 0.00476789 -0.0222594
51 1 0.978108 0.499767 0.774328 0 -0.0100543 -0.0788691
52 1 0.0169379 0.124214 0.981194 0 -0.0991617 -0.0770084
53 1 0.921534 0.650166 0.914401 0 0.014425 -0.0193939
54 1 0.728108 0.6669 0.774328 0 0.0100538 -0.0788683
55 1 0.671534 0.516501 0.914401 0 -0.0144262 -0.0193939
56 1 0.421534 0.650166 0.914401 0 0.0144254 -0.0193934
ITEM: TIMESTEP
4
ITEM: NUMBER OF ATOMS
56
ITEM: BOX BOUNDS xy xz yz pp pp pp
-4.9572983980178833e+00 1.2206987559795380e+01 -4.7683715820312500e-07
-7.5370073318481445e-03 5.5339480042457581e+00 -4.9354102015495300e+00
-3.2569408416748047e-02 1.9052529454231262e+01 2.8610229492187500e-06
ITEM: ATOMS id type xs ys zs fx fy fz
1 1 0.604942 1.02145 0.137201 0 0.00553608 0.00255716
2 1 0.354942 0.145213 0.137201 0 -0.00553644 0.0025568
3 1 0.298661 0.998981 0.277998 0 0.00992906 0.0319779
4 1 0.0486605 0.167687 0.277998 0 -0.00992966 0.0319785
5 1 0.992276 -0.000507424 0.418536 0 -0.00673366 0.0413895
6 1 0.104942 1.02145 0.137201 0 0.00553644 0.00255728
7 1 0.00959764 0.551648 0.0705539 0 -0.0589286 -0.0875219
8 1 0.854942 0.145213 0.137201 0 -0.00553679 0.00255704
9 1 0.759598 0.615019 0.0705539 0 0.0589297 -0.0875231
10 1 0.798661 0.998981 0.277998 0 0.00992966 0.0319788
11 1 0.742276 0.167175 0.418536 0 0.00673378 0.0413892
12 1 0.686538 -0.00027615 0.560678 0 -0.00988555 -0.0260855
13 1 0.436538 0.166943 0.560678 0 0.00988615 -0.0260862
14 1 0.380184 -0.00118105 0.701291 0 -0.00273478 -0.0288602
15 1 0.130184 0.167848 0.701291 0 0.0027349 -0.0288607
16 1 0.0733051 1.00147 0.840608 0 0.0330859 -0.000494599
17 1 0.702708 0.501467 0.209845 0 0.0330858 0.000495791
18 1 0.548661 0.167687 0.277998 0 -0.0099299 0.0319788
19 1 0.452708 0.6652 0.209845 0 -0.0330856 0.000494719
20 1 0.492276 -0.00050744 0.418536 0 -0.00673318 0.0413891
21 1 0.395829 0.498819 0.349162 0 -0.00273478 0.0288603
22 1 0.242276 0.167175 0.418536 0 0.00673366 0.0413898
23 1 0.145829 0.667848 0.349162 0 0.00273478 0.0288606
24 1 0.186538 -0.000276152 0.560678 0 -0.00988567 -0.0260853
25 1 0.0894747 0.499724 0.489775 0 -0.00988662 0.0260857
26 1 0.936538 0.166943 0.560678 0 0.00988674 -0.0260857
27 1 0.839475 0.666943 0.489775 0 0.00988591 0.0260848
28 1 0.509598 0.551648 0.0705539 0 -0.0589285 -0.0875217
29 1 0.259598 0.615019 0.0705539 0 0.0589293 -0.0875226
30 1 0.202708 0.501467 0.209845 0 0.0330859 0.000495791
31 1 0.952708 0.6652 0.209845 0 -0.0330858 0.00049448
32 1 0.895829 0.498819 0.349162 0 -0.00273466 0.0288606
33 1 0.823305 0.1652 0.840608 0 -0.0330859 -0.000495076
34 1 0.766415 1.05165 0.979899 0 -0.0589299 0.0875229
35 1 0.516415 0.115019 0.979899 0 0.0589286 0.0875219
36 1 0.880184 -0.00118107 0.701291 0 -0.00273418 -0.0288606
37 1 0.783737 0.499493 0.631916 0 -0.00673449 -0.0413895
38 1 0.630184 0.167848 0.701291 0 0.00273526 -0.0288606
39 1 0.533737 0.667175 0.631916 0 0.00673354 -0.0413893
40 1 0.573305 1.00147 0.840608 0 0.0330861 -0.000495434
41 1 0.477352 0.498981 0.772455 0 0.0099293 -0.0319784
42 1 0.323305 0.1652 0.840608 0 -0.0330859 -0.000495434
43 1 0.227352 0.667687 0.772455 0 -0.00992978 -0.0319785
44 1 0.266415 1.05165 0.979899 0 -0.0589297 0.0875225
45 1 0.17107 0.521454 0.913252 0 0.00553668 -0.00255716
46 1 0.645829 0.667848 0.349162 0 0.00273466 0.0288608
47 1 0.589475 0.499724 0.489775 0 -0.00988662 0.026086
48 1 0.339475 0.666943 0.489775 0 0.00988591 0.0260857
49 1 0.283737 0.499493 0.631916 0 -0.00673354 -0.0413896
50 1 0.0337371 0.667175 0.631916 0 0.0067333 -0.0413892
51 1 0.977352 0.498981 0.772455 0 0.00992954 -0.0319782
52 1 0.0164151 0.115019 0.979899 0 0.0589285 0.0875213
53 1 0.92107 0.645213 0.913252 0 -0.00553608 -0.0025568
54 1 0.727352 0.667687 0.772455 0 -0.00992966 -0.031979
55 1 0.67107 0.521454 0.913252 0 0.00553715 -0.00255644
56 1 0.42107 0.645213 0.913252 0 -0.00553632 -0.00255716
ITEM: TIMESTEP
5
ITEM: NUMBER OF ATOMS
56
ITEM: BOX BOUNDS xy xz yz pp pp pp
-4.9572983980178833e+00 1.2206987559795380e+01 -4.7683715820312500e-07
-7.5370073318481445e-03 5.5339480042457581e+00 -4.9354102015495300e+00
-3.2569408416748047e-02 1.9052529454231262e+01 2.8610229492187500e-06
ITEM: ATOMS id type xs ys zs fx fy fz
1 1 0.60522 1.02459 0.137889 0 -0.0222068 0.022037
2 1 0.35522 0.14208 0.137889 0 0.0222067 0.0220377
3 1 0.299344 0.999247 0.279691 0 0.0203706 -0.00805175
4 1 0.0493439 0.16742 0.279691 0 -0.0203711 -0.00805163
5 1 0.992718 -0.0011888 0.419632 0 -0.00798631 0.0206338
6 1 0.10522 1.02459 0.137889 0 -0.0222068 0.0220373
7 1 0.0091621 0.552573 0.0694747 0 -0.0150182 -0.0169559
8 1 0.85522 0.14208 0.137889 0 0.0222067 0.0220373
9 1 0.759162 0.614094 0.0694747 0 0.0150186 -0.0169555
10 1 0.799344 0.999247 0.279691 0 0.0203708 -0.00805151
11 1 0.742718 0.167856 0.419632 0 0.00798655 0.0206341
12 1 0.686267 -0.00112072 0.560006 0 -0.00958359 -0.00628912
13 1 0.436267 0.167788 0.560006 0 0.00958323 -0.00628841
14 1 0.37951 -0.00187866 0.699621 0 0.00600052 0.0164859
15 1 0.12951 0.168546 0.699621 0 -0.00600052 0.0164863
16 1 0.0731156 1.00608 0.840139 0 -0.00479698 0.00344312
17 1 0.702897 0.506078 0.210314 0 -0.0047971 -0.00344348
18 1 0.549344 0.16742 0.279691 0 -0.0203711 -0.00805163
19 1 0.452897 0.660589 0.210314 0 0.00479698 -0.00344276
20 1 0.492718 -0.00118879 0.419632 0 -0.00798631 0.0206339
21 1 0.396503 0.498121 0.350832 0 0.0060004 -0.0164857
22 1 0.242718 0.167856 0.419632 0 0.00798655 0.0206339
23 1 0.146503 0.668546 0.350832 0 -0.00600016 -0.0164863
24 1 0.186267 -0.00112073 0.560006 0 -0.00958335 -0.00628901
25 1 0.0897456 0.498879 0.490446 0 -0.00958347 0.00628793
26 1 0.936267 0.167788 0.560006 0 0.00958323 -0.00628817
27 1 0.839746 0.667788 0.490446 0 0.00958312 0.00628912
28 1 0.509162 0.552573 0.0694747 0 -0.0150185 -0.0169559
29 1 0.259162 0.614094 0.0694747 0 0.0150191 -0.0169563
30 1 0.202897 0.506078 0.210314 0 -0.00479686 -0.00344384
31 1 0.952897 0.660589 0.210314 0 0.00479674 -0.003443
32 1 0.896503 0.498121 0.350832 0 0.00600016 -0.016486
33 1 0.823116 0.160589 0.840139 0 0.00479698 0.00344396
34 1 0.766851 1.05257 0.980978 0 -0.0150185 0.0169559
35 1 0.516851 0.114094 0.980978 0 0.0150182 0.016956
36 1 0.87951 -0.00187865 0.699621 0 0.0059998 0.0164862
37 1 0.783295 0.498811 0.63082 0 -0.00798619 -0.0206339
38 1 0.62951 0.168546 0.699621 0 -0.0060004 0.0164862
39 1 0.533295 0.667856 0.63082 0 0.00798643 -0.0206336
40 1 0.573116 1.00608 0.840139 0 -0.00479698 0.00344348
41 1 0.476669 0.499247 0.770762 0 0.0203708 0.00805175
42 1 0.323116 0.160589 0.840139 0 0.0047971 0.00344348
43 1 0.226669 0.66742 0.770762 0 -0.0203707 0.0080514
44 1 0.266851 1.05257 0.980978 0 -0.0150189 0.0169561
45 1 0.170793 0.524587 0.912564 0 -0.0222068 -0.0220374
46 1 0.646503 0.668546 0.350832 0 -0.00600004 -0.016486
47 1 0.589746 0.498879 0.490446 0 -0.00958312 0.00628805
48 1 0.339746 0.667788 0.490446 0 0.00958335 0.00628853
49 1 0.283295 0.498811 0.63082 0 -0.00798631 -0.0206335
50 1 0.0332948 0.667856 0.63082 0 0.00798678 -0.0206341
51 1 0.976669 0.499247 0.770762 0 0.0203714 0.00805116
52 1 0.0168507 0.114094 0.980978 0 0.0150182 0.0169562
53 1 0.920793 0.64208 0.912564 0 0.0222063 -0.0220374
54 1 0.726669 0.66742 0.770762 0 -0.0203707 0.0080514
55 1 0.670793 0.524587 0.912564 0 -0.0222065 -0.0220379
56 1 0.420793 0.64208 0.912564 0 0.0222069 -0.0220375
ITEM: TIMESTEP
6
ITEM: NUMBER OF ATOMS
56
ITEM: BOX BOUNDS xy xz yz pp pp pp
-4.9572983980178833e+00 1.2206987559795380e+01 -4.7683715820312500e-07
-7.5370073318481445e-03 5.5339480042457581e+00 -4.9354102015495300e+00
-3.2569408416748047e-02 1.9052529454231262e+01 2.8610229492187500e-06
ITEM: ATOMS id type xs ys zs fx fy fz
1 1 0.605401 1.02308 0.138338 0 -0.0182656 -0.00162518
2 1 0.355401 0.143582 0.138338 0 0.0182657 -0.00162518
3 1 0.299286 1.00066 0.279546 0 0.00140834 0.013538
4 1 0.0492856 0.16601 0.279546 0 -0.00140798 0.0135375
5 1 0.99289 -0.00174749 0.420057 0 -0.00231576 -0.00569022
6 1 0.105401 1.02308 0.138338 0 -0.0182654 -0.00162494
7 1 0.0090204 0.551544 0.0691236 0 0.00697196 0.00157392
8 1 0.855401 0.143582 0.138338 0 0.018266 -0.00162494
9 1 0.75902 0.615123 0.0691236 0 -0.00697267 0.00157404
10 1 0.799286 1.00066 0.279546 0 0.00140786 0.0135378
11 1 0.74289 0.168415 0.420057 0 0.00231624 -0.00569034
12 1 0.686214 -0.00179142 0.559873 0 -0.00293183 0.0119345
13 1 0.436214 0.168459 0.559873 0 0.00293195 0.011934
14 1 0.379636 -0.00147116 0.699935 0 0.00207198 -0.00129294
15 1 0.129636 0.168138 0.699935 0 -0.00207174 -0.00129271
16 1 0.0731415 1.00579 0.840203 0 0.00103378 0.0118179
17 1 0.702871 0.505794 0.21025 0 0.00103354 -0.0118171
18 1 0.549286 0.16601 0.279546 0 -0.00140798 0.0135379
19 1 0.452871 0.660874 0.21025 0 -0.00103319 -0.0118177
20 1 0.49289 -0.00174747 0.420057 0 -0.00231564 -0.00569057
21 1 0.396376 0.498529 0.350518 0 0.00207186 0.00129271
22 1 0.24289 0.168415 0.420057 0 0.00231588 -0.00569046
23 1 0.146376 0.668138 0.350518 0 -0.0020721 0.00129259
24 1 0.186214 -0.00179141 0.559873 0 -0.00293195 0.0119342
25 1 0.0897993 0.498209 0.490579 0 -0.00293195 -0.0119332
26 1 0.936214 0.168459 0.559873 0 0.00293183 0.0119338
27 1 0.839799 0.668459 0.490579 0 0.00293219 -0.0119345
28 1 0.50902 0.551544 0.0691236 0 0.00697243 0.00157428
29 1 0.25902 0.615123 0.0691236 0 -0.00697303 0.00157464
30 1 0.202871 0.505794 0.21025 0 0.00103307 -0.011817
31 1 0.952871 0.660874 0.21025 0 -0.00103354 -0.0118172
32 1 0.896376 0.498529 0.350518 0 0.0020721 0.00129247
33 1 0.823142 0.160874 0.840203 0 -0.00103402 0.011817
34 1 0.766992 1.05154 0.981329 0 0.00697243 -0.00157428
35 1 0.516992 0.115123 0.981329 0 -0.00697207 -0.00157416
36 1 0.879636 -0.00147121 0.699935 0 0.00207245 -0.00129282
37 1 0.783123 0.498253 0.630395 0 -0.00231636 0.00569034
38 1 0.629636 0.168138 0.699935 0 -0.0020721 -0.00129247
39 1 0.533123 0.668415 0.630395 0 0.00231588 0.00568962
40 1 0.573142 1.00579 0.840203 0 0.00103354 0.0118173
41 1 0.476727 0.500657 0.770906 0 0.00140822 -0.0135379
42 1 0.323142 0.160874 0.840203 0 -0.00103331 0.0118173
43 1 0.226727 0.66601 0.770906 0 -0.00140798 -0.0135382
44 1 0.266992 1.05154 0.981329 0 0.00697315 -0.00157452
45 1 0.170611 0.523085 0.912115 0 -0.018266 0.00162494
46 1 0.646376 0.668138 0.350518 0 -0.00207198 0.00129282
47 1 0.589799 0.498209 0.490579 0 -0.00293219 -0.0119339
48 1 0.339799 0.668459 0.490579 0 0.00293183 -0.0119336
49 1 0.283123 0.498253 0.630395 0 -0.00231636 0.0056901
50 1 0.0331232 0.668415 0.630395 0 0.00231576 0.0056901
51 1 0.976727 0.500657 0.770906 0 0.0014075 -0.0135378
52 1 0.0169924 0.115123 0.981329 0 -0.00697207 -0.00157404
53 1 0.920611 0.643582 0.912115 0 0.018266 0.00162518
54 1 0.726727 0.66601 0.770906 0 -0.00140786 -0.0135378
55 1 0.670611 0.523085 0.912115 0 -0.018266 0.00162542
56 1 0.420611 0.643582 0.912115 0 0.0182651 0.00162518
ITEM: TIMESTEP
7
ITEM: NUMBER OF ATOMS
56
ITEM: BOX BOUNDS xy xz yz pp pp pp
-4.9572983980178833e+00 1.2206987559795380e+01 -4.7683715820312500e-07
-7.5370073318481445e-03 5.5339480042457581e+00 -4.9354102015495300e+00
-3.2569408416748047e-02 1.9052529454231262e+01 2.8610229492187500e-06
ITEM: ATOMS id type xs ys zs fx fy fz
1 1 0.605439 1.0215 0.138431 0 0.00150466 0.00086844
2 1 0.355439 0.14517 0.138431 0 -0.00150478 0.000868201
3 1 0.299371 1.00114 0.279759 0 -0.00530064 0.00235009
4 1 0.0493715 0.165531 0.279759 0 0.00530016 0.00234938
5 1 0.992894 -0.00205014 0.420068 0 0.00185502 0.000147462
6 1 0.105439 1.0215 0.138431 0 0.00150406 0.000868201
7 1 0.00899324 0.551709 0.0690563 0 -0.00273371 -0.00674605
8 1 0.855439 0.14517 0.138431 0 -0.00150466 0.00086844
9 1 0.758993 0.614958 0.0690563 0 0.00273454 -0.00674653
10 1 0.799372 1.00114 0.279759 0 -0.00530052 0.00235009
11 1 0.742894 0.168717 0.420068 0 -0.00185466 0.000146627
12 1 0.686289 -0.0021645 0.56006 0 -0.000233293 0.00251901
13 1 0.436289 0.168832 0.56006 0 0.000232935 0.00251925
14 1 0.379661 -0.00122581 0.699997 0 -0.000137448 0.00224698
15 1 0.129661 0.167893 0.699997 0 0.000137568 0.00224662
16 1 0.0732377 1.00578 0.840441 0 -0.00290489 0.000810981
17 1 0.702775 0.505782 0.210012 0 -0.00290394 -0.000811338
18 1 0.549372 0.165531 0.279759 0 0.00530076 0.0023489
19 1 0.452775 0.660886 0.210012 0 0.00290394 -0.000811338
20 1 0.492894 -0.00205012 0.420068 0 0.00185466 0.000147343
21 1 0.396351 0.498774 0.350456 0 -0.000136733 -0.00224733
22 1 0.242894 0.168717 0.420068 0 -0.00185478 0.000146866
23 1 0.146351 0.667893 0.350456 0 0.000137091 -0.00224662
24 1 0.186289 -0.0021645 0.56006 0 -0.000233054 0.00251889
25 1 0.0897242 0.497835 0.490393 0 -0.000232697 -0.00251961
26 1 0.936289 0.168832 0.560059 0 0.000233173 0.00251961
27 1 0.839724 0.668832 0.490393 0 0.000233173 -0.00251901
28 1 0.508993 0.551709 0.0690563 0 -0.0027343 -0.00674665
29 1 0.258993 0.614958 0.0690563 0 0.00273466 -0.00674701
30 1 0.202775 0.505782 0.210012 0 -0.00290382 -0.000811338
31 1 0.952775 0.660886 0.210012 0 0.00290453 -0.000812173
32 1 0.896351 0.498774 0.350456 0 -0.000137568 -0.00224662
33 1 0.823238 0.160885 0.840441 0 0.00290489 0.000811458
34 1 0.76702 1.05171 0.981397 0 -0.00273466 0.00674653
35 1 0.51702 0.114958 0.981397 0 0.0027343 0.00674653
36 1 0.879661 -0.00122583 0.699997 0 -0.000137329 0.00224686
37 1 0.783119 0.49795 0.630385 0 0.00185466 -0.000146985
38 1 0.629661 0.167893 0.699997 0 0.000137687 0.00224686
39 1 0.533119 0.668717 0.630385 0 -0.00185513 -0.000147104
40 1 0.573238 1.00578 0.840441 0 -0.00290477 0.000811458
41 1 0.476641 0.501136 0.770694 0 -0.00530005 -0.0023495
42 1 0.323238 0.160886 0.840441 0 0.0029037 0.000811577
43 1 0.226641 0.665531 0.770694 0 0.00530028 -0.00234878
44 1 0.26702 1.05171 0.981397 0 -0.00273514 0.00674736
45 1 0.170574 0.521497 0.912021 0 0.00150537 -0.000868678
46 1 0.646351 0.667893 0.350456 0 0.000136852 -0.00224674
47 1 0.589724 0.497835 0.490393 0 -0.000232458 -0.00251937
48 1 0.339724 0.668832 0.490393 0 0.000232935 -0.00251913
49 1 0.283119 0.49795 0.630385 0 0.00185466 -0.000146747
50 1 0.0331188 0.668717 0.630385 0 -0.00185513 -0.000147581
51 1 0.976641 0.501136 0.770694 0 -0.00530016 -0.00234914
52 1 0.0170195 0.114958 0.981397 0 0.00273395 0.00674677
53 1 0.920574 0.64517 0.912021 0 -0.00150454 -0.000868917
54 1 0.726641 0.665531 0.770694 0 0.00529993 -0.00234926
55 1 0.670574 0.521497 0.912021 0 0.00150478 -0.000868678
56 1 0.420574 0.64517 0.912021 0 -0.00150406 -0.000868559
ITEM: TIMESTEP
8
ITEM: NUMBER OF ATOMS
56
ITEM: BOX BOUNDS xy xz yz pp pp pp
-4.9572983980178833e+00 1.2206987559795380e+01 -4.7683715820312500e-07
-7.5370073318481445e-03 5.5339480042457581e+00 -4.9354102015495300e+00
-3.2569408416748047e-02 1.9052529454231262e+01 2.8610229492187500e-06
ITEM: ATOMS id type xs ys zs fx fy fz
1 1 0.60545 1.02139 0.138459 0 -0.000300884 0.00239933
2 1 0.35545 0.145278 0.138459 0 0.000300765 0.00239992
3 1 0.2994 1.00086 0.279829 0 -0.00230324 -0.00118732
4 1 0.0493998 0.165803 0.279829 0 0.00230396 -0.00118697
5 1 0.992896 -0.0019723 0.420072 0 0.0007447 0.00169563
6 1 0.10545 1.02139 0.138459 0 -0.000300527 0.00239956
7 1 0.00894007 0.551559 0.0689245 0 0.00319803 0.00190783
8 1 0.85545 0.145278 0.138459 0 0.000300407 0.00239944
9 1 0.75894 0.615109 0.0689245 0 -0.00319827 0.00190842
10 1 0.7994 1.00086 0.279829 0 -0.002303 -0.00118756
11 1 0.742896 0.168639 0.420072 0 -0.000746012 0.00169683
12 1 0.686317 -0.00222693 0.560129 0 0.000627041 -0.000251412
13 1 0.436317 0.168894 0.560129 0 -0.000626445 -0.000251412
14 1 0.379681 -0.00120304 0.700046 0 -0.00093174 0.00148392
15 1 0.129681 0.16787 0.700046 0 0.000930905 0.00148404
16 1 0.0732559 1.0056 0.840486 0 -0.00142086 0.00192046
17 1 0.702757 0.505598 0.209966 0 -0.00142205 -0.0019201
18 1 0.5494 0.165803 0.279829 0 0.00230348 -0.00118697
19 1 0.452757 0.66107 0.209966 0 0.00142181 -0.00192082
20 1 0.492896 -0.0019723 0.420072 0 0.000745296 0.00169587
21 1 0.396332 0.498797 0.350407 0 -0.000931978 -0.00148356
22 1 0.242896 0.168639 0.420072 0 -0.000745654 0.00169647
23 1 0.146332 0.66787 0.350407 0 0.000931859 -0.0014838
24 1 0.186317 -0.00222691 0.560129 0 0.000626445 -0.000251293
25 1 0.089696 0.497773 0.490324 0 0.000626802 0.000251651
26 1 0.936317 0.168894 0.560129 0 -0.000626326 -0.00025177
27 1 0.839696 0.668894 0.490324 0 -0.000626802 0.000251293
28 1 0.50894 0.551559 0.0689245 0 0.00319839 0.0019089
29 1 0.25894 0.615109 0.0689245 0 -0.00319886 0.00190926
30 1 0.202757 0.505598 0.209966 0 -0.00142193 -0.00192046
31 1 0.952757 0.66107 0.209966 0 0.00142157 -0.00191939
32 1 0.896332 0.498797 0.350407 0 -0.000931382 -0.00148404
33 1 0.823256 0.16107 0.840486 0 0.00142145 0.00192022
34 1 0.767073 1.05156 0.981528 0 0.0031985 -0.00190938
35 1 0.517073 0.115109 0.981528 0 -0.00319839 -0.00190902
36 1 0.879681 -0.00120305 0.700046 0 -0.000931501 0.00148392