ITEM: TIMESTEP
0
ITEM: NUMBER OF ATOMS
32
ITEM: BOX BOUNDS xy xz yz pp pp pp
-4.0532350540161133e-03 6.4008854031562805e+00 0.0000000000000000e+00
-9.1640949249267578e-03 6.3590345382690430e+00 0.0000000000000000e+00
-4.7960281372070312e-02 2.0773346722126007e+01 8.2943928241729736e-01
ITEM: ATOMS id type xs ys zs fx fy fz
1 1 0.999986 0.657211 0.0597509 0 0 0.371397
2 1 0.499986 0.657211 0.0597509 0 0 0.371397
3 1 0.249986 0.157211 0.0597519 0 0 0.371304
4 1 0.749986 0.157211 0.0597519 0 0 0.371304
5 1 0.999986 0.619786 0.309753 0 0 9.53674e-06
6 1 0.249986 0.472847 0.184753 0 0 -0.00429916
7 1 0.749986 0.472847 0.184753 0 0 -0.00429916
8 1 0.499986 0.619786 0.309753 0 0 9.53674e-06
9 1 0.999986 0.972846 0.184753 0 0 -0.00427628
10 1 0.249986 0.119786 0.309753 0 0 -4.19617e-05
11 1 0.499986 0.972846 0.184753 0 0 -0.00427628
12 1 0.749986 0.119786 0.309753 0 0 -4.19617e-05
13 1 0.999986 0.582335 0.559749 0 0 6.86646e-05
14 1 0.499986 0.582335 0.559749 0 0 6.86646e-05
15 1 0.249986 0.0823334 0.55975 0 0 5.72205e-05
16 1 0.749986 0.0823334 0.55975 0 0 5.72205e-05
17 1 0.249986 0.43541 0.434752 0 0 -6.86646e-05
18 1 0.749986 0.43541 0.434752 0 0 -6.86646e-05
19 1 0.999986 0.935409 0.434752 0 0 -4.57764e-05
20 1 0.499986 0.935409 0.434752 0 0 -4.57764e-05
21 1 0.999986 0.544888 0.809748 0 0 0.00428391
22 1 0.249986 0.397954 0.684748 0 0 1.14441e-05
23 1 0.499986 0.544888 0.809748 0 0 0.00428391
24 1 0.749986 0.397954 0.684748 0 0 1.14441e-05
25 1 0.999986 0.897954 0.684749 0 0 -9.53674e-06
26 1 0.249986 0.0448886 0.809748 0 0 0.00429916
27 1 0.749986 0.0448886 0.809748 0 0 0.00429916
28 1 0.499986 0.897954 0.684749 0 0 -9.53674e-06
29 1 0.249986 0.360521 0.934749 0 0 -0.3713
30 1 0.749986 0.360521 0.934749 0 0 -0.3713
31 1 0.999986 0.860521 0.93475 0 0 -0.371389
32 1 0.499986 0.860521 0.93475 0 0 -0.371389
ITEM: TIMESTEP
1
ITEM: NUMBER OF ATOMS
32
ITEM: BOX BOUNDS xy xz yz pp pp pp
-4.0532350540161133e-03 6.4008854031562805e+00 0.0000000000000000e+00
-9.1640949249267578e-03 6.3590345382690430e+00 0.0000000000000000e+00
-4.7960281372070312e-02 2.0773346722126007e+01 8.2943928241729736e-01
ITEM: ATOMS id type xs ys zs fx fy fz
1 1 0.999986 0.656709 0.0631013 0 0 -0.0146465
2 1 0.499986 0.656709 0.0631013 0 0 -0.0146465
3 1 0.249986 0.15671 0.0631015 0 0 -0.0146389
4 1 0.749986 0.15671 0.0631015 0 0 -0.0146389
5 1 0.999986 0.619786 0.309753 0 0 0.00455856
6 1 0.249986 0.472853 0.184715 0 0 0.0928173
7 1 0.749986 0.472853 0.184715 0 0 0.0928173
8 1 0.499986 0.619786 0.309753 0 0 0.00455856
9 1 0.999986 0.972851 0.184715 0 0 0.0928249
10 1 0.249986 0.119786 0.309753 0 0 0.00454521
11 1 0.499986 0.972851 0.184715 0 0 0.0928249
12 1 0.749986 0.119786 0.309753 0 0 0.00454521
13 1 0.999986 0.582335 0.55975 0 0 0.000398636
14 1 0.499986 0.582335 0.55975 0 0 0.000398636
15 1 0.249986 0.0823334 0.55975 0 0 0.000394821
16 1 0.749986 0.0823334 0.55975 0 0 0.000394821
17 1 0.249986 0.43541 0.434752 0 0 -0.000402451
18 1 0.749986 0.43541 0.434752 0 0 -0.000402451
19 1 0.999986 0.935409 0.434751 0 0 -0.000387192
20 1 0.499986 0.935409 0.434751 0 0 -0.000387192
21 1 0.999986 0.544883 0.809787 0 0 -0.0928211
22 1 0.249986 0.397954 0.684748 0 0 -0.00454903
23 1 0.499986 0.544883 0.809787 0 0 -0.0928211
24 1 0.749986 0.397954 0.684748 0 0 -0.00454903
25 1 0.999986 0.897954 0.684749 0 0 -0.00456238
26 1 0.249986 0.0448828 0.809787 0 0 -0.0928268
27 1 0.749986 0.0448828 0.809787 0 0 -0.0928268
28 1 0.499986 0.897954 0.684749 0 0 -0.00456238
29 1 0.249986 0.361022 0.9314 0 0 0.0146446
30 1 0.749986 0.361022 0.9314 0 0 0.0146446
31 1 0.999986 0.861023 0.9314 0 0 0.0146503
32 1 0.499986 0.861023 0.9314 0 0 0.0146503
ITEM: TIMESTEP
2
ITEM: NUMBER OF ATOMS
32
ITEM: BOX BOUNDS xy xz yz pp pp pp
-4.0532350540161133e-03 6.4008854031562805e+00 0.0000000000000000e+00
-9.1640949249267578e-03 6.3590345382690430e+00 0.0000000000000000e+00
-4.7960281372070312e-02 2.0773346722126007e+01 8.2943928241729736e-01
ITEM: ATOMS id type xs ys zs fx fy fz
1 1 0.999986 0.656631 0.0636218 0 0 -0.00752449
2 1 0.499986 0.656631 0.0636218 0 0 -0.00752449
3 1 0.249986 0.156632 0.063622 0 0 -0.00751877
4 1 0.749986 0.156632 0.063622 0 0 -0.00751877
5 1 0.999986 0.619771 0.309848 0 0 0.0485668
6 1 0.249986 0.472564 0.186645 0 0 0.000854492
7 1 0.749986 0.472564 0.186645 0 0 0.000854492
8 1 0.499986 0.619771 0.309848 0 0 0.0485668
9 1 0.999986 0.972562 0.186645 0 0 0.000839233
10 1 0.249986 0.119772 0.309848 0 0 0.0485802
11 1 0.499986 0.972562 0.186645 0 0 0.000839233
12 1 0.749986 0.119772 0.309848 0 0 0.0485802
13 1 0.999986 0.582334 0.559758 0 0 -0.00555611
14 1 0.499986 0.582334 0.559758 0 0 -0.00555611
15 1 0.249986 0.0823321 0.559759 0 0 -0.00554848
16 1 0.749986 0.0823321 0.559759 0 0 -0.00554848
17 1 0.249986 0.435411 0.434743 0 0 0.00553703
18 1 0.749986 0.435411 0.434743 0 0 0.00553703
19 1 0.999986 0.935411 0.434743 0 0 0.00554466
20 1 0.499986 0.935411 0.434743 0 0 0.00554466
21 1 0.999986 0.545172 0.807856 0 0 -0.000846863
22 1 0.249986 0.397968 0.684653 0 0 -0.0485611
23 1 0.499986 0.545172 0.807856 0 0 -0.000846863
24 1 0.749986 0.397968 0.684653 0 0 -0.0485611
25 1 0.999986 0.897968 0.684653 0 0 -0.0485573
26 1 0.249986 0.0451719 0.807856 0 0 -0.000846863
27 1 0.749986 0.0451719 0.807856 0 0 -0.000846863
28 1 0.499986 0.897968 0.684653 0 0 -0.0485573
29 1 0.249986 0.3611 0.930879 0 0 0.00751877
30 1 0.749986 0.3611 0.930879 0 0 0.00751877
31 1 0.999986 0.861101 0.930879 0 0 0.00751877
32 1 0.499986 0.861101 0.930879 0 0 0.00751877
ITEM: TIMESTEP
3
ITEM: NUMBER OF ATOMS
32
ITEM: BOX BOUNDS xy xz yz pp pp pp
-4.0532350540161133e-03 6.4008854031562805e+00 0.0000000000000000e+00
-9.1640949249267578e-03 6.3590345382690430e+00 0.0000000000000000e+00
-4.7960281372070312e-02 2.0773346722126007e+01 8.2943928241729736e-01
ITEM: ATOMS id type xs ys zs fx fy fz
1 1 0.999986 0.656638 0.0635756 0 0 0.0155449
2 1 0.499986 0.656638 0.0635756 0 0 0.0155449
3 1 0.249986 0.156639 0.0635758 0 0 0.0155487
4 1 0.749986 0.156639 0.0635758 0 0 0.0155487
5 1 0.999986 0.619579 0.311133 0 0 -0.00216484
6 1 0.249986 0.472478 0.187218 0 0 0.000730515
7 1 0.749986 0.472478 0.187218 0 0 0.000730515
8 1 0.499986 0.619579 0.311133 0 0 -0.00216484
9 1 0.999986 0.972477 0.187218 0 0 0.000747681
10 1 0.249986 0.11958 0.311133 0 0 -0.00217056
11 1 0.499986 0.972477 0.187218 0 0 0.000747681
12 1 0.749986 0.11958 0.311133 0 0 -0.00217056
13 1 0.999986 0.582355 0.559617 0 0 -0.0253811
14 1 0.499986 0.582355 0.559617 0 0 -0.0253811
15 1 0.249986 0.0823533 0.559617 0 0 -0.0253983
16 1 0.749986 0.0823533 0.559617 0 0 -0.0253983
17 1 0.249986 0.43539 0.434884 0 0 0.0254059
18 1 0.749986 0.43539 0.434884 0 0 0.0254059
19 1 0.999986 0.935389 0.434884 0 0 0.0253811
20 1 0.499986 0.935389 0.434884 0 0 0.0253811
21 1 0.999986 0.545257 0.807283 0 0 -0.000728607
22 1 0.249986 0.39816 0.683368 0 0 0.0021534
23 1 0.499986 0.545257 0.807283 0 0 -0.000728607
24 1 0.749986 0.39816 0.683368 0 0 0.0021534
25 1 0.999986 0.89816 0.683368 0 0 0.00215721
26 1 0.249986 0.0452577 0.807283 0 0 -0.000732422
27 1 0.749986 0.0452577 0.807283 0 0 -0.000732422
28 1 0.499986 0.89816 0.683368 0 0 0.00215721
29 1 0.249986 0.361093 0.930926 0 0 -0.0155487
30 1 0.749986 0.361093 0.930926 0 0 -0.0155487
31 1 0.999986 0.861094 0.930926 0 0 -0.0155449
32 1 0.499986 0.861094 0.930926 0 0 -0.0155449
ITEM: TIMESTEP
4
ITEM: NUMBER OF ATOMS
32
ITEM: BOX BOUNDS xy xz yz pp pp pp
-4.0532350540161133e-03 6.4008854031562805e+00 0.0000000000000000e+00
-9.1640949249267578e-03 6.3590345382690430e+00 0.0000000000000000e+00
-4.7960281372070312e-02 2.0773346722126007e+01 8.2943928241729736e-01
ITEM: ATOMS id type xs ys zs fx fy fz
1 1 0.999986 0.656606 0.0637917 0 0 -0.000408173
2 1 0.499986 0.656606 0.0637917 0 0 -0.000408173
3 1 0.249986 0.156606 0.063792 0 0 -0.000419617
4 1 0.749986 0.156606 0.063792 0 0 -0.000419617
5 1 0.999986 0.619541 0.311389 0 0 -0.00253868
6 1 0.249986 0.472457 0.187357 0 0 0.00635529
7 1 0.749986 0.472457 0.187357 0 0 0.00635529
8 1 0.499986 0.619541 0.311389 0 0 -0.00253868
9 1 0.999986 0.972456 0.187357 0 0 0.00634766
10 1 0.249986 0.119541 0.311389 0 0 -0.00253296
11 1 0.499986 0.972456 0.187357 0 0 0.00634766
12 1 0.749986 0.119541 0.311389 0 0 -0.00253296
13 1 0.999986 0.582415 0.559216 0 0 -0.000495911
14 1 0.499986 0.582415 0.559216 0 0 -0.000495911
15 1 0.249986 0.0824134 0.559216 0 0 -0.000482559
16 1 0.749986 0.0824134 0.559216 0 0 -0.000482559
17 1 0.249986 0.43533 0.435286 0 0 0.000507355
18 1 0.749986 0.43533 0.435286 0 0 0.000507355
19 1 0.999986 0.935329 0.435286 0 0 0.000499725
20 1 0.499986 0.935329 0.435286 0 0 0.000499725
21 1 0.999986 0.545278 0.807145 0 0 -0.00634956
22 1 0.249986 0.398199 0.683113 0 0 0.00251579
23 1 0.499986 0.545278 0.807145 0 0 -0.00634956
24 1 0.749986 0.398199 0.683113 0 0 0.00251579
25 1 0.999986 0.898199 0.683113 0 0 0.00250816
26 1 0.249986 0.0452785 0.807145 0 0 -0.00633621
27 1 0.749986 0.0452785 0.807145 0 0 -0.00633621
28 1 0.499986 0.898199 0.683113 0 0 0.00250816
29 1 0.249986 0.361126 0.930709 0 0 0.000419617
30 1 0.749986 0.361126 0.930709 0 0 0.000419617
31 1 0.999986 0.861126 0.930709 0 0 0.00041008
32 1 0.499986 0.861126 0.930709 0 0 0.00041008
ITEM: TIMESTEP
5
ITEM: NUMBER OF ATOMS
32
ITEM: BOX BOUNDS xy xz yz pp pp pp
-4.0532350540161133e-03 6.4008854031562805e+00 0.0000000000000000e+00
-9.1640949249267578e-03 6.3590345382690430e+00 0.0000000000000000e+00
-4.7960281372070312e-02 2.0773346722126007e+01 8.2943928241729736e-01
ITEM: ATOMS id type xs ys zs fx fy fz
1 1 0.999986 0.656606 0.0637931 0 0 0.00198174
2 1 0.499986 0.656606 0.0637931 0 0 0.00198174
3 1 0.249986 0.156606 0.0637933 0 0 0.00198555
4 1 0.749986 0.156606 0.0637933 0 0 0.00198555
5 1 0.999986 0.619545 0.311362 0 0 0.00165176
6 1 0.249986 0.472444 0.187448 0 0 0.000772476
7 1 0.749986 0.472444 0.187448 0 0 0.000772476
8 1 0.499986 0.619545 0.311362 0 0 0.00165176
9 1 0.999986 0.972442 0.187448 0 0 0.000770569
10 1 0.249986 0.119545 0.311363 0 0 0.00163841
11 1 0.499986 0.972442 0.187448 0 0 0.000770569
12 1 0.749986 0.119545 0.311363 0 0 0.00163841
13 1 0.999986 0.582418 0.559196 0 0 0.00156021
14 1 0.499986 0.582418 0.559196 0 0 0.00156021
15 1 0.249986 0.0824164 0.559196 0 0 0.00154305
16 1 0.749986 0.0824164 0.559196 0 0 0.00154305
17 1 0.249986 0.435327 0.435306 0 0 -0.00155258
18 1 0.749986 0.435327 0.435306 0 0 -0.00155258
19 1 0.999986 0.935326 0.435306 0 0 -0.00154686
20 1 0.499986 0.935326 0.435306 0 0 -0.00154686
21 1 0.999986 0.545292 0.807053 0 0 -0.000787735
22 1 0.249986 0.398195 0.683139 0 0 -0.00164032
23 1 0.499986 0.545292 0.807053 0 0 -0.000787735
24 1 0.749986 0.398195 0.683139 0 0 -0.00164032
25 1 0.999986 0.898195 0.683139 0 0 -0.00164413
26 1 0.249986 0.0452922 0.807053 0 0 -0.00078392
27 1 0.749986 0.0452922 0.807053 0 0 -0.00078392
28 1 0.499986 0.898195 0.683139 0 0 -0.00164413
29 1 0.249986 0.361126 0.930708 0 0 -0.00197792
30 1 0.749986 0.361126 0.930708 0 0 -0.00197792
31 1 0.999986 0.861127 0.930708 0 0 -0.00197029
32 1 0.499986 0.861127 0.930708 0 0 -0.00197029
ITEM: TIMESTEP
6
ITEM: NUMBER OF ATOMS
32
ITEM: BOX BOUNDS xy xz yz pp pp pp
-4.0532350540161133e-03 6.4008854031562805e+00 0.0000000000000000e+00
-9.1640949249267578e-03 6.3590345382690430e+00 0.0000000000000000e+00
-4.7960281372070312e-02 2.0773346722126007e+01 8.2943928241729736e-01
ITEM: ATOMS id type xs ys zs fx fy fz
1 1 0.999986 0.6566 0.0638298 0 0 -0.000198364
2 1 0.499986 0.6566 0.0638298 0 0 -0.000198364
3 1 0.249986 0.156601 0.06383 0 0 -0.000213623
4 1 0.749986 0.156601 0.06383 0 0 -0.000213623
5 1 0.999986 0.619541 0.311385 0 0 0.00100708
6 1 0.249986 0.472438 0.18749 0 0 8.01086e-05
7 1 0.749986 0.472438 0.18749 0 0 8.01086e-05
8 1 0.499986 0.619541 0.311385 0 0 0.00100708
9 1 0.999986 0.972436 0.187489 0 0 8.39233e-05
10 1 0.249986 0.119542 0.311385 0 0 0.00100899
11 1 0.499986 0.972436 0.187489 0 0 8.39233e-05
12 1 0.749986 0.119542 0.311385 0 0 0.00100899
13 1 0.999986 0.582415 0.559218 0 0 -0.000844955
14 1 0.499986 0.582415 0.559218 0 0 -0.000844955
15 1 0.249986 0.082413 0.559218 0 0 -0.000854492
16 1 0.749986 0.082413 0.559218 0 0 -0.000854492
17 1 0.249986 0.43533 0.435283 0 0 0.000850677
18 1 0.749986 0.43533 0.435283 0 0 0.000850677
19 1 0.999986 0.93533 0.435283 0 0 0.000843048
20 1 0.499986 0.93533 0.435283 0 0 0.000843048
21 1 0.999986 0.545298 0.807012 0 0 -6.67572e-05
22 1 0.249986 0.398198 0.683116 0 0 -0.0010128
23 1 0.499986 0.545298 0.807012 0 0 -6.67572e-05
24 1 0.749986 0.398198 0.683116 0 0 -0.0010128
25 1 0.999986 0.898198 0.683116 0 0 -0.00100708
26 1 0.249986 0.0452984 0.807012 0 0 -7.82013e-05
27 1 0.749986 0.0452984 0.807012 0 0 -7.82013e-05
28 1 0.499986 0.898198 0.683116 0 0 -0.00100708
29 1 0.249986 0.361131 0.930672 0 0 0.000200272
30 1 0.749986 0.361131 0.930672 0 0 0.000200272
31 1 0.999986 0.861132 0.930671 0 0 0.000202179
32 1 0.499986 0.861132 0.930671 0 0 0.000202179
ITEM: TIMESTEP
7
ITEM: NUMBER OF ATOMS
32
ITEM: BOX BOUNDS xy xz yz pp pp pp
-4.0532350540161133e-03 6.4008854031562805e+00 0.0000000000000000e+00
-9.1640949249267578e-03 6.3590345382690430e+00 0.0000000000000000e+00
-4.7960281372070312e-02 2.0773346722126007e+01 8.2943928241729736e-01
ITEM: ATOMS id type xs ys zs fx fy fz
1 1 0.999986 0.656599 0.0638354 0 0 -0.000213623
2 1 0.499986 0.656599 0.0638354 0 0 -0.000213623
3 1 0.249986 0.1566 0.0638352 0 0 -0.000188828
4 1 0.749986 0.1566 0.0638352 0 0 -0.000188828
5 1 0.999986 0.619535 0.311425 0 0 -0.000242233
6 1 0.249986 0.472435 0.187506 0 0 0.000385284
7 1 0.749986 0.472435 0.187506 0 0 0.000385284
8 1 0.499986 0.619535 0.311425 0 0 -0.000242233
9 1 0.999986 0.972433 0.187506 0 0 0.000377655
10 1 0.249986 0.119536 0.311425 0 0 -0.000242233
11 1 0.499986 0.972433 0.187506 0 0 0.000377655
12 1 0.749986 0.119536 0.311425 0 0 -0.000242233
13 1 0.999986 0.582418 0.559198 0 0 -0.000257492
14 1 0.499986 0.582418 0.559198 0 0 -0.000257492
15 1 0.249986 0.0824161 0.559198 0 0 -0.000240326
16 1 0.749986 0.0824161 0.559198 0 0 -0.000240326
17 1 0.249986 0.435327 0.435303 0 0 0.000242233
18 1 0.749986 0.435327 0.435303 0 0 0.000242233
19 1 0.999986 0.935327 0.435303 0 0 0.000238419
20 1 0.499986 0.935327 0.435303 0 0 0.000238419
21 1 0.999986 0.545301 0.806996 0 0 -0.000406265
22 1 0.249986 0.398204 0.683076 0 0 0.000267029
23 1 0.499986 0.545301 0.806996 0 0 -0.000406265
24 1 0.749986 0.398204 0.683076 0 0 0.000267029
25 1 0.999986 0.898204 0.683076 0 0 0.000259399
26 1 0.249986 0.0453008 0.806996 0 0 -0.000396729
27 1 0.749986 0.0453008 0.806996 0 0 -0.000396729
28 1 0.499986 0.898204 0.683076 0 0 0.000259399
29 1 0.249986 0.361132 0.930666 0 0 0.000204086
30 1 0.749986 0.361132 0.930666 0 0 0.000204086
31 1 0.999986 0.861133 0.930666 0 0 0.000213623
32 1 0.499986 0.861133 0.930666 0 0 0.000213623
ITEM: TIMESTEP
8
ITEM: NUMBER OF ATOMS
32
ITEM: BOX BOUNDS xy xz yz pp pp pp
-4.0532350540161133e-03 6.4008854031562805e+00 0.0000000000000000e+00
-9.1640949249267578e-03 6.3590345382690430e+00 0.0000000000000000e+00
-4.7960281372070312e-02 2.0773346722126007e+01 8.2943928241729736e-01
ITEM: ATOMS id type xs ys zs fx fy fz
1 1 0.999986 0.6566 0.0638335 0 0 0.000101089
2 1 0.499986 0.6566 0.0638335 0 0 0.000101089
3 1 0.249986 0.1566 0.0638335 0 0 0.000114441
4 1 0.749986 0.1566 0.0638335 0 0 0.000114441
5 1 0.999986 0.619535 0.311425 0 0 -1.90735e-05
6 1 0.249986 0.472434 0.187511 0 0 7.62939e-05
7 1 0.749986 0.472434 0.187511 0 0 7.62939e-05
8 1 0.499986 0.619535 0.311425 0 0 -1.90735e-05
9 1 0.999986 0.972433 0.18751 0 0 7.24792e-05
10 1 0.249986 0.119536 0.311424 0 0 -2.28882e-05
11 1 0.499986 0.972433 0.18751 0 0 7.24792e-05
12 1 0.749986 0.119536 0.311424 0 0 -2.28882e-05
13 1 0.999986 0.582418 0.559195 0 0 4.76837e-05
14 1 0.499986 0.582418 0.559195 0 0 4.76837e-05
15 1 0.249986 0.0824166 0.559195 0 0 5.72205e-05
16 1 0.749986 0.0824166 0.559195 0 0 5.72205e-05
17 1 0.249986 0.435327 0.435307 0 0 -4.95911e-05
18 1 0.749986 0.435327 0.435307 0 0 -4.95911e-05
19 1 0.999986 0.935326 0.435307 0 0 -5.34058e-05
20 1 0.499986 0.935326 0.435307 0 0 -5.34058e-05
21 1 0.999986 0.545301 0.806991 0 0 -7.43866e-05
22 1 0.249986 0.398204 0.683077 0 0 2.09808e-05
23 1 0.499986 0.545301 0.806991 0 0 -7.43866e-05
24 1 0.749986 0.398204 0.683077 0 0 2.09808e-05
25 1 0.999986 0.898204 0.683077 0 0 1.90735e-05
26 1 0.249986 0.0453015 0.806991 0 0 -6.67572e-05
27 1 0.749986 0.0453015 0.806991 0 0 -6.67572e-05
28 1 0.499986 0.898204 0.683077 0 0 1.90735e-05
29 1 0.249986 0.361132 0.930668 0 0 -0.000106812
30 1 0.749986 0.361132 0.930668 0 0 -0.000106812
31 1 0.999986 0.861133 0.930668 0 0 -0.000116348
32 1 0.499986 0.861133 0.930668 0 0 -0.000116348
ITEM: TIMESTEP
9
ITEM: NUMBER OF ATOMS
32
ITEM: BOX BOUNDS xy xz yz pp pp pp
-4.0532350540161133e-03 6.4008854031562805e+00 0.0000000000000000e+00
-9.1640949249267578e-03 6.3590345382690430e+00 0.0000000000000000e+00
-4.7960281372070312e-02 2.0773346722126007e+01 8.2943928241729736e-01
ITEM: ATOMS id type xs ys zs fx fy fz
1 1 0.999986 0.6566 0.0638335 0 0 0.000101089
2 1 0.499986 0.6566 0.0638335 0 0 0.000101089
3 1 0.249986 0.1566 0.0638335 0 0 0.000114441
4 1 0.749986 0.1566 0.0638335 0 0 0.000114441
5 1 0.999986 0.619535 0.311425 0 0 -1.90735e-05
6 1 0.249986 0.472434 0.187511 0 0 7.62939e-05
7 1 0.749986 0.472434 0.187511 0 0 7.62939e-05
8 1 0.499986 0.619535 0.311425 0 0 -1.90735e-05
9 1 0.999986 0.972433 0.18751 0 0 7.24792e-05
10 1 0.249986 0.119536 0.311424 0 0 -2.28882e-05
11 1 0.499986 0.972433 0.18751 0 0 7.24792e-05
12 1 0.749986 0.119536 0.311424 0 0 -2.28882e-05
13 1 0.999986 0.582418 0.559195 0 0 4.76837e-05
14 1 0.499986 0.582418 0.559195 0 0 4.76837e-05
15 1 0.249986 0.0824166 0.559195 0 0 5.72205e-05
16 1 0.749986 0.0824166 0.559195 0 0 5.72205e-05
17 1 0.249986 0.435327 0.435307 0 0 -4.95911e-05
18 1 0.749986 0.435327 0.435307 0 0 -4.95911e-05
19 1 0.999986 0.935326 0.435307 0 0 -5.34058e-05
20 1 0.499986 0.935326 0.435307 0 0 -5.34058e-05
21 1 0.999986 0.545301 0.806991 0 0 -7.43866e-05
22 1 0.249986 0.398204 0.683077 0 0 2.09808e-05
23 1 0.499986 0.545301 0.806991 0 0 -7.43866e-05
24 1 0.749986 0.398204 0.683077 0 0 2.09808e-05
25 1 0.999986 0.898204 0.683077 0 0 1.90735e-05
26 1 0.249986 0.0453015 0.806991 0 0 -6.67572e-05
27 1 0.749986 0.0453015 0.806991 0 0 -6.67572e-05
28 1 0.499986 0.898204 0.683077 0 0 1.90735e-05
29 1 0.249986 0.361132 0.930668 0 0 -0.000106812
30 1 0.749986 0.361132 0.930668 0 0 -0.000106812
31 1 0.999986 0.861133 0.930668 0 0 -0.000116348
32 1 0.499986 0.861133 0.930668 0 0 -0.000116348
