LAMMPS data file via write_data, version 4 May 2022, timestep = 167

56 atoms
3 atom types

0.028828740119934082 12.15627110004425 xlo xhi
-0.0082893967628479 5.534697532653809 ylo yhi
-0.004566550254821777 19.024526596069336 zlo zhi
8.940696716308594e-07 -2.75715352296829214 -5.960464477539063e-08 xy xz yz
Masses

1 24.305
2 65.40900000000001
3 88.90600000000001

Atoms # atomic

1 1 6.718620185883846 5.534657582376708 2.5142878501598185 0 -1 0
2 1 3.686754224275884 0.9155833374121495 2.5142885061077203 0 0 0
3 1 2.340668400472009 5.5346964164590355 5.232742493138436 0 -1 0
4 1 11.436238564907743 0.9155446331389012 5.232743094010828 0 0 0
5 1 10.089812841960132 5.5346948091046375 7.9511976436922 0 -1 0
6 1 0.6548831521149222 5.5346574845987755 2.51428885423177 0 -1 0
7 1 11.939273801717798 2.763399717871409 1.155051328914041 0 0 0
8 1 9.750459513638917 0.915583241585895 2.514289520471761 0 0 0
9 1 8.90740842873932 3.686842832408787 1.155051703984829 0 0 0
10 1 8.404373799850507 5.534696415986187 5.232743418889814 0 -1 0
11 1 7.057972638052671 0.9155455165586698 7.951196321464149 0 0 0
12 1 5.711580686218658 -0.008287391309759874 10.669580509278417 0 0 0
13 1 2.6797153388757056 0.9155413721533308 10.669580303617911 0 0 0
14 1 1.3331937234897706 5.534696351264073 13.388010184101768 0 -1 0
15 1 10.428769323257672 0.9155448474201012 13.38801058637762 0 0 0
16 1 9.082480008093095 5.534692819462241 16.10656170151783 0 -1 0
17 1 7.561598726370163 2.7632002961300337 3.8734696287767614 0 0 0
18 1 5.372533673010339 0.9155448540174835 5.232742094431642 0 0 0
19 1 4.529733464282269 3.687042740038715 3.8734699385074185 0 0 0
20 1 4.026107959119257 5.534695025997301 7.9511966561220895 0 -1 0
21 1 3.183442429694902 2.7632040365053014 6.592021611051582 0 0 0
22 1 0.9942357421943846 0.91554553070326 7.951197184213737 0 0 0
23 1 0.15157074397110737 3.687038687908868 6.592022028287271 0 0 0
24 1 11.77528588558544 -0.008287489215578875 10.669581224352571 0 0 0
25 1 10.93249441071331 2.763206618724144 9.310451579982749 0 0 0
26 1 8.743420817650186 0.9155413630575198 10.669581011863466 0 0 0
27 1 7.900629062763439 3.687035912559129 9.310451881301667 0 0 0
28 1 5.875568799611427 2.7633995065551655 1.1550504403509205 0 0 0
29 1 2.8437029757935424 3.6868428377913203 1.1550508392504595 0 0 0
30 1 1.4978618529188936 2.7632003092141604 3.873470511499381 0 0 0
31 1 10.593438325903858 3.68704293521513 3.873470950085371 0 0 0
32 1 9.247147766038985 2.7632041419804536 6.592022707691489 0 0 0
33 1 6.050639207829028 0.9155477759751656 16.106561190624674 0 0 0
34 1 4.70480406220331 -0.008094780773381773 18.824980243225667 0 0 0
35 1 1.6729328544383724 0.9153483118189739 18.824980739952377 0 0 0
36 1 7.396930618208937 5.5346963864876635 13.388009247697472 0 -1 0
37 1 6.5542644754322525 2.7632028258871837 12.028834566568225 0 0 0
38 1 4.365064471963769 0.9155446403572968 13.388009603834748 0 0 0
39 1 3.522399491343372 3.6870398224122587 12.02883439988893 0 0 0
40 1 3.0187745170805775 5.534692790941342 16.1065609714027 0 -1 0
41 1 2.1759712464408505 2.7632038910189776 14.747288925654178 0 0 0
42 1 -0.013097994887934644 0.9155478780291547 16.10656186404247 0 0 0
43 1 11.271542313159475 3.6870390363900913 14.747289479065518 0 0 0
44 1 10.768509072211229 -0.008094978027572078 18.824981111713832 0 0 0
45 1 9.925458195951865 2.7631649849111604 17.465743193575985 0 0 0
46 1 6.215307805913634 3.6870385966903236 6.5920210340913865 0 0 0
47 1 4.868789551887068 2.763206389299809 9.310450615691828 0 0 0
48 1 1.8369236312197863 3.6870358955489846 9.310451016971314 0 0 0
49 1 0.4905275640468273 2.763202822068206 12.028835272741635 0 0 0
50 1 9.586104689502378 3.687039736304607 12.028835078439025 0 0 0
51 1 8.239676709988645 2.763203856512603 14.747289706341718 0 0 0
52 1 7.736669790302441 0.9153483109001038 18.824979877645937 0 0 0
53 1 6.893618350992039 3.6870778158678874 17.465742670822376 0 0 0
54 1 5.207837469864896 3.687039269870901 14.747288450463062 0 0 0
55 1 3.8617529818836616 2.7631649187774427 17.46574248977509 0 0 0
56 1 0.8298814111920473 3.687077820865917 17.46574336311059 0 0 0

Velocities

1 0 0 0
2 0 0 0
3 0 0 0
4 0 0 0
5 0 0 0
6 0 0 0
7 0 0 0
8 0 0 0
9 0 0 0
10 0 0 0
11 0 0 0
12 0 0 0
13 0 0 0
14 0 0 0
15 0 0 0
16 0 0 0
17 0 0 0
18 0 0 0
19 0 0 0
20 0 0 0
21 0 0 0
22 0 0 0
23 0 0 0
24 0 0 0
25 0 0 0
26 0 0 0
27 0 0 0
28 0 0 0
29 0 0 0
30 0 0 0
31 0 0 0
32 0 0 0
33 0 0 0
34 0 0 0
35 0 0 0
36 0 0 0
37 0 0 0
38 0 0 0
39 0 0 0
40 0 0 0
41 0 0 0
42 0 0 0
43 0 0 0
44 0 0 0
45 0 0 0
46 0 0 0
47 0 0 0
48 0 0 0
49 0 0 0
50 0 0 0
51 0 0 0
52 0 0 0
53 0 0 0
54 0 0 0
55 0 0 0
56 0 0 0
