ITEM: TIMESTEP
0
ITEM: NUMBER OF ATOMS
32
ITEM: BOX BOUNDS xy xz yz pp pp pp
-4.0532350540161133e-03 6.4008854031562805e+00 0.0000000000000000e+00
-9.1640949249267578e-03 6.4972743988037109e+00 0.0000000000000000e+00
-4.7960281372070312e-02 2.0773346722126007e+01 9.6767914295196533e-01
ITEM: ATOMS id type xs ys zs fx fy fz
1 1 0.999986 0.65572 0.0597509 0 0 0.503828
2 1 0.499986 0.65572 0.0597509 0 0 0.503828
3 1 0.249986 0.15572 0.0597519 0 0 0.503716
4 1 0.749986 0.15572 0.0597519 0 0 0.503716
5 1 0.999986 0.612055 0.309753 0 0 0.000114441
6 1 0.249986 0.468236 0.184753 0 0 -0.00354576
7 1 0.749986 0.468236 0.184753 0 0 -0.00354576
8 1 0.499986 0.612055 0.309753 0 0 0.000114441
9 1 0.999986 0.968234 0.184753 0 0 -0.00352097
10 1 0.249986 0.112055 0.309753 0 0 6.86646e-05
11 1 0.499986 0.968234 0.184753 0 0 -0.00352097
12 1 0.749986 0.112055 0.309753 0 0 6.86646e-05
13 1 0.999986 0.568364 0.559749 0 0 7.24792e-05
14 1 0.499986 0.568364 0.559749 0 0 7.24792e-05
15 1 0.249986 0.0683629 0.55975 0 0 6.10352e-05
16 1 0.749986 0.0683629 0.55975 0 0 6.10352e-05
17 1 0.249986 0.424559 0.434752 0 0 -7.24792e-05
18 1 0.749986 0.424559 0.434752 0 0 -7.24792e-05
19 1 0.999986 0.924559 0.434752 0 0 -4.95911e-05
20 1 0.499986 0.924559 0.434752 0 0 -4.95911e-05
21 1 0.999986 0.524678 0.809748 0 0 0.00352859
22 1 0.249986 0.380863 0.684748 0 0 -9.53674e-05
23 1 0.499986 0.524678 0.809748 0 0 0.00352859
24 1 0.749986 0.380863 0.684748 0 0 -9.53674e-05
25 1 0.999986 0.880863 0.684749 0 0 -0.000114441
26 1 0.249986 0.0246784 0.809748 0 0 0.00354385
27 1 0.749986 0.0246784 0.809748 0 0 0.00354385
28 1 0.499986 0.880863 0.684749 0 0 -0.000114441
29 1 0.249986 0.337191 0.934749 0 0 -0.50371
30 1 0.749986 0.337191 0.934749 0 0 -0.50371
31 1 0.999986 0.837191 0.93475 0 0 -0.503824
32 1 0.499986 0.837191 0.93475 0 0 -0.503824
ITEM: TIMESTEP
1
ITEM: NUMBER OF ATOMS
32
ITEM: BOX BOUNDS xy xz yz pp pp pp
-4.0532350540161133e-03 6.4008854031562805e+00 0.0000000000000000e+00
-9.1640949249267578e-03 6.4972743988037109e+00 0.0000000000000000e+00
-4.7960281372070312e-02 2.0773346722126007e+01 9.6767914295196533e-01
ITEM: ATOMS id type xs ys zs fx fy fz
1 1 0.999986 0.655 0.0638694 0 0 -0.00972557
2 1 0.499986 0.655 0.0638694 0 0 -0.00972557
3 1 0.249986 0.155001 0.0638695 0 0 -0.00972557
4 1 0.749986 0.155001 0.0638695 0 0 -0.00972557
5 1 0.999986 0.612055 0.309754 0 0 0.00599098
6 1 0.249986 0.468241 0.184724 0 0 0.118076
7 1 0.749986 0.468241 0.184724 0 0 0.118076
8 1 0.499986 0.612055 0.309754 0 0 0.00599098
9 1 0.999986 0.96824 0.184724 0 0 0.118082
10 1 0.249986 0.112055 0.309754 0 0 0.00596619
11 1 0.499986 0.96824 0.184724 0 0 0.118082
12 1 0.749986 0.112055 0.309754 0 0 0.00596619
13 1 0.999986 0.568364 0.55975 0 0 0.00043869
14 1 0.499986 0.568364 0.55975 0 0 0.00043869
15 1 0.249986 0.0683628 0.55975 0 0 0.000421524
16 1 0.749986 0.0683628 0.55975 0 0 0.000421524
17 1 0.249986 0.424559 0.434752 0 0 -0.000440598
18 1 0.749986 0.424559 0.434752 0 0 -0.000440598
19 1 0.999986 0.924559 0.434751 0 0 -0.000419617
20 1 0.499986 0.924559 0.434751 0 0 -0.000419617
21 1 0.999986 0.524673 0.809777 0 0 -0.118076
22 1 0.249986 0.380863 0.684747 0 0 -0.00597572
23 1 0.499986 0.524673 0.809777 0 0 -0.118076
24 1 0.749986 0.380863 0.684747 0 0 -0.00597572
25 1 0.999986 0.880863 0.684748 0 0 -0.00599098
26 1 0.249986 0.0246734 0.809777 0 0 -0.118073
27 1 0.749986 0.0246734 0.809777 0 0 -0.118073
28 1 0.499986 0.880863 0.684748 0 0 -0.00599098
29 1 0.249986 0.33791 0.930632 0 0 0.00972748
30 1 0.749986 0.33791 0.930632 0 0 0.00972748
31 1 0.999986 0.837911 0.930632 0 0 0.00972366
32 1 0.499986 0.837911 0.930632 0 0 0.00972366
ITEM: TIMESTEP
2
ITEM: NUMBER OF ATOMS
32
ITEM: BOX BOUNDS xy xz yz pp pp pp
-4.0532350540161133e-03 6.4008854031562805e+00 0.0000000000000000e+00
-9.1640949249267578e-03 6.4972743988037109e+00 0.0000000000000000e+00
-4.7960281372070312e-02 2.0773346722126007e+01 9.6767914295196533e-01
ITEM: ATOMS id type xs ys zs fx fy fz
1 1 0.999986 0.654896 0.0644685 0 0 0.00655174
2 1 0.499986 0.654896 0.0644685 0 0 0.00655174
3 1 0.249986 0.154896 0.0644684 0 0 0.00658607
4 1 0.749986 0.154896 0.0644684 0 0 0.00658607
5 1 0.999986 0.612033 0.309879 0 0 0.0626698
6 1 0.249986 0.467813 0.187178 0 0 -0.00324059
7 1 0.749986 0.467813 0.187178 0 0 -0.00324059
8 1 0.499986 0.612033 0.309879 0 0 0.0626698
9 1 0.999986 0.967811 0.187178 0 0 -0.00324631
10 1 0.249986 0.112033 0.309878 0 0 0.0626888
11 1 0.499986 0.967811 0.187178 0 0 -0.00324631
12 1 0.749986 0.112033 0.309878 0 0 0.0626888
13 1 0.999986 0.568363 0.559759 0 0 -0.00707436
14 1 0.499986 0.568363 0.559759 0 0 -0.00707436
15 1 0.249986 0.0683612 0.559759 0 0 -0.00706863
16 1 0.749986 0.0683612 0.559759 0 0 -0.00706863
17 1 0.249986 0.424561 0.434742 0 0 0.00707817
18 1 0.749986 0.424561 0.434742 0 0 0.00707817
19 1 0.999986 0.92456 0.434743 0 0 0.00705719
20 1 0.499986 0.92456 0.434743 0 0 0.00705719
21 1 0.999986 0.525102 0.807324 0 0 0.00323105
22 1 0.249986 0.380885 0.684623 0 0 -0.0626698
23 1 0.499986 0.525102 0.807324 0 0 0.00323105
24 1 0.749986 0.380885 0.684623 0 0 -0.0626698
25 1 0.999986 0.880885 0.684623 0 0 -0.0626698
26 1 0.249986 0.025102 0.807324 0 0 0.00322342
27 1 0.749986 0.025102 0.807324 0 0 0.00322342
28 1 0.499986 0.880885 0.684623 0 0 -0.0626698
29 1 0.249986 0.338015 0.930033 0 0 -0.00657082
30 1 0.749986 0.338015 0.930033 0 0 -0.00657082
31 1 0.999986 0.838015 0.930033 0 0 -0.00654602
32 1 0.499986 0.838015 0.930033 0 0 -0.00654602
ITEM: TIMESTEP
3
ITEM: NUMBER OF ATOMS
32
ITEM: BOX BOUNDS xy xz yz pp pp pp
-4.0532350540161133e-03 6.4008854031562805e+00 0.0000000000000000e+00
-9.1640949249267578e-03 6.4972743988037109e+00 0.0000000000000000e+00
-4.7960281372070312e-02 2.0773346722126007e+01 9.6767914295196533e-01
ITEM: ATOMS id type xs ys zs fx fy fz
1 1 0.999986 0.654825 0.0648746 0 0 -0.00444794
2 1 0.499986 0.654825 0.0648746 0 0 -0.00444794
3 1 0.249986 0.154825 0.0648754 0 0 -0.00449562
4 1 0.749986 0.154825 0.0648754 0 0 -0.00449562
5 1 0.999986 0.611727 0.311629 0 0 -0.00516701
6 1 0.249986 0.467665 0.188024 0 0 0.00691605
7 1 0.749986 0.467665 0.188024 0 0 0.00691605
8 1 0.499986 0.611727 0.311629 0 0 -0.00516701
9 1 0.999986 0.967663 0.188024 0 0 0.00692177
10 1 0.249986 0.111728 0.311629 0 0 -0.0051651
11 1 0.499986 0.967663 0.188024 0 0 0.00692177
12 1 0.749986 0.111728 0.311629 0 0 -0.0051651
13 1 0.999986 0.568396 0.55957 0 0 -0.0349483
14 1 0.499986 0.568396 0.55957 0 0 -0.0349483
15 1 0.249986 0.0683942 0.55957 0 0 -0.0349464
16 1 0.749986 0.0683942 0.55957 0 0 -0.0349464
17 1 0.249986 0.424528 0.434931 0 0 0.0349503
18 1 0.749986 0.424528 0.434931 0 0 0.0349503
19 1 0.999986 0.924527 0.434931 0 0 0.0349503
20 1 0.499986 0.924527 0.434931 0 0 0.0349503
21 1 0.999986 0.52525 0.806477 0 0 -0.00689888
22 1 0.249986 0.381191 0.682872 0 0 0.00515747
23 1 0.499986 0.52525 0.806477 0 0 -0.00689888
24 1 0.749986 0.381191 0.682872 0 0 0.00515747
25 1 0.999986 0.881191 0.682872 0 0 0.00514793
26 1 0.249986 0.0252498 0.806477 0 0 -0.00689316
27 1 0.749986 0.0252498 0.806477 0 0 -0.00689316
28 1 0.499986 0.881191 0.682872 0 0 0.00514793
29 1 0.249986 0.338086 0.929626 0 0 0.00448036
30 1 0.749986 0.338086 0.929626 0 0 0.00448036
31 1 0.999986 0.838086 0.929627 0 0 0.0044384
32 1 0.499986 0.838086 0.929627 0 0 0.0044384
ITEM: TIMESTEP
4
ITEM: NUMBER OF ATOMS
32
ITEM: BOX BOUNDS xy xz yz pp pp pp
-4.0532350540161133e-03 6.4008854031562805e+00 0.0000000000000000e+00
-9.1640949249267578e-03 6.4972743988037109e+00 0.0000000000000000e+00
-4.7960281372070312e-02 2.0773346722126007e+01 9.6767914295196533e-01
ITEM: ATOMS id type xs ys zs fx fy fz
1 1 0.999986 0.654823 0.0648867 0 0 0.00184441
2 1 0.499986 0.654823 0.0648867 0 0 0.00184441
3 1 0.249986 0.154823 0.064887 0 0 0.00184059
4 1 0.749986 0.154823 0.064887 0 0 0.00184059
5 1 0.999986 0.611685 0.311869 0 0 2.09808e-05
6 1 0.249986 0.467622 0.188266 0 0 0.000816345
7 1 0.749986 0.467622 0.188266 0 0 0.000816345
8 1 0.499986 0.611685 0.311869 0 0 2.09808e-05
9 1 0.999986 0.967621 0.188266 0 0 0.000812531
10 1 0.249986 0.111686 0.31187 0 0 1.33514e-05
11 1 0.499986 0.967621 0.188266 0 0 0.000812531
12 1 0.749986 0.111686 0.31187 0 0 1.33514e-05
13 1 0.999986 0.568484 0.559068 0 0 -0.00163269
14 1 0.499986 0.568484 0.559068 0 0 -0.00163269
15 1 0.249986 0.068482 0.559068 0 0 -0.0016346
16 1 0.749986 0.068482 0.559068 0 0 -0.0016346
17 1 0.249986 0.42444 0.435434 0 0 0.00162506
18 1 0.749986 0.42444 0.435434 0 0 0.00162506
19 1 0.999986 0.924439 0.435433 0 0 0.00163269
20 1 0.499986 0.924439 0.435433 0 0 0.00163269
21 1 0.999986 0.525292 0.806235 0 0 -0.000814438
22 1 0.249986 0.381233 0.682632 0 0 -1.52588e-05
23 1 0.499986 0.525292 0.806235 0 0 -0.000814438
24 1 0.749986 0.381233 0.682632 0 0 -1.52588e-05
25 1 0.999986 0.881233 0.682632 0 0 -1.71661e-05
26 1 0.249986 0.0252922 0.806235 0 0 -0.000806808
27 1 0.749986 0.0252922 0.806235 0 0 -0.000806808
28 1 0.499986 0.881233 0.682632 0 0 -1.71661e-05
29 1 0.249986 0.338088 0.929615 0 0 -0.0018425
30 1 0.749986 0.338088 0.929615 0 0 -0.0018425
31 1 0.999986 0.838089 0.929614 0 0 -0.0018425
32 1 0.499986 0.838089 0.929614 0 0 -0.0018425
ITEM: TIMESTEP
5
ITEM: NUMBER OF ATOMS
32
ITEM: BOX BOUNDS xy xz yz pp pp pp
-4.0532350540161133e-03 6.4008854031562805e+00 0.0000000000000000e+00
-9.1640949249267578e-03 6.4972743988037109e+00 0.0000000000000000e+00
-4.7960281372070312e-02 2.0773346722126007e+01 9.6767914295196533e-01
ITEM: ATOMS id type xs ys zs fx fy fz
1 1 0.999986 0.654818 0.0649127 0 0 -0.000282288
2 1 0.499986 0.654818 0.0649127 0 0 -0.000282288
3 1 0.249986 0.154818 0.0649129 0 0 -0.000274658
4 1 0.749986 0.154818 0.0649129 0 0 -0.000274658
5 1 0.999986 0.611685 0.31187 0 0 0.000898361
6 1 0.249986 0.46762 0.188278 0 0 0.000976562
7 1 0.749986 0.46762 0.188278 0 0 0.000976562
8 1 0.499986 0.611685 0.31187 0 0 0.000898361
9 1 0.999986 0.967619 0.188278 0 0 0.000980377
10 1 0.249986 0.111685 0.31187 0 0 0.000888824
11 1 0.499986 0.967619 0.188278 0 0 0.000980377
12 1 0.749986 0.111685 0.31187 0 0 0.000888824
13 1 0.999986 0.568488 0.559045 0 0 0.000171661
14 1 0.499986 0.568488 0.559045 0 0 0.000171661
15 1 0.249986 0.068486 0.559045 0 0 0.000173569
16 1 0.749986 0.068486 0.559045 0 0 0.000173569
17 1 0.249986 0.424436 0.435457 0 0 -0.000175476
18 1 0.749986 0.424436 0.435457 0 0 -0.000175476
19 1 0.999986 0.924435 0.435457 0 0 -0.000167847
20 1 0.499986 0.924435 0.435457 0 0 -0.000167847
21 1 0.999986 0.525294 0.806224 0 0 -0.000968933
22 1 0.249986 0.381233 0.682632 0 0 -0.000905991
23 1 0.499986 0.525294 0.806224 0 0 -0.000968933
24 1 0.749986 0.381233 0.682632 0 0 -0.000905991
25 1 0.999986 0.881233 0.682632 0 0 -0.000888824
26 1 0.249986 0.0252942 0.806224 0 0 -0.00097847
27 1 0.749986 0.0252942 0.806224 0 0 -0.00097847
28 1 0.499986 0.881233 0.682632 0 0 -0.000888824
29 1 0.249986 0.338092 0.929589 0 0 0.000276566
30 1 0.749986 0.338092 0.929589 0 0 0.000276566
31 1 0.999986 0.838093 0.929588 0 0 0.000276566
32 1 0.499986 0.838093 0.929588 0 0 0.000276566
ITEM: TIMESTEP
6
ITEM: NUMBER OF ATOMS
32
ITEM: BOX BOUNDS xy xz yz pp pp pp
-4.0532350540161133e-03 6.4008854031562805e+00 0.0000000000000000e+00
-9.1640949249267578e-03 6.4972743988037109e+00 0.0000000000000000e+00
-4.7960281372070312e-02 2.0773346722126007e+01 9.6767914295196533e-01
ITEM: ATOMS id type xs ys zs fx fy fz
1 1 0.999986 0.654817 0.0649211 0 0 0.000278473
2 1 0.499986 0.654817 0.0649211 0 0 0.000278473
3 1 0.249986 0.154817 0.0649216 0 0 0.000274658
4 1 0.749986 0.154817 0.0649216 0 0 0.000274658
5 1 0.999986 0.611679 0.311903 0 0 0.000453949
6 1 0.249986 0.467613 0.188322 0 0 -0.000385284
7 1 0.749986 0.467613 0.188322 0 0 -0.000385284
8 1 0.499986 0.611679 0.311903 0 0 0.000453949
9 1 0.999986 0.967611 0.188323 0 0 -0.000391006
10 1 0.249986 0.11168 0.311903 0 0 0.000484467
11 1 0.499986 0.967611 0.188323 0 0 -0.000391006
12 1 0.749986 0.11168 0.311903 0 0 0.000484467
13 1 0.999986 0.568489 0.559035 0 0 0.000112534
14 1 0.499986 0.568489 0.559035 0 0 0.000112534
15 1 0.249986 0.0684878 0.559035 0 0 0.000112534
16 1 0.749986 0.0684878 0.559035 0 0 0.000112534
17 1 0.249986 0.424434 0.435467 0 0 -9.91821e-05
18 1 0.749986 0.424434 0.435467 0 0 -9.91821e-05
19 1 0.999986 0.924434 0.435467 0 0 -0.000112534
20 1 0.499986 0.924434 0.435467 0 0 -0.000112534
21 1 0.999986 0.525302 0.806179 0 0 0.000366211
22 1 0.249986 0.381239 0.682598 0 0 -0.000452042
23 1 0.499986 0.525302 0.806179 0 0 0.000366211
24 1 0.749986 0.381239 0.682598 0 0 -0.000452042
25 1 0.999986 0.881239 0.682598 0 0 -0.000482559
26 1 0.249986 0.025302 0.806179 0 0 0.000371933
27 1 0.749986 0.025302 0.806179 0 0 0.000371933
28 1 0.499986 0.881239 0.682598 0 0 -0.000482559
29 1 0.249986 0.338094 0.92958 0 0 -0.000268936
30 1 0.749986 0.338094 0.92958 0 0 -0.000268936
31 1 0.999986 0.838095 0.92958 0 0 -0.000263214
32 1 0.499986 0.838095 0.92958 0 0 -0.000263214
ITEM: TIMESTEP
7
ITEM: NUMBER OF ATOMS
32
ITEM: BOX BOUNDS xy xz yz pp pp pp
-4.0532350540161133e-03 6.4008854031562805e+00 0.0000000000000000e+00
-9.1640949249267578e-03 6.4972743988037109e+00 0.0000000000000000e+00
-4.7960281372070312e-02 2.0773346722126007e+01 9.6767914295196533e-01
ITEM: ATOMS id type xs ys zs fx fy fz
1 1 0.999986 0.654817 0.0649211 0 0 0.000278473
2 1 0.499986 0.654817 0.0649211 0 0 0.000278473
3 1 0.249986 0.154817 0.0649216 0 0 0.000274658
4 1 0.749986 0.154817 0.0649216 0 0 0.000274658
5 1 0.999986 0.611679 0.311903 0 0 0.000453949
6 1 0.249986 0.467613 0.188322 0 0 -0.000385284
7 1 0.749986 0.467613 0.188322 0 0 -0.000385284
8 1 0.499986 0.611679 0.311903 0 0 0.000453949
9 1 0.999986 0.967611 0.188323 0 0 -0.000391006
10 1 0.249986 0.11168 0.311903 0 0 0.000484467
11 1 0.499986 0.967611 0.188323 0 0 -0.000391006
12 1 0.749986 0.11168 0.311903 0 0 0.000484467
13 1 0.999986 0.568489 0.559035 0 0 0.000112534
14 1 0.499986 0.568489 0.559035 0 0 0.000112534
15 1 0.249986 0.0684878 0.559035 0 0 0.000112534
16 1 0.749986 0.0684878 0.559035 0 0 0.000112534
17 1 0.249986 0.424434 0.435467 0 0 -9.91821e-05
18 1 0.749986 0.424434 0.435467 0 0 -9.91821e-05
19 1 0.999986 0.924434 0.435467 0 0 -0.000112534
20 1 0.499986 0.924434 0.435467 0 0 -0.000112534
21 1 0.999986 0.525302 0.806179 0 0 0.000366211
22 1 0.249986 0.381239 0.682598 0 0 -0.000452042
23 1 0.499986 0.525302 0.806179 0 0 0.000366211
24 1 0.749986 0.381239 0.682598 0 0 -0.000452042
25 1 0.999986 0.881239 0.682598 0 0 -0.000482559
26 1 0.249986 0.025302 0.806179 0 0 0.000371933
27 1 0.749986 0.025302 0.806179 0 0 0.000371933
28 1 0.499986 0.881239 0.682598 0 0 -0.000482559
29 1 0.249986 0.338094 0.92958 0 0 -0.000268936
30 1 0.749986 0.338094 0.92958 0 0 -0.000268936
31 1 0.999986 0.838095 0.92958 0 0 -0.000263214
32 1 0.499986 0.838095 0.92958 0 0 -0.000263214
