LAMMPS (4 May 2022)
Reading data file ...
  triclinic box = (0 0 0) to (12.4447 12.4447 12.4447) with tilt (0 0 0)
  1 by 2 by 2 MPI processor grid
  reading atoms ...
  192 atoms
  read_data CPU = 0.001 seconds
Replicating atoms ...
  triclinic box = (0 0 0) to (24.8894 24.8894 24.8894) with tilt (0 0 0)
  1 by 2 by 2 MPI processor grid
  1536 atoms
  replicate CPU = 0.000 seconds
nh nw 0: 229 3 
nh nw 1: 50176 3 
nh nw 2: 50176 3 
nh nw 3: 4096 4 
nh nw 4: 4096 4 
nh nw 5: 32768 8 
nh nw 0: 229 3 
nh nw 1: 50176 3 
nh nw 2: 50176 3 
nh nw 3: 4096 4 
nh nw 4: 4096 4 
nh nw 5: 32768 8 
nh nw 6: 32768 8 
rcut 50331648 
nh nw 0: 229 3 
nh nw 1: 50176 3 
nh nw 2: 50176 3 
nh nw 3: 4096 4 
nh nw 4: 4096 4 
nh nw 5: 32768 8 
nh nw 6: 32768 8 
rcut 50331648 
nh nw 0: 229 3 
nh nw 1: 50176 3 
nh nw 2: 50176 3 
nh nw 3: 4096 4 
nh nw 4: 4096 4 
nh nw 5: 32768 8 
nh nw 6: 32768 8 
rcut 50331648 
nh nw 6: 32768 8 
rcut 50331648 
Generated 0 of 1 mixed pair_coeff terms from geometric mixing rule
Neighbor list info ...
  update every 20 steps, delay 0 steps, check no
  max neighbors/atom: 2000, page size: 100000
  master list distance cutoff = 8
  ghost atom cutoff = 8
  binsize = 4, bins = 7 7 7
  2 neighbor lists, perpetual/occasional/extra = 1 1 0
  (1) pair mdpu, perpetual
      attributes: full, newton on
      pair build: full/bin/atomonly
      stencil: full/bin/3d
      bin: standard
  (2) compute rdf, occasional, copy from (1)
      attributes: full, newton on
      pair build: copy
      stencil: none
      bin: none
Setting up Verlet run ...
  Unit style    : metal
  Current step  : 0
  Time step     : 0.0005
Per MPI rank memory allocation (min/avg/max) = 2.698 | 2.698 | 2.698 Mbytes
   Step         PotEng         KinEng         TotEng          Temp          Press          Volume    
         0   8868.535       65.476726      8934.0118      330            211.29098      15418.541    
       200   8982.7193      63.321943      9046.0412      319.13998     -1113.0479      15418.541    
       400   8982.1426      64.106944      9046.2496      323.09635     -1162.1105      15418.541    
       600   9030.4077      64.13769       9094.5454      323.25131      766.31119      15418.541    
       800   8998.79        64.15884       9062.9488      323.35791     -1554.6528      15418.541    
      1000   9014.3618      65.128879      9079.4907      328.24686     -3430.3242      15418.541    
      1200   8872.5934      63.623546      8936.217       320.66005     -2248.1045      15418.541    
      1400   8823.8657      65.077269      8888.9429      327.98675     -2508.5348      15418.541    
      1600   8856.3896      65.156453      8921.546       328.38584     -2045.384       15418.541    
      1800   9062.5219      67.452894      9129.9748      339.95981     -756.0967       15418.541    
      2000   8887.53        66.706424      8954.2364      336.19762      670.06354      15418.541    
      2200   8935.2384      67.10437       9002.3427      338.20326     -2117.8124      15418.541    
      2400   8887.0048      67.39168       8954.3964      339.65129     -752.28231      15418.541    
      2600   9031.5817      66.801953      9098.3836      336.67909     -3299.4494      15418.541    
      2800   8855.4419      66.90093       8922.3428      337.17793      5.311983       15418.541    
      3000   8967.7141      66.504568      9034.2187      335.18028      95.953621      15418.541    
      3200   8920.8371      65.241786      8986.0789      328.81591     -2085.2237      15418.541    
      3400   8903.9875      65.957414      8969.9449      332.42265     -2007.8303      15418.541    
      3600   8872.3896      65.33052       8937.7201      329.26313      1530.7167      15418.541    
      3800   8920.9493      64.546853      8985.4961      325.31348     -295.52005      15418.541    
      4000   8872.5035      64.72503       8937.2286      326.21148      1034.2953      15418.541    
      4200   8951.2823      65.593074      9016.8753      330.58639     -1731.2743      15418.541    
      4400   8950.6313      65.89451       9016.5258      332.10561     -718.18424      15418.541    
      4600   8903.5204      64.674917      8968.1953      325.95891     -966.32038      15418.541    
      4800   8966.2743      65.584445      9031.8588      330.5429      -1310.2503      15418.541    
      5000   8902.948       64.577111      8967.5251      325.46598     -492.15332      15418.541    
      5200   8899.0974      68.08095       8967.1783      343.12518      2122.0853      15418.541    
      5400   8949.7403      65.088112      9014.8285      328.0414       258.28221      15418.541    
      5600   8933.0782      65.34367       8998.4219      329.3294      -1867.4257      15418.541    
      5800   8919.0094      63.063653      8982.073       317.83821     -613.33578      15418.541    
      6000   8932.1177      65.532181      8997.6499      330.27949     -1767.0628      15418.541    
      6200   8933.8747      63.389744      8997.2644      319.48169     -2732.3403      15418.541    
      6400   8996.0756      64.76892       9060.8445      326.43269     -1562.9023      15418.541    
      6600   9043.6089      64.76495       9108.3738      326.41267     -2985.3426      15418.541    
      6800   8900.9328      62.949275      8963.8821      317.26175      263.20251      15418.541    
      7000   9011.77        63.70124       9075.4713      321.05162     -3574.2352      15418.541    
      7200   8867.6285      63.56024       8931.1887      320.34099     -2294.917       15418.541    
      7400   8964.0876      63.026186      9027.1137      317.64938     -984.45061      15418.541    
      7600   8930.9278      64.331011      8995.2588      324.22564     -446.49671      15418.541    
      7800   9027.3388      64.257866      9091.5967      323.85699      337.01317      15418.541    
      8000   8997.6537      62.504409      9060.1581      315.01964     -2680.7654      15418.541    
      8200   8757.7967      63.064814      8820.8615      317.84406     -1576.966       15418.541    
      8400   8918.1195      63.571969      8981.6914      320.4001      -1105.7138      15418.541    
      8600   8902.1562      64.363819      8966.52        324.39099     -516.91384      15418.541    
      8800   8918.8959      64.271776      8983.1677      323.9271       598.44516      15418.541    
      9000   8949.932       65.717556      9015.6495      331.21377      1010.2547      15418.541    
      9200   8886.6355      65.405344      8952.0408      329.64023     -3430.838       15418.541    
      9400   9046.3361      66.025553      9112.3617      332.76607     -2171.1394      15418.541    
      9600   8822.8215      65.851281      8888.6728      331.88774     -2125.9752      15418.541    
      9800   8887.7976      65.152431      8952.95        328.36557     -2017.8803      15418.541    
     10000   8902.7414      66.50151       8969.2429      335.16487     -1154.2704      15418.541    
     10200   9062.6709      66.843682      9129.5146      336.8894      -1841.9532      15418.541    
     10400   8888.4464      65.322427      8953.7689      329.22234      2005.7606      15418.541    
     10600   8872.0344      65.919051      8937.9535      332.2293       28.827032      15418.541    
     10800   9048.5486      65.540594      9114.0892      330.32189     -2324.8406      15418.541    
     11000   8904.886       65.302445      8970.1885      329.12163     -3552.2682      15418.541    
     11200   8889.7877      64.475715      8954.2634      324.95494      727.89956      15418.541    
     11400   8809.5557      64.729546      8874.2852      326.23424      1862.5314      15418.541    
     11600   8871.6652      66.536074      8938.2013      335.33907     -2248.4966      15418.541    
     11800   9064.1119      65.982954      9130.0949      332.55136     -2643.6348      15418.541    
     12000   8934.0948      67.749862      9001.8447      341.45651     -1728.2431      15418.541    
     12200   8824.243       65.243595      8889.4866      328.82503      1208.0801      15418.541    
     12400   9032.3254      64.630571      9096.956       325.73541      2641.9496      15418.541    
     12600   9046.0844      66.186384      9112.2708      333.57665     -437.51752      15418.541    
     12800   8886.3989      65.055506      8951.4544      327.87707     -2461.8552      15418.541    
     13000   8998.7799      63.988414      9062.7683      322.49897     -754.25749      15418.541    
     13200   8996.2388      65.980403      9062.2192      332.53851      661.40254      15418.541    
     13400   8997.5461      64.242675      9061.7888      323.78043      1183.1025      15418.541    
     13600   8821.3507      64.185523      8885.5362      323.49239      1393.3855      15418.541    
     13800   8790.9469      62.522672      8853.4696      315.11169     -900.82195      15418.541    
     14000   8805.7178      63.907476      8869.6252      322.09104     -1459.271       15418.541    
     14200   8903.0962      62.8497        8965.9459      316.75989     -2282.5489      15418.541    
     14400   8855.3364      63.089544      8918.4259      317.9687      -1687.5649      15418.541    
     14600   8950.049       64.907718      9014.9567      327.13222      664.48867      15418.541    
     14800   8951.3478      64.201914      9015.5497      323.575       -1676.6585      15418.541    
     15000   8951.4505      64.612722      9016.0633      325.64545     -192.64346      15418.541    
     15200   8887.2923      65.186496      8952.4788      328.53725     -1530.7638      15418.541    
     15400   9000.4758      64.346695      9064.8225      324.30469     -1798.8139      15418.541    
     15600   8983.6333      65.489364      9049.1227      330.06369     -2058.948       15418.541    
     15800   9064.9592      64.410676      9129.3699      324.62715     -948.52744      15418.541    
     16000   9017.4447      64.19333       9081.638       323.53173     -2106.2032      15418.541    
     16200   8887.3681      66.476597      8953.8447      335.03931      611.54233      15418.541    
     16400   8873.5861      64.508296      8938.0944      325.11915     -868.24534      15418.541    
     16600   8937.2451      65.121849      9002.367       328.21143     -131.7797       15418.541    
     16800   8873.1177      65.542025      8938.6598      330.3291       1398.1377      15418.541    
     17000   8951.599       67.359203      9018.9582      339.4876      -1134.9417      15418.541    
     17200   9000.314       66.861892      9067.1759      336.98118     -1739.4698      15418.541    
     17400   8985.9208      65.353054      9051.2738      329.3767      -830.18988      15418.541    
     17600   8747.1123      64.262392      8811.3746      323.8798       1624.6151      15418.541    
     17800   8968.4921      66.998101      9035.4902      337.66767     -2662.3559      15418.541    
     18000   8744.5494      66.934669      8811.4841      337.34797     -1114.7732      15418.541    
     18200   8920.5428      66.916456      8987.4593      337.25618      369.64039      15418.541    
     18400   8858.9387      64.482608      8923.4214      324.98968      1033.3738      15418.541    
     18600   8746.7007      64.612643      8811.3133      325.64505     -2879.7126      15418.541    
     18800   9032.8001      66.381808      9099.1819      334.56157     -72.10793       15418.541    
     19000   8825.0046      66.124738      8891.1293      333.26595     -2196.2341      15418.541    
     19200   9031.9475      67.020048      9098.9676      337.77828     -1040.096       15418.541    
     19400   8970.9781      63.7441        9034.7222      321.26763     -2985.2278      15418.541    
     19600   8968.3638      66.061099      9034.4249      332.94521     -3178.1468      15418.541    
     19800   8921.0201      65.13309       8986.1531      328.26809     -618.5374       15418.541    
     20000   8809.4161      64.462894      8873.879       324.89033      1209.3399      15418.541    
     20200   8793.6863      63.914177      8857.6005      322.12481     -2946.1427      15418.541    
     20400   8760.6541      64.765768      8825.4199      326.4168      -111.49312      15418.541    
     20600   8839.47        65.830422      8905.3005      331.78261     -1363.0917      15418.541    
     20800   9015.1751      66.095348      9081.2704      333.11783     -468.47037      15418.541    
     21000   8794.5202      62.767674      8857.2879      316.34649      1496.2892      15418.541    
     21200   8982.791       66.485695      9049.2767      335.08516     -5.1243451      15418.541    
     21400   8889.1502      64.262792      8953.413       323.88182      1768.6798      15418.541    
     21600   8856.1182      65.420447      8921.5386      329.71635     -36.653388      15418.541    
     21800   8937.8869      63.829138      9001.7161      321.69622     -244.74125      15418.541    
     22000   8905.703       64.371493      8970.0745      324.42967     -16.897235      15418.541    
     22200   8841.8048      64.815573      8906.6204      326.66781     -1185.514       15418.541    
     22400   8999.6783      67.579788      9067.2581      340.59934     -821.04607      15418.541    
     22600   9065.3704      66.548484      9131.9189      335.40162     -2169.8615      15418.541    
     22800   8906.0416      66.38897       8972.4306      334.59767     -1086.2037      15418.541    
     23000   8952.5023      68.373795      9020.8761      344.60111      396.19148      15418.541    
     23200   8954.0945      67.1259        9021.2204      338.31177      87.948296      15418.541    
     23400   8890.7469      66.638773      8957.3856      335.85666     -1303.2781      15418.541    
     23600   8731.5856      65.871522      8797.4572      331.98975      24.872323      15418.541    
     23800   8809.7181      67.73062       8877.4487      341.35953      889.66527      15418.541    
     24000   8937.6201      67.701324      9005.3214      341.21188     -186.60684      15418.541    
     24200   8874.6382      66.456044      8941.0943      334.93572     -1001.9457      15418.541    
     24400   8890.3858      66.354303      8956.7401      334.42295     -512.96467      15418.541    
     24600   8889.0293      67.255024      8956.2844      338.96255      1875.0915      15418.541    
     24800   8938.8547      64.878832      9003.7335      326.98664     -1251.0286      15418.541    
     25000   8825.1753      65.853213      8891.0285      331.89748     -794.27475      15418.541    
     25200   8951.6317      66.601576      9018.2333      335.66919     -2797.088       15418.541    
     25400   8824.9708      64.43237       8889.4032      324.73649      2280.3136      15418.541    
     25600   8853.8871      66.743754      8920.6308      336.38577      386.34811      15418.541    
     25800   8935.0516      64.993662      9000.0453      327.56538      2488.7315      15418.541    
     26000   8904.3594      63.331715      8967.6911      319.18923      811.89425      15418.541    
     26200   8853.977       65.537935      8919.515       330.30849     -641.3338       15418.541    
     26400   9061.6457      65.789292      9127.435       331.57532     -2251.5851      15418.541    
     26600   8918.2737      65.128022      8983.4017      328.24255     -1142.2233      15418.541    
     26800   8948.2977      67.10125       9015.399       338.18753      95.489872      15418.541    
     27000   9012.0001      67.405209      9079.4053      339.71947     -690.06474      15418.541    
     27200   8980.6849      66.653812      9047.3387      335.93246      2266.7662      15418.541    
     27400   8984.1015      63.134282      9047.2358      318.19418     -3146.6818      15418.541    
     27600   8838.4839      64.717567      8903.2015      326.17387     -2043.5383      15418.541    
     27800   8966.5385      64.74089       9031.2794      326.29142     -1609.5246      15418.541    
     28000   8838.4179      64.905346      8903.3233      327.12027      562.1641       15418.541    
     28200   8950.6685      64.768069      9015.4366      326.4284      -738.91379      15418.541    
     28400   8839.1156      64.491003      8903.6066      325.03199      1918.2239      15418.541    
     28600   8948.8071      66.947607      9015.7547      337.41317     -621.09181      15418.541    
     28800   9013.7743      66.060338      9079.8346      332.94138     -488.46796      15418.541    
     29000   8886.2486      65.680662      8951.9293      331.02783      73.489541      15418.541    
     29200   8916.7489      67.291518      8984.0404      339.14648      131.20763      15418.541    
     29400   8903.1138      65.083173      8968.1969      328.01651      230.48273      15418.541    
     29600   9030.8791      65.551433      9096.4305      330.37652     -297.28819      15418.541    
     29800   8934.2248      66.501928      9000.7268      335.16697     -350.51838      15418.541    
     30000   8982.9314      66.164632      9049.096       333.46702     -1144.3658      15418.541    
     30200   8871.8596      65.652948      8937.5126      330.88815     -864.90474      15418.541    
     30400   8807.4151      66.595958      8874.0111      335.64088     -214.97252      15418.541    
     30600   8856.2294      66.268256      8922.4977      333.98928     -2258.0925      15418.541    
     30800   8696.3107      66.67844       8762.9892      336.05659     -359.3284       15418.541    
     31000   8985.354       66.064439      9051.4184      332.96205     -779.19086      15418.541    
     31200   8856.434       67.385272      8923.8193      339.61899      530.82876      15418.541    
     31400   9049.1771      66.942526      9116.1196      337.38757     -1027.5598      15418.541    
     31600   8760.2033      68.125658      8828.329       343.35051     -722.22327      15418.541    
     31800   8841.7761      66.66291       8908.4391      335.97832     -623.99122      15418.541    
     32000   8921.4787      66.987357      8988.466       337.61352      621.43702      15418.541    
     32200   8920.4841      67.903024      8988.3871      342.22844      561.9911       15418.541    
     32400   9033.6616      66.448168      9100.1098      334.89603     -2649.0935      15418.541    
     32600   8857.6418      66.107931      8923.7497      333.18125     -817.27544      15418.541    
     32800   8824.9864      66.222045      8891.2084      333.75637     -1683.0886      15418.541    
     33000   8904.5144      65.879069      8970.3934      332.02779      775.22361      15418.541    
     33200   8775.7096      65.700428      8841.4101      331.12745      1789.2353      15418.541    
     33400   8840.4963      64.034726      8904.531       322.73238     -1925.1611      15418.541    
     33600   8886.1631      65.736234      8951.8993      331.30791      81.664915      15418.541    
     33800   8967.0073      64.501903      9031.5092      325.08693      193.41064      15418.541    
     34000   8998.3661      64.902803      9063.2689      327.10745     -622.01499      15418.541    
     34200   8822.7408      64.432637      8887.1734      324.73783      803.75967      15418.541    
     34400   8998.2256      65.000766      9063.2263      327.60118     -1450.7678      15418.541    
     34600   8888.964       62.432263      8951.3963      314.65603      564.22878      15418.541    
     34800   8856.8065      62.87464       8919.6811      316.88559     -7.6473255      15418.541    
     35000   8887.9142      64.173609      8952.0878      323.43234     -1196.0656      15418.541    
     35200   8838.309       66.263467      8904.5725      333.96514     -1910.6248      15418.541    
     35400   8871.4559      65.564944      8937.0208      330.44461     -2569.0529      15418.541    
     35600   9032.2138      65.259123      9097.4729      328.90329     -2900.5903      15418.541    
     35800   9000.4621      65.399809      9065.8619      329.61234     -2022.2426      15418.541    
     36000   8888.9431      65.293047      8954.2361      329.07427     -1902.8772      15418.541    
     36200   8920.8924      65.72565       8986.618       331.25456     -198.47498      15418.541    
     36400   8905.6631      65.271763      8970.9348      328.96699     -707.37949      15418.541    
     36600   8825.8368      65.301898      8891.1387      329.11887      1229.169       15418.541    
     36800   8824.297       67.016117      8891.3132      337.75846      464.36604      15418.541    
     37000   8986.7009      64.735542      9051.4364      326.26446     -2490.38        15418.541    
     37200   8905.503       66.030223      8971.5332      332.7896       52.774219      15418.541    
     37400   8921.248       66.359876      8987.6079      334.45104     -630.129        15418.541    
     37600   8697.6092      66.066153      8763.6753      332.97069     -755.28171      15418.541    
     37800   8840.7588      66.903786      8907.6626      337.19232     -1155.6826      15418.541    
     38000   8954.4451      65.155323      9019.6004      328.38014     -2656.1778      15418.541    
     38200   8874.4854      64.997525      8939.4829      327.58485     -152.85418      15418.541    
     38400   8888.2331      67.106447      8955.3395      338.21372      1649.0438      15418.541    
     38600   8888.7797      66.317594      8955.0973      334.23794     -2406.3687      15418.541    
     38800   8778.1431      64.699183      8842.8423      326.08121     -985.4779       15418.541    
     39000   8825.1091      65.460735      8890.5698      329.9194       23.160733      15418.541    
     39200   9033.4581      64.779205      9098.2373      326.48452      182.41817      15418.541    
     39400   8760.3295      65.447252      8825.7768      329.85145      1601.3481      15418.541    
     39600   8792.8116      64.162589      8856.9742      323.3768      -460.76965      15418.541    
     39800   8934.2396      65.518361      8999.7579      330.20984     -3862.1215      15418.541    
     40000   8917.7497      64.810092      8982.5598      326.64019     -1019.3216      15418.541    
     40200   8791.061       62.632487      8853.6934      315.66515      2747.9847      15418.541    
     40400   8902.1551      63.024672      8965.1798      317.64175     -2240.2703      15418.541    
     40600   8933.8229      63.093329      8996.9162      317.98777     -3109.6544      15418.541    
     40800   8931.1748      65.661479      8996.8362      330.93114      1091.3946      15418.541    
     41000   8899.5158      65.33471       8964.8506      329.28424     -237.66665      15418.541    
     41200   8901.392       63.571716      8964.9638      320.39882      1212.2489      15418.541    
     41400   8822.0206      63.176452      8885.197       318.40671     -2364.2202      15418.541    
     41600   8933.0954      64.506115      8997.6015      325.10816     -1493.6586      15418.541    
     41800   8805.9671      64.180862      8870.1479      323.4689       1331.9472      15418.541    
     42000   9012.9259      65.841365      9078.7672      331.83776     -1070.0889      15418.541    
     42200   8822.333       65.061731      8887.3947      327.90844     -896.26457      15418.541    
     42400   8807.6135      64.340375      8871.9539      324.27284      616.80306      15418.541    
     42600   8759.8469      64.634663      8824.4816      325.75604      2721.4942      15418.541    
     42800   8904.4505      64.496086      8968.9466      325.05761      731.53385      15418.541    
     43000   8952.8023      64.554227      9017.3566      325.35064      144.12314      15418.541    
     43200   8903.7293      65.992895      8969.7222      332.60147     -2890.4277      15418.541    
     43400   8855.0014      67.037207      8922.0386      337.86476      628.74001      15418.541    
     43600   8839.9376      66.320749      8906.2583      334.25384     -2208.3369      15418.541    
     43800   8986.2098      64.16296       9050.3727      323.37867     -559.00417      15418.541    
     44000   8937.4029      65.087635      9002.4906      328.039       -12.841187      15418.541    
     44200   8998.397       68.19933       9066.5963      343.72181      2090.8376      15418.541    
     44400   9081.0125      65.710393      9146.7229      331.17767      114.11641      15418.541    
     44600   8874.9067      63.93191       8938.8386      322.21419      1984.8783      15418.541    
     44800   8824.2722      66.641777      8890.914       335.87181      107.92241      15418.541    
     45000   8954.6218      64.430038      9019.0518      324.72473     -1387.1996      15418.541    
     45200   8873.1384      65.978368      8939.1168      332.52825     -3074.7602      15418.541    
     45400   8968.951       66.226128      9035.1771      333.77695     -769.57953      15418.541    
     45600   8905.6247      65.55502       8971.1797      330.3946      -52.06019       15418.541    
     45800   8953.4992      65.662606      9019.1618      330.93682     -641.48054      15418.541    
     46000   8921.1595      65.957729      8987.1173      332.42423     -1799.205       15418.541    
     46200   8921.6888      65.402336      8987.0911      329.62507     -1386.1886      15418.541    
     46400   8905.2235      65.827757      8971.0512      331.76918     -808.35508      15418.541    
     46600   8888.2633      66.740057      8955.0034      336.36714     -502.61041      15418.541    
     46800   8905.7733      65.120487      8970.8937      328.20457     -439.1076       15418.541    
     47000   8921.5103      65.219687      8986.7299      328.70453      99.577171      15418.541    
     47200   8968.0512      66.484461      9034.5356      335.07894      1503.6516      15418.541    
     47400   8920.8364      65.556776      8986.3932      330.40345     -1274.7568      15418.541    
     47600   8922.4339      63.804379      8986.2383      321.57144      79.765807      15418.541    
     47800   8888.7127      65.409551      8954.1222      329.66144     -758.11945      15418.541    
     48000   8890.7683      63.292036      8954.0604      318.98925     -122.24734      15418.541    
     48200   8824.0419      65.925455      8889.9674      332.26157     -45.494216      15418.541    
     48400   8904.0703      65.818172      8969.8885      331.72087      490.53358      15418.541    
     48600   8921.4679      64.314514      8985.7825      324.1425      -1184.0606      15418.541    
     48800   8856.0625      65.582613      8921.6451      330.53366     -582.90599      15418.541    
     49000   8950.9493      66.556345      9017.5056      335.44123     -2508.2962      15418.541    
     49200   8918.5374      66.776434      8985.3139      336.55047     -1796.0097      15418.541    
     49400   8903.5281      65.439075      8968.9672      329.81024      269.22607      15418.541    
     49600   8760.2018      64.327442      8824.5292      324.20765      1632.1302      15418.541    
     49800   8982.7763      65.32253       9048.0988      329.22285      931.10034      15418.541    
     50000   8838.4005      65.274682      8903.6752      328.98171      1042.4565      15418.541    
     50200   8966.8038      64.432617      9031.2364      324.73773     -1327.6693      15418.541    
     50400   8887.5553      63.336388      8950.8917      319.21278     -1510.4394      15418.541    
     50600   8933.6202      64.973638      8998.5938      327.46446      1686.6659      15418.541    
     50800   8823.9111      62.405085      8886.3162      314.51905      2672.4129      15418.541    
     51000   8822.1592      63.930445      8886.0897      322.2068      -1658.0502      15418.541    
     51200   8916.8182      65.190884      8982.009       328.55936     -27.709864      15418.541    
     51400   8902.3252      63.626031      8965.9512      320.67257      1303.556       15418.541    
     51600   9030.6091      63.431188      9094.0403      319.69057      988.4374       15418.541    
     51800   9012.1405      66.076819      9078.2173      333.02444      600.4202       15418.541    
     52000   9013.7107      64.874248      9078.585       326.96353      559.20165      15418.541    
     52200   8854.0673      65.13536       8919.2027      328.27953      21.466371      15418.541    
     52400   8824.723       63.365291      8888.0882      319.35845     -2055.4408      15418.541    
     52600   8920.948       64.145871      8985.0939      323.29254     -243.98994      15418.541    
     52800   8791.1168      66.891007      8858.0078      337.12792      1033.69        15418.541    
     53000   8905.2042      65.410252      8970.6144      329.66497     -1422.9322      15418.541    
     53200   8842.8015      64.196532      8906.998       323.54787     -3318.6183      15418.541    
     53400   8923.3388      64.008249      8987.347       322.59894     -1603.8586      15418.541    
     53600   8793.2674      66.417765      8859.6852      334.7428      -72.035263      15418.541    
     53800   8809.9785      66.011473      8875.9899      332.6951       556.68644      15418.541    
     54000   8748.7634      63.4722        8812.2356      319.89727     -1223.5417      15418.541    
     54200   8826.9338      65.456874      8892.3906      329.89994     -1375.9356      15418.541    
     54400   8825.9505      66.561854      8892.5123      335.469       -332.04281      15418.541    
     54600   8956.0309      64.626165      9020.6571      325.71321     -2017.1153      15418.541    
     54800   8810.3596      66.472372      8876.8319      335.01801      230.61623      15418.541    
     55000   8922.6702      66.366265      8989.0365      334.48324     -2484.505       15418.541    
     55200   8796.8002      64.391067      8861.1913      324.52832     -332.78571      15418.541    
     55400   8731.4984      65.831427      8797.3299      331.78768     -1788.5584      15418.541    
     55600   8859.7507      65.655053      8925.4057      330.89876      321.92422      15418.541    
     55800   8987.3182      66.19006       9053.5082      333.59517     -1332.1359      15418.541    
     56000   8825.61        67.900892      8893.5109      342.2177      -2105.1313      15418.541    
     56200   8890.3724      67.043441      8957.4159      337.89618     -305.09201      15418.541    
     56400   8843.2468      65.997561      8909.2444      332.62498     -2376.6057      15418.541    
     56600   8649.3489      67.614428      8716.9633      340.77393     -364.47115      15418.541    
     56800   8971.4397      65.091454      9036.5312      328.05824      832.17668      15418.541    
     57000   8857.6922      66.27508       8923.9673      334.02367     -1391.0826      15418.541    
     57200   8760.8588      66.43165       8827.2904      334.81278     -814.88845      15418.541    
     57400   8886.7123      67.864333      8954.5766      342.03344     -3235.3121      15418.541    
     57600   8935.9422      66.00673       9001.9489      332.67119     -2884.626       15418.541    
     57800   8874.6083      62.905878      8937.5142      317.04303      89.655923      15418.541    
     58000   8794.0253      63.197841      8857.2231      318.51451     -580.14555      15418.541    
     58200   8873.7525      63.340224      8937.0927      319.23212     -943.30076      15418.541    
     58400   8953.8943      63.182565      9017.0768      318.43752     -3184.5983      15418.541    
     58600   8808.2791      64.872938      8873.1521      326.95693     -1698.1884      15418.541    
     58800   8777.0167      64.352547      8841.3693      324.33418     -868.01681      15418.541    
     59000   8951.3284      66.301352      9017.6298      334.15608     -499.0087       15418.541    
     59200   8906.0067      63.915813      8969.9225      322.13306     -71.599898      15418.541    
     59400   8873.117       65.168511      8938.2855      328.44661     -1474.7416      15418.541    
     59600   8937.5202      65.234786      9002.755       328.78063     -660.9615       15418.541    
     59800   8793.6067      65.736986      8859.3436      331.3117       160.43322      15418.541    
     60000   8971.8175      64.161076      9035.9786      323.36918     -3700.7438      15418.541    
     60200   8891.4432      65.212777      8956.656       328.6697      -2489.8494      15418.541    
     60400   8956.5816      64.739725      9021.3213      326.28554     -2623.6663      15418.541    
     60600   8747.0244      66.847235      8813.8716      336.9073      -667.84903      15418.541    
     60800   8860.1234      66.145806      8926.2692      333.37213     -359.50193      15418.541    
     61000   8860.2612      66.297518      8926.5588      334.13675      5.0639891      15418.541    
     61200   8938.8306      67.807324      9006.638       341.74611     -926.88216      15418.541    
     61400   8892.1432      66.448638      8958.5918      334.8984      -535.01939      15418.541    
     61600   8889.3523      69.054495      8958.4068      348.03181      2324.2982      15418.541    
     61800   8828.2382      65.868206      8894.1065      331.97304     -1108.6948      15418.541    
     62000   8985.4787      68.334258      9053.813       344.40184     -1654.0524      15418.541    
     62200   8923.4965      66.000683      8989.4972      332.64072     -3000.3033      15418.541    
     62400   8956.2491      64.94664       9021.1958      327.32839     -1086.9448      15418.541    
     62600   8859.1569      65.785622      8924.9425      331.55682     -876.18231      15418.541    
     62800   8810.0847      66.60464       8876.6894      335.68464     -1222.1511      15418.541    
     63000   8986.5108      65.886204      9052.397       332.06375     -390.76598      15418.541    
     63200   8922.8669      65.17151       8988.0385      328.46172     -2368.5485      15418.541    
     63400   9049.5068      66.175877      9115.6827      333.52369     -1114.5265      15418.541    
     63600   8905.0369      66.215682      8971.2526      333.72431     -529.57341      15418.541    
     63800   8954.5902      64.268685      9018.8589      323.91152     -2921.5028      15418.541    
     64000   8873.6632      64.88503       8938.5482      327.01787     -593.65443      15418.541    
     64200   8793.377       64.96139       8858.3384      327.40272     -1456.6622      15418.541    
     64400   9001.5284      64.621082      9066.1495      325.68759      785.72461      15418.541    
     64600   8793.1392      64.879799      8858.019       326.99151     -182.95534      15418.541    
     64800   8826.5337      63.366546      8889.9003      319.36478      1788.2207      15418.541    
     65000   8953.6883      64.140901      9017.8292      323.2675      -2209.846       15418.541    
     65200   8952.5149      65.249882      9017.7648      328.85672      436.55372      15418.541    
     65400   8954.2457      63.371771      9017.6174      319.39111     -829.61927      15418.541    
     65600   8922.3607      63.10792       8985.4686      318.06131     -976.91165      15418.541    
     65800   8809.0924      64.23421       8873.3266      323.73777     -1071.4959      15418.541    
     66000   8938.1419      63.10522       9001.2471      318.04771     -2253.1246      15418.541    
     66200   8857.0604      64.127106      8921.1875      323.19797      735.01804      15418.541    
     66400   8856.1024      65.148244      8921.2506      328.34446     -3823.5442      15418.541    
     66600   9049.2561      64.236121      9113.4922      323.7474      -1207.4568      15418.541    
     66800   8903.9183      65.941287      8969.8595      332.34137     -400.47956      15418.541    
     67000   8905.0087      65.332987      8970.3417      329.27556     -723.164        15418.541    
     67200   9015.9618      66.891637      9082.8534      337.13109     -2985.9858      15418.541    
     67400   9096.3019      67.040814      9163.3427      337.88294      211.26381      15418.541    
     67600   8811.1214      64.701845      8875.8232      326.09463     -788.05226      15418.541    
     67800   8841.9541      66.385785      8908.3399      334.58162     -1695.254       15418.541    
     68000   8906.1256      66.645967      8972.7716      335.89292     -2224.6382      15418.541    
     68200   8937.2589      67.92949       9005.1884      342.36182     -1865.0173      15418.541    
     68400   8906.3809      67.079001      8973.4599      338.0754       587.61578      15418.541    
     68600   8925.1763      64.517706      8989.694       325.16658     -2312.6811      15418.541    
     68800   8956.2159      65.643913      9021.8598      330.84262      586.14185      15418.541    
     69000   8923.4478      66.556806      8990.0046      335.44356      2146.9722      15418.541    
     69200   8909.4847      64.583967      8974.0687      325.50053     -725.19898      15418.541    
     69400   8828.1029      65.953509      8894.0564      332.40296     -522.49909      15418.541    
     69600   8972.0593      65.868529      9037.9278      331.97467     -1253.9818      15418.541    
     69800   8779.491       66.261503      8845.7525      333.95524      290.49683      15418.541    
     70000   8859.848       65.676384      8925.5243      331.00627     -2782.0782      15418.541    
     70200   8827.6297      65.577628      8893.2074      330.50854      360.46604      15418.541    
     70400   8765.1118      63.639302      8828.7511      320.73946      1030.6998      15418.541    
     70600   8906.9656      65.222795      8972.1884      328.72019     -1690.3183      15418.541    
     70800   8826.6478      64.915222      8891.563       327.17004     -3113.2526      15418.541    
     71000   8825.6541      65.32674       8890.9809      329.24407     -1975.4396      15418.541    
     71200   8874.1502      64.274471      8938.4246      323.94068     -1908.9886      15418.541    
     71400   8921.3354      64.573117      8985.9085      325.44585      206.35174      15418.541    
     71600   8922.9385      62.553126      8985.4917      315.26518     -2050.4369      15418.541    
     71800   8872.0032      65.190282      8937.1935      328.55633     -573.9677       15418.541    
     72000   8775.88        65.129691      8841.0097      328.25095     -2155.9575      15418.541    
     72200   8857.5807      63.351403      8920.9321      319.28846      45.02003       15418.541    
     72400   8985.1242      63.76748       9048.8917      321.38547     -1005.1352      15418.541    
     72600   8984.7833      64.151332      9048.9346      323.32007     -149.73545      15418.541    
     72800   8888.7247      64.376083      8953.1008      324.4528      -728.84109      15418.541    
     73000   8985.4533      63.971549      9049.4249      322.41397     -2653.7598      15418.541    
     73200   8969.059       64.911273      9033.9703      327.15014     -1823.7479      15418.541    
     73400   8889.7801      65.031879      8954.812       327.75799      980.60066      15418.541    
     73600   8810.6618      65.176295      8875.8381      328.48584     -2818.4811      15418.541    
     73800   8874.6         66.232287      8940.8323      333.808        268.79362      15418.541    
     74000   8986.8776      66.641196      9053.5188      335.86888     -4247.3944      15418.541    
     74200   9099.677       66.244128      9165.9211      333.86767     -2061.2895      15418.541    
     74400   8876.8267      65.312358      8942.1391      329.17159     -716.37516      15418.541    
     74600   8826.8314      67.384532      8894.2159      339.61526     -517.86509      15418.541    
     74800   8844.2285      65.970965      8910.1995      332.49094     -925.33895      15418.541    
     75000   8938.0143      68.044426      9006.0587      342.9411      -1436.7252      15418.541    
     75200   8842.3023      67.597073      8909.8994      340.68646     -2651.8859      15418.541    
     75400   9002.8576      66.832585      9069.6901      336.83347     -162.18285      15418.541    
     75600   8922.81        66.558294      8989.3683      335.45106     -1140.277       15418.541    
     75800   8938.4598      66.510783      9004.9706      335.2116      -2388.0816      15418.541    
     76000   8776.4265      68.063489      8844.49        343.03718     -311.98174      15418.541    
     76200   8937.7297      66.253228      9003.983       333.91354      2286.8251      15418.541    
     76400   8873.3695      66.072361      8939.4418      333.00197     -1490.4752      15418.541    
     76600   8905.2265      65.68033       8970.9068      331.02616      1216.0023      15418.541    
     76800   8954.2026      64.217372      9018.4199      323.65291     -1022.8439      15418.541    
     77000   8936.3659      65.597472      9001.9634      330.60855     -358.67062      15418.541    
     77200   8953.5119      64.099481      9017.6114      323.05874     -2187.8592      15418.541    
     77400   8809.2037      64.220846      8873.4245      323.67041      1947.2094      15418.541    
     77600   8887.8125      65.544464      8953.357       330.34139      1868.1634      15418.541    
     77800   8808.0238      65.345289      8873.3691      329.33756     -81.007464      15418.541    
     78000   8872.1992      65.167594      8937.3667      328.44199     -731.3999       15418.541    
     78200   9032.0735      65.327788      9097.4013      329.24936     -2520.4948      15418.541    
     78400   8889.7595      63.761836      8953.5213      321.35702     -1839.6753      15418.541    
     78600   8986.2737      63.465747      9049.7394      319.86475     -409.65444      15418.541    
     78800   8952.7375      65.316151      9018.0536      329.19071     -1607.2701      15418.541    
     79000   9048.8866      65.464398      9114.351       329.93787      629.41783      15418.541    
     79200   8888.9997      65.541805      8954.5415      330.328       -935.17731      15418.541    
     79400   8906.4923      64.288355      8970.7806      324.01066      229.15878      15418.541    
     79600   8953.8946      65.099911      9018.9945      328.10086      293.29976      15418.541    
     79800   8874.9943      64.261791      8939.2561      323.87678     -1517.7598      15418.541    
     80000   8920.9786      66.568552      8987.5471      335.50276     -362.98981      15418.541    
     80200   8985.2543      66.550061      9051.8044      335.40956      230.12494      15418.541    
     80400   8827.1818      64.79562       8891.9774      326.56725     -1202.6496      15418.541    
     80600   8874.7104      65.342015      8940.0524      329.32106     -2186.4621      15418.541    
     80800   9035.0949      64.999859      9100.0948      327.59661     -3874.5395      15418.541    
     81000   8890.1558      65.99156       8956.1473      332.59474     -3534.5443      15418.541    
     81200   8924.1434      64.095683      8988.2391      323.0396      -1708.9382      15418.541    
     81400   8812.0245      64.307921      8876.3324      324.10927     -2722.1173      15418.541    
     81600   8841.6734      66.724717      8908.3981      336.28982      870.08254      15418.541    
     81800   8861.2553      63.107194      8924.3625      318.05766     -218.41503      15418.541    
     82000   8921.2981      67.024555      8988.3227      337.80099      257.69327      15418.541    
     82200   8984.7609      67.479133      9052.24        340.09205     -2195.8701      15418.541    
     82400   8857.7629      66.330373      8924.0932      334.30234     -887.24215      15418.541    
     82600   8922.4925      65.393538      8987.886       329.58073     -578.13709      15418.541    
     82800   8921.3965      66.254108      8987.6506      333.91797     -1051.4109      15418.541    
     83000   8969.4802      65.873024      9035.3533      331.99732      202.37145      15418.541    
     83200   8809.35        65.647175      8874.9972      330.85905     -633.30373      15418.541    
     83400   8793.8483      64.790396      8858.6387      326.54092     -477.03844      15418.541    
     83600   9097.0111      65.242564      9162.2537      328.81983     -160.69084      15418.541    
     83800   8855.9204      65.963701      8921.8841      332.45433     -446.58082      15418.541    
     84000   8918.1933      67.325645      8985.5189      339.31847     -2970.4216      15418.541    
     84200   8885.3157      67.880429      8953.1962      342.11456     -1266.398       15418.541    
     84400   8889.1019      63.786424      8952.8883      321.48094     -571.74884      15418.541    
     84600   8632.3505      64.230586      8696.5811      323.71951     -39.831638      15418.541    
     84800   8983.1033      65.190746      9048.2941      328.55867     -2952.5082      15418.541    
     85000   8902.2456      65.842347      8968.088       331.84271     -661.16449      15418.541    
     85200   9064.1125      63.865811      9127.9783      321.88105     -231.88288      15418.541    
     85400   8966.1279      65.813918      9031.9418      331.69943     -1098.9762      15418.541    
     85600   8838.1229      65.776748      8903.8997      331.51209     -2086.7406      15418.541    
     85800   8951.9197      64.01669       9015.9364      322.64148      141.24246      15418.541    
     86000   8982.7595      65.242217      9048.0017      328.81808      328.29763      15418.541    
     86200   8997.2629      66.729586      9063.9925      336.31436     -496.98515      15418.541    
     86400   8952.5021      63.504287      9016.0064      320.05898      55.716804      15418.541    
     86600   8839.8711      64.173336      8904.0444      323.43097      821.10353      15418.541    
     86800   8950.3737      65.738652      9016.1123      331.32009     -2031.5125      15418.541    
     87000   8886.8611      65.296415      8952.1575      329.09124      1759.8555      15418.541    
     87200   8790.4703      65.64965       8856.1199      330.87153     -23.63627       15418.541    
     87400   9028.9922      67.100002      9096.0922      338.18124      4.3439482      15418.541    
     87600   8886.1413      65.877042      8952.0184      332.01758     -838.26408      15418.541    
     87800   8871.1722      64.757249      8935.9294      326.37386     -1827.486       15418.541    
     88000   8981.7507      66.117984      9047.8687      333.23191     -223.78025      15418.541    
     88200   8968.2706      63.539024      9031.8096      320.23406      947.92293      15418.541    
     88400   8822.5502      65.226817      8887.7771      328.74046      3708.7156      15418.541    
     88600   8967.3962      64.422775      9031.819       324.68813     -979.98601      15418.541    
     88800   8744.2551      63.588012      8807.8432      320.48096     -641.27153      15418.541    
     89000   8983.8589      64.063318      9047.9222      322.87648      1588.4498      15418.541    
     89200   8983.3589      64.69522       9048.0541      326.06124     -427.12241      15418.541    
     89400   8981.3081      66.89773       9048.2058      337.1618      -1457.8385      15418.541    
     89600   9045.3606      66.967347      9112.3279      337.51267      1680.7036      15418.541    
     89800   8902.7939      65.600161      8968.3941      330.6221       1951.8193      15418.541    
     90000   8966.6189      65.825469      9032.4443      331.75765     -541.71508      15418.541    
     90200   8998.1474      66.398389      9064.5458      334.64514     -201.07282      15418.541    
     90400   8888.705       63.957245      8952.6623      322.34188     -1468.9484      15418.541    
     90600   9016.6213      64.289638      9080.9109      324.01713     -2012.498       15418.541    
     90800   8887.4503      65.819226      8953.2695      331.72618      1444.3202      15418.541    
     91000   8903.4304      66.261756      8969.6922      333.95652     -3155.441       15418.541    
     91200   8856.3398      65.796465      8922.1362      331.61147     -1125.5049      15418.541    
     91400   8903.8923      66.736003      8970.6283      336.3467       230.5999       15418.541    
     91600   8904.1222      66.981858      8971.1041      337.5858      -1518.9193      15418.541    
     91800   8888.665       66.79084       8955.4559      336.62308      323.45961      15418.541    
     92000   8952.6353      67.072782      9019.708       338.04405      920.13411      15418.541    
     92200   8953.3467      66.499735      9019.8464      335.15592     -2415.932       15418.541    
     92400   8950.1503      69.729139      9019.8795      351.43198     -925.93351      15418.541    
     92600   8969.858       65.989034      9035.847       332.58201     -500.23195      15418.541    
     92800   8985.3916      66.326789      9051.7184      334.28428     -1211.7298      15418.541    
     93000   8841.136       66.313049      8907.449       334.21503      1368.3986      15418.541    
     93200   8935.8383      67.085723      9002.924       338.10928     -1756.9445      15418.541    
     93400   8950.2463      67.820708      9018.067       341.81357     -3345.1955      15418.541    
     93600   9015.7108      65.384238      9081.095       329.53386     -4028.8205      15418.541    
     93800   8918.649       65.535959      8984.1849      330.29853     -490.66497      15418.541    
     94000   8997.6991      65.778497      9063.4775      331.52091     -1835.6941      15418.541    
     94200   8885.8103      65.179194      8950.9895      328.50045     -2999.0203      15418.541    
     94400   8964.8356      65.779917      9030.6155      331.52807     -8.751757       15418.541    
     94600   8884.9661      65.352105      8950.3182      329.37191     -631.8036       15418.541    
     94800   8820.5631      65.553507      8886.1166      330.38697     -1399.3616      15418.541    
     95000   8933.8485      64.138068      8997.9866      323.25322      428.02449      15418.541    
     95200   8997.9863      63.908832      9061.8952      322.09788     -119.19         15418.541    
     95400   8898.7638      67.064218      8965.828       338.00089      2136.2348      15418.541    
     95600   8837.4971      64.323475      8901.8206      324.18766     -1308.9742      15418.541    
     95800   8901.3936      64.481125      8965.8748      324.98221      1947.3937      15418.541    
     96000   8836.8373      65.15683       8901.9941      328.38774      321.89529      15418.541    
     96200   8837.7933      64.394789      8902.188       324.54708      2067.3041      15418.541    
     96400   8917.2974      65.172632      8982.47        328.46738      1391.9995      15418.541    
     96600   8997.0327      65.841799      9062.8745      331.83995      1759.4538      15418.541    
     96800   9029.2095      66.081982      9095.2915      333.05047      1006.2421      15418.541    
     97000   8935.4835      64.241241      8999.7248      323.7732       1316.4974      15418.541    
     97200   8709.7224      66.454888      8776.1773      334.92989      2592.2993      15418.541    
     97400   8935.1187      65.603614      9000.7223      330.63951     -2915.1223      15418.541    
     97600   8871.6841      65.670392      8937.3545      330.97607     -1245.7413      15418.541    
     97800   8936.0021      66.012494      9002.0145      332.70024     -1278.8135      15418.541    
     98000   8999.312       67.287252      9066.5993      339.12498     -1934.1995      15418.541    
     98200   8809.1128      66.03958       8875.1524      332.83676      1346.2633      15418.541    
     98400   9031.2015      68.285728      9099.4872      344.15725      546.37874      15418.541    
     98600   8792.7284      66.900149      8859.6286      337.17399     -678.3643       15418.541    
     98800   8856.0235      67.581369      8923.6048      340.60731      22.111195      15418.541    
     99000   8841.0316      66.435309      8907.4669      334.83122      22.898318      15418.541    
     99200   8967.6204      67.628458      9035.2489      340.84464     -2313.5478      15418.541    
     99400   8903.6331      67.327237      8970.9603      339.32649     -1023.3834      15418.541    
     99600   8777.3506      65.308444      8842.6591      329.15186     -1060.0045      15418.541    
     99800   8888.0012      66.371613      8954.3728      334.51019     -994.36891      15418.541    
    100000   8967.9133      66.166803      9034.0801      333.47796     -1838.7849      15418.541    
    100200   8903.2847      66.551007      8969.8357      335.41433     -3042.8317      15418.541    
    100400   9062.5854      66.985516      9129.5709      337.60424     -193.64274      15418.541    
    100600   8998.7997      66.550741      9065.3504      335.41299     -1132.0204      15418.541    
    100800   8854.9469      66.210739      8921.1577      333.69939     -1098.6117      15418.541    
    101000   8901.9111      67.04133       8968.9524      337.88554      944.84115      15418.541    
    101200   8981.8334      66.809823      9048.6432      336.71875     -616.61899      15418.541    
    101400   8870.5372      65.795787      8936.333       331.60805      1203.6145      15418.541    
    101600   8837.5512      66.478881      8904.03        335.05082     -1038.5924      15418.541    
    101800   8932.8506      66.885739      8999.7363      337.10137     -3312.974       15418.541    
    102000   8886.0954      65.332421      8951.4279      329.27271     -1502.7851      15418.541    
    102200   8884.7457      66.430024      8951.1757      334.80458     -1230.2302      15418.541    
    102400   8775.1566      63.822385      8838.979       321.66219     -4476.9762      15418.541    
    102600   8918.367       64.501975      8982.869       325.08729     -2404.3039      15418.541    
    102800   8886.5762      64.25337       8950.8296      323.83434      119.30702      15418.541    
    103000   8887.5371      63.375051      8950.9121      319.40764     -1513.6224      15418.541    
    103200   8981.1336      66.005795      9047.1394      332.66648     -976.22201      15418.541    
    103400   8776.2353      63.32806       8839.5634      319.17081     -1945.738       15418.541    
    103600   9031.8417      64.440202      9096.2819      324.77596     -2157.9083      15418.541    
    103800   8712.2437      65.063678      8777.3074      327.91825     -293.51044      15418.541    
    104000   8888.4108      66.067467      8954.4782      332.97731     -668.88743      15418.541    
    104200   8937.4335      65.939691      9003.3732      332.33332      1490.092       15418.541    
    104400   8746.6389      65.275625      8811.9145      328.98646     -1141.6322      15418.541    
    104600   8762.8765      65.279105      8828.1556      329.00399      139.73211      15418.541    
    104800   8730.2252      66.106338      8796.3315      333.17322      2555.1365      15418.541    
    105000   8968.3661      68.031445      9036.3975      342.87568     -862.53012      15418.541    
    105200   8889.9766      66.401374      8956.378       334.66019     -47.996741      15418.541    
    105400   8921.6995      66.587615      8988.2871      335.59883     -2880.6549      15418.541    
    105600   8859.0113      65.146191      8924.1575      328.33411      616.05004      15418.541    
    105800   8875.4651      64.603829      8940.069       325.60063     -1395.0472      15418.541    
    106000   8841.9178      66.079705      8907.9975      333.03899      204.75621      15418.541    
    106200   8875.2493      64.725874      8939.9752      326.21573     -571.27595      15418.541    
    106400   8889.2381      66.688131      8955.9262      336.10543     -852.76478      15418.541    
    106600   8921.9241      65.959231      8987.8833      332.4318       701.7441       15418.541    
    106800   8842.0986      65.697274      8907.7959      331.11155      1077.2879      15418.541    
    107000   8955.021       64.668364      9019.6894      325.92589     -1164.2479      15418.541    
    107200   8873.0967      66.363126      8939.4599      334.46742      285.13473      15418.541    
    107400   8840.9507      66.170677      8907.1214      333.49748     -390.50499      15418.541    
    107600   8887.2894      67.355606      8954.645       339.46948     -2187.9713      15418.541    
    107800   8920.3101      65.752939      8986.063       331.3921      -453.2354       15418.541    
    108000   8841.3731      64.041478      8905.4146      322.76641     -3000.4143      15418.541    
    108200   8921.6966      63.158169      8984.8547      318.31456     -1048.9681      15418.541    
    108400   8873.0641      63.384419      8936.4485      319.45486     -3443.9244      15418.541    
    108600   8967.1119      65.047908      9032.1598      327.83877     -1223.7063      15418.541    
    108800   8950.6773      65.356485      9016.0338      329.39399     -1914.0735      15418.541    
    109000   8870.1726      65.805231      8935.9778      331.65565     -94.019655      15418.541    
    109200   8965.9351      66.140042      9032.0752      333.34308     -513.34704      15418.541    
    109400   8887.0149      65.199972      8952.2149      328.60517     -80.207135      15418.541    
    109600   8871.8547      64.584204      8936.4389      325.50172     -1978.0519      15418.541    
    109800   8902.8327      65.900475      8968.7331      332.13568     -1001.1738      15418.541    
    110000   8951.7338      65.502484      9017.2363      330.12982     -1909.8606      15418.541    
    110200   8937.3667      64.610035      9001.9768      325.63191     -476.45705      15418.541    
    110400   8872.3226      66.621151      8938.9437      335.76785      425.82673      15418.541    
    110600   9001.146       66.710107      9067.8561      336.21619     -1233.2849      15418.541    
    110800   8873.4362      67.110549      8940.5467      338.2344      -2540.3407      15418.541    
    111000   8937.2371      67.757056      9004.9942      341.49277     -1310.1028      15418.541    
    111200   9000.6204      68.548407      9069.1688      345.48114      528.09127      15418.541    
    111400   8889.4029      67.745868      8957.1487      341.43638     -3251.3815      15418.541    
    111600   8904.6954      68.328652      8973.0241      344.37359     -1456.8851      15418.541    
    111800   8809.489       67.349673      8876.8387      339.43958     -1083.8966      15418.541    
    112000   8904.5074      68.077258      8972.5847      343.10657     -1345.9838      15418.541    
    112200   8985.1541      67.050181      9052.2043      337.93015     -1563.874       15418.541    
    112400   9063.9755      67.733545      9131.7091      341.37427     -766.24258      15418.541    
    112600   8905.8106      65.346603      8971.1572      329.34419      889.37194      15418.541    
    112800   8871.6865      66.899024      8938.5856      337.16832     -1212.6008      15418.541    
    113000   8935.9728      66.148771      9002.1216      333.38708      417.25156      15418.541    
    113200   9000.0853      65.685794      9065.7711      331.05369     -2015.4617      15418.541    
    113400   8968.7814      64.714587      9033.496       326.15885     -2933.3392      15418.541    
    113600   8937.9586      63.358129      9001.3168      319.32236     -390.1949       15418.541    
    113800   8952.6481      64.559911      9017.208       325.37929      335.03926      15418.541    
    114000   8904.7492      64.419005      8969.1682      324.66913     -1352.3528      15418.541    
    114200   8920.9813      64.230048      8985.2113      323.71679     -1140.8347      15418.541    
    114400   8777.957       63.404932      8841.3619      319.55824     -707.90139      15418.541    
    114600   8922.0814      63.491098      8985.5725      319.99251     -604.78324      15418.541    
    114800   8760.8742      64.986329      8825.8605      327.52842      1874.7474      15418.541    
    115000   8937.4329      64.787558      9002.2205      326.52662      1755.2457      15418.541    
    115200   8889.3065      65.308408      8954.6149      329.15168     -3038.1692      15418.541    
    115400   8778.3381      64.698534      8843.0367      326.07794     -1368.6369      15418.541    
    115600   8985.4159      66.14227       9051.5582      333.35431     -2360.4627      15418.541    
    115800   8890.3318      65.751327      8956.0831      331.38398     -2474.4522      15418.541    
    116000   8762.4954      66.039024      8828.5344      332.83396     -2245.8755      15418.541    
    116200   8938.6915      66.205167      9004.8966      333.67131     -2938.6221      15418.541    
    116400   8889.9442      67.284205      8957.2284      339.10962     -4577.5708      15418.541    
    116600   8874.1025      67.338253      8941.4407      339.38202     -563.1311       15418.541    
    116800   8875.1373      66.413761      8941.5511      334.72262     -1944.5413      15418.541    
    117000   8827.0413      66.524251      8893.5655      335.27948      1049.8688      15418.541    
    117200   8843.8285      65.657329      8909.4858      330.91023     -2537.048       15418.541    
    117400   8921.6725      67.673014      8989.3455      341.0692      -880.44721      15418.541    
    117600   8715.5822      65.6061        8781.1883      330.65204      155.97128      15418.541    
    117800   8825.2462      67.81121       8893.0574      341.7657      -341.87866      15418.541    
    118000   8842.328       66.542976      8908.871       335.37386     -2189.8672      15418.541    
    118200   8937.9959      66.601109      9004.597       335.66684     -1162.1667      15418.541    
    118400   8987.5609      64.804016      9052.365       326.60957     -335.46987      15418.541    
    118600   8937.1157      67.039033      9004.1547      337.87396      56.783754      15418.541    
    118800   8922.1588      65.765804      8987.9246      331.45694      355.86598      15418.541    
    119000   8922.4724      65.163714      8987.6361      328.42243     -953.59806      15418.541    
    119200   8906.5918      64.754374      8971.3462      326.35938     -777.64644      15418.541    
    119400   8858.5735      64.546214      8923.1197      325.31026      3041.8651      15418.541    
    119600   8938.7996      64.161873      9002.9614      323.37319      145.24912      15418.541    
    119800   8907.2647      63.63614       8970.9008      320.72352     -1423.7238      15418.541    
    120000   8793.0449      65.797579      8858.8425      331.61709      978.72205      15418.541    
    120200   9017.7396      64.990126      9082.7298      327.54755      1690.9356      15418.541    
    120400   8871.8711      66.646385      8938.5175      335.89503      89.747169      15418.541    
    120600   8905.2152      65.07337       8970.2886      327.9671       1049.4576      15418.541    
    120800   8984.8555      65.120812      9049.9763      328.20621     -4789.1507      15418.541    
    121000   8985.7404      63.8346        9049.575       321.72375     -1024.1398      15418.541    
    121200   8904.6104      64.508796      8969.1192      325.12167      2254.9493      15418.541    
    121400   8889.1936      63.356089      8952.5497      319.31207      469.98588      15418.541    
    121600   9002.1741      61.856104      9064.0302      311.75221     -1331.0908      15418.541    
    121800   8966.9889      64.632072      9031.621       325.74298     -2072.6358      15418.541    
    122000   8999.5616      63.746665      9063.3082      321.28056      352.46059      15418.541    
    122200   8887.683       63.398819      8951.0818      319.52743     -703.22231      15418.541    
    122400   8934.3925      64.566331      8998.9588      325.41164      360.26921      15418.541    
    122600   8873.0024      62.019111      8935.0215      312.57376     -384.63457      15418.541    
    122800   8855.8309      63.396313      8919.2272      319.5148      -37.564004      15418.541    
    123000   8838.7608      64.912457      8903.6732      327.15611      2267.1127      15418.541    
    123200   8917.24        67.060751      8984.3007      337.98342      202.16778      15418.541    
    123400   8950.5873      66.373506      9016.9608      334.51973     -1769.3431      15418.541    
    123600   8982.9087      66.633439      9049.5421      335.82978      1120.2131      15418.541    
    123800   8951.38        66.634717      9018.0147      335.83623      96.259231      15418.541    
    124000   8921.0633      65.297905      8986.3612      329.09875      194.6594       15418.541    
    124200   8936.813       65.85308       9002.6661      331.89681     -2175.3165      15418.541    
    124400   8889.0621      65.874468      8954.9366      332.0046      -130.89925      15418.541    
    124600   8887.2672      67.914276      8955.1814      342.28515      227.40802      15418.541    
    124800   8872.6451      66.650711      8939.2958      335.91684      752.92863      15418.541    
    125000   8872.8899      66.395742      8939.2857      334.6318       1458.3051      15418.541    
    125200   9064.9519      66.255127      9131.207       333.92311     -111.92638      15418.541    
    125400   8839.4812      67.57425       8907.0555      340.57143      622.68021      15418.541    
    125600   8905.2587      65.575769      8970.8344      330.49917     -359.63012      15418.541    
    125800   8968.0518      66.479593      9034.5314      335.0544       790.42129      15418.541    
    126000   8807.5782      66.625216      8874.2034      335.78834      1387.4431      15418.541    
    126200   9014.3316      67.340419      9081.672       339.39293      2792.8971      15418.541    
    126400   8967.9339      64.961131      9032.895       327.40142     -1587.335       15418.541    
    126600   8852.9024      67.004633      8919.907       337.70059      636.53853      15418.541    
    126800   8964.6393      66.234762      9030.8741      333.82047     -755.65816      15418.541    
    127000   8869.7908      64.31471       8934.1056      324.14348     -1408.167       15418.541    
    127200   8998.7041      63.038355      9061.7425      317.71071     -701.4325       15418.541    
    127400   8868.1991      65.405925      8933.605       329.64316     -1898.9848      15418.541    
    127600   9031.4607      62.161335      9093.622       313.29056     -1186.6639      15418.541    
    127800   8820.6475      65.099876      8885.7474      328.10069      193.84428      15418.541    
    128000   8931.5302      66.414234      8997.9444      334.725        236.26959      15418.541    
    128200   8963.2183      66.889808      9030.1081      337.12187     -2163.876       15418.541    
    128400   8806.1023      64.210381      8870.3127      323.61767     -153.61544      15418.541    
    128600   8869.384       65.179312      8934.5633      328.50104     -458.33575      15418.541    
    128800   8886.0892      64.859787      8950.949       326.89065     -1028.4207      15418.541    
    129000   8902.7626      64.693707      8967.4563      326.05361     -707.89338      15418.541    
    129200   9046.2138      65.794017      9112.0078      331.59913      1384.0144      15418.541    
    129400   8934.2053      66.384066      9000.5894      334.57295     -1804.5463      15418.541    
    129600   8983.26        65.845948      9049.1059      331.86086     -650.61265      15418.541    
    129800   8953.2862      64.289851      9017.5761      324.0182      -1027.5381      15418.541    
    130000   8918.9948      67.042333      8986.0371      337.89059     -1882.9973      15418.541    
    130200   8856.8413      65.583421      8922.4247      330.53774     -2603.7731      15418.541    
    130400   8905.6599      65.120811      8970.7807      328.2062       273.30245      15418.541    
    130600   8809.5695      65.488488      8875.058       330.05928     -779.69288      15418.541    
    130800   8887.7343      67.498884      8955.2332      340.19159     -2347.628       15418.541    
    131000   8953.1383      66.172803      9019.3111      333.5082      -1063.8598      15418.541    
    131200   8808.0572      67.238967      8875.2961      338.88162      1160.0863      15418.541    
    131400   8793.5815      65.573356      8859.1548      330.48701     -585.16341      15418.541    
    131600   8905.7803      65.159091      8970.9394      328.39913     -1895.7999      15418.541    
    131800   8970.3901      64.260163      9034.6503      323.86857     -700.61557      15418.541    
    132000   8792.039       66.292388      8858.3313      334.1109      -1276.2339      15418.541    
    132200   8966.3375      67.554429      9033.8919      340.47153     -1732.8241      15418.541    
    132400   8855.1881      66.076169      8921.2643      333.02116      847.90865      15418.541    
    132600   8903.3108      65.168296      8968.4791      328.44552     -1018.1531      15418.541    
    132800   8951.6015      64.013734      9015.6153      322.62658     -2312.0319      15418.541    
    133000   8870.5132      64.323658      8934.8369      324.18858      860.04829      15418.541    
    133200   8870.5377      63.767968      8934.3057      321.38793     -2618.3941      15418.541    
    133400   8903.5048      62.563687      8966.0685      315.3184       803.08265      15418.541    
    133600   8949.8577      64.20552       9014.0632      323.59317     -3400.2454      15418.541    
    133800   8888.076       62.136001      8950.212       313.16288     -2781.0612      15418.541    
    134000   8933.0324      65.40619       8998.4386      329.6445      -3198.5658      15418.541    
    134200   8903.8469      62.885535      8966.7325      316.9405      -2540.8554      15418.541    
    134400   8888.7623      62.346781      8951.1091      314.22521     -1406.744       15418.541    
    134600   8999.0454      64.468004      9063.5134      324.91608     -1857.4812      15418.541    
    134800   8999.2307      64.72364       9063.9543      326.20447     -456.12913      15418.541    
    135000   8887.1157      65.276018      8952.3917      328.98844     -488.89354      15418.541    
    135200   8902.4725      66.33303       8968.8055      334.31573     -517.7903       15418.541    
    135400   8904.5607      64.678034      8969.2387      325.97462     -878.82855      15418.541    
    135600   8904.9208      64.778667      8969.6995      326.48181     -1272.5915      15418.541    
    135800   8921.965       64.163999      8986.129       323.38391      330.82431      15418.541    
    136000   8918.6755      67.848379      8986.5239      341.95303     -117.48915      15418.541    
    136200   8808.0541      66.825657      8874.8798      336.79855     -1534.3725      15418.541    
    136400   8906.0391      65.135802      8971.1749      328.28175     -1766.5586      15418.541    
    136600   8889.9139      65.486193      8955.4001      330.04771      1256.4924      15418.541    
    136800   8857.8178      65.745453      8923.5632      331.35437     -282.53887      15418.541    
    137000   8892.0583      63.756686      8955.815       321.33107     -4084.1025      15418.541    
    137200   8859.2223      64.841054      8924.0633      326.79624     -737.11425      15418.541    
    137400   8907.0803      65.280721      8972.361       329.01214     -1938.8077      15418.541    
    137600   8954.2538      66.40319       9020.657       334.66934     -77.018497      15418.541    
    137800   8794.9799      65.975719      8860.9556      332.5149      -2406.2367      15418.541    
    138000   8763.7327      65.54096       8829.2737      330.32374     -7.952522       15418.541    
    138200   8987.6555      65.969488      9053.625       332.4835      -3669.5232      15418.541    
    138400   8717.0997      64.891506      8781.9912      327.05051      1939.8627      15418.541    
    138600   8765.534       64.825736      8830.3597      326.71904      1795.3046      15418.541    
    138800   8860.9234      65.914588      8926.838       332.20681     -866.05913      15418.541    
    139000   8923.2849      68.193398      8991.4783      343.69191     -3475.176       15418.541    
    139200   8942.4685      65.798623      9008.2672      331.62235      441.71593      15418.541    
    139400   8923.8885      69.171166      8993.0596      348.61983      2203.6412      15418.541    
    139600   8765.1471      68.622332      8833.7695      345.85372      2152.9828      15418.541    
    139800   8926.9641      67.328524      8994.2927      339.33298     -1452.0375      15418.541    
    140000   8831.7114      66.853085      8898.5644      336.93679      1489.4387      15418.541    
    140200   8832.2045      66.416497      8898.621       334.73641     -3550.3056      15418.541    
    140400   8590.4316      68.034803      8658.4664      342.8926      -565.66969      15418.541    
    140600   8861.256       68.831308      8930.0873      346.90695      1465.4224      15418.541    
    140800   8813.4373      67.849564      8881.2869      341.959       -851.87874      15418.541    
    141000   8783.4077      64.748154      8848.1558      326.32803     -688.04178      15418.541    
    141200   8877.9763      65.090092      8943.0664      328.05138     -2343.0126      15418.541    
    141400   8859.7076      66.551622      8926.2592      335.41743     -2547.0125      15418.541    
    141600   8844.488       65.330414      8909.8185      329.26259     -2993.3989      15418.541    
    141800   8906.0478      67.525522      8973.5733      340.32585      162.40444      15418.541    
    142000   8890.9793      66.37987       8957.3592      334.55181     -1547.5061      15418.541    
    142200   8875.9661      65.191315      8941.1574      328.56154      177.976        15418.541    
    142400   8826.536       66.399978      8892.936       334.65315     -2332.0316      15418.541    
    142600   8970.4141      66.266107      9036.6802      333.97845     -1407.5399      15418.541    
    142800   8955.0524      65.337845      9020.3902      329.30004      744.87179      15418.541    
    143000   8763.5409      64.53834       8828.0792      325.27057     -772.2396       15418.541    
    143200   8984.5995      67.106064      9051.7056      338.2118      -650.61571      15418.541    
    143400   8811.624       63.676628      8875.3006      320.92758      1182.7747      15418.541    
    143600   8808.3625      66.485913      8874.8484      335.08626     -2190.2149      15418.541    
    143800   8745.2812      65.136862      8810.4181      328.2871      -224.55568      15418.541    
    144000   8968.4241      65.553769      9033.9779      330.38829     -2137.6303      15418.541    
    144200   8905.2449      64.254367      8969.4993      323.83936      1199.4405      15418.541    
    144400   8889.9003      63.131433      8953.0317      318.17982      1802.1099      15418.541    
    144600   8984.8952      63.822056      9048.7173      321.66053     -780.58672      15418.541    
    144800   8934.9099      65.586777      9000.4966      330.55465     -3120.004       15418.541    
    145000   8872.0901      64.210345      8936.3005      323.61749     -789.18736      15418.541    
    145200   8871.5496      64.644507      8936.1942      325.80565      1004.7524      15418.541    
    145400   8902.959       65.182894      8968.1419      328.51909     -1036.4435      15418.541    
    145600   9031.6482      64.505134      9096.1533      325.10321     -1671.6585      15418.541    
    145800   8870.8125      65.422848      8936.2353      329.72846     -784.19395      15418.541    
    146000   8966.658       65.726694      9032.3847      331.25983     -420.6785       15418.541    
    146200   8887.6524      64.951775      8952.6041      327.35427      1226.3235      15418.541    
    146400   8950.2739      66.705207      9016.9791      336.19149      473.84984      15418.541    
    146600   9032.7787      64.709529      9097.4882      326.13336     -663.48445      15418.541    
    146800   8792.5942      65.670104      8858.2643      330.97461     -513.18376      15418.541    
    147000   9048.9422      66.233533      9115.1757      333.81427     -1584.5849      15418.541    
    147200   8876.2599      63.77669       8940.0366      321.43189      462.67008      15418.541    
    147400   8763.5758      65.203645      8828.7795      328.62368     -2390.393       15418.541    
    147600   8937.468       67.92258       9005.3906      342.327        388.20729      15418.541    
    147800   8779.2742      66.56782       8845.842       335.49907     -1804.5212      15418.541    
    148000   8890.5214      67.554185      8958.0756      340.47031      164.98768      15418.541    
    148200   8779.6059      66.485881      8846.0917      335.0861      -1551.6856      15418.541    
    148400   8812.0668      65.93944       8878.0062      332.33206     -932.50468      15418.541    
    148600   8955.4489      66.375327      9021.8242      334.52891     -2019.273       15418.541    
    148800   8844.6858      64.913239      8909.599       327.16005     -2924.2513      15418.541    
    149000   8813.6769      63.739252      8877.4162      321.2432      -979.54778      15418.541    
    149200   8843.0314      66.236977      8909.2684      333.83163     -316.26199      15418.541    
    149400   8827.6151      65.448811      8893.0639      329.85931     -894.31277      15418.541    
    149600   8825.8213      66.964513      8892.7858      337.49838      1418.6483      15418.541    
    149800   8810.9053      65.590281      8876.4956      330.57231      281.63079      15418.541    
    150000   8714.2534      65.873026      8780.1265      331.99733     -742.35807      15418.541    
    150200   8955.4043      64.279305      9019.6836      323.96504     -2715.3951      15418.541    
    150400   8907.2753      63.980971      8971.2563      322.46146     -1513.6768      15418.541    
    150600   8891.4989      63.394495      8954.8934      319.50564     -2532.7068      15418.541    
    150800   8888.6025      65.97239       8954.5749      332.49813     -1001.2454      15418.541    
    151000   8842.5484      63.795192      8906.3436      321.52514     -682.86211      15418.541    
    151200   8746.8704      63.205526      8810.0759      318.55324     -1489.8602      15418.541    
    151400   8841.7203      64.147266      8905.8676      323.29957     -1781.2075      15418.541    
    151600   8890.0197      63.700169      8953.7198      321.04622     -1773.1085      15418.541    
    151800   9034.5585      63.108933      9097.6674      318.06642     -1365.053       15418.541    
    152000   8874.3145      63.346635      8937.6611      319.26443     -2330.1482      15418.541    
    152200   8919.5254      66.241282      8985.7667      333.85333     -94.738315      15418.541    
    152400   8731.1407      62.817954      8793.9587      316.5999      -298.88601      15418.541    
    152600   8952.7859      65.414181      9018.2001      329.68477     -3246.6259      15418.541    
    152800   8807.8673      66.665856      8874.5331      335.99316     -509.82831      15418.541    
    153000   8938.7962      64.118346      9002.9146      323.15382     -768.75299      15418.541    
[...]
    163400   8923.1324      64.90234       8988.0348      327.10512      548.60333      15418.541    
    163600   8939.2777      64.50793       9003.7856      325.1173       695.88492      15418.541    
    163800   8697.9585      65.482199      8763.4407      330.02758     -2360.9476      15418.541    
    164000   9032.6398      66.356479      9098.9963      334.43391     -2185.4934      15418.541    
    164200   8984.2049      66.179976      9050.3849      333.54435      409.64924      15418.541    
    164400   8825.0275      64.526527      8889.5541      325.21103      222.08042      15418.541    
    164600   8951.807       64.738353      9016.5454      326.27863      410.96792      15418.541    
    164800   8932.6227      66.95715       8999.5799      337.46127     -266.41228      15418.541    
    165000   8853.3141      65.527451      8918.8415      330.25565      411.46057      15418.541    
    165200   8949.6348      64.718088      9014.3529      326.17649      1180.3782      15418.541    
    165400   8918.1636      63.890771      8982.0544      322.00685     -614.60641      15418.541    
    165600   8998.2697      63.730774      9062.0004      321.20047      538.18258      15418.541    
    165800   8820.7943      65.26587       8886.0602      328.93729      515.56635      15418.541    
    166000   8901.8954      64.285102      8966.1805      323.99426     -939.63738      15418.541    
    166200   8743.0168      63.351677      8806.3685      319.28984      1358.3199      15418.541    
    166400   8934.339       64.313469      8998.6524      324.13723      734.31833      15418.541    
    166600   8920.5287      62.461081      8982.9898      314.80127     -1239.5837      15418.541    
    166800   8886.5366      64.921027      8951.4576      327.1993      -2785.7167      15418.541    
    167000   8823.1921      64.748919      8887.941       326.33188      1189.5297      15418.541    
    167200   8808.6724      63.797478      8872.4699      321.53666     -1033.9813      15418.541    
    167400   8906.0671      62.98632       8969.0534      317.44846      2273.8491      15418.541    
    167600   9017.6552      63.94359       9081.5988      322.27306      117.41753      15418.541    
    167800   8858.6274      63.498916      8922.1263      320.03192      99.569766      15418.541    
    168000   8967.1413      67.411091      9034.5524      339.74912      487.12135      15418.541    
    168200   8905.2581      65.649561      8970.9077      330.87108     -1075.3494      15418.541    
    168400   8968.0399      67.058351      9035.0983      337.97132     -511.38562      15418.541    
    168600   8795.0963      64.175857      8859.2722      323.44367      567.38172      15418.541    
    168800   8827.5392      63.855691      8891.3949      321.83005     -558.13368      15418.541    
    169000   9001.3982      66.144939      9067.5432      333.36777     -27.24232       15418.541    
    169200   8827.1031      64.619036      8891.7221      325.67727     -1512.3469      15418.541    
    169400   8843.2851      64.632691      8907.9178      325.74609      1107.1723      15418.541    
    169600   8843.184       64.878843      8908.0629      326.98669      253.05181      15418.541    
    169800   9016.4077      67.675726      9084.0834      341.08287     -1247.7258      15418.541    
    170000   8873.953       66.017016      8939.97        332.72304      81.446646      15418.541    
    170200   8937.9419      65.861093      9003.803       331.93719     -1954.2939      15418.541    
    170400   8920.1922      67.303506      8987.4957      339.2069      -382.782        15418.541    
    170600   8857.537       65.506369      8923.0434      330.1494      -87.252818      15418.541    
    170800   8875.5053      62.943885      8938.4492      317.23459      1071.1746      15418.541    
    171000   9015.1183      66.642325      9081.7607      335.87457     -1793.5452      15418.541    
    171200   8873.6011      63.358028      8936.9591      319.32185     -2287.4002      15418.541    
    171400   8887.6315      64.560252      8952.1917      325.381        52.366791      15418.541    
    171600   8855.8177      63.813483      8919.6311      321.61732     -297.20129      15418.541    
    171800   8822.4376      64.774661      8887.2123      326.46162     -549.55655      15418.541    
    172000   8807.9136      63.019901      8870.9335      317.6177      -906.09014      15418.541    
    172200   8918.9336      63.84107       8982.7747      321.75636     -2016.2689      15418.541    
    172400   8838.3893      64.384719      8902.774       324.49633     -28.982889      15418.541    
    172600   8999.5079      63.35405       9062.862       319.3018      -119.36134      15418.541    
    172800   8981.5436      65.453653      9046.9972      329.88371     -383.38561      15418.541    
    173000   8983.2093      63.980506      9047.1898      322.45911      697.53283      15418.541    
    173200   8951.4761      63.988419      9015.4645      322.49899     -818.91109      15418.541    
    173400   8919.0051      64.762451      8983.7675      326.40008     -993.75045      15418.541    
    173600   9047.2467      64.867663      9112.1143      326.93035     -458.98426      15418.541    
    173800   9047.5293      64.90523       9112.4345      327.11968     -3667.2686      15418.541    
    174000   8855.6538      65.03747       8920.6913      327.78617     -50.538826      15418.541    
    174200   8982.6814      66.253587      9048.935       333.91535     -13.878509      15418.541    
    174400   8905.5246      63.669331      8969.1939      320.8908      -3434.5808      15418.541    
    174600   8935.9128      65.545924      9001.4587      330.34875     -1727.2851      15418.541    
    174800   8842.4937      63.2292        8905.7229      318.67256     -3699.9389      15418.541    
    175000   8872.6679      65.365234      8938.0332      329.43808      173.39597      15418.541    
    175200   8952.5613      65.786155      9018.3475      331.5595      -1740.558       15418.541    
    175400   8778.1783      64.43084       8842.6091      324.72877      23.582679      15418.541    
    175600   8825.7636      65.114294      8890.8779      328.17336     -1556.5401      15418.541    
    175800   8953.4268      65.727845      9019.1546      331.26563     -219.31119      15418.541    
    176000   8794.5004      64.948728      8859.4491      327.33891     -562.54679      15418.541    
    176200   8905.8403      65.903368      8971.7437      332.15026     -1472.3877      15418.541    
    176400   8955.7568      64.238934      9019.9958      323.76158     -981.8188       15418.541    
    176600   8875.6013      64.639612      8940.2409      325.78098      259.55964      15418.541    
    176800   8747.3386      65.122961      8812.4616      328.21704      555.57959      15418.541    
    177000   8793.8172      66.863041      8860.6802      336.98697     -1490.3907      15418.541    
    177200   8922.9945      65.843945      8988.8385      331.85076     -2264.0711      15418.541    
    177400   8778.341       66.570813      8844.9119      335.51415      198.94887      15418.541    
    177600   8924.4651      64.530416      8988.9955      325.23063     -837.28304      15418.541    
    177800   8938.2661      66.76567       9005.0318      336.49622     -2326.9976      15418.541    
    178000   8859.8549      65.177216      8925.0321      328.49048      1153.724       15418.541    
    178200   9019.5464      65.459946      9085.0064      329.91543     -1526.923       15418.541    
    178400   8811.5235      65.450934      8876.9745      329.87001     -1382.8094      15418.541    
    178600   8698.0744      66.880426      8764.9548      337.07459     -780.86728      15418.541    
    178800   8827.7217      65.162798      8892.8845      328.41781      246.12251      15418.541    
    179000   8891.0587      65.703985      8956.7627      331.14537     -1979.7841      15418.541    
    179200   9065.3405      67.274269      9132.6147      339.05954     -2269.8136      15418.541    
    179400   8824.2726      68.140414      8892.413       343.42487      134.89934      15418.541    
    179600   8891.6799      64.532016      8956.2119      325.2387       1113.9988      15418.541    
    179800   8858.8993      65.090147      8923.9894      328.05165     -2125.7275      15418.541    
    180000   8889.9993      65.774511      8955.7738      331.50082     -864.21124      15418.541    
    180200   8921.9323      65.638857      8987.5711      330.81713     -2775.2194      15418.541    
    180400   8858.2533      65.046222      8923.2995      327.83027      476.69095      15418.541    
    180600   8968.0294      67.078178      9035.1075      338.07125     -501.61123      15418.541    
    180800   8984.57        66.311528      9050.8815      334.20736     -1551.2981      15418.541    
    181000   8953.6349      64.907693      9018.5426      327.13209     -898.19872      15418.541    
    181200   8874.4216      63.757922      8938.1795      321.3373      -503.90329      15418.541    
    181400   8872.3476      65.520055      8937.8677      330.21837      24.174628      15418.541    
    181600   8839.6309      65.870669      8905.5016      331.98545     -265.7921       15418.541    
    181800   8840.8373      64.333462      8905.1708      324.23799      343.44444      15418.541    
    182000   8967.4075      65.409545      9032.8171      329.66141     -988.87376      15418.541    
    182200   8999.6773      64.726161      9064.4034      326.21718     -523.46042      15418.541    
    182400   8903.1314      64.87876       8968.0102      326.98627     -1455.0807      15418.541    
    182600   8806.9679      64.643879      8871.6118      325.80249      528.23617      15418.541    
    182800   8983.883       63.337558      9047.2206      319.21868     -694.43803      15418.541    
    183000   8854.4379      64.363141      8918.801       324.38758     -2544.2036      15418.541    
    183200   8967.4093      62.99586       9030.4052      317.49653     -415.33968      15418.541    
    183400   8965.6627      64.283339      9029.946       323.98538      338.63509      15418.541    
    183600   8964.8153      64.634356      9029.4496      325.75449      837.59935      15418.541    
    183800   8950.1254      62.91075       9013.0361      317.06758     -1310.4493      15418.541    
    184000   8901.4532      63.20877       8964.662       318.56959     -4623.1401      15418.541    
    184200   8932.1707      64.158813      8996.3296      323.35777      1047.313       15418.541    
    184400   8869.5744      62.534709      8932.1091      315.17235      621.91289      15418.541    
    184600   8947.7699      64.194787      9011.9647      323.53908     -180.48821      15418.541    
    184800   9044.6997      63.298121      9107.9978      319.01992     -3380.7504      15418.541    
    185000   8979.4816      64.684532      9044.1661      326.00737      882.856        15418.541    
    185200   8866.9591      65.603596      8932.5627      330.63942      2264.8806      15418.541    
    185400   8885.0258      64.139154      8949.165       323.25869     -378.55953      15418.541    
    185600   9045.9267      63.984487      9109.9112      322.47917     -2704.8567      15418.541    
    185800   8872.2663      62.482995      8934.7493      314.91172     -2380.7823      15418.541    
    186000   8982.279       65.354453      9047.6334      329.38375     -226.45379      15418.541    
    186200   8952.4758      63.898375      9016.3741      322.04517     -234.34336      15418.541    
    186400   8937.0742      63.820655      9000.8949      321.65347     -3272.1367      15418.541    
    186600   8985.2353      64.071477      9049.3068      322.9176      -1007.8582      15418.541    
    186800   8903.5953      66.057331      8969.6527      332.92622     -2334.5229      15418.541    
    187000   8936.1404      65.862567      9002.003       331.94462     -4162.1399      15418.541    
    187200   8886.6579      67.638499      8954.2964      340.89524     -1091.4859      15418.541    
    187400   8920.9654      65.556532      8986.522       330.40222     -713.8021       15418.541    
    187600   8953.7365      65.006394      9018.7429      327.62954     -1668.4818      15418.541    
    187800   8857.7632      65.207456      8922.9706      328.64289     -815.95274      15418.541    
    188000   8872.8996      66.33248       8939.2321      334.31296     -420.13479      15418.541    
    188200   8888.5029      66.866097      8955.369       337.00237     -565.46042      15418.541    
    188400   8905.8113      65.630545      8971.4418      330.77524      706.06028      15418.541    
    188600   8824.8384      66.560832      8891.3993      335.46385      786.76508      15418.541    
    188800   8760.4069      66.872733      8827.2797      337.03582      3272.093       15418.541    
    189000   8985.7568      65.222293      9050.9791      328.71767     -23.765739      15418.541    
    189200   8823.3754      67.259616      8890.635       338.98569      648.51238      15418.541    
    189400   8870.8086      67.3463        8938.1549      339.42257      332.74008      15418.541    
    189600   8950.5091      67.012475      9017.5215      337.74011      1978.4657      15418.541    
    189800   9015.9439      64.820817      9080.7647      326.69424     -2700.6267      15418.541    
    190000   8920.1224      63.949586      8984.0719      322.30327     -686.61856      15418.541    
    190200   8967.3869      64.103459      9031.4903      323.07879     -2512.9827      15418.541    
    190400   8790.6436      64.432634      8855.0762      324.73782      1959.2219      15418.541    
    190600   8933.0797      65.724955      8998.8047      331.25106     -1574.5181      15418.541    
    190800   8995.2561      67.385503      9062.6416      339.62016     -1742.3026      15418.541    
    191000   8964.1188      66.441527      9030.5603      334.86256      368.61199      15418.541    
    191200   8964.5955      65.914148      9030.5097      332.20459     -1259.3502      15418.541    
    191400   8870.0396      64.494696      8934.5343      325.05061      1209.6952      15418.541    
    191600   8967.3262      63.273547      9030.5997      318.89606     -791.20975      15418.541    
    191800   8823.7723      62.963701      8886.736       317.33445     -507.09489      15418.541    
    192000   8887.8393      63.166373      8951.0057      318.35592     -687.23401      15418.541    
    192200   9014.1598      65.168112      9079.3279      328.44459     -763.68491      15418.541    
    192400   8919.3801      64.321725      8983.7018      324.17884     -2367.9867      15418.541    
    192600   8888.7426      63.371508      8952.1141      319.38979     -633.19868      15418.541    
    192800   8808.5785      63.923535      8872.502       322.17198      1152.7516      15418.541    
    193000   8857.5704      63.251765      8920.8222      318.78628     -548.47935      15418.541    
    193200   8920.8649      64.190266      8985.0551      323.51629      623.9431       15418.541    
    193400   8905.4807      63.792845      8969.2735      321.5133      -999.58933      15418.541    
    193600   8936.016       65.492495      9001.5085      330.07947     -1492.5862      15418.541    
    193800   9000.3445      65.345969      9065.6905      329.34099     -716.61206      15418.541    
    194000   8919.967       65.895224      8985.8622      332.10921      35.40188       15418.541    
    194200   8904.7064      65.27318       8969.9796      328.97413      1400.3046      15418.541    
    194400   9014.7938      67.292917      9082.0867      339.15352      664.86077      15418.541    
    194600   8871.9714      66.170221      8938.1416      333.49518     -1179.4467      15418.541    
    194800   9033.2483      64.89362       9098.1419      327.06117     -854.29338      15418.541    
    195000   8969.4802      64.719358      9034.1996      326.18289     -2728.1205      15418.541    
    195200   9080.2708      66.003243      9146.274       332.65362     -1934.1022      15418.541    
    195400   8905.3038      65.059592      8970.3634      327.89766      441.97496      15418.541    
    195600   8872.9082      65.606874      8938.5151      330.65594      698.42984      15418.541    
    195800   8985.1435      65.555377      9050.6989      330.3964      -677.91287      15418.541    
    196000   9001.239       65.700395      9066.9394      331.12728     -2559.203       15418.541    
    196200   8792.6261      66.637026      8859.2632      335.84786      2020.2485      15418.541    
    196400   8921.2447      66.437326      8987.682       334.84138     -429.76902      15418.541    
    196600   8890.3051      65.916205      8956.2213      332.21496     -2091.064       15418.541    
    196800   9002.8577      65.950244      9068.8079      332.38651     -3138.8699      15418.541    
    197000   8955.3443      66.133663      9021.4779      333.31093     -1093.5312      15418.541    
    197200   8971.8338      66.315584      9038.1494      334.22781     -1309.3163      15418.541    
    197400   8796.8844      65.83474       8862.7192      331.80437      507.76193      15418.541    
    197600   8795.8337      67.318742      8863.1524      339.28368      856.97482      15418.541    
    197800   8781.387       66.055877      8847.4429      332.9189      -1284.316       15418.541    
    198000   8940.2733      67.250415      9007.5237      338.93932     -1873.7922      15418.541    
    198200   8877.3667      66.18284       8943.5496      333.55878     -1068.4331      15418.541    
    198400   8988.577       66.91926       9055.4962      337.27031      388.56665      15418.541    
    198600   8859.9708      67.355658      8927.3265      339.46974     -1244.7912      15418.541    
    198800   8781.5791      65.515245      8847.0943      330.19413     -3970.9385      15418.541    
    199000   8859.5218      67.175053      8926.6969      338.5595       1940.4265      15418.541    
    199200   8842.8266      67.292516      8910.1191      339.1515       1910.959       15418.541    
    199400   9002.1288      67.172309      9069.3011      338.54567     -991.51415      15418.541    
    199600   8876.215       64.238194      8940.4532      323.75785     -1485.0141      15418.541    
    199800   8953.9416      65.654449      9019.5961      330.89572      406.84963      15418.541    
    200000   8937.6186      65.27883       9002.8974      329.00261     -1021.5098      15418.541    
Loop time of 277.383 on 4 procs for 200000 steps with 1536 atoms

Performance: 31.148 ns/day, 0.771 hours/ns, 721.024 timesteps/s
88.3% CPU use with 4 MPI tasks x no OpenMP threads

MPI task timing breakdown:
Section |  min time  |  avg time  |  max time  |%varavg| %total
---------------------------------------------------------------
Pair    | 141.84     | 191.78     | 241.47     | 268.4 | 69.14
Neigh   | 24.592     | 24.782     | 25.027     |   3.4 |  8.93
Comm    | 7.3579     | 56.901     | 106.78     | 491.4 | 20.51
Output  | 0.015454   | 0.01844    | 0.0239     |   2.4 |  0.01
Modify  | 3.4659     | 3.4907     | 3.5422     |   1.7 |  1.26
Other   |            | 0.4074     |            |       |  0.15

Nlocal:            384 ave         404 max         368 min
Histogram: 1 0 0 2 0 0 0 0 0 1
Nghost:           2923 ave        2937 max        2910 min
Histogram: 1 0 1 0 0 0 1 0 0 1
Neighs:              0 ave           0 max           0 min
Histogram: 4 0 0 0 0 0 0 0 0 0
FullNghs:        81832 ave       86192 max       77821 min
Histogram: 1 0 0 1 0 1 0 0 0 1

Total # of neighbors = 327328
Ave neighs/atom = 213.10417
Neighbor list builds = 10000
Dangerous builds not checked
Total wall time: 0:04:44
