ITEM: TIMESTEP
0
ITEM: NUMBER OF ATOMS
56
ITEM: BOX BOUNDS xy xz yz pp pp pp
-3.3849849700927734e+00 1.2203788340091705e+01 0.0000000000000000e+00
-8.4733366966247559e-03 5.5348814725875854e+00 -3.3662964701652527e+00
-2.9168844223022461e-02 1.9049128890037537e+01 0.0000000000000000e+00
ITEM: ATOMS id type xs ys zs fx fy fz
1 1 0.586527 4.41887e-05 0.132366 0 0.0420666 0.0970726
2 1 0.336528 0.166624 0.132366 0 -0.0420837 0.0971012
3 1 0.263283 2.39879e-05 0.275225 0 0.00162697 -0.0024147
4 1 0.0132821 0.166644 0.275225 0 -0.00164795 -0.00240898
5 1 0.939983 1.9421e-05 0.418082 0 -7.62939e-06 0.000680923
6 1 0.0865281 4.41295e-05 0.132366 0 0.0420666 0.0970821
7 1 0.998123 0.500074 0.0609403 0 1.33165 0.959597
8 1 0.836529 0.166623 0.132366 0 -0.042078 0.0971184
9 1 0.748125 0.666593 0.0609403 0 -1.33162 0.959621
10 1 0.763284 2.39872e-05 0.275225 0 0.00163078 -0.00240135
11 1 0.689982 0.166647 0.418082 0 1.14441e-05 0.000675201
12 1 0.616673 2.47556e-05 0.560942 0 -8.58307e-05 -0.000343323
13 1 0.366674 0.166643 0.560942 0 7.62939e-05 -0.00034523
14 1 0.293373 2.39811e-05 0.703801 0 -0.000450134 -0.000150681
15 1 0.0433727 0.166644 0.703801 0 0.000421524 -0.000160217
16 1 0.970084 2.63435e-05 0.846651 0 0.00682449 -0.00471687
17 1 0.674923 0.500026 0.203802 0 0.00683212 0.00473022
18 1 0.513282 0.166645 0.275225 0 -0.00166321 -0.00240517
19 1 0.424924 0.66664 0.203802 0 -0.00680733 0.00473785
20 1 0.439984 2.01694e-05 0.418082 0 -2.47955e-05 0.000679016
21 1 0.351634 0.500023 0.346651 0 -0.000423431 0.000169754
22 1 0.189983 0.166648 0.418082 0 7.62939e-06 0.000679016
23 1 0.101634 0.666642 0.346651 0 0.000461578 0.000148773
24 1 0.116674 2.49573e-05 0.560941 0 -8.96454e-05 -0.000335693
25 1 0.0283316 0.500025 0.489511 0 -8.2016e-05 0.000329971
26 1 0.866675 0.166643 0.560941 0 7.62939e-05 -0.000328064
27 1 0.778333 0.666642 0.489511 0 8.7738e-05 0.000352859
28 1 0.498123 0.500073 0.0609404 0 1.33171 0.959635
29 1 0.248123 0.666593 0.0609403 0 -1.33167 0.959623
30 1 0.174924 0.500026 0.203802 0 0.00683403 0.00472832
31 1 0.924924 0.666641 0.203802 0 -0.00683403 0.00473785
32 1 0.851635 0.500024 0.346651 0 -0.000450134 0.000150681
33 1 0.720082 0.166641 0.846652 0 -0.00682449 -0.00475693
34 1 0.646883 7.47473e-05 0.989512 0 1.33162 -0.959566
35 1 0.396883 0.166594 0.989513 0 -1.3317 -0.959652
36 1 0.793372 2.44315e-05 0.703801 0 -0.000453949 -0.000152588
37 1 0.705021 0.50002 0.632371 0 -1.14441e-05 -0.000696182
38 1 0.543373 0.166643 0.703801 0 0.000431061 -0.000150681
39 1 0.455023 0.666647 0.632371 0 1.71661e-05 -0.000679016
40 1 0.470083 2.63314e-05 0.846651 0 0.00682449 -0.00473595
41 1 0.381724 0.500023 0.775228 0 0.00164032 0.0024128
42 1 0.220082 0.166641 0.846651 0 -0.00682259 -0.00473785
43 1 0.131724 0.666644 0.775228 0 -0.00163651 0.00239944
44 1 0.146883 7.37033e-05 0.989512 0 1.33167 -0.959612
45 1 0.0584786 0.500043 0.918087 0 0.0420723 -0.0970726
46 1 0.601633 0.666643 0.346651 0 0.000459671 0.000156403
47 1 0.528332 0.500025 0.489511 0 -7.82013e-05 0.000333786
48 1 0.278332 0.666642 0.489511 0 9.15527e-05 0.000333786
49 1 0.205023 0.500019 0.632371 0 0 -0.000673294
50 1 0.955023 0.666647 0.63237 0 2.86102e-05 -0.000658035
51 1 0.881725 0.500022 0.775228 0 0.00165176 0.00240517
52 1 0.896881 0.166594 0.989513 0 -1.33164 -0.959631
53 1 0.808478 0.666624 0.918087 0 -0.042078 -0.0971336
54 1 0.631724 0.666643 0.775228 0 -0.00163651 0.00240707
55 1 0.558478 0.500044 0.918087 0 0.0420876 -0.097084
56 1 0.308478 0.666624 0.918087 0 -0.0420704 -0.0970974
ITEM: TIMESTEP
1
ITEM: NUMBER OF ATOMS
56
ITEM: BOX BOUNDS xy xz yz pp pp pp
-3.3849849700927734e+00 1.2203788340091705e+01 0.0000000000000000e+00
-8.4733366966247559e-03 5.5348814725875854e+00 -3.3662964701652527e+00
-2.9168844223022461e-02 1.9049128890037537e+01 0.0000000000000000e+00
ITEM: ATOMS id type xs ys zs fx fy fz
1 1 0.586633 0.000614033 0.132748 0 0.125322 0.0269642
2 1 0.336633 0.166053 0.132748 0 -0.125343 0.0269737
3 1 0.26328 4.60272e-05 0.275216 0 0.00108528 0.00650978
4 1 0.0132795 0.166622 0.275216 0 -0.00111389 0.00650597
5 1 0.939984 1.93177e-05 0.418085 0 -0.000303268 -0.00134277
6 1 0.0866333 0.000613974 0.132748 0 0.12533 0.0269623
7 1 0.999164 0.518113 0.0647172 0 0.522169 0.24437
8 1 0.836634 0.166053 0.132748 0 -0.125324 0.0269871
9 1 0.749165 0.648554 0.0647173 0 -0.522177 0.244373
10 1 0.763281 4.60782e-05 0.275215 0 0.001091 0.0065155
11 1 0.689983 0.166647 0.418085 0 0.000318527 -0.00135422
12 1 0.616673 2.35929e-05 0.56094 0 -2.67029e-05 0.000213623
13 1 0.366674 0.166644 0.56094 0 2.09808e-05 0.000209808
14 1 0.293372 1.78835e-05 0.703801 0 -0.000528336 -0.00369835
15 1 0.0433726 0.16665 0.703801 0 0.000499725 -0.00370789
16 1 0.970079 0.00011879 0.846633 0 -0.0076313 -0.0879726
17 1 0.674928 0.500119 0.20382 0 -0.00762558 0.0879822
18 1 0.51328 0.166622 0.275215 0 -0.00111389 0.00651741
19 1 0.424929 0.666548 0.20382 0 0.00764084 0.087986
20 1 0.439985 1.98335e-05 0.418085 0 -0.000328064 -0.00135231
21 1 0.351634 0.500017 0.346652 0 -0.000507355 0.00370598
22 1 0.189984 0.166648 0.418085 0 0.000310898 -0.00134468
23 1 0.101634 0.666649 0.346652 0 0.000535965 0.00370026
24 1 0.116674 2.37429e-05 0.56094 0 -3.05176e-05 0.000221252
25 1 0.028332 0.500024 0.489513 0 -2.86102e-05 -0.000225067
26 1 0.866675 0.166644 0.56094 0 1.52588e-05 0.000221252
27 1 0.778333 0.666643 0.489513 0 3.43323e-05 -0.000202179
28 1 0.499163 0.518113 0.0647175 0 0.522184 0.244356
29 1 0.249164 0.648553 0.0647174 0 -0.522165 0.244368
30 1 0.174929 0.500119 0.20382 0 -0.00762749 0.0879822
31 1 0.924929 0.666549 0.20382 0 0.00762367 0.087986
32 1 0.851635 0.500018 0.346652 0 -0.000526428 0.00369835
33 1 0.720077 0.166548 0.846633 0 0.00763321 -0.0880013
34 1 0.645843 0.0181132 0.985736 0 0.522169 -0.244362
35 1 0.395843 0.148554 0.985735 0 -0.522175 -0.244371
36 1 0.793371 1.82822e-05 0.703801 0 -0.00053215 -0.00369263
37 1 0.70502 0.500019 0.632368 0 -0.000310898 0.00133705
38 1 0.543373 0.166649 0.703801 0 0.000514984 -0.00370026
39 1 0.455022 0.666648 0.632368 0 0.000320435 0.00134468
40 1 0.470078 0.000118778 0.846633 0 -0.00763512 -0.0879803
41 1 0.381726 0.500045 0.775237 0 0.00110245 -0.00650978
42 1 0.220077 0.166548 0.846633 0 0.00762558 -0.0879898
43 1 0.131726 0.666622 0.775237 0 -0.001091 -0.0065155
44 1 0.145843 0.0181129 0.985735 0 0.522173 -0.244352
45 1 0.0583734 0.500613 0.917705 0 0.12534 -0.0269547
46 1 0.601633 0.666649 0.346652 0 0.00053215 0.00369835
47 1 0.528332 0.500024 0.489513 0 -1.71661e-05 -0.00021553
48 1 0.278332 0.666643 0.489513 0 3.43323e-05 -0.000226974
49 1 0.205022 0.500019 0.632368 0 -0.00030899 0.00135422
50 1 0.955023 0.666647 0.632368 0 0.000329971 0.00136185
51 1 0.881727 0.500045 0.775237 0 0.00111961 -0.0065155
52 1 0.895841 0.148555 0.985736 0 -0.522173 -0.244385
53 1 0.808372 0.666054 0.917705 0 -0.125338 -0.0269966
54 1 0.631726 0.666621 0.775237 0 -0.00109673 -0.00650597
55 1 0.558373 0.500614 0.917705 0 0.12534 -0.0269642
56 1 0.308373 0.666054 0.917705 0 -0.125338 -0.0269661
ITEM: TIMESTEP
2
ITEM: NUMBER OF ATOMS
56
ITEM: BOX BOUNDS xy xz yz pp pp pp
-3.3849849700927734e+00 1.2203788340091705e+01 0.0000000000000000e+00
-8.4733366966247559e-03 5.5348814725875854e+00 -3.3662964701652527e+00
-2.9168844223022461e-02 1.9049128890037537e+01 0.0000000000000000e+00
ITEM: ATOMS id type xs ys zs fx fy fz
1 1 0.586707 0.00494348 0.133019 0 0.176922 0.00196648
2 1 0.336708 0.161723 0.133019 0 -0.176924 0.00197029
3 1 0.263298 8.35198e-05 0.275281 0 0.000282288 0.018486
4 1 0.0132975 0.166583 0.275281 0 -0.00028038 0.0184765
5 1 0.939981 8.84081e-06 0.418071 0 -0.000871658 -0.000244141
6 1 0.0867079 0.00494368 0.133019 0 0.176912 0.0019722
7 1 0.999839 0.536152 0.0671701 0 0.0629368 -0.151943
8 1 0.836709 0.161724 0.133019 0 -0.176924 0.0019722
9 1 0.749841 0.630515 0.0671703 0 -0.0629368 -0.151947
10 1 0.763299 8.37685e-05 0.275281 0 0.000274658 0.0184765
11 1 0.689979 0.166658 0.418071 0 0.000875473 -0.000255585
12 1 0.616674 2.26704e-05 0.560942 0 -0.000253677 -0.00102234
13 1 0.366674 0.166644 0.560942 0 0.000261307 -0.00102425
14 1 0.293362 -3.68628e-07 0.703764 0 -0.00198936 -0.0183716
15 1 0.0433623 0.166667 0.703764 0 0.00198746 -0.0183792
16 1 0.969836 -0.000144845 0.845749 0 -0.000579834 -0.113911
17 1 0.675171 0.499855 0.204703 0 -0.000572205 0.11392
18 1 0.513298 0.166584 0.275281 0 -0.000291824 0.0184822
19 1 0.425172 0.666812 0.204703 0 0.000587463 0.113922
20 1 0.439981 8.50008e-06 0.418071 0 -0.000865936 -0.00025177
21 1 0.351644 0.5 0.346689 0 -0.00199509 0.0183792
22 1 0.18998 0.166659 0.418071 0 0.000865936 -0.000253677
23 1 0.101644 0.666667 0.346689 0 0.00199509 0.0183792
24 1 0.116674 2.26886e-05 0.560942 0 -0.000263214 -0.00101852
25 1 0.0283313 0.500023 0.48951 0 -0.000255585 0.00102234
26 1 0.866675 0.166645 0.560942 0 0.000265121 -0.00101089
27 1 0.778333 0.666644 0.48951 0 0.000261307 0.00101852
28 1 0.499839 0.536152 0.0671703 0 0.0629406 -0.151957
29 1 0.249839 0.630515 0.0671703 0 -0.0629406 -0.151957
30 1 0.175172 0.499855 0.204703 0 -0.000576019 0.113922
31 1 0.925172 0.666812 0.204703 0 0.000572205 0.113913
32 1 0.851645 0.5 0.346689 0 -0.00199699 0.0183716
33 1 0.719834 0.166812 0.84575 0 0.000589371 -0.113932
34 1 0.645168 0.0361523 0.983283 0 0.0629349 0.151953
35 1 0.395167 0.130515 0.983282 0 -0.0629425 0.15196
36 1 0.793361 -1.01725e-07 0.703764 0 -0.0019989 -0.0183735
37 1 0.705024 0.500009 0.632382 0 -0.00087738 0.000244141
38 1 0.543362 0.166667 0.703764 0 0.00199509 -0.0183754
39 1 0.455026 0.666659 0.632382 0 0.000865936 0.000249863
40 1 0.469835 -0.000144988 0.84575 0 -0.000574112 -0.113926
41 1 0.381708 0.500083 0.775172 0 0.000278473 -0.0184727
42 1 0.219834 0.166812 0.845749 0 0.000583649 -0.113924
43 1 0.131708 0.666584 0.775172 0 -0.00028801 -0.0184784
44 1 0.145168 0.0361521 0.983283 0 0.0629425 0.151953
45 1 0.0582989 0.504943 0.917434 0 0.176924 -0.00196266
46 1 0.601644 0.666667 0.346689 0 0.00199699 0.0183792
47 1 0.528332 0.500023 0.489511 0 -0.000261307 0.00101852
48 1 0.278332 0.666644 0.48951 0 0.000263214 0.00101852
49 1 0.205026 0.500008 0.632382 0 -0.000865936 0.000244141
50 1 0.955027 0.666659 0.632382 0 0.000871658 0.000259399
51 1 0.881709 0.500083 0.775172 0 0.000284195 -0.018486
52 1 0.895165 0.130516 0.983282 0 -0.0629311 0.151945
53 1 0.808298 0.661724 0.917434 0 -0.176922 -0.00198364
54 1 0.631708 0.666583 0.775172 0 -0.000286102 -0.0184803
55 1 0.558298 0.504944 0.917434 0 0.176916 -0.00196457
56 1 0.308298 0.661724 0.917434 0 -0.176922 -0.00197029
ITEM: TIMESTEP
3
ITEM: NUMBER OF ATOMS
56
ITEM: BOX BOUNDS xy xz yz pp pp pp
-3.3849849700927734e+00 1.2203788340091705e+01 0.0000000000000000e+00
-8.4733366966247559e-03 5.5348814725875854e+00 -3.3662964701652527e+00
-2.9168844223022461e-02 1.9049128890037537e+01 0.0000000000000000e+00
ITEM: ATOMS id type xs ys zs fx fy fz
1 1 0.586741 0.0203687 0.133142 0 -0.00210953 0.0330791
2 1 0.336742 0.146298 0.133142 0 0.0021286 0.0330677
3 1 0.263422 0.000116859 0.27573 0 0.00320053 0.0285053
4 1 0.0134212 0.16655 0.27573 0 -0.00319672 0.0285206
5 1 0.939978 -6.40589e-05 0.418062 0 -0.00145149 0.0108814
6 1 0.0867418 0.0203682 0.133142 0 -0.00211143 0.0330658
7 1 0.999057 0.546347 0.0643293 0 0.0833092 0.0259743
8 1 0.836743 0.146298 0.133142 0 0.00212097 0.0330658
9 1 0.749058 0.620319 0.0643293 0 -0.0833111 0.0259781
10 1 0.763423 0.000116552 0.27573 0 0.00319481 0.0285168
11 1 0.689977 0.166732 0.418061 0 0.00145531 0.0108833
12 1 0.616667 2.06139e-06 0.560919 0 -0.00226593 -0.00865173
13 1 0.366668 0.166666 0.560919 0 0.00225258 -0.00864029
14 1 0.293241 -0.000165131 0.703325 0 -0.00543213 -0.0493202
15 1 0.0432414 0.166832 0.703325 0 0.00543594 -0.0493164
16 1 0.969035 -0.000266581 0.842843 0 0.0676975 0.0770817
17 1 0.675972 0.499734 0.20761 0 0.0676746 -0.0770912
18 1 0.513421 0.166549 0.27573 0 -0.00318336 0.028513
19 1 0.425973 0.666934 0.20761 0 -0.0677013 -0.0770931
20 1 0.439978 -6.41851e-05 0.418061 0 -0.00144196 0.0108795
21 1 0.351765 0.499835 0.347128 0 -0.00543785 0.0493202
22 1 0.189978 0.166731 0.418061 0 0.00145531 0.0108795
23 1 0.101765 0.666832 0.347128 0 0.00542641 0.0493107
24 1 0.116668 1.27711e-06 0.560919 0 -0.00225067 -0.00865173
25 1 0.0283377 0.500002 0.489534 0 -0.00226021 0.00864983
26 1 0.866669 0.166666 0.560919 0 0.00225258 -0.00864601
27 1 0.778339 0.666666 0.489534 0 0.00226212 0.00864983
28 1 0.499056 0.546348 0.064329 0 0.083313 0.0259914
29 1 0.249057 0.620319 0.0643291 0 -0.0833187 0.0259933
30 1 0.175973 0.499734 0.20761 0 0.0676765 -0.0770855
31 1 0.925972 0.666933 0.20761 0 -0.067688 -0.0770798
32 1 0.851766 0.499835 0.347128 0 -0.00543594 0.0493183
33 1 0.719033 0.166934 0.842842 0 -0.0677032 0.077095
34 1 0.64595 0.0463476 0.986124 0 0.0833168 -0.0259914
35 1 0.39595 0.120319 0.986124 0 -0.083313 -0.0259857
36 1 0.79324 -0.000165667 0.703325 0 -0.00543404 -0.0493202
37 1 0.705027 0.499935 0.632391 0 -0.00143623 -0.0108814
38 1 0.543242 0.166832 0.703325 0 0.00542641 -0.0493317
39 1 0.455028 0.666731 0.632391 0 0.00145912 -0.01087
40 1 0.469034 -0.000266303 0.842843 0 0.0676823 0.0770912
41 1 0.381585 0.500117 0.774723 0 0.00319099 -0.0285206
42 1 0.219033 0.166934 0.842843 0 -0.0676918 0.0770988
43 1 0.131584 0.66655 0.774723 0 -0.00319672 -0.028513
44 1 0.14595 0.046348 0.986124 0 0.0833187 -0.02598
45 1 0.058265 0.520369 0.917311 0 -0.00211525 -0.0330715
46 1 0.601765 0.666833 0.347128 0 0.0054245 0.0493221
47 1 0.528338 0.500002 0.489534 0 -0.00225258 0.00864029
48 1 0.278338 0.666666 0.489534 0 0.0022583 0.0086441
49 1 0.205028 0.499936 0.632391 0 -0.00145721 -0.0108738
50 1 0.955029 0.666732 0.632392 0 0.00144768 -0.0108795
51 1 0.881586 0.500117 0.774723 0 0.00318146 -0.028511
52 1 0.895948 0.120321 0.986123 0 -0.0833225 -0.0259876
53 1 0.808264 0.646298 0.91731 0 0.00213242 -0.0330524
54 1 0.631584 0.66655 0.774723 0 -0.00318718 -0.0285263
55 1 0.558264 0.520369 0.917311 0 -0.00211525 -0.0330734
56 1 0.308264 0.646298 0.917311 0 0.00212669 -0.0330715
ITEM: TIMESTEP
4
ITEM: NUMBER OF ATOMS
56
ITEM: BOX BOUNDS xy xz yz pp pp pp
-3.3849849700927734e+00 1.2203788340091705e+01 0.0000000000000000e+00
-8.4733366966247559e-03 5.5348814725875854e+00 -3.3662964701652527e+00
-2.9168844223022461e-02 1.9049128890037537e+01 0.0000000000000000e+00
ITEM: ATOMS id type xs ys zs fx fy fz
1 1 0.586978 0.0267214 0.134001 0 -0.0104504 0.0188446
2 1 0.336979 0.139947 0.134001 0 0.0104237 0.0188465
3 1 0.263666 0.00039983 0.276616 0 0.0138397 0.0122299
4 1 0.0136653 0.166267 0.276616 0 -0.013855 0.0122318
5 1 0.94005 -0.000216851 0.418323 0 -0.00216866 0.020153
6 1 0.0869784 0.0267204 0.134001 0 -0.0104408 0.0188427
7 1 0.9989 0.557662 0.0637606 0 -0.0357971 -0.0462971
8 1 0.836979 0.139947 0.134001 0 0.0104313 0.0188332
9 1 0.748901 0.609005 0.0637608 0 0.0358067 -0.0463009
10 1 0.763667 0.000398808 0.276616 0 0.0138512 0.0122318
11 1 0.690049 0.166885 0.418323 0 0.0021553 0.0201645
12 1 0.616606 -0.00019701 0.560698 0 -0.00491905 -0.0159855
13 1 0.366607 0.166864 0.560698 0 0.00493622 -0.0159874
14 1 0.292859 -0.0006912 0.701935 0 0.00588226 0.0118427
15 1 0.0428587 0.167358 0.701935 0 -0.00588226 0.0118484
16 1 0.969214 0.00536876 0.843494 0 0.0333557 0.0153313
17 1 0.675792 0.505368 0.206959 0 0.0333729 -0.0153332
18 1 0.513666 0.166267 0.276616 0 -0.0138569 0.012228
19 1 0.425793 0.661299 0.206959 0 -0.03335 -0.0153275
20 1 0.44005 -0.000216085 0.418323 0 -0.00217438 0.0201645
21 1 0.352148 0.499308 0.348518 0 0.00588989 -0.0118465
22 1 0.19005 0.166884 0.418323 0 0.00217056 0.0201588
23 1 0.102148 0.667358 0.348518 0 -0.00588226 -0.0118332
24 1 0.116607 -0.000196853 0.560698 0 -0.00492668 -0.0159836
25 1 0.0283986 0.499803 0.489754 0 -0.00492096 0.0159798
26 1 0.866608 0.166864 0.560699 0 0.00492668 -0.0159855
27 1 0.7784 0.666865 0.489755 0 0.00492668 0.0159855
28 1 0.4989 0.557663 0.0637607 0 -0.0358028 -0.0463047
29 1 0.2489 0.609004 0.0637608 0 0.0358124 -0.0463009
30 1 0.175793 0.505368 0.206959 0 0.0333672 -0.015337
31 1 0.925793 0.661298 0.206959 0 -0.0333538 -0.0153484
32 1 0.852148 0.499308 0.348517 0 0.00589371 -0.011837
33 1 0.719213 0.161299 0.843494 0 -0.0333519 0.0153351
34 1 0.646107 0.0576625 0.986692 0 -0.0358067 0.0463085
35 1 0.396106 0.109004 0.986692 0 0.0358086 0.0462933
36 1 0.792858 -0.000692236 0.701935 0 0.00588799 0.011837
37 1 0.704955 0.499784 0.63213 0 -0.00217819 -0.020153
38 1 0.542859 0.167358 0.701935 0 -0.00587654 0.0118465
39 1 0.454956 0.666885 0.63213 0 0.0021553 -0.020174
40 1 0.469213 0.00536793 0.843494 0 0.0333633 0.0153446
41 1 0.381341 0.500399 0.773836 0 0.0138588 -0.012228
42 1 0.219213 0.161299 0.843494 0 -0.0333614 0.0153332
43 1 0.13134 0.666267 0.773836 0 -0.0138474 -0.012228
44 1 0.146107 0.0576633 0.986692 0 -0.0358047 0.0463009
45 1 0.0580283 0.526721 0.916452 0 -0.0104351 -0.0188427
46 1 0.602147 0.667358 0.348518 0 -0.00587845 -0.0118523
47 1 0.528399 0.499804 0.489754 0 -0.00492668 0.0159874
48 1 0.278399 0.666865 0.489754 0 0.00492477 0.0159893
49 1 0.204956 0.499783 0.63213 0 -0.00216103 -0.0201588
50 1 0.954957 0.666884 0.63213 0 0.00215912 -0.0201702
51 1 0.881342 0.500399 0.773836 0 0.0138626 -0.0122261
52 1 0.896104 0.109005 0.986692 0 0.0358009 0.0463085
53 1 0.808027 0.639948 0.916451 0 0.0104237 -0.0188484
54 1 0.63134 0.666268 0.773836 0 -0.0138664 -0.0122204
55 1 0.558028 0.526721 0.916452 0 -0.0104389 -0.0188503
56 1 0.308028 0.639947 0.916451 0 0.0104275 -0.0188408
ITEM: TIMESTEP
5
ITEM: NUMBER OF ATOMS
56
ITEM: BOX BOUNDS xy xz yz pp pp pp
-3.3849849700927734e+00 1.2203788340091705e+01 0.0000000000000000e+00
-8.4733366966247559e-03 5.5348814725875854e+00 -3.3662964701652527e+00
-2.9168844223022461e-02 1.9049128890037537e+01 0.0000000000000000e+00
ITEM: ATOMS id type xs ys zs fx fy fz
1 1 0.587172 0.0276353 0.134706 0 -0.0191135 0.0123863
2 1 0.337173 0.139031 0.134706 0 0.019125 0.0123901
3 1 0.263817 0.00164689 0.277166 0 0.0130844 0.00527
4 1 0.0138168 0.165019 0.277167 0 -0.0130749 0.00526237
5 1 0.940206 -0.00044291 0.418891 0 -0.00273705 0.00149727
6 1 0.0871725 0.0276351 0.134706 0 -0.0191193 0.0124016
7 1 0.998543 0.55784 0.0624655 0 0.00263023 0.00395203
8 1 0.837173 0.139031 0.134706 0 0.0191231 0.0124035
9 1 0.748545 0.608827 0.0624656 0 -0.00264359 0.00395584
10 1 0.763818 0.00164663 0.277166 0 0.013092 0.00526619
11 1 0.690205 0.16711 0.418891 0 0.00275421 0.00149345
12 1 0.616481 -0.000668088 0.560244 0 -0.000923157 0.0112
13 1 0.366482 0.167336 0.560244 0 0.000919342 0.0111942
14 1 0.29283 -0.000343818 0.701833 0 0.00675583 0.0102215
15 1 0.0428305 0.16701 0.701833 0 -0.00676346 0.0102177
16 1 0.969369 0.00977415 0.844054 0 -0.00464058 0.00613213
17 1 0.675638 0.509774 0.206399 0 -0.0046463 -0.00613785
18 1 0.513817 0.165019 0.277166 0 -0.0130711 0.00527
19 1 0.425639 0.656894 0.206399 0 0.00462151 -0.00613403
20 1 0.440207 -0.000442375 0.418891 0 -0.00274849 0.00148773
21 1 0.352176 0.499656 0.34862 0 0.00676155 -0.0102196
22 1 0.190206 0.16711 0.418891 0 0.00274277 0.00149918
23 1 0.102176 0.667011 0.34862 0 -0.00676155 -0.0102329
24 1 0.116482 -0.000668307 0.560244 0 -0.000921249 0.0111961
25 1 0.0285236 0.499332 0.490208 0 -0.000925064 -0.0111923
26 1 0.866483 0.167336 0.560245 0 0.000925064 0.0111904
27 1 0.778525 0.667336 0.490209 0 0.000917435 -0.0112
28 1 0.498543 0.557841 0.0624655 0 0.00263405 0.00396538
29 1 0.248543 0.608826 0.0624657 0 -0.00263405 0.0039463
30 1 0.175639 0.509774 0.206399 0 -0.00463867 -0.00613785
31 1 0.925639 0.656893 0.206399 0 0.00462723 -0.00611687
32 1 0.852177 0.499656 0.34862 0 0.0067482 -0.0102234
33 1 0.719367 0.156894 0.844053 0 0.00463104 0.00613213
34 1 0.646463 0.0578405 0.987987 0 0.00264549 -0.00395775
35 1 0.396463 0.108826 0.987987 0 -0.00263596 -0.00394249
36 1 0.792829 -0.000344512 0.701833 0 0.00675774 0.0102177
37 1 0.704798 0.499557 0.631562 0 -0.0027504 -0.00149918
38 1 0.542831 0.167011 0.701833 0 -0.00676727 0.0102329
39 1 0.4548 0.66711 0.631562 0 0.0027523 -0.00149918
40 1 0.469367 0.00977365 0.844054 0 -0.00463676 0.00612068
41 1 0.381189 0.501647 0.773286 0 0.0130787 -0.00526428
42 1 0.219367 0.156893 0.844054 0 0.00463295 0.00613022
43 1 0.131189 0.665019 0.773286 0 -0.0130749 -0.00526047
44 1 0.146463 0.0578416 0.987988 0 0.00263977 -0.00396538
45 1 0.0578343 0.527636 0.915747 0 -0.0191269 -0.0124016
46 1 0.602175 0.667011 0.34862 0 -0.00676346 -0.0102119
47 1 0.528524 0.499332 0.490208 0 -0.000919342 -0.0111942
48 1 0.278524 0.667336 0.490208 0 0.000921249 -0.0111961
49 1 0.2048 0.499557 0.631562 0 -0.00274467 -0.00149345
50 1 0.954801 0.66711 0.631562 0 0.00275803 -0.00148582
51 1 0.88119 0.501647 0.773286 0 0.0130806 -0.00526237
52 1 0.896461 0.108827 0.987987 0 -0.00262833 -0.00395203
53 1 0.807833 0.639032 0.915747 0 0.0191231 -0.0123997
54 1 0.631189 0.665019 0.773286 0 -0.0130692 -0.0052681
55 1 0.557834 0.527635 0.915747 0 -0.0191269 -0.0123901
56 1 0.307834 0.639031 0.915747 0 0.0191231 -0.012394
ITEM: TIMESTEP
6
ITEM: NUMBER OF ATOMS
56
ITEM: BOX BOUNDS xy xz yz pp pp pp
-3.3849849700927734e+00 1.2203788340091705e+01 0.0000000000000000e+00
-8.4733366966247559e-03 5.5348814725875854e+00 -3.3662964701652527e+00
-2.9168844223022461e-02 1.9049128890037537e+01 0.0000000000000000e+00
ITEM: ATOMS id type xs ys zs fx fy fz
1 1 0.587292 0.0259128 0.135143 0 -0.00145721 -0.0029583
2 1 0.337293 0.140754 0.135143 0 0.00145721 -0.00295067
3 1 0.263877 0.00306578 0.277384 0 -0.00388908 0.00146103
4 1 0.0138768 0.163601 0.277384 0 0.00388908 0.00146484
5 1 0.940238 -0.000735263 0.419005 0 0.0028038 0.00215149
6 1 0.0872928 0.025912 0.135143 0 -0.00145912 -0.00296402
7 1 0.998528 0.558116 0.0624103 0 -0.00628281 -0.0105286
8 1 0.837294 0.140755 0.135143 0 0.00144958 -0.0029583
9 1 0.74853 0.60855 0.0624104 0 0.00629807 -0.0105267
10 1 0.763878 0.00306635 0.277384 0 -0.00390244 0.0014534
11 1 0.690237 0.167404 0.419005 0 -0.00281715 0.00216675
12 1 0.616552 -0.000817228 0.560499 0 -0.000192642 0.00369453
13 1 0.366552 0.167485 0.560499 0 0.000185013 0.00369263
14 1 0.292906 0.00035084 0.702106 0 0.00169182 0.00488472
15 1 0.0429056 0.166315 0.702105 0 -0.00168037 0.00490189
16 1 0.969436 0.00989138 0.844297 0 -0.0062809 -0.00262642
17 1 0.675571 0.509891 0.206156 0 -0.0062809 0.00264168
18 1 0.513877 0.163601 0.277384 0 0.00387764 0.00145912
19 1 0.425572 0.656775 0.206156 0 0.00630379 0.0026207
20 1 0.440238 -0.000735859 0.419005 0 0.00281715 0.00215721
21 1 0.352101 0.500351 0.348347 0 0.00168228 -0.00489998
22 1 0.190238 0.167403 0.419005 0 -0.00281334 0.00215912
23 1 0.102101 0.666316 0.348347 0 -0.00168228 -0.00488472
24 1 0.116552 -0.000817312 0.560499 0 -0.000190735 0.00369644
25 1 0.0284534 0.499183 0.489954 0 -0.000185013 -0.00369072
26 1 0.866553 0.167485 0.560499 0 0.00018692 0.00369072
27 1 0.778455 0.667485 0.489954 0 0.000188828 -0.00368881
28 1 0.498528 0.558118 0.0624106 0 -0.00629425 -0.0105343
29 1 0.248528 0.60855 0.0624103 0 0.00629807 -0.010519
30 1 0.175572 0.509891 0.206156 0 -0.00629807 0.00263023
31 1 0.925572 0.656775 0.206156 0 0.00630379 0.0026207
32 1 0.852102 0.50035 0.348347 0 0.00170708 -0.00489235
33 1 0.719434 0.156776 0.844296 0 0.00629425 -0.00263023
34 1 0.646478 0.0581179 0.988043 0 -0.00631142 0.0105286
35 1 0.396478 0.10855 0.988043 0 0.00629425 0.0105114
36 1 0.792904 0.000350373 0.702105 0 0.00169945 0.00489426
37 1 0.704767 0.499263 0.631447 0 0.00281715 -0.00216103
38 1 0.542906 0.166315 0.702106 0 -0.00167847 0.00488091
39 1 0.454768 0.667403 0.631447 0 -0.00281906 -0.00215721
40 1 0.469434 0.00989129 0.844297 0 -0.00629616 -0.00260735
41 1 0.381129 0.503066 0.773069 0 -0.00388908 -0.00146294
42 1 0.219434 0.156775 0.844297 0 0.00629616 -0.00262833
43 1 0.131129 0.663601 0.773069 0 0.00387764 -0.00146866
44 1 0.146479 0.0581185 0.988042 0 -0.00629997 0.0105362
45 1 0.057714 0.525913 0.91531 0 -0.00145149 0.00296593
46 1 0.6021 0.666316 0.348348 0 -0.00168419 -0.00490379
47 1 0.528454 0.499183 0.489953 0 -0.000192642 -0.00368881
48 1 0.278454 0.667485 0.489954 0 0.000192642 -0.003685
49 1 0.204768 0.499264 0.631448 0 0.00281143 -0.00215912
50 1 0.954769 0.667404 0.631448 0 -0.00282288 -0.00216484
51 1 0.88113 0.503066 0.773069 0 -0.00390053 -0.00147057
52 1 0.896476 0.108551 0.988042 0 0.00627518 0.010519
53 1 0.807713 0.640755 0.91531 0 0.00145912 0.00296974
54 1 0.631129 0.663601 0.773069 0 0.00388336 -0.00145912
55 1 0.557713 0.525912 0.91531 0 -0.00144577 0.00295258
56 1 0.307713 0.640755 0.91531 0 0.00145721 0.00296402
ITEM: TIMESTEP
7
ITEM: NUMBER OF ATOMS
56
ITEM: BOX BOUNDS xy xz yz pp pp pp
-3.3849849700927734e+00 1.2203788340091705e+01 0.0000000000000000e+00
-8.4733366966247559e-03 5.5348814725875854e+00 -3.3662964701652527e+00
-2.9168844223022461e-02 1.9049128890037537e+01 0.0000000000000000e+00
ITEM: ATOMS id type xs ys zs fx fy fz
1 1 0.587297 0.025543 0.135161 0 -0.00203705 0.000179291
2 1 0.337298 0.141124 0.135161 0 0.00204277 0.000179291
3 1 0.263894 0.00305778 0.277446 0 -0.00410652 -0.00108337
4 1 0.0138937 0.163609 0.277446 0 0.00410461 -0.00108528
5 1 0.940254 -0.00061062 0.419062 0 0.00182724 0.00109291
6 1 0.0872978 0.0255421 0.135161 0 -0.00204086 0.000175476
7 1 0.998474 0.557775 0.0622134 0 0.00189781 0.0024929
8 1 0.837299 0.141124 0.135161 0 0.00204849 0.000160217
9 1 0.748475 0.608892 0.0622136 0 -0.00190926 0.00249481
10 1 0.763895 0.00305766 0.277446 0 -0.0041008 -0.00107384
11 1 0.690253 0.167279 0.419063 0 -0.00183487 0.00108719
12 1 0.616581 -0.000853328 0.560607 0 0.00066185 0.00110626
13 1 0.366582 0.167521 0.560607 0 -0.000659943 0.00110054
14 1 0.292942 0.000567785 0.702237 0 -0.000909805 0.000326157
15 1 0.0429419 0.166099 0.702237 0 0.000907898 0.000320435
16 1 0.969434 0.00952467 0.844289 0 -0.00312996 0.00338364
17 1 0.675573 0.509524 0.206164 0 -0.0031147 -0.00339317
18 1 0.513894 0.163609 0.277446 0 0.00409889 -0.0010891
19 1 0.425574 0.657143 0.206164 0 0.00312424 -0.00338936
20 1 0.440254 -0.000610579 0.419062 0 0.00183105 0.00110245
21 1 0.352064 0.500568 0.348216 0 -0.000905991 -0.000318527
22 1 0.190253 0.167278 0.419062 0 -0.00182533 0.001091
23 1 0.102064 0.666099 0.348216 0 0.000907898 -0.000322342
24 1 0.116582 -0.000853272 0.560607 0 0.00066185 0.00110435
25 1 0.0284238 0.499147 0.489846 0 0.000648499 -0.00110817
26 1 0.866583 0.167521 0.560607 0 -0.000656128 0.00111389
27 1 0.778425 0.667521 0.489846 0 -0.000658035 -0.00110817
28 1 0.498474 0.557776 0.0622137 0 0.001894 0.00247765
29 1 0.248474 0.608892 0.0622135 0 -0.00190163 0.00249672
30 1 0.175574 0.509523 0.206163 0 -0.00311279 -0.00339127
31 1 0.925574 0.657142 0.206164 0 0.00311089 -0.00339317
32 1 0.852065 0.500568 0.348216 0 -0.000904083 -0.000324249
33 1 0.719432 0.157143 0.844289 0 0.00312042 0.00339508
34 1 0.646533 0.0577753 0.988239 0 0.00190735 -0.0024929
35 1 0.396532 0.108891 0.988239 0 -0.0018959 -0.00247955
36 1 0.792941 0.000567823 0.702237 0 -0.000911713 0.000331879
37 1 0.704751 0.499389 0.63139 0 0.00183296 -0.00108528
38 1 0.542942 0.166099 0.702237 0 0.000907898 0.000324249
39 1 0.454753 0.667278 0.63139 0 -0.00182533 -0.00107956
40 1 0.469432 0.00952371 0.84429 0 -0.00311852 0.00337601
41 1 0.381112 0.503058 0.773007 0 -0.00410461 0.00108147
42 1 0.219432 0.157143 0.844289 0 0.00312233 0.00338745
43 1 0.131112 0.663609 0.773007 0 0.00410843 0.00108528
44 1 0.146533 0.0577766 0.988239 0 0.0018959 -0.00249481
45 1 0.057709 0.525543 0.915292 0 -0.00203323 -0.000181198
46 1 0.602064 0.666099 0.348216 0 0.000905991 -0.000322342
47 1 0.528424 0.499147 0.489846 0 0.000656128 -0.00111198
48 1 0.278424 0.667521 0.489846 0 -0.00066185 -0.0011158
49 1 0.204753 0.499389 0.63139 0 0.00182724 -0.001091
50 1 0.954754 0.667278 0.631391 0 -0.00182915 -0.00109863
51 1 0.881113 0.503057 0.773007 0 -0.00409889 0.00108337
52 1 0.896531 0.108892 0.988239 0 -0.00189209 -0.00248146
53 1 0.807708 0.641125 0.915292 0 0.00203323 -0.000175476
54 1 0.631112 0.663609 0.773007 0 0.0041008 0.00108147
55 1 0.557708 0.525542 0.915292 0 -0.00204468 -0.000167847
56 1 0.307708 0.641125 0.915292 0 0.00203705 -0.000173569
ITEM: TIMESTEP
8
ITEM: NUMBER OF ATOMS
56
ITEM: BOX BOUNDS xy xz yz pp pp pp
-3.3849849700927734e+00 1.2203788340091705e+01 0.0000000000000000e+00
-8.4733366966247559e-03 5.5348814725875854e+00 -3.3662964701652527e+00
-2.9168844223022461e-02 1.9049128890037537e+01 0.0000000000000000e+00
ITEM: ATOMS id type xs ys zs fx fy fz
1 1 0.5873 0.0252202 0.135172 0 1.33514e-05 -0.00030899
2 1 0.337301 0.141447 0.135172 0 -3.8147e-06 -0.000310898
3 1 0.263891 0.00265622 0.277436 0 -0.000606537 -0.000585556
4 1 0.013891 0.16401 0.277436 0 0.000602722 -0.000587463
5 1 0.940267 -0.000391042 0.419113 0 -0.000648499 -0.00123978
6 1 0.0873009 0.0252189 0.135172 0 7.62939e-06 -0.000303268
7 1 0.998475 0.557844 0.0622172 0 -0.00101089 -0.000537872
8 1 0.837302 0.141448 0.135172 0 -2.28882e-05 -0.000282288
9 1 0.748476 0.608822 0.0622175 0 0.00101852 -0.000549316
10 1 0.763893 0.00265644 0.277436 0 -0.000602722 -0.000593185
11 1 0.690266 0.167058 0.419113 0 0.000654221 -0.00123787
12 1 0.6166 -0.000801239 0.560674 0 0.000869751 -0.000484467
13 1 0.3666 0.167469 0.560674 0 -0.000864029 -0.00047493
14 1 0.292957 0.000552702 0.702291 0 -0.00133133 0.000375748
15 1 0.0429567 0.166114 0.702291 0 0.00132942 0.00037384
16 1 0.969459 0.00909679 0.844382 0 -0.00043869 -6.10352e-05
17 1 0.675547 0.509098 0.20607 0 -0.000452042 7.24792e-05
18 1 0.513891 0.16401 0.277436 0 0.000619888 -0.000576019
19 1 0.425549 0.65757 0.20607 0 0.000440598 8.01086e-05
20 1 0.440268 -0.000390416 0.419113 0 -0.000659943 -0.00124931
21 1 0.35205 0.500553 0.348162 0 -0.00133705 -0.000379562
22 1 0.190267 0.167059 0.419113 0 0.000650406 -0.0012455
23 1 0.10205 0.666114 0.348162 0 0.00134277 -0.000379562
24 1 0.1166 -0.000801137 0.560674 0 0.000867844 -0.000478745
25 1 0.0284052 0.499198 0.489779 0 0.000883102 0.000476837
26 1 0.866602 0.167469 0.560674 0 -0.000875473 -0.000478745
27 1 0.778407 0.667469 0.489779 0 -0.000871658 0.000480652
28 1 0.498475 0.557845 0.062217 0 -0.000986099 -0.000516891