ITEM: TIMESTEP
0
ITEM: NUMBER OF ATOMS
48
ITEM: BOX BOUNDS xy xz yz pp pp pp
-2.2218291163444519e+00 8.6067802309989929e+00 2.5094206929206848e+00
-9.4973444938659668e-03 9.3236122131347656e+00 -2.2097920179367065e+00
-2.8691649436950684e-02 1.9545819282531738e+01 7.1304261684417725e-02
ITEM: ATOMS id type xs ys zs fx fy fz
1 1 0.933182 0.16703 0.0320218 0 0 0.27751
2 1 0.477342 0.0738739 0.0528103 0 0 0.370661
3 1 0.261345 0.125314 0.657023 0 0 0.000486374
4 1 0.336612 0.948847 0.927808 0 0 -0.277515
5 1 0.0710997 0.157156 0.802805 0 0 0.00458336
6 1 0.792452 0.0420026 0.90702 0 0 -0.370655
7 1 0.526935 0.250315 0.78202 0 0 -0.00442886
8 1 0.729955 0.208712 0.407029 0 0 0.000595093
9 1 0.805513 0.0321465 0.677802 0 0 0.0013237
10 1 0.53984 0.240498 0.552801 0 0 -0.000587463
11 1 0.742859 0.198895 0.17781 0 0 0.00442314
12 1 0.464281 0.0837297 0.282028 0 0 -0.00132942
13 1 0.198695 0.292053 0.157025 0 0 -0.00458336
14 1 0.274125 0.115534 0.427803 0 0 -0.000370026
15 1 0.933182 0.500363 0.0320219 0 0 0.277506
16 1 0.477342 0.407207 0.0528103 0 0 0.370659
17 1 0.261345 0.458648 0.657023 0 0 0.000488281
18 1 0.336612 0.28218 0.927808 0 0 -0.277512
19 1 0.0710995 0.49049 0.802805 0 0 0.00458717
20 1 0.792452 0.375336 0.90702 0 0 -0.370647
21 1 0.526935 0.583648 0.78202 0 0 -0.00443077
22 1 0.99567 0.333676 0.532027 0 0 0.000366211
23 1 0.729955 0.542046 0.407029 0 0 0.000589371
24 1 0.805513 0.36548 0.677802 0 0 0.00133324
25 1 0.53984 0.573831 0.552801 0 0 -0.000591278
26 1 0.00844925 0.323895 0.302807 0 0 -0.000484467
27 1 0.742859 0.532228 0.17781 0 0 0.00442696
28 1 0.464281 0.417063 0.282028 0 0 -0.0013237
29 1 0.198695 0.625387 0.157025 0 0 -0.00458336
30 1 0.274125 0.448867 0.427803 0 0 -0.000370026
31 1 0.933182 0.833696 0.0320219 0 0 0.277506
32 1 0.477342 0.740541 0.0528104 0 0 0.370651
33 1 0.261345 0.791981 0.657023 0 0 0.000486374
34 1 0.336612 0.615514 0.927808 0 0 -0.277515
35 1 0.0710996 0.823823 0.802805 0 0 0.00458717
36 1 0.792452 0.708669 0.90702 0 0 -0.370649
37 1 0.526935 0.916981 0.78202 0 0 -0.00442696
38 1 0.99567 0.667009 0.532027 0 0 0.000364304
39 1 0.729955 0.875379 0.407029 0 0 0.000589371
40 1 0.805513 0.698813 0.677802 0 0 0.00132561
41 1 0.539839 0.907164 0.552801 0 0 -0.000585556
42 1 0.00844912 0.657228 0.302807 0 0 -0.000488281
43 1 0.742859 0.865562 0.17781 0 0 0.00443268
44 1 0.464281 0.750396 0.282028 0 0 -0.00132561
45 1 0.198695 0.95872 0.157026 0 0 -0.00458908
46 1 0.274125 0.782201 0.427803 0 0 -0.000364304
47 1 0.995669 0.000342385 0.532027 0 0 0.000364304
48 1 0.00844934 0.990562 0.302807 0 0 -0.000488281
ITEM: TIMESTEP
1
ITEM: NUMBER OF ATOMS
48
ITEM: BOX BOUNDS xy xz yz pp pp pp
-2.2218291163444519e+00 8.6067802309989929e+00 2.5094206929206848e+00
-9.4973444938659668e-03 9.3236122131347656e+00 -2.2097920179367065e+00
-2.8691649436950684e-02 1.9545819282531738e+01 7.1304261684417725e-02
ITEM: ATOMS id type xs ys zs fx fy fz
1 1 0.934257 0.167007 0.0349672 0 0 -0.0494289
2 1 0.478777 0.0738436 0.0567444 0 0 0.0206337
3 1 0.261347 0.125314 0.657028 0 0 -0.00390625
4 1 0.335537 0.94887 0.924863 0 0 0.0494366
5 1 0.0711174 0.157156 0.802853 0 0 -0.0763302
6 1 0.791017 0.0420329 0.903086 0 0 -0.0206356
7 1 0.526918 0.250315 0.781973 0 0 -0.0869789
8 1 0.729957 0.208712 0.407036 0 0 -0.00188065
9 1 0.805518 0.0321464 0.677816 0 0 -0.000677109
10 1 0.539837 0.240498 0.552795 0 0 0.00187874
11 1 0.742876 0.198894 0.177857 0 0 0.0869865
12 1 0.464276 0.0837298 0.282014 0 0 0.000675201
13 1 0.198677 0.292054 0.156977 0 0 0.0763245
14 1 0.274123 0.115534 0.427799 0 0 -0.00162125
15 1 0.934257 0.50034 0.0349673 0 0 -0.0494289
16 1 0.478777 0.407177 0.0567444 0 0 0.0206356
17 1 0.261347 0.458648 0.657028 0 0 -0.00390053
18 1 0.335537 0.282203 0.924863 0 0 0.0494328
19 1 0.0711173 0.49049 0.802853 0 0 -0.0763264
20 1 0.791017 0.375366 0.903086 0 0 -0.0206356
21 1 0.526918 0.583649 0.781973 0 0 -0.0869827
22 1 0.995671 0.333676 0.532031 0 0 0.00161934
23 1 0.729957 0.542045 0.407036 0 0 -0.00188255
24 1 0.805518 0.36548 0.677816 0 0 -0.000680923
25 1 0.539837 0.573831 0.552795 0 0 0.00187874
26 1 0.00844737 0.323895 0.302802 0 0 0.00390434
27 1 0.742876 0.532228 0.177857 0 0 0.0869808
28 1 0.464276 0.417063 0.282014 0 0 0.000679016
29 1 0.198677 0.625387 0.156977 0 0 0.0763245
30 1 0.274123 0.448867 0.427799 0 0 -0.00161743
31 1 0.934257 0.833674 0.0349673 0 0 -0.0494366
32 1 0.478777 0.74051 0.0567444 0 0 0.0206375
33 1 0.261347 0.791981 0.657028 0 0 -0.00390053
34 1 0.335537 0.615536 0.924863 0 0 0.0494366
35 1 0.0711174 0.823823 0.802853 0 0 -0.0763264
36 1 0.791017 0.7087 0.903086 0 0 -0.0206375
37 1 0.526918 0.916982 0.781973 0 0 -0.0869808
38 1 0.995671 0.667009 0.532031 0 0 0.00161743
39 1 0.729957 0.875379 0.407036 0 0 -0.00188255
40 1 0.805518 0.698813 0.677816 0 0 -0.000675201
41 1 0.539837 0.907164 0.552795 0 0 0.00188065
42 1 0.00844723 0.657229 0.302802 0 0 0.00390816
43 1 0.742876 0.865561 0.177857 0 0 0.0869808
44 1 0.464276 0.750397 0.282014 0 0 0.000677109
45 1 0.198677 0.95872 0.156977 0 0 0.0763226
46 1 0.274123 0.782201 0.427799 0 0 -0.00162506
47 1 0.995671 0.000342356 0.532031 0 0 0.00162315
48 1 0.00844745 0.990562 0.302802 0 0 0.00390434
ITEM: TIMESTEP
2
ITEM: NUMBER OF ATOMS
48
ITEM: BOX BOUNDS xy xz yz pp pp pp
-2.2218291163444519e+00 8.6067802309989929e+00 2.5094206929206848e+00
-9.4973444938659668e-03 9.3236122131347656e+00 -2.2097920179367065e+00
-2.8691649436950684e-02 1.9545819282531738e+01 7.1304261684417725e-02
ITEM: ATOMS id type xs ys zs fx fy fz
1 1 0.934067 0.167011 0.0344483 0 0 -0.0152187
2 1 0.479323 0.0738321 0.0582402 0 0 0.00605011
3 1 0.261312 0.125315 0.656931 0 0 -0.0458298
4 1 0.335727 0.948866 0.925382 0 0 0.015213
5 1 0.0704183 0.157171 0.800937 0 0 0.0095005
6 1 0.790471 0.0420444 0.90159 0 0 -0.00603485
7 1 0.526112 0.250332 0.779764 0 0 0.00336838
8 1 0.72994 0.208713 0.40699 0 0 0.00285339
9 1 0.805513 0.0321465 0.677802 0 0 -0.0417976
10 1 0.539854 0.240497 0.552841 0 0 -0.0028553
11 1 0.743682 0.198877 0.180066 0 0 -0.00337219
12 1 0.464281 0.0837297 0.282028 0 0 0.0417995
13 1 0.199376 0.292039 0.158893 0 0 -0.00949287
14 1 0.274108 0.115534 0.427757 0 0 0.00502014
15 1 0.934068 0.500344 0.0344483 0 0 -0.0152187
16 1 0.479323 0.407165 0.0582403 0 0 0.00603676
17 1 0.261312 0.458648 0.656931 0 0 -0.0458355
18 1 0.335727 0.282199 0.925382 0 0 0.0152149
19 1 0.0704182 0.490504 0.800937 0 0 0.00949287
20 1 0.790471 0.375378 0.90159 0 0 -0.00605392
21 1 0.526112 0.583666 0.779764 0 0 0.00337029
22 1 0.995687 0.333675 0.532073 0 0 -0.00501823
23 1 0.72994 0.542046 0.40699 0 0 0.00285912
24 1 0.805513 0.36548 0.677802 0 0 -0.0417919
25 1 0.539854 0.57383 0.552841 0 0 -0.0028553
26 1 0.0084829 0.323894 0.302899 0 0 0.0458317
27 1 0.743682 0.532211 0.180066 0 0 -0.00336075
28 1 0.464281 0.417063 0.282028 0 0 0.0417938
29 1 0.199376 0.625372 0.158893 0 0 -0.00949097
30 1 0.274108 0.448868 0.427757 0 0 0.00501633
31 1 0.934068 0.833678 0.0344481 0 0 -0.0152073
32 1 0.479323 0.740499 0.0582403 0 0 0.0060463
33 1 0.261311 0.791982 0.656931 0 0 -0.0458355
34 1 0.335727 0.615532 0.925382 0 0 0.0152168
35 1 0.0704183 0.823838 0.800937 0 0 0.0094986
36 1 0.790471 0.708711 0.90159 0 0 -0.00605392
37 1 0.526112 0.916999 0.779764 0 0 0.00336456
38 1 0.995686 0.667009 0.532073 0 0 -0.00501823
39 1 0.72994 0.875379 0.40699 0 0 0.00285912
40 1 0.805513 0.698813 0.677802 0 0 -0.0417976
41 1 0.539854 0.907164 0.552841 0 0 -0.00286102
42 1 0.00848278 0.657228 0.3029 0 0 0.045826
43 1 0.743682 0.865544 0.180066 0 0 -0.00337791
44 1 0.464281 0.750396 0.282028 0 0 0.0417938
45 1 0.199376 0.958706 0.158893 0 0 -0.00948906
46 1 0.274108 0.782201 0.427757 0 0 0.00502968
47 1 0.995686 0.000342033 0.532073 0 0 -0.00502396
48 1 0.00848296 0.990561 0.302899 0 0 0.0458355
ITEM: TIMESTEP
3
ITEM: NUMBER OF ATOMS
48
ITEM: BOX BOUNDS xy xz yz pp pp pp
-2.2218291163444519e+00 8.6067802309989929e+00 2.5094206929206848e+00
-9.4973444938659668e-03 9.3236122131347656e+00 -2.2097920179367065e+00
-2.8691649436950684e-02 1.9545819282531738e+01 7.1304261684417725e-02
ITEM: ATOMS id type xs ys zs fx fy fz
1 1 0.933862 0.167015 0.0338858 0 0 0.00862312
2 1 0.479536 0.0738276 0.0588246 0 0 0.00105286
3 1 0.260843 0.125325 0.655647 0 0 0.00104523
4 1 0.335932 0.948861 0.925944 0 0 -0.00860977
5 1 0.0703177 0.157173 0.800662 0 0 -0.00336838
6 1 0.790258 0.0420489 0.901006 0 0 -0.00108337
7 1 0.52592 0.250336 0.779239 0 0 -0.0026989
8 1 0.729964 0.208712 0.407055 0 0 0.022234
9 1 0.805094 0.0321553 0.676653 0 0 0.000869751
10 1 0.53983 0.240498 0.552775 0 0 -0.0222244
11 1 0.743874 0.198873 0.180592 0 0 0.00270081
12 1 0.464701 0.0837208 0.283178 0 0 -0.000864029
13 1 0.199477 0.292037 0.159169 0 0 0.00336456
14 1 0.274154 0.115533 0.427883 0 0 0.0243683
15 1 0.933862 0.500349 0.0338859 0 0 0.00860596
16 1 0.479536 0.407161 0.0588243 0 0 0.00107574
17 1 0.260843 0.458658 0.655647 0 0 0.00104713
18 1 0.335932 0.282195 0.925944 0 0 -0.00861931
19 1 0.0703176 0.490506 0.800662 0 0 -0.00336456
20 1 0.790258 0.375382 0.901006 0 0 -0.00105095
21 1 0.52592 0.58367 0.779239 0 0 -0.00270271
22 1 0.995641 0.333676 0.531947 0 0 -0.024374
23 1 0.729964 0.542045 0.407055 0 0 0.0222263
24 1 0.805094 0.365489 0.676653 0 0 0.000860214
25 1 0.53983 0.573831 0.552775 0 0 -0.0222263
26 1 0.0089513 0.323885 0.304183 0 0 -0.00104904
27 1 0.743874 0.532207 0.180592 0 0 0.00268936
28 1 0.464701 0.417054 0.283178 0 0 -0.000858307
29 1 0.199477 0.62537 0.159169 0 0 0.00335693
30 1 0.274154 0.448867 0.427883 0 0 0.0243683
31 1 0.933862 0.833682 0.033886 0 0 0.00860405
32 1 0.479536 0.740494 0.0588245 0 0 0.00106049
33 1 0.260843 0.791992 0.655647 0 0 0.00104713
34 1 0.335932 0.615528 0.925944 0 0 -0.00861359
35 1 0.0703177 0.82384 0.800662 0 0 -0.00336647
36 1 0.790258 0.708716 0.901005 0 0 -0.00104904
37 1 0.52592 0.917003 0.779239 0 0 -0.00269508
38 1 0.99564 0.66701 0.531947 0 0 -0.0243626
39 1 0.729964 0.875379 0.407055 0 0 0.0222263
40 1 0.805094 0.698822 0.676653 0 0 0.000862122
41 1 0.53983 0.907164 0.552775 0 0 -0.0222244
42 1 0.00895114 0.657218 0.304183 0 0 -0.00104141
43 1 0.743874 0.86554 0.180591 0 0 0.00271225
44 1 0.464701 0.750388 0.283178 0 0 -0.000860214
45 1 0.199477 0.958703 0.159169 0 0 0.00336266
46 1 0.274154 0.7822 0.427883 0 0 0.0243587
47 1 0.99564 0.000343003 0.531947 0 0 -0.0243645
48 1 0.0089514 0.990551 0.304183 0 0 -0.00105095
ITEM: TIMESTEP
4
ITEM: NUMBER OF ATOMS
48
ITEM: BOX BOUNDS xy xz yz pp pp pp
-2.2218291163444519e+00 8.6067802309989929e+00 2.5094206929206848e+00
-9.4973444938659668e-03 9.3236122131347656e+00 -2.2097920179367065e+00
-2.8691649436950684e-02 1.9545819282531738e+01 7.1304261684417725e-02
ITEM: ATOMS id type xs ys zs fx fy fz
1 1 0.933879 0.167015 0.0339328 0 0 0.00527382
2 1 0.479584 0.0738266 0.0589564 0 0 -0.00417709
3 1 0.26076 0.125327 0.655418 0 0 -0.0013237
4 1 0.335915 0.948862 0.925898 0 0 -0.00528908
5 1 0.0702761 0.157174 0.800548 0 0 -0.00510979
6 1 0.79021 0.0420499 0.900874 0 0 0.00418854
7 1 0.525866 0.250337 0.779089 0 0 -0.00300789
8 1 0.730115 0.208709 0.407469 0 0 -0.00133705
9 1 0.805019 0.0321569 0.676446 0 0 -0.00190163
10 1 0.539679 0.240501 0.552362 0 0 0.00133705
11 1 0.743929 0.198872 0.180742 0 0 0.00300407
12 1 0.464776 0.0837192 0.283384 0 0 0.00189972
13 1 0.199518 0.292036 0.159282 0 0 0.00511169
14 1 0.274323 0.11553 0.428347 0 0 -0.000736237
15 1 0.933879 0.500348 0.0339325 0 0 0.00529099
16 1 0.479584 0.40716 0.0589564 0 0 -0.00418282
17 1 0.26076 0.45866 0.655418 0 0 -0.00131989
18 1 0.335915 0.282195 0.925897 0 0 -0.00527573
19 1 0.070276 0.490507 0.800548 0 0 -0.00510788
20 1 0.79021 0.375383 0.900874 0 0 0.00417709
21 1 0.525866 0.583671 0.779088 0 0 -0.00299644
22 1 0.995471 0.33368 0.531483 0 0 0.000751495
23 1 0.730115 0.542042 0.407469 0 0 -0.00133324
24 1 0.805019 0.36549 0.676446 0 0 -0.00190163
25 1 0.539679 0.573834 0.552362 0 0 0.00133705
26 1 0.00903482 0.323883 0.304412 0 0 0.0013237
27 1 0.743929 0.532206 0.180742 0 0 0.00300026
28 1 0.464776 0.417053 0.283384 0 0 0.00189209
29 1 0.199518 0.625369 0.159282 0 0 0.00511551
30 1 0.274323 0.448863 0.428347 0 0 -0.000741959
31 1 0.933879 0.833682 0.0339326 0 0 0.00528526
32 1 0.479584 0.740493 0.0589565 0 0 -0.00418282
33 1 0.260759 0.791993 0.655418 0 0 -0.00131798
34 1 0.335915 0.615528 0.925898 0 0 -0.00528526
35 1 0.0702762 0.823841 0.800548 0 0 -0.00511169
36 1 0.79021 0.708717 0.900874 0 0 0.00418282
37 1 0.525866 0.917004 0.779088 0 0 -0.00300407
38 1 0.995471 0.667013 0.531483 0 0 0.000743866
39 1 0.730115 0.875375 0.407469 0 0 -0.00133514
40 1 0.805018 0.698824 0.676446 0 0 -0.001894
41 1 0.539679 0.907167 0.552362 0 0 0.00133896
42 1 0.00903469 0.657216 0.304412 0 0 0.00131989
43 1 0.743929 0.865539 0.180742 0 0 0.00299454
44 1 0.464776 0.750386 0.283384 0 0 0.00189018
45 1 0.199518 0.958703 0.159283 0 0 0.00510788
46 1 0.274323 0.782197 0.428347 0 0 -0.000751495
47 1 0.995471 0.000346573 0.531483 0 0 0.000740051
48 1 0.00903492 0.990549 0.304412 0 0 0.00131798
ITEM: TIMESTEP
5
ITEM: NUMBER OF ATOMS
48
ITEM: BOX BOUNDS xy xz yz pp pp pp
-2.2218291163444519e+00 8.6067802309989929e+00 2.5094206929206848e+00
-9.4973444938659668e-03 9.3236122131347656e+00 -2.2097920179367065e+00
-2.8691649436950684e-02 1.9545819282531738e+01 7.1304261684417725e-02
ITEM: ATOMS id type xs ys zs fx fy fz
1 1 0.933953 0.167013 0.0341343 0 0 0.00217628
2 1 0.479534 0.0738277 0.0588181 0 0 0.00176048
3 1 0.260731 0.125327 0.65534 0 0 -0.00185585
4 1 0.335841 0.948863 0.925695 0 0 -0.00215721
5 1 0.0702017 0.157175 0.800344 0 0 0.0014286
6 1 0.79026 0.0420488 0.901012 0 0 -0.00178528
7 1 0.525818 0.250338 0.778958 0 0 0.00176239
8 1 0.730116 0.208709 0.407471 0 0 0.000120163
9 1 0.804983 0.0321577 0.67635 0 0 -0.00197792
10 1 0.539678 0.240501 0.552359 0 0 -0.000118256
11 1 0.743976 0.198871 0.180872 0 0 -0.00175858
12 1 0.464811 0.0837185 0.28348 0 0 0.00198555
13 1 0.199593 0.292034 0.159486 0 0 -0.00144005
14 1 0.274335 0.11553 0.428378 0 0 -0.000448227
15 1 0.933953 0.500347 0.0341346 0 0 0.00215912
16 1 0.479534 0.407161 0.058818 0 0 0.00177574
17 1 0.260731 0.458661 0.65534 0 0 -0.00185204
18 1 0.335841 0.282197 0.925696 0 0 -0.00217056
19 1 0.0702016 0.490509 0.800344 0 0 0.00143242
20 1 0.79026 0.375382 0.901012 0 0 -0.0017643
21 1 0.525818 0.583672 0.778958 0 0 0.00174522
22 1 0.99546 0.33368 0.531452 0 0 0.000429153
23 1 0.730116 0.542042 0.407471 0 0 0.000104904
24 1 0.804983 0.365491 0.67635 0 0 -0.00197411
25 1 0.539678 0.573834 0.552359 0 0 -0.000116348
26 1 0.00906328 0.323882 0.30449 0 0 0.00185585
27 1 0.743976 0.532205 0.180872 0 0 -0.00176048
28 1 0.464811 0.417052 0.28348 0 0 0.00199127
29 1 0.199593 0.625368 0.159487 0 0 -0.00144577
30 1 0.274334 0.448863 0.428378 0 0 -0.000442505
31 1 0.933953 0.83368 0.0341345 0 0 0.00216675
32 1 0.479534 0.740494 0.058818 0 0 0.00176811
33 1 0.260731 0.791994 0.65534 0 0 -0.00185966
34 1 0.335841 0.61553 0.925696 0 0 -0.00216293
35 1 0.0702017 0.823842 0.800344 0 0 0.00143623
36 1 0.79026 0.708716 0.901012 0 0 -0.00176811
37 1 0.525818 0.917005 0.778958 0 0 0.00175858
38 1 0.99546 0.667013 0.531452 0 0 0.00043869
39 1 0.730116 0.875375 0.407471 0 0 0.000106812
40 1 0.804983 0.698824 0.67635 0 0 -0.00197983
41 1 0.539678 0.907168 0.552359 0 0 -0.000116348
42 1 0.00906311 0.657216 0.30449 0 0 0.00185966
43 1 0.743976 0.865538 0.180872 0 0 -0.00174332
44 1 0.464811 0.750385 0.28348 0 0 0.00199699
45 1 0.199593 0.958701 0.159486 0 0 -0.00144005
46 1 0.274334 0.782196 0.428378 0 0 -0.000432968
47 1 0.99546 0.000346812 0.531452 0 0 0.000448227
48 1 0.0090633 0.990549 0.30449 0 0 0.00186348
ITEM: TIMESTEP
6
ITEM: NUMBER OF ATOMS
48
ITEM: BOX BOUNDS xy xz yz pp pp pp
-2.2218291163444519e+00 8.6067802309989929e+00 2.5094206929206848e+00
-9.4973444938659668e-03 9.3236122131347656e+00 -2.2097920179367065e+00
-2.8691649436950684e-02 1.9545819282531738e+01 7.1304261684417725e-02
ITEM: ATOMS id type xs ys zs fx fy fz
1 1 0.933969 0.167013 0.0341792 0 0 -0.000543594
2 1 0.479537 0.0738276 0.0588281 0 0 -0.000213623
3 1 0.26072 0.125328 0.65531 0 0 -0.00038147
4 1 0.335825 0.948864 0.925651 0 0 0.000555038
5 1 0.0702018 0.157175 0.800344 0 0 6.10352e-05
6 1 0.790257 0.0420489 0.901002 0 0 0.000209808
7 1 0.525822 0.250338 0.778969 0 0 5.34058e-05
8 1 0.730117 0.208709 0.407473 0 0 0.000734329
9 1 0.804971 0.0321579 0.676316 0 0 -0.000425339
10 1 0.539678 0.240501 0.552357 0 0 -0.000736237
11 1 0.743972 0.198871 0.180861 0 0 -5.34058e-05
12 1 0.464823 0.0837182 0.283514 0 0 0.000415802
13 1 0.199593 0.292034 0.159486 0 0 -5.91278e-05
14 1 0.274334 0.11553 0.428375 0 0 0.000358582
15 1 0.933969 0.500346 0.0341793 0 0 -0.000553131
16 1 0.479538 0.407161 0.0588282 0 0 -0.000209808
17 1 0.26072 0.458661 0.65531 0 0 -0.000387192
18 1 0.335825 0.282197 0.925651 0 0 0.000545502
19 1 0.0702017 0.490509 0.800344 0 0 6.10352e-05
20 1 0.790257 0.375382 0.901002 0 0 0.000211716
21 1 0.525822 0.583672 0.778969 0 0 4.76837e-05
22 1 0.995461 0.33368 0.531455 0 0 -0.000366211
23 1 0.730117 0.542042 0.407473 0 0 0.000734329
24 1 0.804971 0.365491 0.676317 0 0 -0.000421524
25 1 0.539678 0.573834 0.552357 0 0 -0.000738144
26 1 0.00907425 0.323882 0.30452 0 0 0.00038147
27 1 0.743972 0.532205 0.180861 0 0 -4.3869e-05
28 1 0.464823 0.417052 0.283514 0 0 0.000427246
29 1 0.199593 0.625368 0.159486 0 0 -6.48499e-05
30 1 0.274333 0.448863 0.428375 0 0 0.000366211
31 1 0.933969 0.83368 0.0341793 0 0 -0.000547409
32 1 0.479537 0.740494 0.0588281 0 0 -0.000211716
33 1 0.26072 0.791994 0.65531 0 0 -0.000391006
34 1 0.335825 0.61553 0.925651 0 0 0.000547409
35 1 0.0702018 0.823842 0.800344 0 0 6.10352e-05
36 1 0.790257 0.708716 0.901002 0 0 0.000204086
37 1 0.525822 0.917005 0.778969 0 0 5.14984e-05
38 1 0.995461 0.667013 0.531455 0 0 -0.000366211
39 1 0.730117 0.875375 0.407473 0 0 0.000736237
40 1 0.804971 0.698825 0.676317 0 0 -0.000429153
41 1 0.539677 0.907168 0.552357 0 0 -0.000732422
42 1 0.0090741 0.657215 0.30452 0 0 0.000383377
43 1 0.743972 0.865538 0.180861 0 0 -4.3869e-05
44 1 0.464823 0.750385 0.283514 0 0 0.000425339
45 1 0.199593 0.958701 0.159486 0 0 -5.34058e-05
46 1 0.274333 0.782196 0.428375 0 0 0.000371933
47 1 0.995461 0.00034679 0.531455 0 0 -0.000358582
48 1 0.0090743 0.990549 0.30452 0 0 0.000387192
ITEM: TIMESTEP
7
ITEM: NUMBER OF ATOMS
48
ITEM: BOX BOUNDS xy xz yz pp pp pp
-2.2218291163444519e+00 8.6067802309989929e+00 2.5094206929206848e+00
-9.4973444938659668e-03 9.3236122131347656e+00 -2.2097920179367065e+00
-2.8691649436950684e-02 1.9545819282531738e+01 7.1304261684417725e-02
ITEM: ATOMS id type xs ys zs fx fy fz
1 1 0.933967 0.167013 0.0341727 0 0 -0.000127792
2 1 0.479536 0.0738276 0.0588248 0 0 0.000125885
3 1 0.260716 0.125328 0.655299 0 0 -7.05719e-05
4 1 0.335827 0.948864 0.925658 0 0 0.000118256
5 1 0.0702022 0.157175 0.800345 0 0 -0.000141144
6 1 0.790258 0.0420489 0.901005 0 0 -0.000118256
7 1 0.525823 0.250338 0.778971 0 0 -0.000200272
8 1 0.730122 0.208709 0.407488 0 0 6.67572e-05
9 1 0.804967 0.032158 0.676305 0 0 -0.000102997
10 1 0.539672 0.240501 0.552342 0 0 -6.86646e-05
11 1 0.743972 0.198871 0.180859 0 0 0.000198364
12 1 0.464828 0.0837181 0.283525 0 0 0.000106812
13 1 0.199592 0.292034 0.159485 0 0 0.000146866
14 1 0.274336 0.11553 0.428382 0 0 4.57764e-05
15 1 0.933967 0.500346 0.0341726 0 0 -0.000127792
16 1 0.479536 0.407161 0.058825 0 0 0.000114441
17 1 0.260716 0.458661 0.655299 0 0 -7.24792e-05
18 1 0.335827 0.282197 0.925658 0 0 0.000120163
19 1 0.0702022 0.490509 0.800345 0 0 -0.000143051
20 1 0.790258 0.375382 0.901005 0 0 -0.000112534
21 1 0.525823 0.583672 0.778971 0 0 -0.000192642
22 1 0.995459 0.33368 0.531448 0 0 -4.95911e-05
23 1 0.730122 0.542042 0.407488 0 0 6.48499e-05
24 1 0.804967 0.365491 0.676305 0 0 -0.000104904
25 1 0.539672 0.573834 0.552342 0 0 -6.48499e-05
26 1 0.00907811 0.323882 0.304531 0 0 7.05719e-05
27 1 0.743972 0.532205 0.180859 0 0 0.000198364
28 1 0.464828 0.417052 0.283525 0 0 0.000102997
29 1 0.199592 0.625368 0.159485 0 0 0.000150681
30 1 0.274336 0.448863 0.428382 0 0 4.57764e-05
31 1 0.933967 0.83368 0.0341727 0 0 -0.000133514
32 1 0.479536 0.740494 0.0588248 0 0 0.00012207
33 1 0.260716 0.791994 0.655299 0 0 -7.05719e-05
34 1 0.335827 0.61553 0.925658 0 0 0.000123978
35 1 0.0702023 0.823842 0.800345 0 0 -0.000146866
36 1 0.790258 0.708716 0.901005 0 0 -0.000114441
37 1 0.525823 0.917005 0.778971 0 0 -0.000196457
38 1 0.995458 0.667014 0.531448 0 0 -5.14984e-05
39 1 0.730122 0.875375 0.407488 0 0 6.86646e-05
40 1 0.804967 0.698825 0.676305 0 0 -0.000110626
41 1 0.539672 0.907168 0.552342 0 0 -6.86646e-05
42 1 0.00907797 0.657215 0.304531 0 0 7.43866e-05
43 1 0.743972 0.865538 0.180859 0 0 0.000202179
44 1 0.464828 0.750385 0.283525 0 0 0.000102997
45 1 0.199592 0.958701 0.159485 0 0 0.000144958
46 1 0.274336 0.782196 0.428382 0 0 5.34058e-05
47 1 0.995458 0.000346843 0.531448 0 0 -4.57764e-05
48 1 0.00907821 0.990548 0.304531 0 0 6.67572e-05
ITEM: TIMESTEP
8
ITEM: NUMBER OF ATOMS
48
ITEM: BOX BOUNDS xy xz yz pp pp pp
-2.2218291163444519e+00 8.6067802309989929e+00 2.5094206929206848e+00
-9.4973444938659668e-03 9.3236122131347656e+00 -2.2097920179367065e+00
-2.8691649436950684e-02 1.9545819282531738e+01 7.1304261684417725e-02
ITEM: ATOMS id type xs ys zs fx fy fz
1 1 0.933967 0.167013 0.0341727 0 0 -0.000127792
2 1 0.479536 0.0738276 0.0588248 0 0 0.000125885
3 1 0.260716 0.125328 0.655299 0 0 -7.05719e-05
4 1 0.335827 0.948864 0.925658 0 0 0.000118256
5 1 0.0702022 0.157175 0.800345 0 0 -0.000141144
6 1 0.790258 0.0420489 0.901005 0 0 -0.000118256
7 1 0.525823 0.250338 0.778971 0 0 -0.000200272
8 1 0.730122 0.208709 0.407488 0 0 6.67572e-05
9 1 0.804967 0.032158 0.676305 0 0 -0.000102997
10 1 0.539672 0.240501 0.552342 0 0 -6.86646e-05
11 1 0.743972 0.198871 0.180859 0 0 0.000198364
12 1 0.464828 0.0837181 0.283525 0 0 0.000106812
13 1 0.199592 0.292034 0.159485 0 0 0.000146866
14 1 0.274336 0.11553 0.428382 0 0 4.57764e-05
15 1 0.933967 0.500346 0.0341726 0 0 -0.000127792
16 1 0.479536 0.407161 0.058825 0 0 0.000114441
17 1 0.260716 0.458661 0.655299 0 0 -7.24792e-05
18 1 0.335827 0.282197 0.925658 0 0 0.000120163
19 1 0.0702022 0.490509 0.800345 0 0 -0.000143051
20 1 0.790258 0.375382 0.901005 0 0 -0.000112534
21 1 0.525823 0.583672 0.778971 0 0 -0.000192642
22 1 0.995459 0.33368 0.531448 0 0 -4.95911e-05
23 1 0.730122 0.542042 0.407488 0 0 6.48499e-05
24 1 0.804967 0.365491 0.676305 0 0 -0.000104904
25 1 0.539672 0.573834 0.552342 0 0 -6.48499e-05
26 1 0.00907811 0.323882 0.304531 0 0 7.05719e-05
27 1 0.743972 0.532205 0.180859 0 0 0.000198364
28 1 0.464828 0.417052 0.283525 0 0 0.000102997
29 1 0.199592 0.625368 0.159485 0 0 0.000150681
30 1 0.274336 0.448863 0.428382 0 0 4.57764e-05
31 1 0.933967 0.83368 0.0341727 0 0 -0.000133514
32 1 0.479536 0.740494 0.0588248 0 0 0.00012207
33 1 0.260716 0.791994 0.655299 0 0 -7.05719e-05
34 1 0.335827 0.61553 0.925658 0 0 0.000123978
35 1 0.0702023 0.823842 0.800345 0 0 -0.000146866
36 1 0.790258 0.708716 0.901005 0 0 -0.000114441
37 1 0.525823 0.917005 0.778971 0 0 -0.000196457
38 1 0.995458 0.667014 0.531448 0 0 -5.14984e-05
39 1 0.730122 0.875375 0.407488 0 0 6.86646e-05
40 1 0.804967 0.698825 0.676305 0 0 -0.000110626
41 1 0.539672 0.907168 0.552342 0 0 -6.86646e-05
42 1 0.00907797 0.657215 0.304531 0 0 7.43866e-05
43 1 0.743972 0.865538 0.180859 0 0 0.000202179
44 1 0.464828 0.750385 0.283525 0 0 0.000102997
45 1 0.199592 0.958701 0.159485 0 0 0.000144958
46 1 0.274336 0.782196 0.428382 0 0 5.34058e-05
47 1 0.995458 0.000346843 0.531448 0 0 -4.57764e-05
48 1 0.00907821 0.990548 0.304531 0 0 6.67572e-05
