LAMMPS (4 May 2022)
Reading data file ...
  triclinic box = (0 0 0) to (12.4447 12.4447 12.4447) with tilt (0 0 0)
  1 by 2 by 2 MPI processor grid
  reading atoms ...
  192 atoms
  read_data CPU = 0.001 seconds
Replicating atoms ...
  triclinic box = (0 0 0) to (24.8894 24.8894 24.8894) with tilt (0 0 0)
  1 by 2 by 2 MPI processor grid
  1536 atoms
  replicate CPU = 0.000 seconds
nh nw 0: 229 3 
nh nw 1: 50176 3 
nh nw 2: 50176 3 
nh nw 3: 4096 4 
nh nw 4: 4096 4 
nh nw 5: 32768 8 
nh nw 6: 32768 8 
rcut 50331648 
nh nw 0: 229 3 
nh nw 1: 50176 3 
nh nw 2: 50176 3 
nh nw 3: 4096 4 
nh nw 4: 4096 4 
nh nw 5: 32768 8 
nh nw 6: 32768 8 
rcut 50331648 
nh nw 0: 229 3 
nh nw 1: 50176 3 
nh nw 2: 50176 3 
nh nw 3: 4096 4 
nh nw 4: 4096 4 
nh nw 5: 32768 8 
nh nw 6: 32768 8 
rcut 50331648 
nh nw 0: 229 3 
nh nw 1: 50176 3 
nh nw 2: 50176 3 
nh nw 3: 4096 4 
nh nw 4: 4096 4 
nh nw 5: 32768 8 
nh nw 6: 32768 8 
rcut 50331648 
Generated 0 of 1 mixed pair_coeff terms from geometric mixing rule
Neighbor list info ...
  update every 20 steps, delay 0 steps, check no
  max neighbors/atom: 2000, page size: 100000
  master list distance cutoff = 8
  ghost atom cutoff = 8
  binsize = 4, bins = 7 7 7
  2 neighbor lists, perpetual/occasional/extra = 1 1 0
  (1) pair nvnmd, perpetual
      attributes: full, newton on
      pair build: full/bin/atomonly
      stencil: full/bin/3d
      bin: standard
  (2) compute rdf, occasional, copy from (1)
      attributes: full, newton on
      pair build: copy
      stencil: none
      bin: none
Setting up Verlet run ...
  Unit style    : metal
  Current step  : 0
  Time step     : 0.0005
Per MPI rank memory allocation (min/avg/max) = 2.698 | 2.698 | 2.698 Mbytes
   Step         PotEng         KinEng         TotEng          Temp          Press          Volume    
         0   8868.535       65.476726      8934.0118      330            211.29098      15418.541    
       200   8934.0432      63.996798      8998.04        322.54122     -516.44921      15418.541    
       400   9013.7629      64.470788      9078.2337      324.93011     -3233.7918      15418.541    
       600   8852.2918      66.200763      8918.4926      333.64912     -3014.3219      15418.541    
       800   8887.0672      63.780792      8950.848       321.45256      377.41793      15418.541    
      1000   9079.7957      63.562115      9143.3578      320.35044     -1303.4542      15418.541    
      1200   8998.953       65.093461      9064.0465      328.06836     -1594.7748      15418.541    
      1400   8873.2528      63.595391      8936.8482      320.51814     -1565.8873      15418.541    
      1600   8839.2686      66.314872      8905.5835      334.22422     -3221.033       15418.541    
      1800   8872.0815      66.121994      8938.2035      333.25212      397.95505      15418.541    
      2000   8889.1658      65.390509      8954.5563      329.56547     -1427.0908      15418.541    
      2200   8824.1172      66.643595      8890.7608      335.88097     -1459.914       15418.541    
      2400   8952.938       65.962108      9018.9001      332.4463      -2247.7201      15418.541    
      2600   8873.315       65.607181      8938.9222      330.65749     -1001.9229      15418.541    
      2800   8872.0249      66.898311      8938.9232      337.16473     -1217.5913      15418.541    
      3000   8873.7731      65.072559      8938.8457      327.96301     -655.98741      15418.541    
      3200   8936.2707      66.481686      9002.7524      335.06495      1458.6339      15418.541    
      3400   8919.3188      67.303747      8986.6226      339.20811     -1164.1098      15418.541    
      3600   8919.9569      66.524711      8986.4816      335.2818      -496.48631      15418.541    
      3800   9000.1158      66.120374      9066.2362      333.24396      1898.8319      15418.541    
      4000   8889.4843      64.403267      8953.8875      324.58981     -1451.6607      15418.541    
      4200   8985.01        64.483791      9049.4938      324.99565      1877.8884      15418.541    
      4400   8998.6301      66.468071      9065.0982      334.99634      732.95388      15418.541    
      4600   8919.9784      64.743361      8984.7217      326.30387     -5094.7291      15418.541    
      4800   8951.3347      65.068058      9016.4028      327.94033     -3838.3373      15418.541    
      5000   8822.7191      65.329031      8888.0482      329.25562      29.45348       15418.541    
      5200   8906.0501      61.674548      8967.7247      310.83718     -192.05745      15418.541    
      5400   8966.8673      64.531102      9031.3984      325.23409     -859.65839      15418.541    
      5600   8838.3057      64.779448      8903.0852      326.48574      135.44391      15418.541    
      5800   8950.3405      64.452324      9014.7928      324.83705     -1266.7768      15418.541    
      6000   8821.214       65.303716      8886.5178      329.12804     -2081.8452      15418.541    
      6200   8901.7738      64.422119      8966.1959      324.68482     -3991.0651      15418.541    
      6400   8980.8283      65.033446      9045.8617      327.76589     -423.67756      15418.541    
      6600   9013.0677      64.422665      9077.4904      324.68757      994.44642      15418.541    
      6800   8965.579       63.526206      9029.1052      320.16946      1105.4366      15418.541    
      7000   8965.6244      63.092935      9028.7173      317.98579      72.643367      15418.541    
      7200   8824.0546      60.399963      8884.4546      304.41332     -1561.8014      15418.541    
      7400   8947.5573      64.813177      9012.3705      326.65574     -1475.3966      15418.541    
      7600   8838.6253      61.774629      8900.3999      311.34158     -1607.6602      15418.541    
      7800   8868.0352      64.575458      8932.6107      325.45764     -39.80791       15418.541    
      8000   8997.6087      63.356481      9060.9652      319.31405     -1691.8944      15418.541    
      8200   8934.0306      63.472711      8997.5033      319.89985     -1116.3493      15418.541    
      8400   8935.784       62.387316      8998.1713      314.4295       212.06372      15418.541    
      8600   8679.6086      63.377988      8742.9866      319.42245      1230.2951      15418.541    
      8800   8900.7687      66.978818      8967.7475      337.57048     -1211.2065      15418.541    
      9000   8951.4276      64.924282      9016.3519      327.2157      -3973.3734      15418.541    
      9200   8857.0541      63.750555      8920.8047      321.30017     -193.52207      15418.541    
      9400   8870.8471      66.287438      8937.1345      334.08595      2740.8787      15418.541    
      9600   8824.6388      64.75512       8889.394       326.36313     -1514.6775      15418.541    
      9800   8918.0607      67.520404      8985.5811      340.30005     -1703.1955      15418.541    
     10000   8872.5273      65.182717      8937.71        328.51821     -375.02136      15418.541    
     10200   8904.1035      65.658087      8969.7616      330.91405     -1800.1543      15418.541    
     10400   8919.1179      66.662253      8985.7801      335.975        3106.4902      15418.541    
     10600   8792.7485      64.976558      8857.725       327.47917      1115.9902      15418.541    
     10800   8934.8627      66.781126      9001.6438      336.57412      1168.2761      15418.541    
     11000   8840.6153      64.886552      8905.5019      327.02555     -1983.9895      15418.541    
     11200   8806.1119      67.27436       8873.3862      339.06        -372.67285      15418.541    
     11400   8952.7273      64.570831      9017.2981      325.43433     -1505.5941      15418.541    
     11600   8904.1646      64.976516      8969.1411      327.47896      339.02042      15418.541    
     11800   8903.0495      65.855852      8968.9053      331.91078     -373.20159      15418.541    
     12000   8968.4835      64.127156      9032.6107      323.19822     -658.5902       15418.541    
     12200   8854.7968      65.427735      8920.2245      329.75309     -901.96045      15418.541    
     12400   8965.7289      66.040995      9031.7699      332.84389     -2791.7258      15418.541    
     12600   8966.7135      64.529818      9031.2433      325.22762     -1986.3661      15418.541    
     12800   8919.272       63.424177      8982.6961      319.65523     -2307.0155      15418.541    
     13000   8917.6486      64.535056      8982.1837      325.25402      1177.0449      15418.541    
     13200   8854.599       63.16061       8917.7596      318.32687      45.662718      15418.541    
     13400   8934.0876      63.362371      8997.45        319.34374     -1571.984       15418.541    
     13600   8947.3052      65.935723      9013.241       332.31333     -3290.5856      15418.541    
     13800   8884.3048      64.793994      8949.0988      326.55906     -406.55945      15418.541    
     14000   8965.2612      63.781715      9029.0429      321.45721     -323.20635      15418.541    
     14200   8900.6088      64.441848      8965.0506      324.78425     -741.22355      15418.541    
     14400   8933.5732      63.681181      8997.2544      320.95053     -1306.1214      15418.541    
     14600   8915.5328      66.143499      8981.6763      333.36051     -365.42026      15418.541    
     14800   8852.3687      65.869285      8918.238       331.97848      569.30494      15418.541    
     15000   8982.9505      64.017699      9046.9682      322.64656     -200.98013      15418.541    
     15200   8856.0533      63.770118      8919.8234      321.39876      2976.1496      15418.541    
     15400   8901.3335      67.325535      8968.6591      339.31792     -3290.6476      15418.541    
     15600   9015.0789      66.242945      9081.3219      333.86171      561.55654      15418.541    
     15800   8966.9952      66.798945      9033.7941      336.66393      5.940497       15418.541    
     16000   8983.0967      66.998109      9050.0948      337.66771     -141.21974      15418.541    
     16200   8937.6138      64.725503      9002.3393      326.21386     -2245.4764      15418.541    
     16400   8936.3056      66.236253      9002.5419      333.82798     -1304.387       15418.541    
     16600   8857.7464      64.929802      8922.6762      327.24352      360.06336      15418.541    
     16800   8888.0323      66.747984      8954.7803      336.40708     -2213.8185      15418.541    
     17000   9031.8205      67.022843      9098.8433      337.79237     -2621.8704      15418.541    
     17200   8919.545       67.36328       8986.9083      339.50815      937.77687      15418.541    
     17400   8823.1034      67.763057      8890.8665      341.52301     -1154.7656      15418.541    
     17600   8953.0397      65.712577      9018.7523      331.18868     -2661.2547      15418.541    
     17800   8921.6815      64.919894      8986.6014      327.19359     -1716.833       15418.541    
     18000   8952.3828      66.021121      9018.4039      332.74373      578.09162      15418.541    
     18200   8855.4142      66.727469      8922.1416      336.30369      785.16675      15418.541    
     18400   8905.5806      64.200306      8969.7809      323.56689      128.27372      15418.541    
     18600   8824.9535      64.377395      8889.3309      324.45942     -510.47666      15418.541    
     18800   8968.4833      64.282051      9032.7654      323.97888     -2408.5583      15418.541    
     19000   9031.8546      64.291614      9096.1462      324.02708     -2006.0417      15418.541    
     19200   8919.5468      64.010093      8983.5569      322.60823     -4291.865       15418.541    
     19400   9014.9649      64.051622      9079.0165      322.81753     -5064.1859      15418.541    
     19600   8871.5367      63.043057      8934.5797      317.73441     -1207.9936      15418.541    
     19800   8855.0027      63.227205      8918.2299      318.66251     -1383.8454      15418.541    
     20000   8886.263       63.773031      8950.036       321.41345     -370.90766      15418.541    
     20200   8854.5047      63.458371      8917.9631      319.82757     -142.46189      15418.541    
     20400   8966.7313      63.306835      9030.0382      319.06384     -2447.8442      15418.541    
     20600   9000.158       62.196331      9062.3543      313.46694     -2100.1622      15418.541    
     20800   8886.3282      64.693597      8951.0218      326.05306     -863.19591      15418.541    
     21000   8872.876       63.127984      8936.004       318.16244      646.02928      15418.541    
     21200   8855.2198      65.914134      8921.1339      332.20452      873.71262      15418.541    
     21400   8904.8856      65.168508      8970.0541      328.44659      433.50209      15418.541    
     21600   8951.3136      67.379953      9018.6936      339.59218     -3131.6187      15418.541    
     21800   8810.1867      64.919557      8875.1063      327.19189     -93.765639      15418.541    
     22000   8986.4387      64.955988      9051.3947      327.3755      -2046.2014      15418.541    
     22200   8873.4332      66.175905      8939.6091      333.52383      22.70439       15418.541    
     22400   8874.7187      65.007292      8939.726       327.63407      270.61395      15418.541    
     22600   8920.7639      67.012372      8987.7763      337.73959     -614.98374      15418.541    
     22800   8988.1145      63.639722      9051.7542      320.74157     -729.33239      15418.541    
     23000   8937.1601      66.576665      9003.7368      335.54364     -996.12021      15418.541    
     23200   8856.1196      67.482458      8923.602       340.1088       370.35723      15418.541    
     23400   8811.0109      64.352798      8875.3637      324.33545      200.19346      15418.541    
     23600   8889.2485      65.92499       8955.1735      332.25923     -287.03946      15418.541    
     23800   8809.5226      65.404784      8874.9274      329.63741     -630.35248      15418.541    
     24000   8890.016       64.629113      8954.6451      325.72806     -1446.3959      15418.541    
     24200   8891.5411      62.905938      8954.4471      317.04333     -1581.1095      15418.541    
     24400   8793.1133      65.211949      8858.3253      328.66553     -896.99975      15418.541    
     24600   8795.6735      62.603068      8858.2766      315.51688      493.40272      15418.541    
     24800   8824.5407      65.697575      8890.2382      331.11307     -1296.9771      15418.541    
     25000   9001.5066      64.717541      9066.2241      326.17373      1334.5305      15418.541    
     25200   8920.9391      65.365151      8986.3043      329.43767     -2289.6162      15418.541    
     25400   8856.7489      65.651832      8922.4008      330.88252      1517.0648      15418.541    
     25600   9064.286       66.215459      9130.5014      333.72318     -3046.0487      15418.541    
     25800   8937.9471      64.683855      9002.6309      326.00396     -1103.7039      15418.541    
     26000   8826.9103      63.894028      8890.8043      322.02327     -642.2214       15418.541    
     26200   8937.7982      65.249695      9003.0479      328.85577      1914.7511      15418.541    
     26400   8999.1763      68.146951      9067.3233      343.45782     -1045.1502      15418.541    
     26600   8967.6034      67.98382       9035.5872      342.63565     -476.92558      15418.541    
     26800   8952.8456      66.949652      9019.7953      337.42348     -2497.5179      15418.541    
     27000   9034.441       65.519189      9099.9602      330.21401     -986.34365      15418.541    
     27200   8728.6597      67.468514      8796.1282      340.03853     -2861.2489      15418.541    
     27400   8874.4457      65.846272      8940.2919      331.8625       482.33751      15418.541    
     27600   8875.9317      64.561682      8940.4933      325.38821      68.932009      15418.541    
     27800   8792.514       68.057588      8860.5716      343.00743     -1042.7141      15418.541    
     28000   8794.8267      65.681779      8860.5085      331.03346     -1280.1638      15418.541    
     28200   8699.6308      64.77744       8764.4082      326.47563     -620.15923      15418.541    
     28400   8888.3922      67.83157       8956.2238      341.86831      730.71841      15418.541    
     28600   8888.9892      66.87761       8955.8669      337.0604       1159.5717      15418.541    
     28800   9031.7247      67.649805      9099.3745      340.95222     -1324.7083      15418.541    
     29000   8873.4495      65.232322      8938.6819      328.76821     -2117.1249      15418.541    
     29200   9016.2048      65.69336       9081.8982      331.09182      528.86225      15418.541    
     29400   8888.4802      64.705082      8953.1853      326.11095     -342.29961      15418.541    
     29600   9032.8696      63.705578      9096.5752      321.07348     -2215.9652      15418.541    
     29800   8904.4089      63.765319      8968.1742      321.37458     -970.37689      15418.541    
     30000   8727.2555      64.6286        8791.8841      325.72548     -1739.0624      15418.541    
     30200   8950.5888      65.172271      9015.7611      328.46556     -2485.0602      15418.541    
     30400   8838.7728      64.931309      8903.7041      327.25112      2648.2123      15418.541    
     30600   8903.6316      64.083176      8967.7148      322.97657      264.24499      15418.541    
     30800   8918.9326      64.842197      8983.7748      326.802        458.16897      15418.541    
     31000   8790.416       65.460728      8855.8767      329.91937     -722.33091      15418.541    
     31200   8808.7837      63.30837       8872.092       319.07157     -1003.1238      15418.541    
     31400   9111.347       65.014074      9176.3611      327.66825      518.45128      15418.541    
     31600   8904.1311      64.63353       8968.7647      325.75032     -2.3062229      15418.541    
     31800   8776.5971      64.636313      8841.2335      325.76435     -1823.1024      15418.541    
     32000   9064.1612      65.515494      9129.6767      330.19539     -1369.9506      15418.541    
     32200   8951.7313      66.402339      9018.1336      334.66505     -1106.1699      15418.541    
     32400   8725.6743      68.828162      8794.5025      346.8911       1624.0956      15418.541    
     32600   8999.3355      67.444959      9066.7805      339.91981     -2428.1552      15418.541    
     32800   8890.1228      64.971197      8955.094       327.45215      674.9711       15418.541    
     33000   8856.3067      67.109112      8923.4158      338.22716      2514.4216      15418.541    
     33200   8905.6395      66.240886      8971.8804      333.85133     -2469.1296      15418.541    
     33400   8938.781       65.793667      9004.5746      331.59737     -1706.3883      15418.541    
     33600   8859.9212      65.55541       8925.4766      330.39656      566.56344      15418.541    
     33800   8889.6107      68.886152      8958.4968      347.18336      1401.7159      15418.541    
     34000   8908.3696      66.993312      8975.3629      337.64353     -409.14306      15418.541    
     34200   8926.6323      65.284989      8991.9173      329.03365     -115.87096      15418.541    
     34400   8810.6309      69.624056      8880.255       350.90237     -675.96904      15418.541    
     34600   8843.7618      68.60853       8912.3703      345.78416     -429.47875      15418.541    
     34800   9004.1582      68.116477      9072.2747      343.30423     -2816.8802      15418.541    
     35000   8699.7056      68.296934      8768.0025      344.21373      508.24653      15418.541    
     35200   8827.0598      68.608975      8895.6687      345.7864      -2047.9342      15418.541    
     35400   8763.7703      67.485793      8831.2561      340.12561     -986.65492      15418.541    
     35600   8970.5183      68.250886      9038.7692      343.98165     -2615.2387      15418.541    
     35800   8826.6968      67.504622      8894.2014      340.22051      1246.8406      15418.541    
     36000   8810.8361      66.753969      8877.5901      336.43725     -255.87509      15418.541    
     36200   8937.4912      67.472519      9004.9637      340.05871     -3348.8338      15418.541    
     36400   8762.4527      66.026529      8828.4792      332.77098     -2902.0288      15418.541    
     36600   8871.7846      68.318931      8940.1035      344.3246      -2353.4381      15418.541    
     36800   8954.3796      65.500976      9019.8806      330.12222     -2673.6331      15418.541    
     37000   8922.245       65.41663       8987.6617      329.69712     -1925.427       15418.541    
     37200   8969.5861      65.871023      9035.4571      331.98724     -3055.692       15418.541    
     37400   8890.3493      64.954699      8955.304       327.369       -1850.4532      15418.541    
     37600   8905.5314      65.59287       8971.1243      330.58536     -1282.9857      15418.541    
     37800   8810.016       64.902306      8874.9183      327.10494      350.07458      15418.541    
     38000   8922.0491      64.656905      8986.706       325.86814     -978.39524      15418.541    
     38200   8951.6117      66.945458      9018.5572      337.40235      753.64707      15418.541    
     38400   8793.7694      64.712761      8858.4822      326.14965     -810.63339      15418.541    
     38600   8953.7277      64.720949      9018.4486      326.19091     -2477.7939      15418.541    
     38800   8828.0438      62.455169      8890.499       314.77148     -4257.6079      15418.541    
     39000   8873.2311      65.387797      8938.6189      329.5518       594.37822      15418.541    
     39200   8825.3568      65.48843       8890.8452      330.05899      222.52711      15418.541    
     39400   8906.2294      64.904324      8971.1337      327.11511     -1665.1161      15418.541    
     39600   8890.92        64.651987      8955.572       325.84335      29.934037      15418.541    
     39800   8858.2039      66.033712      8924.2376      332.80718     -1885.1033      15418.541    
     40000   8891.6478      65.402202      8957.05        329.6244      -2074.7721      15418.541    
     40200   8795.7589      66.107674      8861.8666      333.17995      599.9337       15418.541    
     40400   8876.8384      65.786018      8942.6244      331.55882     -1014.3885      15418.541    
     40600   8891.5403      67.589347      8959.1296      340.64752     -1722.5361      15418.541    
     40800   8875.8842      67.502313      8943.3865      340.20887     -754.17362      15418.541    
     41000   8941.4793      66.041401      9007.5207      332.84594     -1624.6601      15418.541    
     41200   8702.1444      65.419134      8767.5635      329.70973     -1448.3314      15418.541    
     41400   8907.4786      68.027831      8975.5064      342.85746     -1597.0332      15418.541    
     41600   8734.4177      64.8986        8799.3163      327.08626      290.6362       15418.541    
     41800   8906.492       68.563817      8975.0558      345.55881     -1530.2474      15418.541    
     42000   8794.4008      68.280609      8862.6814      344.13145      306.2229       15418.541    
     42200   8844.4971      65.759773      8910.2569      331.42654     -1566.3832      15418.541    
     42400   8922.7753      67.002275      8989.7776      337.6887       661.02066      15418.541    
     42600   8746.9221      66.431293      8813.3534      334.81098      896.81249      15418.541    
     42800   8859.9474      64.990983      8924.9383      327.55187     -922.36796      15418.541    
     43000   8988.2752      64.334079      9052.6093      324.2411       282.77755      15418.541    
     43200   8763.609       64.740055      8828.3491      326.28721     -810.52987      15418.541    
     43400   8776.4264      67.735741      8844.1622      341.38534      584.12185      15418.541    
     43600   9018.9982      65.017671      9084.0158      327.68638      1395.1194      15418.541    
     43800   8809.2401      66.671212      8875.9113      336.02016     -541.65656      15418.541    
     44000   8922.9224      64.88278       8987.8052      327.00654     -1229.8842      15418.541    
     44200   9000.9846      66.765725      9067.7503      336.4965       322.17082      15418.541    
     44400   8938.7744      64.90016       9003.6746      327.09413     -838.92431      15418.541    
     44600   8905.8039      65.77422       8971.5781      331.49936     -1318.4267      15418.541    
     44800   8987.2774      64.204436      9051.4819      323.58771     -133.84021      15418.541    
     45000   8811.3259      64.08987       8875.4158      323.0103       162.57698      15418.541    
     45200   8873.3413      66.086961      8939.4283      333.07556      1888.1272      15418.541    
     45400   8809.2175      66.242924      8875.4605      333.8616      -2853.9472      15418.541    
     45600   8839.9634      67.482146      8907.4455      340.10723      1193.93        15418.541    
     45800   9048.7413      66.600837      9115.3422      335.66547     -1582.2184      15418.541    
     46000   8955.4556      63.730101      9019.1857      321.19708      380.18611      15418.541    
     46200   8920.3406      66.710003      8987.0506      336.21566     -1431.4018      15418.541    
     46400   8920.6196      66.272774      8986.8924      334.01205     -1705.7342      15418.541    
     46600   8889.2545      65.399981      8954.6545      329.61321     -3154.5418      15418.541    
     46800   8922.1688      64.152397      8986.3212      323.32544     -1221.7927      15418.541    
     47000   8936.0246      65.801468      9001.8261      331.63669     -798.12827      15418.541    
     47200   8982.5057      66.684832      9049.1906      336.0888       901.57111      15418.541    
     47400   8840.2495      64.225454      8904.475       323.69364     -1652.3735      15418.541    
     47600   9014.0767      65.707889      9079.7846      331.16505     -3126.8661      15418.541    
     47800   9015.687       63.483236      9079.1702      319.95289      183.56355      15418.541    
     48000   8871.1536      63.567693      8934.7213      320.37855     -2022.5193      15418.541    
     48200   8886.8763      63.593552      8950.4699      320.50888     -856.63634      15418.541    
     48400   8934.5387      63.788259      8998.3269      321.49019      1119.7769      15418.541    
     48600   8821.8358      64.518803      8886.3546      325.17211     -435.94635      15418.541    
     48800   8870.1409      64.300494      8934.4414      324.07184      1707.7336      15418.541    
     49000   9033.0385      61.629142      9094.6677      310.60834     -66.702703      15418.541    
     49200   8920.3907      62.659209      8983.0499      315.79983     -1070.101       15418.541    
     49400   9031.9748      63.554682      9095.5295      320.31297      2338.9607      15418.541    
     49600   8951.8535      64.256867      9016.1103      323.85196     -3352.8389      15418.541    
     49800   8633.6595      63.108764      8696.7683      318.06557     -971.09035      15418.541    
     50000   8855.449       65.97036       8921.4194      332.48789      616.68076      15418.541    
     50200   9000.9022      65.07765       9065.9798      327.98867     -1512.5254      15418.541    
     50400   8937.5813      64.753601      9002.3349      326.35548     -623.79021      15418.541    
     50600   8890.4835      64.069364      8954.5529      322.90695     -1537.8071      15418.541    
     50800   8904.4392      66.252769      8970.692       333.91122      79.648571      15418.541    
     51000   8793.3841      65.417894      8858.802       329.70349      508.42498      15418.541    
     51200   8967.9542      66.902633      9034.8568      337.18651      174.24073      15418.541    
     51400   8904.1628      66.649491      8970.8123      335.91069      152.46347      15418.541    
     51600   8823.459       67.28002       8890.739       339.08852     -822.16347      15418.541    
     51800   8983.2637      67.352638      9050.6163      339.45452     -693.67485      15418.541    
     52000   9002.1382      64.350953      9066.4891      324.32615     -2406.895       15418.541    
     52200   8907.3564      63.053935      8970.4103      317.78923     -3251.4422      15418.541    
     52400   8841.7403      64.673762      8906.4141      325.95309     -152.13151      15418.541    
     52600   8888.0473      66.384687      8954.4319      334.57609     -2009.7697      15418.541    
     52800   8920.6463      65.837958      8986.4842      331.82059     -1119.7842      15418.541    
     53000   9000.7123      65.838449      9066.5508      331.82307      667.79141      15418.541    
     53200   8937.6274      65.00062       9002.628       327.60044     -1570.0292      15418.541    
     53400   9001.0423      65.633682      9066.676       330.79105     -364.3759       15418.541    
     53600   8824.893       65.762182      8890.6552      331.43868      2234.0058      15418.541    
     53800   9000.3437      66.240091      9066.5838      333.84732      783.25324      15418.541    
     54000   8986.2195      64.237027      9050.4565      323.75197      1033.1785      15418.541    
     54200   9000.885       65.399741      9066.2847      329.612        437.10313      15418.541    
     54400   8778.2352      63.940911      8842.1761      322.25956     -676.72475      15418.541    
     54600   8889.2748      64.818996      8954.0938      326.68507     -76.393368      15418.541    
     54800   8936.4103      65.541891      9001.9522      330.32843     -2050.1264      15418.541    
     55000   8968.4334      65.394424      9033.8278      329.5852      -894.09459      15418.541    
     55200   8871.7701      65.982794      8937.7529      332.55056      188.4883       15418.541    
     55400   8825.1378      64.595146      8889.733       325.55687     -2141.0636      15418.541    
     55600   8921.8303      63.89045       8985.7207      322.00523     -78.782008      15418.541    
     55800   8872.1821      65.588868      8937.7709      330.56519     -7.7413307      15418.541    
     56000   8921.6971      64.100973      8985.7981      323.06626     -1608.657       15418.541    
     56200   8889.3886      64.498007      8953.8866      325.06729      1824.6065      15418.541    
     56400   8856.5045      65.519456      8922.024       330.21536     -130.2795       15418.541    
     56600   8888.5613      65.692271      8954.2536      331.08634      597.32792      15418.541    
     56800   8937.0934      65.499224      9002.5926      330.11339     -1438.2767      15418.541    
     57000   8939.1052      63.847554      9002.9527      321.78904     -1804.5651      15418.541    
     57200   8858.146       65.230967      8923.377       328.76138     -1575.1872      15418.541    
     57400   8937.9121      65.997295      9003.9094      332.62364     -896.88363      15418.541    
     57600   8778.9842      65.394263      8844.3785      329.58439      1597.4838      15418.541    
     57800   8859.2456      65.571933      8924.8175      330.47984     -2450.9267      15418.541    
     58000   8939.1909      66.055832      9005.2468      332.91867     -1287.5088      15418.541    
     58200   8889.2697      68.37937       8957.649       344.6292      -1016.4695      15418.541    
     58400   8796.1312      65.839401      8861.9706      331.82786     -785.40255      15418.541    
     58600   8781.11        65.125056      8846.235       328.22759     -2105.1113      15418.541    
     58800   8875.616       66.835449      8942.4515      336.84791     -1603.3412      15418.541    
     59000   8649.9432      68.637876      8718.5811      345.93206     -787.15681      15418.541    
     59200   8924.0941      66.487355      8990.5814      335.09352     -2421.1261      15418.541    
     59400   8874.7575      67.723269      8942.4808      341.32248     -656.62641      15418.541    
     59600   8908.7069      65.508168      8974.215       330.15846     -495.16802      15418.541    
     59800   8747.7038      66.017486      8813.7213      332.7254       1763.1297      15418.541    
     60000   8796.3844      64.628047      8861.0124      325.72269     -792.53157      15418.541    
     60200   8889.5659      66.535534      8956.1014      335.33635     -1944.7994      15418.541    
     60400   9032.7256      66.447417      9099.173       334.89224     -3814.9677      15418.541    
     60600   8936.9543      65.437019      9002.3913      329.79988     -3505.6729      15418.541    
     60800   8905.2507      64.59729       8969.848       325.56768     -548.01885      15418.541    
     61000   8906.0214      63.457074      8969.4785      319.82104     -2867.8585      15418.541    
     61200   8808.3605      64.888009      8873.2485      327.03289     -302.69412      15418.541    
     61400   8810.1323      62.995293      8873.1276      317.49368     -371.17293      15418.541    
     61600   8843.5727      61.599627      8905.1723      310.45958     -2.8643779      15418.541    
     61800   8857.7703      63.54206       8921.3124      320.24936     -4017.6409      15418.541    
     62000   8888.5285      64.991514      8953.52        327.55455     -2027.0969      15418.541    
     62200   8792.8406      64.910969      8857.7516      327.14861      212.79904      15418.541    
     62400   8778.9196      63.098361      8842.0179      318.01313      2103.3081      15418.541    
     62600   8745.5549      64.811281      8810.3661      326.64618     -247.72612      15418.541    
     62800   8905.771       64.956391      8970.7274      327.37753      1289.5961      15418.541    
     63000   8844.5177      62.649196      8907.1669      315.74936     -1457.9133      15418.541    
     63200   8873.7603      65.937744      8939.6981      332.32351      1653.7064      15418.541    
     63400   8922.8858      65.358982      8988.2448      329.40657      686.0434       15418.541    
     63600   8843.0062      65.805415      8908.8116      331.65658      970.42394      15418.541    
     63800   8891.4798      65.854841      8957.3346      331.90568      328.39399      15418.541    
     64000   8908.6834      65.04924       8973.7326      327.84549     -724.32117      15418.541    
     64200   8891.441       66.612957      8958.054       335.72656     -948.47337      15418.541    
     64400   8859.5668      66.690036      8926.2569      336.11503     -96.614902      15418.541    
     64600   8892.0824      66.282297      8958.3647      334.06004     -1433.6619      15418.541    
     64800   8812.5399      65.805447      8878.3454      331.65674     -1831.3561      15418.541    
     65000   8973.2186      65.058397      9038.277       327.89164     -3594.7512      15418.541    
     65200   8939.376       66.764063      9006.1401      336.48812     -567.63985      15418.541    
     65400   8955.6124      66.386646      9021.9991      334.58596     -1185.7643      15418.541    
     65600   8874.7945      67.032135      8941.8266      337.8392      -50.963307      15418.541    
     65800   8811.3082      66.297112      8877.6053      334.13471     -2604.868       15418.541    
     66000   8842.9416      66.414521      8909.3561      334.72645      312.67036      15418.541    
     66200   8906.5517      66.513044      8973.0647      335.223       -2631.6815      15418.541    
     66400   8875.239       65.542031      8940.781       330.32913     -3269.4759      15418.541    
     66600   8937.8295      66.67094       9004.5005      336.01879     -1722.4155      15418.541    
     66800   8937.6954      66.47868       9004.1741      335.04981     -873.45171      15418.541    
     67000   8840.7898      67.006992      8907.7968      337.71247     -256.1608       15418.541    
     67200   8873.9304      65.435009      8939.3654      329.78975     -619.01835      15418.541    
     67400   8843.1519      63.862148      8907.014       321.86259      200.57969      15418.541    
     67600   8889.5273      65.262225      8954.7895      328.91892      351.82975      15418.541    
     67800   8809.6446      64.887497      8874.5321      327.03031     -1698.8039      15418.541    
     68000   8856.9922      65.32156       8922.3138      329.21797     -3852.9901      15418.541    
     68200   8840.7745      65.366918      8906.1414      329.44657     -1748.1283      15418.541    
     68400   8823.9385      66.062263      8890.0008      332.95108     -2135.5276      15418.541    
     68600   8776.8259      65.020309      8841.8462      327.69967     -356.0467       15418.541    
     68800   8776.4635      65.251316      8841.7148      328.86394     -807.97644      15418.541    
     69000   8919.2354      66.331189      8985.5665      334.30645     -1043.6832      15418.541    
     69200   8953.8334      63.533992      9017.3674      320.2087       1440.1437      15418.541    
     69400   8999.4368      65.636643      9065.0735      330.80597     -46.101612      15418.541    
     69600   8934.6477      65.995879      9000.6436      332.61651      129.4227       15418.541    
     69800   8949.9597      66.158978      9016.1187      333.43852     -2007.2595      15418.541    
     70000   8918.1097      65.382944      8983.4927      329.52734     -558.86729      15418.541    
     70200   8950.5396      64.362468      9014.902       324.38418      951.08439      15418.541    
     70400   8838.4544      63.949314      8902.4037      322.30191      2410.4428      15418.541    
     70600   8855.5149      62.552245      8918.0671      315.26074     -1715.091       15418.541    
     70800   8885.2189      64.694114      8949.913       326.05566     -2622.9154      15418.541    
     71000   8935.2753      62.628888      8997.9042      315.64701     -1188.7464      15418.541    
     71200   8998.7098      63.355099      9062.0649      319.30708     -2849.9312      15418.541    
     71400   8888.3176      62.027813      8950.3454      312.61762      688.62577      15418.541    
     71600   8981.4441      65.349405      9046.7935      329.3583      -383.30261      15418.541    
     71800   8711.0413      64.368421      8775.4098      324.41419      108.05515      15418.541    
     72000   8967.2852      64.77434       9032.0596      326.46         403.6154       15418.541    
     72200   8888.6743      64.052911      8952.7272      322.82403     -738.31216      15418.541    
     72400   8694.1224      67.251289      8761.3737      338.94372      2768.4218      15418.541    
     72600   8824.2266      65.617786      8889.8443      330.71093      1081.1747      15418.541    
     72800   8964.7303      69.406839      9034.1371      349.8076       1211.5523      15418.541    
     73000   8985.5919      64.69382       9050.2857      326.05418     -1523.5671      15418.541    
     73200   8998.8543      67.458824      9066.3131      339.98969     -1501.4837      15418.541    
     73400   8824.4545      65.871613      8890.3262      331.99021      1179.0666      15418.541    
     73600   8839.371       66.914018      8906.2851      337.24389     -21.232061      15418.541    
     73800   8905.026       65.185242      8970.2113      328.53093     -47.558733      15418.541    
     74000   8839.6639      66.438935      8906.1028      334.84949     -1565.569       15418.541    
     74200   8920.362       65.547767      8985.9098      330.35804     -1281.6478      15418.541    
     74400   8872.4639      65.194938      8937.6588      328.5798      -951.69194      15418.541    
     74600   8968.2559      65.142936      9033.3988      328.31771     -1363.1463      15418.541    
     74800   8854.669       66.427794      8921.0968      334.79334      623.81159      15418.541    
     75000   8792.8382      63.938631      8856.7768      322.24806      47.624928      15418.541    
     75200   9017.9817      62.532616      9080.5143      315.1618      -1217.4279      15418.541    
     75400   8757.9657      66.280484      8824.2462      334.0509      -1004.5712      15418.541    
     75600   8873.3375      62.612187      8935.9497      315.56284     -186.02237      15418.541    
     75800   8839.6605      63.942741      8903.6032      322.26878     -1048.9716      15418.541    
     76000   8916.8425      66.347409      8983.1899      334.3882      -1550.044       15418.541    
     76200   8822.6045      64.080709      8886.6852      322.96413     -2208.3314      15418.541    
     76400   8950.8238      63.391335      9014.2151      319.48971     -2416.753       15418.541    
     76600   8917.9165      63.943624      8981.8601      322.27323     -2431.3304      15418.541    
     76800   8935.2267      62.387791      8997.6145      314.43189     -1317.4639      15418.541    
     77000   8949.3118      64.126186      9013.438       323.19333     -728.23122      15418.541    
     77200   9094.613       62.77984       9157.3929      316.40781     -1375.7276      15418.541    
     77400   8949.7964      63.709924      9013.5064      321.09539      577.17869      15418.541    
     77600   8886.3299      63.424895      8949.7547      319.65885      2519.613       15418.541    
     77800   8838.0091      64.085206      8902.0943      322.98679      64.383905      15418.541    
     78000   8806.8669      63.711611      8870.5785      321.10389      2951.422       15418.541    
     78200   8871.7808      63.436301      8935.2171      319.71634      1565.5598      15418.541    
     78400   8758.6858      65.272158      8823.9579      328.96898      2.8859012      15418.541    
     78600   8917.9633      66.726218      8984.6895      336.29739     -14.576284      15418.541    
     78800   8903.7301      65.561951      8969.292       330.42953     -2022.0955      15418.541    
     79000   8858.061       63.753842      8921.8149      321.31673     -1057.8951      15418.541    
     79200   8952.0301      66.236226      9018.2663      333.82785     -959.36451      15418.541    
     79400   8968.122       66.514743      9034.6367      335.23156     -1141.3475      15418.541    
     79600   8940.0651      62.853581      9002.9186      316.77946     -975.69953      15418.541    
     79800   8873.1665      66.028904      8939.1954      332.78295      1003.0711      15418.541    
     80000   8921.5529      65.901621      8987.4545      332.14145      1088.3004      15418.541    
     80200   8889.1361      66.513115      8955.6492      335.22336     -1231.4013      15418.541    
     80400   8794.2048      65.616613      8859.8214      330.70502      957.44747      15418.541    
     80600   8873.2979      66.553917      8939.8518      335.429       -3113.0937      15418.541    
     80800   8890.2113      65.596185      8955.8075      330.60206     -2404.541       15418.541    
     81000   8889.7902      65.934785      8955.7249      332.3086      -182.41499      15418.541    
     81200   8919.8673      67.732667      8987.6         341.36985     -135.45684      15418.541    
     81400   8969.0117      66.28549       9035.2972      334.07614     -482.76138      15418.541    
     81600   8889.1588      65.706982      8954.8657      331.16048      1440.4419      15418.541    
     81800   8856.549       65.826435      8922.3754      331.76252     -3607.291       15418.541    
     82000   8920.8426      64.982782      8985.8254      327.51054      703.5775       15418.541    
     82200   8949.8676      67.253988      9017.1216      338.95732     -1158.1544      15418.541    
     82400   8951.2693      65.12369       9016.393       328.22071      1159.3538      15418.541    
     82600   8824.3063      63.438913      8887.7452      319.7295      -2497.4028      15418.541    
     82800   8981.3656      65.861825      9047.2274      331.94088     -1838.9362      15418.541    
     83000   8933.7145      65.071744      8998.7862      327.95891     -536.06352      15418.541    
     83200   8901.3432      65.098791      8966.442       328.09522     -2043.3538      15418.541    
     83400   8868.2051      66.061877      8934.267       332.94914     -2719.9099      15418.541    
     83600   9030.4982      63.700596      9094.1988      321.04837     -1377.7061      15418.541    
     83800   8917.174       65.056381      8982.2304      327.88148     -744.27846      15418.541    
     84000   8965.1335      65.211915      9030.3454      328.66536     -1512.959       15418.541    
     84200   8967.2222      63.25793       9030.4801      318.81736     -2448.9418      15418.541    
     84400   8743.7246      62.908961      8806.6335      317.05857      1610.5955      15418.541    
     84600   8933.99        64.822091      8998.8121      326.70067     -3471.2135      15418.541    
     84800   8918.5223      64.546208      8983.0686      325.31023      2054.6614      15418.541    
     85000   8918.0569      65.257896      8983.3148      328.8971      -100.98937      15418.541    
     85200   8838.8464      64.737569      8903.584       326.27468     -3176.466       15418.541    
     85400   9045.7652      66.14603       9111.9113      333.37326     -1690.8417      15418.541    
     85600   8951.2385      65.028924      9016.2675      327.7431      -843.09237      15418.541    
     85800   8792.2354      64.431059      8856.6664      324.72988     -817.43727      15418.541    
     86000   8952.6098      64.457047      9017.0668      324.86086     -365.60568      15418.541    
     86200   8839.1439      66.36338       8905.5073      334.4687       385.64884      15418.541    
     86400   8983.8314      66.085674      9049.9171      333.06907     -3700.1184      15418.541    
     86600   8985.5065      64.78095       9050.2875      326.49331     -1923.3726      15418.541    
     86800   8919.5229      67.138108      8986.661       338.37329     -973.94299      15418.541    
     87000   8872.0624      66.854192      8938.9166      336.94237     -2416.1855      15418.541    
     87200   8889.4192      65.676556      8955.0958      331.00713      412.43186      15418.541    
     87400   8967.0477      68.126226      9035.174       343.35337     -3146.5627      15418.541    
     87600   8968.8382      66.382733      9035.2209      334.56624     -2323.8371      15418.541    
     87800   8920.3601      66.798977      8987.1591      336.66409      47.550533      15418.541    
     88000   8954.6194      64.436794      9019.0562      324.75878     -1986.85        15418.541    
     88200   8904.1059      66.807785      8970.9137      336.70848     -993.9958       15418.541    
     88400   8937.2907      65.505049      9002.7957      330.14274     -2897.4224      15418.541    
     88600   8903.488       67.244796      8970.7328      338.911       -1570.1538      15418.541    
     88800   9000.5863      66.043697      9066.6299      332.85751     -730.65328      15418.541    
     89000   8858.7397      63.858122      8922.5978      321.8423      -1950.8665      15418.541    
     89200   8841.145       65.444195      8906.5892      329.83604      161.66692      15418.541    
     89400   8857.9952      64.630711      8922.6259      325.73612      462.03068      15418.541    
     89600   8938.3587      64.328259      9002.687       324.21177     -975.77151      15418.541    
     89800   8937.4213      65.312173      9002.7335      329.17066     -1592.0667      15418.541    
     90000   9017.1295      65.689298      9082.8188      331.07135      432.82064      15418.541    
     90200   8792.3911      66.518932      8858.91        335.25267     -596.52867      15418.541    
     90400   8919.77        67.135601      8986.9056      338.36066      1398.2689      15418.541    
     90600   8954.84        64.076052      9018.916       322.94066     -469.64209      15418.541    
     90800   8746.5051      64.434286      8810.9394      324.74614      308.06103      15418.541    
     91000   8825.6787      65.33394       8891.0126      329.28036     -2041.4486      15418.541    
     91200   9000.3616      66.733102      9067.0947      336.33208     -2375.7965      15418.541    
     91400   8921.6825      65.604928      8987.2874      330.64613     -1244.349       15418.541    
     91600   8778.8996      64.654557      8843.5542      325.8563      -234.79279      15418.541    
     91800   8874.4528      65.523536      8939.9764      330.23592     -674.83721      15418.541    
     92000   8858.2838      66.20418       8924.488       333.66634      1893.022       15418.541    
     92200   8905.9405      67.092193      8973.0327      338.14188     -109.20676      15418.541    
     92400   8778.2616      67.232565      8845.4941      338.84935      953.02601      15418.541    
     92600   8904.5278      69.291964      8973.8198      349.22864      1093.0569      15418.541    
     92800   8842.1239      67.844272      8909.9681      341.93233      2867.0029      15418.541    
     93000   9017.7197      68.26237       9085.982       344.03953      1063.7747      15418.541    
     93200   8780.1417      65.677484      8845.8191      331.01181     -344.35487      15418.541    
     93400   8954.3799      67.127337      9021.5072      338.31901     -496.00039      15418.541    
     93600   8903.9623      69.056645      8973.019       348.04264     -942.97567      15418.541    
     93800   8859.2944      65.075667      8924.37        327.97868     -1282.9155      15418.541    
     94000   8953.5835      66.047905      9019.6314      332.87871     -2452.9428      15418.541    
     94200   8776.6457      66.292399      8842.9381      334.11096     -311.44458      15418.541    
     94400   8903.9523      66.31886       8970.2712      334.24432     -742.31975      15418.541    
     94600   8872.6885      65.038121      8937.7266      327.78945     -1618.699       15418.541    
     94800   8965.9757      67.357231      9033.3329      339.47766     -1618.7145      15418.541    
     95000   8967.9116      65.106549      9033.0182      328.13432     -234.09352      15418.541    
     95200   8825.2703      63.526267      8888.7965      320.16977      629.84298      15418.541    
     95400   9078.3114      66.329525      9144.6409      334.29807     -1338.7413      15418.541    
     95600   8822.947       65.559958      8888.507       330.41949      1305.7241      15418.541    
     95800   8855.0642      65.248397      8920.3126      328.84923     -1917.524       15418.541    
     96000   8712.3842      63.732367      8776.1166      321.2085       94.825809      15418.541    
     96200   8919.2036      64.765318      8983.9689      326.41453     -1200.9198      15418.541    
     96400   8999.1738      64.602017      9063.7758      325.5915      -1885.0035      15418.541    
     96600   8775.9881      63.67325       8839.6613      320.91055     -3367.9254      15418.541    
     96800   8888.6517      63.009083      8951.6607      317.56318     -1111.5995      15418.541    
     97000   8949.6125      66.08162       9015.6941      333.04864      661.42436      15418.541    
     97200   8868.6969      67.059974      8935.7568      337.9795       2258.4259      15418.541    
     97400   8983.794       63.968336      9047.7623      322.39777     -923.99432      15418.541    
     97600   8949.4608      66.256824      9015.7177      333.93166     -330.70262      15418.541    
     97800   8998.9238      64.73822       9063.662       326.27796     -2357.0399      15418.541    
     98000   8900.1776      67.371505      8967.5491      339.54961     -37.568471      15418.541    
     98200   8756.8164      66.603472      8823.4199      335.67875      77.26826       15418.541    
     98400   9012.702       66.516092      9079.2181      335.23836      134.83446      15418.541    
     98600   9063.0999      63.855453      9126.9554      321.82885     -1806.1393      15418.541    
     98800   8886.5306      64.101118      8950.6317      323.06699     -237.89044      15418.541    
     99000   8902.3021      64.05767       8966.3598      322.84801      1884.2476      15418.541    
     99200   8979.169       66.91043       9046.0795      337.22581     -382.01804      15418.541    
     99400   8936.2176      61.569032      8997.7866      310.30538     -1286.2538      15418.541    
     99600   8980.343       65.217864      9045.5608      328.69534     -2391.4162      15418.541    
     99800   8804.6068      64.791399      8869.3982      326.54598      61.494487      15418.541    
    100000   8818.9363      66.339234      8885.2756      334.347       -857.97456      15418.541    
    100200   9028.3057      64.893522      9093.1992      327.06068     -296.5274       15418.541    
    100400   8964.7217      64.452006      9029.1738      324.83545      1083.3863      15418.541    
    100600   8917.005       64.171196      8981.1762      323.42018     -2184.2227      15418.541    
    100800   8997.6082      63.685588      9061.2938      320.97274     -768.00768      15418.541    
    101000   8899.7663      65.768456      8965.5347      331.4703       833.83267      15418.541    
    101200   8932.8944      65.004874      8997.8992      327.62188      580.75727      15418.541    
    101400   8918.8106      63.538274      8982.3488      320.23028     -617.16111      15418.541    
    101600   8836.9282      65.919907      8902.8482      332.23361      133.5497       15418.541    
    101800   8917.128       66.287409      8983.4154      334.08581     -1945.9645      15418.541    
    102000   8855.2826      64.690008      8919.9726      326.03497     -739.28216      15418.541    
    102200   9014.6487      65.877641      9080.5263      332.0206      -700.95264      15418.541    
    102400   8949.2193      67.83396       9017.0532      341.88036      1237.8654      15418.541    
    102600   8855.2875      66.279967      8921.5674      334.0483      -2820.0754      15418.541    
    102800   8856.5334      65.462871      8921.9963      329.93017     -1266.9486      15418.541    
    103000   8919.0312      67.309043      8986.3402      339.2348       139.02594      15418.541    
    103200   8872.3595      66.189149      8938.5487      333.59058      243.42105      15418.541    
    103400   8824.7462      65.870453      8890.6166      331.98436      1151.4524      15418.541    
    103600   8903.2547      67.35688       8970.6115      339.4759       996.8727       15418.541    
    103800   8984.4886      66.02172       9050.5103      332.74675      941.13337      15418.541    
    104000   8871.3463      67.01543       8938.3617      337.755       -344.54133      15418.541    
    104200   8936.6361      65.653817      9002.2899      330.89253     -1528.3199      15418.541    
    104400   8936.6129      65.555166      9002.1681      330.39533     -1634.3942      15418.541    
    104600   8792.8016      65.199787      8858.0014      328.60424     -853.59187      15418.541    
    104800   8822.503       67.257266      8889.7603      338.97384     -3001.7911      15418.541    
    105000   8887.7621      65.73861       8953.5007      331.31988     -753.40044      15418.541    
    105200   8824.6115      64.683182      8889.2946      326.00057      828.38862      15418.541    
    105400   8886.1822      67.00388       8953.1861      337.69679     -4433.3784      15418.541    
    105600   8839.783       65.343239      8905.1262      329.32723      195.53767      15418.541    
    105800   8822.4187      66.643795      8889.0625      335.88198      100.45297      15418.541    
    106000   9000.9635      64.048683      9065.0122      322.80272     -2993.5998      15418.541    
    106200   9015.9439      65.065414      9081.0093      327.927       -3425.8462      15418.541    
    106400   8822.9047      66.127329      8889.032       333.27901     -2268.2706      15418.541    
    106600   8855.0839      65.945466      8921.0294      332.36243      478.39918      15418.541    
    106800   8952.3102      64.691369      9017.0015      326.04183     -325.37595      15418.541    
    107000   8922.3556      62.654582      8985.0102      315.77651     -2544.6892      15418.541    
    107200   8872.2222      64.81968       8937.0419      326.68851      1628.8952      15418.541    
    107400   8953.8189      63.297221      9017.1161      319.01538     -1100.9981      15418.541    
    107600   9065.1915      64.004136      9129.1956      322.5782      -1782.9528      15418.541    
    107800   8807.0225      66.270914      8873.2934      334.00267      2319.1479      15418.541    
    108000   8934.536       66.876905      9001.4129      337.05684     -2304.8166      15418.541    
    108200   8886.8669      66.674722      8953.5416      336.03785     -3187.2669      15418.541    
    108400   8887.8836      65.767933      8953.6515      331.46767      772.36271      15418.541    
    108600   8746.2139      63.629949      8809.8439      320.69232     -1684.2568      15418.541    
    108800   9000.6647      65.436339      9066.1011      329.79645     -936.15382      15418.541    
    109000   8920.7603      65.672391      8986.4326      330.98614     -1681.3601      15418.541    
    109200   8920.6402      66.225979      8986.8662      333.7762      -1740.1297      15418.541    
    109400   8889.9667      65.491847      8955.4586      330.07621     -1324.7839      15418.541    
    109600   8889.919       66.197854      8956.1168      333.63445     -1932.024       15418.541    
    109800   8810.3495      66.442354      8876.7918      334.86672     -1630.2322      15418.541    
    110000   8906.2487      67.186278      8973.435       338.61607     -1340.7007      15418.541    
    110200   8906.3578      67.526192      8973.884       340.32922      1511.2158      15418.541    
    110400   8905.2319      68.94215       8974.174       347.46559     -1606.0831      15418.541    
    110600   8810.782       67.460264      8878.2423      339.99695     -741.63159      15418.541    
    110800   9002.4748      67.678485      9070.1533      341.09677     -1225.6615      15418.541    
    111000   8953.2396      68.572291      9021.8119      345.60152      1119.5314      15418.541    
    111200   8937.4445      67.808942      9005.2535      341.75427     -1008.8957      15418.541    
    111400   8904.7801      67.688493      8972.4686      341.14721     -218.49383      15418.541    
    111600   8842.0631      65.560775      8907.6239      330.4236      -2108.9402      15418.541    
    111800   8967.4647      67.467713      9034.9325      340.03449     -1542.3418      15418.541    
    112000   8966.1907      68.215518      9034.4062      343.8034      -470.78087      15418.541    
    112200   8887.7797      66.206163      8953.9859      333.67633      106.8163       15418.541    
    112400   8904.1988      65.506871      8969.7057      330.15193     -1395.7052      15418.541    
    112600   8855.7313      65.762424      8921.4938      331.4399       719.46234      15418.541    
    112800   8919.3442      65.969129      8985.3133      332.48169      2509.9756      15418.541    
    113000   8950.2709      66.837592      9017.1085      336.85871      826.02603      15418.541    
    113200   8902.7632      66.107239      8968.8704      333.17776      1587.4202      15418.541    
    113400   9014.6388      65.95078       9080.5896      332.38921     -171.99695      15418.541    
    113600   8920.2236      64.06248       8984.2861      322.87226     -1206.9982      15418.541    
    113800   8967.6458      64.336178      9031.982       324.25168     -2046.7369      15418.541    
    114000   8902.1691      65.500664      8967.6697      330.12065     -700.30606      15418.541    
    114200   8935.4146      63.947389      8999.362       322.2922      -2840.667       15418.541    
    114400   8997.0355      66.058179      9063.0936      332.9305      -1940.2532      15418.541    
    114600   8902.8041      64.009463      8966.8135      322.60505     -2329.7814      15418.541    
    114800   9047.6871      62.889581      9110.5767      316.96089     -368.8735       15418.541    
    115000   8933.0266      65.327635      8998.3543      329.24858      373.00095      15418.541    
    115200   8920.3167      61.898098      8982.2148      311.96386      1228.8807      15418.541    
    115400   8934.6752      63.554333      8998.2296      320.31122     -142.5107       15418.541    
    115600   8918.9372      63.459419      8982.3967      319.83285      80.18427       15418.541    
    115800   9095.2893      63.478771      9158.7681      319.93039     -256.93787      15418.541    
    116000   8871.4498      63.835535      8935.2853      321.72846     -1105.4224      15418.541    
    116200   8905.5262      62.501071      8968.0272      315.00282     -1583.6031      15418.541    
    116400   8968.6579      64.233915      9032.8918      323.73628      71.718291      15418.541    
    116600   8871.0394      66.685636      8937.725       336.09285      178.87841      15418.541    
    116800   8760.2635      66.16271       8826.4262      333.45733      67.137343      15418.541    
    117000   9015.8818      66.979401      9082.8612      337.57342     -2554.6452      15418.541    
    117200   8825.2593      65.85383       8891.1132      331.90059      2049.9761      15418.541    
    117400   8873.1908      66.131982      8939.3228      333.30246     -3159.3189      15418.541    
    117600   8874.1634      65.260732      8939.4241      328.9114       751.55251      15418.541    
    117800   8936.3231      67.117249      9003.4404      338.26816     -1530.6912      15418.541    
    118000   8853.7713      69.507612      8923.2789      350.31549      2178.7017      15418.541    
    118200   8858.6295      64.446514      8923.0761      324.80777      1023.5235      15418.541    
    118400   8952.4469      66.361959      9018.8088      334.46154     -1363.8287      15418.541    
    118600   9000.823       65.713709      9066.5367      331.19438     -3935.1912      15418.541    
    118800   8888.4724      65.728776      8954.2012      331.27032     -2288.1498      15418.541    
    119000   8857.305       64.540181      8921.8452      325.27985      97.230863      15418.541    
    119200   8917.2406      68.249697      8985.4903      343.97566     -1663.0137      15418.541    
    119400   8821.5798      67.488454      8889.0682      340.13902     -109.01848      15418.541    
    119600   8823.0515      65.572693      8888.6242      330.48367     -1127.8156      15418.541    
    119800   8999.332       64.81824       9064.1502      326.68125     -1468.1385      15418.541    
    120000   9016.1577      63.594538      9079.7523      320.51385     -1980.2056      15418.541    
    120200   8839.6742      63.73643       8903.4107      321.22898     -2207.1479      15418.541    
    120400   8918.8581      64.273529      8983.1316      323.93593     -2514.5341      15418.541    
    120600   8759.5969      63.314749      8822.9116      319.10372     -217.14904      15418.541    
    120800   8918.395       64.308715      8982.7038      324.11327     -1247.2571      15418.541    
    121000   9013.1141      65.396032      9078.5101      329.5933      -1326.076       15418.541    
    121200   8806.4931      63.901769      8870.3948      322.06228     -1688.9456      15418.541    
    121400   9013.6493      64.705819      9078.3551      326.11466      944.18931      15418.541    
    121600   9012.1218      66.311657      9078.4335      334.20802      922.87751      15418.541    
    121800   8774.5281      64.112851      8838.6409      323.12613      46.264546      15418.541    
    122000   9013.7955      65.186799      9078.9823      328.53878      523.99026      15418.541    
    122200   8854.3783      65.11404       8919.4924      328.17207     -250.82169      15418.541    
    122400   8920.4106      63.674072      8984.0847      320.91469      1533.7842      15418.541    
    122600   8905.3039      63.485205      8968.7891      319.96282     -1648.9398      15418.541    
    122800   8873.2701      64.250618      8937.5207      323.82046     -1880.3729      15418.541    
    123000   8903.4111      66.75          8970.1611      336.41724     -2369.0593      15418.541    
    123200   8953.4118      65.28112       9018.6929      329.01415     -2713.3314      15418.541    
    123400   8920.2561      66.900577      8987.1566      337.17615     -2310.9971      15418.541    
    123600   8872.4026      67.169228      8939.5719      338.53014     -3018.5595      15418.541    
    123800   8794.6613      65.255404      8859.9167      328.88455      841.78628      15418.541    
    124000   8872.3568      67.908951      8940.2658      342.25831     -621.07337      15418.541    
    124200   8923.6007      64.924883      8988.5256      327.21873     -1736.7432      15418.541    
    124400   8828.2426      64.467079      8892.7097      324.91142     -310.22932      15418.541    
    124600   8904.5089      68.334717      8972.8437      344.40415     -2284.3696      15418.541    
    124800   8890.8623      66.007189      8956.8695      332.67351     -1743.8148      15418.541    
    125000   8860.0724      64.816922      8924.8893      326.67461     -946.25807      15418.541    
    125200   8733.1682      63.815778      8796.984       321.62889     -2582.1445      15418.541    
    125400   8829.0429      64.121678      8893.1646      323.17061     -2993.7904      15418.541    
    125600   8905.2302      68.164287      8973.3944      343.54519     -1635.3726      15418.541    
    125800   9034.4131      67.181731      9101.5948      338.59315      2356.4914      15418.541    
    126000   8861.1813      64.521698      8925.703       325.1867      -65.037776      15418.541    
    126200   8874.7888      66.898558      8941.6874      337.16597      55.078156      15418.541    
    126400   8779.7656      65.8783        8845.6439      332.02391     -1731.4896      15418.541    
    126600   8905.9548      67.553811      8973.5086      340.46842     -162.01846      15418.541    
    126800   8842.2081      66.941511      8909.1496      337.38246     -587.79598      15418.541    
    127000   8939.5814      65.038412      9004.6199      327.79092     -1467.951       15418.541    
    127200   8745.4073      66.538398      8811.9457      335.35078      598.41664      15418.541    
    127400   8856.8594      66.310059      8923.1695      334.19996     -2188.0434      15418.541    
    127600   8794.6383      63.809414      8858.4477      321.59681      226.09784      15418.541    
    127800   8857.0705      64.746589      8921.8171      326.32014      1147.1217      15418.541    
    128000   8793.0484      64.31531       8857.3637      324.14651     -1104.1738      15418.541    
    128200   8853.753       67.257306      8921.0103      338.97405     -409.5032       15418.541    
    128400   8951.1124      65.708402      9016.8208      331.16763      784.83558      15418.541    
    128600   8761.3233      63.369826      8824.6931      319.38131     -1245.5953      15418.541    
    128800   9017.324       63.331043      9080.6551      319.18585      1447.4669      15418.541    
    129000   8920.6573      64.061665      8984.719       322.86815     -978.58096      15418.541    
    129200   8792.9946      63.828614      8856.8232      321.69358      466.51686      15418.541    
    129400   8999.4285      65.574862      9065.0033      330.4946      -2632.3334      15418.541    
    129600   8728.5943      64.608548      8793.2029      325.62442      1175.6536      15418.541    
    129800   8792.1765      65.28048       8857.4569      329.01093      236.42619      15418.541    
    130000   8920.4264      65.375809      8985.8023      329.49138     -334.76235      15418.541    
    130200   8938.7104      63.511843      9002.2222      320.09707     -999.3321       15418.541    
    130400   8857.6526      65.238377      8922.891       328.79873     -2198.6884      15418.541    
    130600   8905.359       66.327337      8971.6864      334.28704     -463.356        15418.541    
    130800   8938.9092      65.651731      9004.5609      330.88202     -2282.0526      15418.541    
    131000   8634.8309      66.496417      8701.3273      335.1392       710.31759      15418.541    
    131200   8907.3407      66.518147      8973.8588      335.24872     -837.16546      15418.541    
    131400   8923.7034      66.481041      8990.1844      335.06171     -589.7554       15418.541    
    131600   8826.8099      67.476162      8894.2861      340.07707     -1651.3827      15418.541    
    131800   8876.9497      65.340455      8942.2902      329.3132      -228.04298      15418.541    
    132000   8798.4803      63.740946      8862.2213      321.25174      257.28813      15418.541    
    132200   8987.0194      67.102439      9054.1218      338.19353     -1071.9796      15418.541    
    132400   8890.6851      67.312935      8957.998       339.25441     -1952.9065      15418.541    
    132600   8779.2873      66.448393      8845.7356      334.89716     -1135.8987      15418.541    
    132800   8907.7585      65.674686      8973.4332      330.99771      420.03988      15418.541    
    133000   8891.1359      65.97961       8957.1155      332.53451     -1774.4204      15418.541    
    133200   8763.9654      64.786407      8828.7519      326.52082      657.90158      15418.541    
    133400   9000.6222      67.738873      9068.3611      341.40113     -1629.8829      15418.541    
    133600   8794.1859      65.775082      8859.961       331.5037       279.84176      15418.541    
    133800   8906.7471      64.810816      8971.558       326.64384     -2229.7001      15418.541    
    134000   9001.0019      66.111623      9067.1135      333.19985      135.16395      15418.541    
    134200   8889.8042      64.882161      8954.6864      327.00342     -4368.8229      15418.541    
    134400   8890.0872      64.202858      8954.29        323.57976      247.88101      15418.541    
    134600   8999.1974      66.745368      9065.9428      336.3939      -2310.3991      15418.541    
    134800   9000.7544      64.871608      9065.626       326.95023      678.97856      15418.541    
    135000   8887.917       65.388121      8953.3051      329.55343      157.20705      15418.541    
    135200   8839.4946      65.567607      8905.0622      330.45804      390.27522      15418.541    
    135400   9062.677       66.238424      9128.9155      333.83892     -165.79081      15418.541    
    135600   8950.9467      65.892305      9016.839       332.0945       257.15885      15418.541    
    135800   8904.3768      64.40898       8968.7857      324.6186      -1472.3669      15418.541    
    136000   8903.5187      65.272121      8968.7908      328.9688       1311.1545      15418.541    
    136200   8919.8481      64.975179      8984.8233      327.47222     -2762.745       15418.541    
    136400   8998.9206      65.94872       9064.8694      332.37883     -2539.095       15418.541    
    136600   8968.1159      64.806574      9032.9225      326.62246      381.57742      15418.541    
    136800   8949.2518      67.73909       9016.9909      341.40222      752.2758       15418.541    
    137000   8999.5244      65.553918      9065.0783      330.38904     -4507.9231      15418.541    
    137200   8856.7987      64.407607      8921.2063      324.61168     -2483.8101      15418.541    
    137400   8999.3105      66.036659      9065.3471      332.82204     -1214.5337      15418.541    
    137600   9031.3539      66.18901       9097.5429      333.58988     -2507.4596      15418.541    
    137800   8968.1603      65.614856      9033.7751      330.69617     -1478.2849      15418.541    
    138000   8842.4472      63.602339      8906.0495      320.55316     -2893.2654      15418.541    
    138200   9030.7386      67.662083      9098.4007      341.01411     -116.33728      15418.541    
    138400   8873.8603      64.883767      8938.744       327.01151     -475.88105      15418.541    
    138600   8871.9834      67.15759       8939.141       338.47148      1277.6521      15418.541    
    138800   9001.3584      66.302052      9067.6604      334.15961     -322.31213      15418.541    
    139000   8923.0693      65.247331      8988.3166      328.84385      876.37853      15418.541    
    139200   8858.6397      66.406022      8925.0458      334.68361      965.74286      15418.541    
    139400   8940.7873      65.003755      9005.791       327.61624     -881.98933      15418.541    
    139600   8857.8825      68.646199      8926.5287      345.97401     -588.97194      15418.541    
    139800   8750.1721      64.959538      8815.1317      327.39339     -296.3331       15418.541    
    140000   8972.0308      67.482553      9039.5134      340.10929      597.00303      15418.541    
    140200   8814.199       65.524611      8879.7236      330.24134      1094.2586      15418.541    
    140400   8813.2236      66.559905      8879.7835      335.45917     -203.5748       15418.541    
    140600   8781.9325      65.762168      8847.6947      331.43861      369.41362      15418.541    
    140800   8875.0873      68.46244       8943.5498      345.04787     -1815.5957      15418.541    
    141000   8845.2901      66.088009      8911.3781      333.08084      500.03367      15418.541    
    141200   8861.8089      65.408168      8927.2171      329.65447     -815.48032      15418.541    
    141400   8748.4451      66.609585      8815.0547      335.70956     -2283.512       15418.541    
    141600   8830.0439      64.832486      8894.8764      326.75305     -2235.3474      15418.541    
    141800   8764.7887      65.898982      8830.6877      332.12815      867.8735       15418.541    
    142000   8922.7411      67.667629      8990.4087      341.04206      1178.8493      15418.541    
    142200   8860.8104      65.281576      8926.0919      329.01645     -1253.7353      15418.541    
    142400   8812.4737      65.280269      8877.7539      329.00986      43.227608      15418.541    
    142600   8827.7912      65.616453      8893.4077      330.70422      1766.1269      15418.541    
    142800   8907.3676      65.762535      8973.1301      331.44046     -1271.7447      15418.541    
    143000   8793.1467      67.646157      8860.7928      340.93384     -2038.0784      15418.541    
    143200   8825.4231      67.077145      8892.5003      338.06604      22.52909       15418.541    
    143400   8922.0543      66.102683      8988.157       333.1548      -416.17999      15418.541    
    143600   9001.4085      66.320961      9067.7295      334.25491     -1262.3398      15418.541    
    143800   8937.8682      65.401487      9003.2697      329.6208      -2982.5717      15418.541    
    144000   8907.5327      63.288071      8970.8207      318.96927     -140.44671      15418.541    
    144200   8936.8952      65.60616       9002.5014      330.65234     -2078.5927      15418.541    
    144400   8922.3303      63.887989      8986.2183      321.99283     -690.92039      15418.541    
    144600   9002.6131      63.315167      9065.9283      319.10583     -2212.3417      15418.541    
    144800   8872.803       64.885797      8937.6888      327.02174      88.047292      15418.541    
    145000   8888.7515      64.819393      8953.5709      326.68707     -2481.6772      15418.541    
    145200   8824.8873      64.650507      8889.5378      325.83589     -2952.6346      15418.541    
    145400   8824.2453      65.270209      8889.5155      328.95916     -767.20825      15418.541    
    145600   9032.4272      65.142333      9097.5695      328.31467     -1239.8673      15418.541    
    145800   8873.6468      64.03576       8937.6826      322.73759     -582.19003      15418.541    
    146000   8855.7865      66.113314      8921.8998      333.20838     -3110.5397      15418.541    
    146200   9000.1046      66.232994      9066.3376      333.81156     -141.52069      15418.541    
    146400   8744.8855      66.016197      8810.9017      332.71891      2482.6546      15418.541    
    146600   8759.9355      67.633526      8827.569       340.87018     -111.50007      15418.541    
    146800   8986.5839      65.611047      9052.1949      330.67697     -518.53591      15418.541    
    147000   8778.3453      66.267846      8844.6132      333.98721     -883.40504      15418.541    
    147200   8954.8931      66.022598      9020.9157      332.75117     -369.6218       15418.541    
    147400   8732.6893      64.436239      8797.1255      324.75599      3135.1317      15418.541    
    147600   9015.9757      69.246341      9085.2221      348.9987      -1674.8435      15418.541    
    147800   8907.6323      65.606492      8973.2388      330.65402     -1246.5597      15418.541    
    148000   8828.1551      64.921564      8893.0767      327.202        68.351656      15418.541    
    148200   8986.3821      66.469942      9052.8521      335.00576     -1014.9815      15418.541    
    148400   8954.2001      66.332294      9020.5324      334.31202     -197.70762      15418.541    
    148600   8986.0603      66.071442      9052.1317      332.99734      320.68881      15418.541    
    148800   8873.8384      65.832894      8939.6713      331.79507     -2397.2483      15418.541    
    149000   8857.2015      65.973366      8923.1749      332.50304      404.98952      15418.541    
    149200   8762.6994      63.876055      8826.5754      321.93268     -337.40992      15418.541    
    149400   8935.8032      66.211619      9002.0148      333.70383     -135.47373      15418.541    
    149600   9049.2081      64.307142      9113.5152      324.10534     -1783.553       15418.541    
    149800   8856.4884      64.562374      8921.0508      325.3917      -852.29023      15418.541    
    150000   8965.5395      67.154693      9032.6942      338.45688     -631.87673      15418.541    
    150200   8982.4679      65.937595      9048.4055      332.32276     -946.06293      15418.541    
    150400   8950.5748      65.5308        9016.1056      330.27253      141.03289      15418.541    
    150600   8997.7601      66.076992      9063.8371      333.02531     -205.47945      15418.541    
    150800   8951.3867      64.17871       9015.5654      323.45805      2017.8316      15418.541    
    151000   8950.7525      64.600267      9015.3527      325.58268      245.8376       15418.541    
    151200   8934.5132      64.722227      8999.2355      326.19735     -959.49849      15418.541    
    151400   9013.5278      65.636434      9079.1643      330.80492     -844.53579      15418.541    
    151600   8886.875       64.209303      8951.0843      323.61224     -34.136192      15418.541    
    151800   8982.7518      64.31401       9047.0658      324.13996     -644.31873      15418.541    
    152000   8871.4909      63.597801      8935.0887      320.53029      455.89643      15418.541    
    152200   8853.9127      65.213907      8919.1266      328.6754       2070.5691      15418.541    
    152400   8854.0633      65.097421      8919.1608      328.08832     -122.71431      15418.541    
    152600   8854.659       64.536742      8919.1957      325.26252      909.74929      15418.541    
    152800   8968.5398      62.728373      9031.2682      316.14841     -3161.0927      15418.541    
    153000   8887.8256      63.501046      8951.3267      320.04265      1194.2582      15418.541    
[...]
    163400   8906.5057      67.862887      8974.3686      342.02615      1450.6637      15418.541    
    163600   8876.4152      66.0912        8942.5064      333.09692     -96.300988      15418.541    
    163800   8843.5491      66.962442      8910.5115      337.48794     -1490.6267      15418.541    
    164000   8845.7424      64.747878      8910.4903      326.32663     -1561.0837      15418.541    
    164200   8891.9491      66.47809       8958.4272      335.04683      842.72632      15418.541    
    164400   8924.9213      65.399815      8990.3211      329.61237     -1213.4942      15418.541    
    164600   8812.264       65.930939      8878.195       332.28921     -2104.3225      15418.541    
    164800   8747.0213      67.028268      8814.0495      337.8197      -1522.3199      15418.541    
    165000   8829.0165      64.9229        8893.9394      327.20874     -1182.365       15418.541    
    165200   8909.072       64.78054       8973.8525      326.49125     -2102.8943      15418.541    
    165400   8890.936       66.856796      8957.7928      336.95549     -620.90993      15418.541    
    165600   8796.6096      65.136807      8861.7464      328.28682      384.85532      15418.541    
    165800   8668.6483      65.076733      8733.725       327.98405     -660.95179      15418.541    
    166000   8956.3044      65.46319       9021.7675      329.93178     -733.48108      15418.541    
    166200   8909.1124      64.71785       8973.8303      326.17529     -1409.0702      15418.541    
    166400   8908.1294      65.790252      8973.9196      331.58015     -1985.3667      15418.541    
    166600   8763.0514      66.983464      8830.0348      337.59389      1245.9377      15418.541    
    166800   8939.7976      66.292271      9006.0899      334.11031     -1651.1856      15418.541    
    167000   8843.4871      66.633711      8910.1208      335.83116      1122.8177      15418.541    
    167200   8827.7575      66.330685      8894.0882      334.30392      1771.9744      15418.541    
    167400   8846.5018      63.522068      8910.0239      320.1486       365.29225      15418.541    
    167600   8858.2562      67.707768      8925.964       341.24436      199.76903      15418.541    
    167800   9003.0733      66.809123      9069.8824      336.71522     -1226.4035      15418.541    
    168000   8667.876       65.911146      8733.7872      332.18946     -680.85683      15418.541    
    168200   8956.3173      65.371514      9021.6889      329.46973     -1209.9005      15418.541    
    168400   8861.0799      64.504042      8925.5839      325.09771      158.86691      15418.541    
    168600   8844.209       65.272511      8909.4815      328.97076     -1352.6908      15418.541    
    168800   8778.2676      67.139221      8845.4069      338.3789       1865.9043      15418.541    
    169000   9020.0358      65.294033      9085.3298      329.07923     -1541.8386      15418.541    
    169200   8779.8565      65.410556      8845.2671      329.6665       360.39336      15418.541    
    169400   8920.952       68.15099       8989.1029      343.47818      982.61526      15418.541    
    169600   8971.8974      64.936058      9036.8335      327.27505     -632.22869      15418.541    
    169800   8796.1514      64.47025       8860.6217      324.9274      -496.85802      15418.541    
    170000   8892.3718      64.004199      8956.376       322.57852      667.13462      15418.541    
    170200   9066.3573      65.789969      9132.1473      331.57873     -160.94483      15418.541    
    170400   8811.3489      64.599678      8875.9485      325.57971     -1344.765       15418.541    
    170600   8953.8213      65.917306      9019.7386      332.2205      -741.83286      15418.541    
    170800   8906.7264      64.792408      8971.5188      326.55107     -1180.3627      15418.541    
    171000   8809.6843      65.462909      8875.1472      329.93036     -2549.7699      15418.541    
    171200   8969.2144      65.416487      9034.6308      329.6964      -1430.7458      15418.541    
    171400   8968.1688      65.773715      9033.9425      331.49681     -10.971105      15418.541    
    171600   8999.2586      65.788921      9065.0475      331.57345     -928.94429      15418.541    
    171800   8903.6829      64.500151      8968.1831      325.0781      -2704.2281      15418.541    
    172000   8983.7855      63.682679      9047.4681      320.95808      1657.973       15418.541    
    172200   8776.6181      62.340806      8838.9589      314.19509     -2340.3732      15418.541    
    172400   8933.9449      64.738468      8998.6834      326.27921      1934.9754      15418.541    
    172600   8919.4331      63.17435       8982.6075      318.39612     -1037.0542      15418.541    
    172800   8809.1131      61.610142      8870.7233      310.51257     -754.07964      15418.541    
    173000   8982.3515      64.646327      9046.9979      325.81482     -1226.4847      15418.541    
    173200   9029.8145      65.520035      9095.3345      330.21827     -833.43196      15418.541    
    173400   8999.6015      64.125302      9063.7268      323.18887     -1173.1621      15418.541    
    173600   8967.2193      64.916942      9032.1363      327.17871     -222.2856       15418.541    
    173800   9048.2181      64.372442      9112.5905      324.43445     -3260.3466      15418.541    
    174000   8872.0107      65.027288      8937.038       327.73485      138.2225       15418.541    
    174200   8841.1555      64.25547       8905.411       323.84492     -597.29742      15418.541    
    174400   8985.5115      64.217014      9049.7286      323.6511      -1878.2445      15418.541    
    174600   9050.1912      63.869399      9114.0606      321.89913     -2240.3364      15418.541    
    174800   8712.6325      65.711311      8778.3438      331.1823      -1304.7876      15418.541    
    175000   8810.1599      64.486518      8874.6464      325.00939     -620.33681      15418.541    
    175200   8891.8791      63.041012      8954.9201      317.7241       1435.0503      15418.541    
    175400   8827.2292      64.026839      8891.256       322.69263     -1506.9899      15418.541    
    175600   8793.9777      65.623279      8859.601       330.73862     -1806.0853      15418.541    
    175800   8794.2387      65.691224      8859.9299      331.08106     -724.18263      15418.541    
    176000   8793.5854      66.59161       8860.177       335.61896      228.3077       15418.541    
    176200   8857.1991      67.134302      8924.3334      338.35411      1045.3782      15418.541    
    176400   8874.2446      66.123017      8940.3676      333.25728     -2888.3069      15418.541    
    176600   8905.5531      66.794863      8972.3479      336.64335     -220.13558      15418.541    
    176800   8889.6202      66.677907      8956.2981      336.0539      -3166.6113      15418.541    
    177000   8748.2931      63.956762      8812.2498      322.33944     -1883.835       15418.541    
    177200   8681.538       66.57411       8748.1121      335.53077      160.09518      15418.541    
    177400   8794.2255      65.694438      8859.92        331.09726     -2065.2473      15418.541    
    177600   8762.4183      65.225813      8827.6441      328.73541      1335.764       15418.541    
    177800   8732.8101      62.463687      8795.2738      314.81441     -1373.0508      15418.541    
    178000   8936.1434      66.758628      9002.902       336.46073     -1984.344       15418.541    
    178200   8795.2783      63.159809      8858.4381      318.32283     -617.82614      15418.541    
    178400   8968.0766      65.77554       9033.8522      331.50601     -785.52408      15418.541    
    178600   8969.3904      63.763838      9033.1543      321.36711     -395.56701      15418.541    
    178800   8823.3358      64.98951       8888.3253      327.54445     -1166.087       15418.541    
    179000   9000.2063      63.275982      9063.4823      318.90834     -1288.8941      15418.541    
    179200   8854.7321      64.045258      8918.7773      322.78546     -1125.8358      15418.541    
    179400   8888.5524      61.763608      8950.3161      311.28604     -2121.5312      15418.541    
    179600   8917.9121      64.158516      8982.0706      323.35627     -1514.2643      15418.541    
    179800   8854.3608      63.64356       8918.0044      320.76091     -1692.9506      15418.541    
    180000   8901.7342      64.349185      8966.0833      324.31724     -518.77483      15418.541    
    180200   8886.9561      63.276913      8950.233       318.91303     -264.59742      15418.541    
    180400   8871.7826      62.717119      8934.4998      316.09169      262.13599      15418.541    
    180600   8999.3946      63.414988      9062.8095      319.60893      1582.2204      15418.541    
    180800   8933.5938      65.522017      8999.1158      330.22826     -2195.717       15418.541    
    181000   8968.308       63.066858      9031.3748      317.85436      1580.2215      15418.541    
    181200   8998.9159      64.708957      9063.6249      326.13047     -1492.5074      15418.541    
    181400   8984.2862      63.62386       9047.9101      320.66163      1030.8131      15418.541    
    181600   8903.0704      65.119491      8968.1899      328.19955      1446.4101      15418.541    
    181800   8777.352       63.128829      8840.4808      318.16669     -318.71452      15418.541    
    182000   9015.5755      65.220745      9080.7962      328.70986     -917.77606      15418.541    
    182200   8984.0793      65.027418      9049.1068      327.7355      -881.64777      15418.541    
    182400   8936.0745      65.379243      9001.4537      329.50869     -1484.4832      15418.541    
    182600   8903.1907      66.570437      8969.7611      335.51225     -228.0636       15418.541    
    182800   8872.7134      65.335257      8938.0487      329.287       -1344.9193      15418.541    
    183000   8919.456       66.862764      8986.3188      336.98557     -2771.7943      15418.541    
    183200   8841.085       65.461547      8906.5465      329.9235       689.70752      15418.541    
    183400   8842.0106      64.796153      8906.8067      326.56994     -2052.4964      15418.541    
    183600   8967.8713      67.159317      9035.0306      338.48018     -1340.461       15418.541    
    183800   8967.0046      68.196015      9035.2006      343.7051      -771.11595      15418.541    
    184000   8842.3373      64.993517      8907.3309      327.56464     -1012.0042      15418.541    
    184200   8971.1617      64.309334      9035.4711      324.11639     -899.3611       15418.541    
    184400   8857.0327      66.579338      8923.612       335.55711      798.65092      15418.541    
    184600   8875.4803      64.29499       8939.7753      324.0441      -2609.4702      15418.541    
    184800   8841.6579      66.300882      8907.9587      334.15371      489.21708      15418.541    
    185000   8841.6887      66.545524      8908.2342      335.38669      182.05937      15418.541    
    185200   8809.9663      66.674975      8876.6413      336.03913      1001.7851      15418.541    
    185400   8891.2003      65.969642      8957.17        332.48427      2430.4442      15418.541    
    185600   8843.7997      66.152584      8909.9523      333.40629     -352.31353      15418.541    
    185800   8893.6739      65.195783      8958.8697      328.58406     -703.87671      15418.541    
    186000   8877.2835      66.457562      8943.7411      334.94337      672.63848      15418.541    
    186200   8715.4943      68.869385      8784.3637      347.09886      1299.6233      15418.541    
    186400   8877.1098      67.59548       8944.7053      340.67843     -671.02816      15418.541    
    186600   8956.5936      68.125726      9024.7193      343.35085     -712.74237      15418.541    
    186800   8924.7907      67.734421      8992.5251      341.37869     -2007.9179      15418.541    
    187000   8859.8839      68.272299      8928.1562      344.08957      1631.9501      15418.541    
    187200   8732.6897      66.973879      8799.6636      337.54559      246.75551      15418.541    
    187400   9002.6166      68.331318      9070.9479      344.38702     -79.825929      15418.541    
    187600   8745.7332      68.46323       8814.1965      345.05186      578.85414      15418.541    
    187800   8840.9484      68.498624      8909.447       345.23024      62.061599      15418.541    
    188000   8921.8135      66.989512      8988.803       337.62438     -708.53189      15418.541    
    188200   8860.0102      64.230226      8924.2404      323.71769     -1163.4674      15418.541    
    188400   8810.4331      65.44809       8875.8812      329.85567     -1501.0949      15418.541    
    188600   8937.8516      65.734231      9003.5858      331.29781      49.325264      15418.541    
    188800   8937.7256      65.620097      9003.3457      330.72258     -1071.3564      15418.541    
    189000   8905.1809      66.020339      8971.2012      332.73979     -748.29163      15418.541    
    189200   8985.6666      65.451142      9051.1178      329.87105     -688.7856       15418.541    
    189400   8890.1114      64.921633      8955.0331      327.20235     -793.88282      15418.541    
    189600   8858.1903      64.773991      8922.9643      326.45824     -1080.436       15418.541    
    189800   8887.4092      67.481341      8954.8906      340.10318      166.18556      15418.541    
    190000   8841.5278      65.335415      8906.8632      329.2878      -456.44491      15418.541    
    190200   8954.3379      64.510529      9018.8484      325.13041      860.28763      15418.541    
    190400   8905.2015      65.664013      8970.8655      330.94391     -620.94149      15418.541    
    190600   9000.5807      66.301885      9066.8826      334.15876     -694.50288      15418.541    
    190800   8890.2018      64.694992      8954.8967      326.06009      12.864327      15418.541    
    191000   8872.8307      66.043989      8938.8747      332.85898     -171.22441      15418.541    
    191200   9001.3957      65.421048      9066.8167      329.71938     -2461.2317      15418.541    
    191400   9017.4526      65.34967       9082.8023      329.35964      44.33168       15418.541    
    191600   8747.9127      62.82424       8810.737       316.63158     -2348.6677      15418.541    
    191800   8936.8342      65.923764      9002.7579      332.25305     -2223.8172      15418.541    
    192000   8840.4979      66.251352      8906.7492      333.90408     -542.51344      15418.541    
    192200   8841.341       65.391921      8906.7329      329.57258     -3973.2175      15418.541    
    192400   8840.956       65.782161      8906.7382      331.53938     -856.48677      15418.541    
    192600   8760.101       66.62455       8826.7256      335.78498     -711.73849      15418.541    
    192800   8842.8306      63.850003      8906.6806      321.80138     -1261.6605      15418.541    
    193000   8905.1131      65.613852      8970.727       330.69111      1853.0311      15418.541    
    193200   8907.0626      63.825694      8970.8883      321.67887     -1587.4162      15418.541    
    193400   8809.9105      65.233722      8875.1442      328.77527     -787.15094      15418.541    
    193600   8874.0167      65.522064      8939.5387      330.2285      -953.37901      15418.541    
    193800   8905.1318      66.842043      8971.9739      336.88114     -237.98724      15418.541    
    194000   8987.261       65.141583      9052.4026      328.31089     -1253.3257      15418.541    
    194200   9034.1086      66.701533      9100.8101      336.17297     -1688.1062      15418.541    
    194400   8716.6433      64.535914      8781.1793      325.25835      1637.5883      15418.541    
    194600   8795.8747      65.544039      8861.4187      330.33925     -774.38581      15418.541    
    194800   8970.636       67.007082      9037.6431      337.71293     -872.59886      15418.541    
    195000   8764.2822      65.610731      8829.893       330.67538     -1335.8221      15418.541    
    195200   8810.4094      67.599201      8878.0086      340.69718     -1155.5577      15418.541    
    195400   8890.8266      67.165487      8957.9921      338.51128     -816.49365      15418.541    
    195600   8890.6135      67.180022      8957.7935      338.58454     -1229.0245      15418.541    
    195800   8908.0185      65.388222      8973.4067      329.55394     -1398.0054      15418.541    
    196000   9001.8069      67.014967      9068.8218      337.75267     -1317.2625      15418.541    
    196200   9002.0532      65.970569      9068.0238      332.48894     -358.1398       15418.541    
    196400   8969.8144      65.275782      9035.0902      328.98725     -2943.9182      15418.541    
    196600   8906.2176      64.039524      8970.2571      322.75656      380.72664      15418.541    
    196800   8856.6132      65.003608      8921.6168      327.6155      -1042.7027      15418.541    
    197000   8793.672       63.512904      8857.1849      320.10241     -1067.9634      15418.541    
    197200   9048.0311      64.922345      9112.9534      327.20594     -943.61316      15418.541    
    197400   8873.8152      63.023582      8936.8388      317.63625      2401.1691      15418.541    
    197600   8952.4318      64.400447      9016.8322      324.5756      -2171.6572      15418.541    
    197800   8680.0671      64.869016      8744.9361      326.93716     -400.7268       15418.541    
    198000   9001.2053      63.968542      9065.1739      322.39881     -1419.978       15418.541    
    198200   8920.5559      64.960218      8985.5161      327.39682     -1812.775       15418.541    
    198400   8874.4037      63.475449      8937.8791      319.91364     -2261.6086      15418.541    
    198600   8697.7441      64.526119      8762.2702      325.20898     -649.89374      15418.541    
    198800   8985.2532      65.513924      9050.7672      330.18747     -2608.2284      15418.541    
    199000   8922.0891      65.149731      8987.2388      328.35196     -2500.8214      15418.541    
    199200   8954.42        65.289501      9019.7095      329.05639     -2282.0849      15418.541    
    199400   8747.5003      64.669891      8812.1702      325.93358     -3735.8951      15418.541    
    199600   8906.2439      66.3005        8972.5444      334.15179     -1220.3221      15418.541    
    199800   9018.3977      66.428637      9084.8263      334.79759     -1953.9611      15418.541    
    200000   8987.4589      65.52448       9052.9834      330.24067     -1341.1589      15418.541    
Loop time of 284.371 on 4 procs for 200000 steps with 1536 atoms

Performance: 30.383 ns/day, 0.790 hours/ns, 703.306 timesteps/s
88.3% CPU use with 4 MPI tasks x no OpenMP threads

MPI task timing breakdown:
Section |  min time  |  avg time  |  max time  |%varavg| %total
---------------------------------------------------------------
Pair    | 145.96     | 196.66     | 246.79     | 268.1 | 69.15
Neigh   | 25.083     | 25.266     | 25.563     |   3.6 |  8.88
Comm    | 7.8557     | 58.292     | 109.03     | 494.1 | 20.50
Output  | 0.016781   | 0.020964   | 0.033039   |   4.8 |  0.01
Modify  | 3.6779     | 3.6999     | 3.7162     |   0.7 |  1.30
Other   |            | 0.4368     |            |       |  0.15

Nlocal:            384 ave         396 max         370 min
Histogram: 1 0 0 0 0 2 0 0 0 1
Nghost:        2943.75 ave        2953 max        2937 min
Histogram: 1 1 0 0 0 1 0 0 0 1
Neighs:              0 ave           0 max           0 min
Histogram: 4 0 0 0 0 0 0 0 0 0
FullNghs:        81679 ave       85173 max       78385 min
Histogram: 1 0 0 0 1 1 0 0 0 1

Total # of neighbors = 326716
Ave neighs/atom = 212.70573
Neighbor list builds = 10000
Dangerous builds not checked
Total wall time: 0:04:51
