ITEM: TIMESTEP
0
ITEM: NUMBER OF ATOMS
48
ITEM: BOX BOUNDS xy xz yz pp pp pp
-4.7169109582901001e+00 8.6109705567359924e+00 2.5110912919044495e+00
-1.0506033897399902e-02 9.6185076832771301e+00 -4.7023541331291199e+00
-2.6944518089294434e-02 1.9544072151184082e+01 3.6519104242324829e-01
ITEM: ATOMS id type xs ys zs fx fy fz
1 1 0.94675 0.165578 0.0319985 0 0 2.30543
2 1 0.499847 0.0752984 0.0528317 0 0 -0.114271
3 1 0.539681 0.123911 0.656998 0 0 -0.00200784
4 1 0.729952 0.950298 0.927832 0 0 -2.30542
5 1 0.411365 0.158632 0.802832 0 0 -0.000481606
6 1 0.176854 0.040578 0.906998 0 0 0.11427
7 1 0.858268 0.248911 0.781998 0 0 0.00385487
8 1 0.902509 0.207245 0.406998 0 0 0.00124478
9 1 0.0927792 0.0336318 0.677832 0 0 -0.00602686
10 1 0.774193 0.241965 0.552832 0 0 -0.00124443
11 1 0.818434 0.200298 0.177832 0 0 -0.00385499
12 1 0.583922 0.0822446 0.281998 0 0 0.00602698
13 1 0.265336 0.290578 0.156998 0 0 0.000481486
14 1 0.455607 0.116965 0.427832 0 0 0.000331402
15 1 0.94675 0.498911 0.0319984 0 0 2.30543
16 1 0.499847 0.408632 0.0528317 0 0 -0.11427
17 1 0.539681 0.457245 0.656998 0 0 -0.0020082
18 1 0.729952 0.283632 0.927832 0 0 -2.30542
19 1 0.411365 0.491965 0.802832 0 0 -0.000481606
20 1 0.176854 0.373911 0.906998 0 0 0.11427
21 1 0.858268 0.582245 0.781998 0 0 0.00385463
22 1 0.221095 0.332245 0.531998 0 0 -0.000330448
23 1 0.902509 0.540578 0.406998 0 0 0.00124478
24 1 0.0927792 0.366965 0.677832 0 0 -0.00602663
25 1 0.774193 0.575298 0.552832 0 0 -0.0012449
26 1 0.13702 0.325298 0.302832 0 0 0.00200784
27 1 0.818434 0.533632 0.177832 0 0 -0.00385535
28 1 0.583922 0.415578 0.281998 0 0 0.00602686
29 1 0.265336 0.623911 0.156998 0 0 0.000481367
30 1 0.455607 0.450298 0.427832 0 0 0.000330806
31 1 0.94675 0.832245 0.0319985 0 0 2.30543
32 1 0.499847 0.741965 0.0528317 0 0 -0.11427
33 1 0.539681 0.790578 0.656998 0 0 -0.00200796
34 1 0.729952 0.616965 0.927832 0 0 -2.30543
35 1 0.411365 0.825298 0.802832 0 0 -0.000481606
36 1 0.176854 0.707245 0.906998 0 0 0.11427
37 1 0.858268 0.915578 0.781998 0 0 0.00385439
38 1 0.221095 0.665578 0.531998 0 0 -0.00033164
39 1 0.902509 0.873911 0.406998 0 0 0.00124502
40 1 0.0927792 0.700298 0.677832 0 0 -0.00602603
41 1 0.774193 0.908632 0.552832 0 0 -0.00124574
42 1 0.13702 0.658632 0.302832 0 0 0.0020082
43 1 0.818434 0.866965 0.177832 0 0 -0.00385499
44 1 0.583922 0.748911 0.281998 0 0 0.00602674
45 1 0.265336 0.957245 0.156998 0 0 0.000481129
46 1 0.455607 0.783632 0.427832 0 0 0.000331402
47 1 0.221095 0.998911 0.531998 0 0 -0.000331163
48 1 0.13702 0.991965 0.302832 0 0 0.00200808
ITEM: TIMESTEP
1
ITEM: NUMBER OF ATOMS
48
ITEM: BOX BOUNDS xy xz yz pp pp pp
-4.7169109582901001e+00 8.6109705567359924e+00 2.5110912919044495e+00
-1.0506033897399902e-02 9.6185076832771301e+00 -4.7023541331291199e+00
-2.6944518089294434e-02 1.9544072151184082e+01 3.6519104242324829e-01
ITEM: ATOMS id type xs ys zs fx fy fz
1 1 0.950762 0.165377 0.037108 0 0 1.13354
2 1 0.499649 0.0753084 0.0525785 0 0 -0.126973
3 1 0.539678 0.123912 0.656994 0 0 -0.00628412
4 1 0.725939 0.9505 0.922722 0 0 -1.13354
5 1 0.411365 0.158632 0.802831 0 0 -0.0763195
6 1 0.177053 0.040568 0.907252 0 0 0.126973
7 1 0.858274 0.248911 0.782007 0 0 -0.0490632
8 1 0.902511 0.207245 0.407001 0 0 4.78029e-05
9 1 0.0927687 0.0336323 0.677818 0 0 -0.0103081
10 1 0.774191 0.241965 0.552829 0 0 -4.80413e-05
11 1 0.818427 0.200299 0.177823 0 0 0.0490632
12 1 0.583933 0.0822441 0.282012 0 0 0.0103078
13 1 0.265337 0.290578 0.157 0 0 0.0763195
14 1 0.455607 0.116965 0.427832 0 0 -0.000519872
15 1 0.950762 0.49871 0.037108 0 0 1.13354
16 1 0.499649 0.408642 0.0525785 0 0 -0.126973
17 1 0.539678 0.457245 0.656994 0 0 -0.00628459
18 1 0.725939 0.283833 0.922722 0 0 -1.13354
19 1 0.411365 0.491965 0.802831 0 0 -0.0763197
20 1 0.177053 0.373901 0.907252 0 0 0.126973
21 1 0.858274 0.582244 0.782007 0 0 -0.0490638
22 1 0.221094 0.332245 0.531998 0 0 0.000520587
23 1 0.902511 0.540578 0.407001 0 0 4.76837e-05
24 1 0.0927687 0.366966 0.677818 0 0 -0.0103072
25 1 0.774191 0.575299 0.552829 0 0 -4.86374e-05
26 1 0.137024 0.325298 0.302836 0 0 0.00628412
27 1 0.818427 0.533632 0.177823 0 0 0.0490627
28 1 0.583933 0.415577 0.282012 0 0 0.0103078
29 1 0.265337 0.623911 0.157 0 0 0.0763191
30 1 0.455607 0.450298 0.427832 0 0 -0.000520468
31 1 0.950762 0.832043 0.037108 0 0 1.13354
32 1 0.499649 0.741975 0.0525785 0 0 -0.126973
33 1 0.539678 0.790578 0.656994 0 0 -0.00628412
34 1 0.725939 0.617167 0.922722 0 0 -1.13354
35 1 0.411365 0.825298 0.802831 0 0 -0.0763193
36 1 0.177053 0.707235 0.907252 0 0 0.126973
37 1 0.858274 0.915578 0.782007 0 0 -0.0490639
38 1 0.221095 0.665578 0.531998 0 0 0.000520706
39 1 0.902511 0.873911 0.407001 0 0 4.87566e-05
40 1 0.0927687 0.700299 0.677818 0 0 -0.0103067
41 1 0.774191 0.908632 0.552829 0 0 -4.86374e-05
42 1 0.137024 0.658632 0.302836 0 0 0.00628436
43 1 0.818427 0.866965 0.177823 0 0 0.049063
44 1 0.583933 0.748911 0.282012 0 0 0.0103079
45 1 0.265337 0.957245 0.157 0 0 0.0763192
46 1 0.455607 0.783632 0.427832 0 0 -0.000519991
47 1 0.221095 0.998911 0.531998 0 0 0.00052011
48 1 0.137024 0.991965 0.302836 0 0 0.00628436
ITEM: TIMESTEP
2
ITEM: NUMBER OF ATOMS
48
ITEM: BOX BOUNDS xy xz yz pp pp pp
-4.7169109582901001e+00 8.6109705567359924e+00 2.5110912919044495e+00
-1.0506033897399902e-02 9.6185076832771301e+00 -4.7023541331291199e+00
-2.6944518089294434e-02 1.9544072151184082e+01 3.6519104242324829e-01
ITEM: ATOMS id type xs ys zs fx fy fz
1 1 0.954775 0.165175 0.0422176 0 0 0.262083
2 1 0.499199 0.075331 0.0520061 0 0 -0.116803
3 1 0.539656 0.123913 0.656966 0 0 -0.0110456
4 1 0.721927 0.950701 0.917613 0 0 -0.262083
5 1 0.411094 0.158645 0.802487 0 0 -0.153075
6 1 0.177502 0.0405454 0.907824 0 0 0.116802
7 1 0.858101 0.24892 0.781786 0 0 -0.109077
8 1 0.902511 0.207245 0.407001 0 0 0.000267386
9 1 0.0927322 0.0336341 0.677772 0 0 -0.0170377
10 1 0.774191 0.241965 0.552829 0 0 -0.000267386
11 1 0.818601 0.20029 0.178044 0 0 0.109078
12 1 0.583969 0.0822423 0.282058 0 0 0.0170374
13 1 0.265607 0.290564 0.157344 0 0 0.153075
14 1 0.455605 0.116965 0.42783 0 0 0.000185966
15 1 0.954775 0.498508 0.0422176 0 0 0.262083
16 1 0.499199 0.408664 0.0520061 0 0 -0.116803
17 1 0.539656 0.457246 0.656966 0 0 -0.0110456
18 1 0.721927 0.284035 0.917613 0 0 -0.262083
19 1 0.411094 0.491979 0.802487 0 0 -0.153075
20 1 0.177502 0.373879 0.907824 0 0 0.116803
21 1 0.858101 0.582253 0.781786 0 0 -0.109077
22 1 0.221096 0.332245 0.532 0 0 -0.000185132
23 1 0.902511 0.540578 0.407001 0 0 0.000267148
24 1 0.0927322 0.366967 0.677772 0 0 -0.0170377
25 1 0.77419 0.575299 0.552829 0 0 -0.000267148
26 1 0.137046 0.325297 0.302864 0 0 0.0110457
27 1 0.818601 0.533623 0.178044 0 0 0.109077
28 1 0.583969 0.415576 0.282058 0 0 0.0170373
29 1 0.265607 0.623898 0.157344 0 0 0.153075
30 1 0.455605 0.450298 0.42783 0 0 0.000185728
31 1 0.954775 0.831842 0.0422176 0 0 0.262083
32 1 0.499199 0.741998 0.0520061 0 0 -0.116803
33 1 0.539656 0.790579 0.656966 0 0 -0.0110457
34 1 0.721927 0.617368 0.917613 0 0 -0.262083
35 1 0.411094 0.825312 0.802487 0 0 -0.153075
36 1 0.177502 0.707212 0.907824 0 0 0.116803
37 1 0.858101 0.915586 0.781786 0 0 -0.109078
38 1 0.221096 0.665578 0.532 0 0 -0.000185728
39 1 0.902511 0.873911 0.407001 0 0 0.000267148
40 1 0.0927322 0.700301 0.677772 0 0 -0.0170372
41 1 0.774191 0.908632 0.552829 0 0 -0.000267029
42 1 0.137046 0.65863 0.302864 0 0 0.0110455
43 1 0.818601 0.866957 0.178044 0 0 0.109078
44 1 0.583969 0.748909 0.282058 0 0 0.0170377
45 1 0.265607 0.957231 0.157344 0 0 0.153075
46 1 0.455605 0.783632 0.42783 0 0 0.000185251
47 1 0.221096 0.998911 0.532 0 0 -0.000185847
48 1 0.137046 0.991964 0.302864 0 0 0.0110456
ITEM: TIMESTEP
3
ITEM: NUMBER OF ATOMS
48
ITEM: BOX BOUNDS xy xz yz pp pp pp
-4.7169109582901001e+00 8.6109705567359924e+00 2.5110912919044495e+00
-1.0506033897399902e-02 9.6185076832771301e+00 -4.7023541331291199e+00
-2.6944518089294434e-02 1.9544072151184082e+01 3.6519104242324829e-01
ITEM: ATOMS id type xs ys zs fx fy fz
1 1 0.957518 0.165037 0.0457113 0 0 -0.131683
2 1 0.497976 0.0753923 0.0504491 0 0 -0.0199465
3 1 0.53954 0.123918 0.656818 0 0 -0.0428542
4 1 0.719184 0.950839 0.914119 0 0 0.131684
5 1 0.409492 0.158726 0.800446 0 0 -0.106274
6 1 0.178725 0.040484 0.909381 0 0 0.0199465
7 1 0.856959 0.248977 0.780332 0 0 -0.081282
8 1 0.902514 0.207244 0.407005 0 0 0.00669885
9 1 0.0925538 0.0336431 0.677545 0 0 -0.0470614
10 1 0.774188 0.241965 0.552825 0 0 -0.00669897
11 1 0.819743 0.200233 0.179498 0 0 0.0812815
12 1 0.584148 0.0822333 0.282285 0 0 0.0470623
13 1 0.267209 0.290484 0.159384 0 0 0.106274
14 1 0.455607 0.116965 0.427833 0 0 0.00793791
15 1 0.957518 0.498371 0.0457113 0 0 -0.131683
16 1 0.497976 0.408726 0.0504491 0 0 -0.0199465
17 1 0.53954 0.457252 0.656818 0 0 -0.0428544
18 1 0.719184 0.284172 0.914119 0 0 0.131684
19 1 0.409492 0.492059 0.800446 0 0 -0.106274
20 1 0.178725 0.373817 0.909381 0 0 0.0199463
21 1 0.856959 0.58231 0.780332 0 0 -0.0812819
22 1 0.221094 0.332245 0.531998 0 0 -0.00793803
23 1 0.902514 0.540578 0.407005 0 0 0.00669909
24 1 0.0925538 0.366976 0.677545 0 0 -0.0470611
25 1 0.774188 0.575299 0.552825 0 0 -0.00669885
26 1 0.137162 0.325291 0.303012 0 0 0.042854
27 1 0.819743 0.533566 0.179498 0 0 0.0812814
28 1 0.584148 0.415567 0.282285 0 0 0.047062
29 1 0.267209 0.623817 0.159384 0 0 0.106274
30 1 0.455607 0.450298 0.427833 0 0 0.00793815
31 1 0.957518 0.831704 0.0457113 0 0 -0.131683
32 1 0.497976 0.742059 0.0504491 0 0 -0.0199461
33 1 0.53954 0.790585 0.656818 0 0 -0.0428543
34 1 0.719184 0.617506 0.914119 0 0 0.131684
35 1 0.409492 0.825392 0.800446 0 0 -0.106274
36 1 0.178725 0.707151 0.909381 0 0 0.0199462
37 1 0.856959 0.915644 0.780332 0 0 -0.081282
38 1 0.221094 0.665578 0.531998 0 0 -0.00793803
39 1 0.902514 0.873911 0.407005 0 0 0.00669944
40 1 0.0925539 0.70031 0.677545 0 0 -0.0470618
41 1 0.774188 0.908632 0.552825 0 0 -0.0066998
42 1 0.137162 0.658625 0.303012 0 0 0.0428542
43 1 0.819743 0.866899 0.179498 0 0 0.0812814
44 1 0.584148 0.7489 0.282285 0 0 0.0470616
45 1 0.267209 0.957151 0.159384 0 0 0.106274
46 1 0.455607 0.783632 0.427833 0 0 0.0079385
47 1 0.221094 0.998911 0.531998 0 0 -0.00793803
48 1 0.137162 0.991958 0.303012 0 0 0.0428545
ITEM: TIMESTEP
4
ITEM: NUMBER OF ATOMS
48
ITEM: BOX BOUNDS xy xz yz pp pp pp
-4.7169109582901001e+00 8.6109705567359924e+00 2.5110912919044495e+00
-1.0506033897399902e-02 9.6185076832771301e+00 -4.7023541331291199e+00
-2.6944518089294434e-02 1.9544072151184082e+01 3.6519104242324829e-01
ITEM: ATOMS id type xs ys zs fx fy fz
1 1 0.957204 0.165053 0.0453116 0 0 0.00281787
2 1 0.497308 0.0754259 0.049598 0 0 0.059672
3 1 0.539056 0.123943 0.656202 0 0 -0.0605016
4 1 0.719498 0.950823 0.914519 0 0 -0.00281799
5 1 0.407793 0.158811 0.798282 0 0 0.0174965
6 1 0.179393 0.0404505 0.910232 0 0 -0.059672
7 1 0.855691 0.249041 0.778717 0 0 0.00890672
8 1 0.902584 0.207241 0.407094 0 0 0.0169574
9 1 0.0920026 0.0336707 0.676843 0 0 -0.0597208
10 1 0.774118 0.241969 0.552736 0 0 -0.0169573
11 1 0.821011 0.200169 0.181113 0 0 -0.00890636
12 1 0.584699 0.0822056 0.282987 0 0 0.0597204
13 1 0.268909 0.290399 0.161548 0 0 -0.0174963
14 1 0.45569 0.116961 0.427937 0 0 0.0193381
15 1 0.957204 0.498386 0.0453116 0 0 0.00281799
16 1 0.497308 0.408759 0.049598 0 0 0.059672
17 1 0.539056 0.457276 0.656202 0 0 -0.0605013
18 1 0.719498 0.284157 0.914519 0 0 -0.00281799
19 1 0.407793 0.492144 0.798282 0 0 0.0174966
20 1 0.179393 0.373784 0.910232 0 0 -0.0596719
21 1 0.855691 0.582374 0.778717 0 0 0.00890636
22 1 0.221012 0.332249 0.531893 0 0 -0.0193384
23 1 0.902584 0.540574 0.407094 0 0 0.0169573
24 1 0.0920026 0.367004 0.676843 0 0 -0.0597205
25 1 0.774118 0.575302 0.552736 0 0 -0.0169575
26 1 0.137646 0.325267 0.303628 0 0 0.0605012
27 1 0.821011 0.533502 0.181113 0 0 -0.00890613
28 1 0.584699 0.415539 0.282987 0 0 0.0597206
29 1 0.268909 0.623732 0.161548 0 0 -0.0174971
30 1 0.45569 0.450294 0.427937 0 0 0.0193383
31 1 0.957204 0.83172 0.0453116 0 0 0.00281823
32 1 0.497308 0.742093 0.049598 0 0 0.0596719
33 1 0.539056 0.790609 0.656202 0 0 -0.0605015
34 1 0.719498 0.61749 0.914519 0 0 -0.00281799
35 1 0.407793 0.825478 0.798282 0 0 0.0174963
36 1 0.179393 0.707117 0.910232 0 0 -0.059672
37 1 0.855691 0.915707 0.778717 0 0 0.00890648
38 1 0.221012 0.665582 0.531893 0 0 -0.0193381
39 1 0.902584 0.873907 0.407094 0 0 0.0169576
40 1 0.0920026 0.700337 0.676843 0 0 -0.0597206
41 1 0.774118 0.908636 0.552736 0 0 -0.0169573
42 1 0.137646 0.6586 0.303628 0 0 0.0605012
43 1 0.821011 0.866836 0.181113 0 0 -0.00890636
44 1 0.584699 0.748872 0.282987 0 0 0.0597209
45 1 0.268909 0.957065 0.161548 0 0 -0.0174965
46 1 0.45569 0.783628 0.427937 0 0 0.0193386
47 1 0.221012 0.998915 0.531893 0 0 -0.0193383
48 1 0.137646 0.991934 0.303628 0 0 0.0605011
ITEM: TIMESTEP
5
ITEM: NUMBER OF ATOMS
48
ITEM: BOX BOUNDS xy xz yz pp pp pp
-4.7169109582901001e+00 8.6109705567359924e+00 2.5110912919044495e+00
-1.0506033897399902e-02 9.6185076832771301e+00 -4.7023541331291199e+00
-2.6944518089294434e-02 1.9544072151184082e+01 3.6519104242324829e-01
ITEM: ATOMS id type xs ys zs fx fy fz
1 1 0.957095 0.165059 0.0451723 0 0 0.0406293
2 1 0.498227 0.0753798 0.0507675 0 0 0.013584
3 1 0.537496 0.124021 0.654215 0 0 0.0101936
4 1 0.719607 0.950818 0.914658 0 0 -0.0406288
5 1 0.407249 0.158838 0.797589 0 0 -0.00121391
6 1 0.178475 0.0404966 0.909063 0 0 -0.013584
7 1 0.855196 0.249066 0.778087 0 0 -0.0147114
8 1 0.902985 0.207221 0.407605 0 0 0.0217029
9 1 0.0904233 0.03375 0.674832 0 0 0.0151733
10 1 0.773716 0.241989 0.552225 0 0 -0.0217026
11 1 0.821506 0.200144 0.181744 0 0 0.014711
12 1 0.586278 0.0821263 0.284999 0 0 -0.0151732
13 1 0.269453 0.290371 0.162241 0 0 0.00121379
14 1 0.456149 0.116938 0.428522 0 0 0.024935
15 1 0.957095 0.498392 0.0451723 0 0 0.0406288
16 1 0.498227 0.408713 0.0507675 0 0 0.0135843
17 1 0.537496 0.457354 0.654215 0 0 0.0101933
18 1 0.719607 0.284151 0.914658 0 0 -0.0406294
19 1 0.407249 0.492172 0.797589 0 0 -0.00121403
20 1 0.178475 0.37383 0.909063 0 0 -0.0135843
21 1 0.855196 0.582399 0.778087 0 0 -0.0147113
22 1 0.220553 0.332272 0.531308 0 0 -0.0249348
23 1 0.902985 0.540554 0.407605 0 0 0.0217031
24 1 0.0904233 0.367083 0.674832 0 0 0.0151728
25 1 0.773716 0.575322 0.552225 0 0 -0.021703
26 1 0.139206 0.325189 0.305615 0 0 -0.0101929
27 1 0.821506 0.533477 0.181744 0 0 0.0147109
28 1 0.586278 0.41546 0.284999 0 0 -0.0151737
29 1 0.269453 0.623705 0.162241 0 0 0.0012151
30 1 0.456149 0.450271 0.428522 0 0 0.0249343
31 1 0.957095 0.831725 0.0451724 0 0 0.0406282
32 1 0.498227 0.742046 0.0507676 0 0 0.0135838
33 1 0.537496 0.790688 0.654215 0 0 0.0101933
34 1 0.719607 0.617484 0.914658 0 0 -0.0406291
35 1 0.407249 0.825505 0.797589 0 0 -0.00121415
36 1 0.178475 0.707163 0.909063 0 0 -0.0135839
37 1 0.855196 0.915732 0.778087 0 0 -0.0147111
38 1 0.220553 0.665605 0.531308 0 0 -0.0249346
39 1 0.902985 0.873887 0.407605 0 0 0.0217024
40 1 0.0904233 0.700417 0.674832 0 0 0.0151733
41 1 0.773716 0.908656 0.552225 0 0 -0.0217028
42 1 0.139206 0.658522 0.305615 0 0 -0.0101928
43 1 0.821506 0.866811 0.181744 0 0 0.0147115
44 1 0.586278 0.748793 0.284999 0 0 -0.0151736
45 1 0.269453 0.957038 0.162241 0 0 0.00121427
46 1 0.456149 0.783604 0.428522 0 0 0.0249343
47 1 0.220553 0.998939 0.531308 0 0 -0.0249346
48 1 0.139206 0.991855 0.305615 0 0 -0.0101928
ITEM: TIMESTEP
6
ITEM: NUMBER OF ATOMS
48
ITEM: BOX BOUNDS xy xz yz pp pp pp
-4.7169109582901001e+00 8.6109705567359924e+00 2.5110912919044495e+00
-1.0506033897399902e-02 9.6185076832771301e+00 -4.7023541331291199e+00
-2.6944518089294434e-02 1.9544072151184082e+01 3.6519104242324829e-01
ITEM: ATOMS id type xs ys zs fx fy fz
1 1 0.957459 0.16504 0.0456358 0 0 -0.0098145
2 1 0.498466 0.0753677 0.0510728 0 0 -0.000663042
3 1 0.537398 0.124026 0.654091 0 0 0.00363326
4 1 0.719243 0.950836 0.914194 0 0 0.00981402
5 1 0.40717 0.158842 0.797489 0 0 -0.0101343
6 1 0.178235 0.0405086 0.908757 0 0 0.0006634
7 1 0.854998 0.249075 0.777835 0 0 -0.015857
8 1 0.903237 0.207208 0.407925 0 0 -0.00116861
9 1 0.0903691 0.0337527 0.674762 0 0 0.00645638
10 1 0.773465 0.242002 0.551905 0 0 0.00116849
11 1 0.821704 0.200134 0.181996 0 0 0.0158569
12 1 0.586333 0.0821236 0.285068 0 0 -0.00645649
13 1 0.269532 0.290367 0.162341 0 0 0.0101345
14 1 0.456437 0.116923 0.42889 0 0 0.000826001
15 1 0.957459 0.498374 0.0456358 0 0 -0.00981438
16 1 0.498466 0.408701 0.0510728 0 0 -0.000662804
17 1 0.537398 0.457359 0.654091 0 0 0.00363314
18 1 0.719243 0.284169 0.914194 0 0 0.00981426
19 1 0.40717 0.492176 0.797489 0 0 -0.0101342
20 1 0.178235 0.373842 0.908757 0 0 0.000663042
21 1 0.854998 0.582409 0.777835 0 0 -0.0158569
22 1 0.220264 0.332286 0.530941 0 0 -0.00082624
23 1 0.903237 0.540541 0.407925 0 0 -0.00116861
24 1 0.0903691 0.367086 0.674762 0 0 0.00645602
25 1 0.773465 0.575335 0.551905 0 0 0.00116873
26 1 0.139304 0.325184 0.30574 0 0 -0.00363326
27 1 0.821704 0.533468 0.181996 0 0 0.0158569
28 1 0.586333 0.415457 0.285068 0 0 -0.00645638
29 1 0.269532 0.623701 0.162341 0 0 0.0101345
30 1 0.456437 0.450257 0.42889 0 0 0.000826359
31 1 0.957459 0.831707 0.0456358 0 0 -0.00981414
32 1 0.498466 0.742034 0.0510728 0 0 -0.000662804
33 1 0.537398 0.790693 0.65409 0 0 0.00363338
34 1 0.719243 0.617503 0.914194 0 0 0.0098139
35 1 0.40717 0.825509 0.797489 0 0 -0.0101342
36 1 0.178235 0.707175 0.908757 0 0 0.000662923
37 1 0.854998 0.915742 0.777835 0 0 -0.0158566
38 1 0.220264 0.66562 0.530941 0 0 -0.00082612
39 1 0.903237 0.873875 0.407925 0 0 -0.00116849
40 1 0.0903691 0.700419 0.674762 0 0 0.00645614
41 1 0.773465 0.908668 0.551905 0 0 0.00116813
42 1 0.139304 0.658517 0.30574 0 0 -0.00363314
43 1 0.821704 0.866801 0.181996 0 0 0.015857
44 1 0.586333 0.74879 0.285068 0 0 -0.00645638
45 1 0.269532 0.957034 0.162341 0 0 0.0101345
46 1 0.456437 0.78359 0.42889 0 0 0.000825882
47 1 0.220264 0.998953 0.530941 0 0 -0.000825882
48 1 0.139304 0.99185 0.30574 0 0 -0.00363302
ITEM: TIMESTEP
7
ITEM: NUMBER OF ATOMS
48
ITEM: BOX BOUNDS xy xz yz pp pp pp
-4.7169109582901001e+00 8.6109705567359924e+00 2.5110912919044495e+00
-1.0506033897399902e-02 9.6185076832771301e+00 -4.7023541331291199e+00
-2.6944518089294434e-02 1.9544072151184082e+01 3.6519104242324829e-01
ITEM: ATOMS id type xs ys zs fx fy fz
1 1 0.957424 0.165042 0.0455918 0 0 0.00201941
2 1 0.498497 0.0753662 0.0511121 0 0 0.00052619
3 1 0.537416 0.124025 0.654114 0 0 -0.00342155
4 1 0.719278 0.950834 0.914238 0 0 -0.00201952
5 1 0.407064 0.158848 0.797354 0 0 -0.000908256
6 1 0.178205 0.0405102 0.908718 0 0 -0.000525951
7 1 0.854821 0.249084 0.777609 0 0 -0.00276423
8 1 0.903265 0.207207 0.407961 0 0 -0.00518596
9 1 0.0904203 0.0337502 0.674828 0 0 -0.00212836
10 1 0.773437 0.242003 0.551869 0 0 0.00518584
11 1 0.82188 0.200125 0.182221 0 0 0.0027647
12 1 0.586281 0.0821262 0.285002 0 0 0.00212836
13 1 0.269637 0.290362 0.162476 0 0 0.000908494
14 1 0.456489 0.116921 0.428956 0 0 -0.00429547
15 1 0.957424 0.498375 0.0455918 0 0 0.00201941
16 1 0.498497 0.4087 0.0511121 0 0 0.000525832
17 1 0.537416 0.457358 0.654114 0 0 -0.00342178
18 1 0.719278 0.284168 0.914238 0 0 -0.00201952
19 1 0.407064 0.492181 0.797354 0 0 -0.000908494
20 1 0.178205 0.373844 0.908718 0 0 -0.000525475
21 1 0.854821 0.582418 0.777609 0 0 -0.00276446
22 1 0.220212 0.332289 0.530874 0 0 0.00429547
23 1 0.903265 0.54054 0.407961 0 0 -0.0051862
24 1 0.0904203 0.367084 0.674828 0 0 -0.0021286
25 1 0.773437 0.575336 0.551869 0 0 0.00518608
26 1 0.139285 0.325185 0.305716 0 0 0.00342166
27 1 0.82188 0.533459 0.182221 0 0 0.00276446
28 1 0.586281 0.41546 0.285002 0 0 0.00212848
29 1 0.269637 0.623695 0.162476 0 0 0.000908256
30 1 0.456489 0.450254 0.428956 0 0 -0.00429547
31 1 0.957424 0.831709 0.0455918 0 0 0.00201964
32 1 0.498497 0.742033 0.0511121 0 0 0.000525832
33 1 0.537416 0.790692 0.654114 0 0 -0.00342166
34 1 0.719278 0.617501 0.914238 0 0 -0.00201929
35 1 0.407064 0.825514 0.797354 0 0 -0.000908613
36 1 0.178205 0.707177 0.908718 0 0 -0.000525951
37 1 0.854821 0.915751 0.777609 0 0 -0.00276446
38 1 0.220212 0.665622 0.530874 0 0 0.00429535
39 1 0.903265 0.873873 0.407961 0 0 -0.00518608
40 1 0.0904203 0.700417 0.674828 0 0 -0.00212824
41 1 0.773437 0.90867 0.551869 0 0 0.0051862
42 1 0.139285 0.658518 0.305716 0 0 0.00342155
43 1 0.82188 0.866792 0.182221 0 0 0.00276423
44 1 0.586281 0.748793 0.285002 0 0 0.00212872
45 1 0.269637 0.957029 0.162476 0 0 0.000908136
46 1 0.456489 0.783587 0.428956 0 0 -0.00429571
47 1 0.220212 0.998956 0.530874 0 0 0.00429559
48 1 0.139285 0.991851 0.305716 0 0 0.00342143
ITEM: TIMESTEP
8
ITEM: NUMBER OF ATOMS
48
ITEM: BOX BOUNDS xy xz yz pp pp pp
-4.7169109582901001e+00 8.6109705567359924e+00 2.5110912919044495e+00
-1.0506033897399902e-02 9.6185076832771301e+00 -4.7023541331291199e+00
-2.6944518089294434e-02 1.9544072151184082e+01 3.6519104242324829e-01
ITEM: ATOMS id type xs ys zs fx fy fz
1 1 0.957442 0.165041 0.0456152 0 0 0.00140178
2 1 0.498508 0.0753656 0.0511266 0 0 0.000800014
3 1 0.537379 0.124027 0.654066 0 0 -0.00112736
4 1 0.719259 0.950835 0.914215 0 0 -0.00140154
5 1 0.407036 0.158849 0.797318 0 0 -0.000215173
6 1 0.178193 0.0405108 0.908704 0 0 -0.000800371
7 1 0.854759 0.249087 0.77753 0 0 5.84126e-05
8 1 0.903207 0.20721 0.407888 0 0 0.000876546
9 1 0.0904034 0.033751 0.674806 0 0 -0.000811934
10 1 0.773494 0.242 0.551942 0 0 -0.000876904
11 1 0.821943 0.200122 0.1823 0 0 -5.8651e-05
12 1 0.586298 0.0821253 0.285024 0 0 0.000811934
13 1 0.269666 0.290361 0.162512 0 0 0.000215173
14 1 0.456447 0.116923 0.428902 0 0 0.00105202
15 1 0.957443 0.498374 0.0456152 0 0 0.0014019
16 1 0.498508 0.408699 0.0511266 0 0 0.000800133
17 1 0.537379 0.45736 0.654066 0 0 -0.001127
18 1 0.719259 0.284169 0.914215 0 0 -0.00140166
19 1 0.407036 0.492182 0.797318 0 0 -0.000215411
20 1 0.178193 0.373844 0.908704 0 0 -0.000800133
21 1 0.854759 0.582421 0.77753 0 0 5.8651e-05
22 1 0.220255 0.332287 0.530928 0 0 -0.00105202
23 1 0.903207 0.540543 0.407888 0 0 0.000876784
24 1 0.0904034 0.367084 0.674806 0 0 -0.000811338
25 1 0.773494 0.575333 0.551942 0 0 -0.000876665
26 1 0.139323 0.325183 0.305764 0 0 0.00112724
27 1 0.821943 0.533456 0.1823 0 0 -5.8651e-05
28 1 0.586298 0.415459 0.285024 0 0 0.000811815
29 1 0.269666 0.623694 0.162512 0 0 0.000215292
30 1 0.456447 0.450256 0.428902 0 0 0.0010519
31 1 0.957442 0.831708 0.0456152 0 0 0.00140154
32 1 0.498508 0.742032 0.0511266 0 0 0.000800014
33 1 0.537379 0.790694 0.654066 0 0 -0.00112736
34 1 0.719259 0.617502 0.914215 0 0 -0.0014019
35 1 0.407036 0.825516 0.797318 0 0 -0.000214934
36 1 0.178193 0.707177 0.908704 0 0 -0.000800252
37 1 0.854759 0.915754 0.77753 0 0 5.85318e-05
38 1 0.220255 0.66562 0.530928 0 0 -0.0010519
39 1 0.903207 0.873876 0.407888 0 0 0.000876427
40 1 0.0904034 0.700418 0.674806 0 0 -0.000811934
41 1 0.773494 0.908667 0.551942 0 0 -0.000876188
42 1 0.139323 0.658516 0.305764 0 0 0.00112748
43 1 0.821943 0.866789 0.1823 0 0 -5.84126e-05
44 1 0.586298 0.748792 0.285024 0 0 0.000811338
45 1 0.269666 0.957027 0.162512 0 0 0.000215411
46 1 0.456447 0.78359 0.428902 0 0 0.00105238
47 1 0.220255 0.998954 0.530928 0 0 -0.00105226
48 1 0.139323 0.991849 0.305764 0 0 0.00112724
ITEM: TIMESTEP
9
ITEM: NUMBER OF ATOMS
48
ITEM: BOX BOUNDS xy xz yz pp pp pp
-4.7169109582901001e+00 8.6109705567359924e+00 2.5110912919044495e+00
-1.0506033897399902e-02 9.6185076832771301e+00 -4.7023541331291199e+00
-2.6944518089294434e-02 1.9544072151184082e+01 3.6519104242324829e-01
ITEM: ATOMS id type xs ys zs fx fy fz
1 1 0.957464 0.16504 0.0456422 0 0 -0.00156379
2 1 0.498521 0.075365 0.0511421 0 0 6.90222e-05
3 1 0.537359 0.124028 0.654041 0 0 -0.000328422
4 1 0.719238 0.950836 0.914188 0 0 0.00156403
5 1 0.40703 0.158849 0.797311 0 0 -0.000976205
6 1 0.178181 0.0405114 0.908688 0 0 -6.90222e-05
7 1 0.854753 0.249088 0.777523 0 0 -0.000721574
8 1 0.903213 0.207209 0.407896 0 0 0.000642896
9 1 0.0903905 0.0337517 0.67479 0 0 -0.000401616
10 1 0.773488 0.242 0.551934 0 0 -0.000642657
11 1 0.821948 0.200122 0.182307 0 0 0.000721574
12 1 0.586311 0.0821247 0.28504 0 0 0.000401616
13 1 0.269672 0.29036 0.162519 0 0 0.000976086
14 1 0.456457 0.116922 0.428915 0 0 0.000676632
15 1 0.957464 0.498373 0.0456422 0 0 -0.00156379
16 1 0.498521 0.408698 0.0511421 0 0 6.92606e-05
17 1 0.537359 0.457361 0.654041 0 0 -0.000328541
18 1 0.719238 0.28417 0.914188 0 0 0.00156379
19 1 0.40703 0.492183 0.797311 0 0 -0.000976086
20 1 0.178181 0.373845 0.908688 0 0 -6.96182e-05
21 1 0.854753 0.582421 0.777523 0 0 -0.000721693
22 1 0.220245 0.332287 0.530916 0 0 -0.000676274
23 1 0.903213 0.540543 0.407896 0 0 0.000643015
24 1 0.0903905 0.367085 0.67479 0 0 -0.000401735
25 1 0.773488 0.575334 0.551934 0 0 -0.000642896
26 1 0.139342 0.325182 0.305789 0 0 0.000328541
27 1 0.821948 0.533455 0.182307 0 0 0.000721812
28 1 0.586311 0.415458 0.28504 0 0 0.000401378
29 1 0.269672 0.623694 0.162519 0 0 0.000976086
30 1 0.456457 0.450256 0.428915 0 0 0.000676274
31 1 0.957464 0.831707 0.0456422 0 0 -0.00156379
32 1 0.498521 0.742032 0.0511421 0 0 6.91414e-05
33 1 0.537359 0.790695 0.654041 0 0 -0.000328183
34 1 0.719238 0.617503 0.914188 0 0 0.00156426
35 1 0.40703 0.825516 0.797311 0 0 -0.000976443
36 1 0.178181 0.707178 0.908688 0 0 -6.90222e-05
37 1 0.854753 0.915754 0.777523 0 0 -0.000721693
38 1 0.220245 0.665621 0.530916 0 0 -0.000676632
39 1 0.903213 0.873876 0.407896 0 0 0.000643253
40 1 0.0903905 0.700418 0.67479 0 0 -0.000401497
41 1 0.773488 0.908667 0.551934 0 0 -0.000643373
42 1 0.139342 0.658515 0.305789 0 0 0.000328183
43 1 0.821948 0.866789 0.182307 0 0 0.000721455
44 1 0.586311 0.748791 0.28504 0 0 0.000401855
45 1 0.269672 0.957027 0.162519 0 0 0.000976205
46 1 0.456457 0.783589 0.428915 0 0 0.000676394
47 1 0.220245 0.998954 0.530916 0 0 -0.000676632
48 1 0.139342 0.991848 0.305789 0 0 0.000328422
ITEM: TIMESTEP
10
ITEM: NUMBER OF ATOMS
48
ITEM: BOX BOUNDS xy xz yz pp pp pp
-4.7169109582901001e+00 8.6109705567359924e+00 2.5110912919044495e+00
-1.0506033897399902e-02 9.6185076832771301e+00 -4.7023541331291199e+00
-2.6944518089294434e-02 1.9544072151184082e+01 3.6519104242324829e-01
ITEM: ATOMS id type xs ys zs fx fy fz
1 1 0.957458 0.16504 0.0456354 0 0 4.07696e-05
2 1 0.498532 0.0753644 0.0511566 0 0 -0.000222206
3 1 0.537338 0.124029 0.654014 0 0 -2.09808e-05
4 1 0.719243 0.950836 0.914195 0 0 -4.14848e-05
5 1 0.40701 0.15885 0.797286 0 0 -0.00018549
6 1 0.17817 0.0405119 0.908674 0 0 0.000221968
7 1 0.854738 0.249089 0.777503 0 0 -0.00033021
8 1 0.903228 0.207208 0.407915 0 0 -0.000313163
9 1 0.0903735 0.0337525 0.674768 0 0 -0.000337362
10 1 0.773473 0.242001 0.551915 0 0 0.000313878
11 1 0.821964 0.200121 0.182327 0 0 0.000329852
12 1 0.586328 0.0821238 0.285062 0 0 0.000337362
13 1 0.269691 0.290359 0.162545 0 0 0.000185609
14 1 0.456476 0.116921 0.428938 0 0 -0.000403285
15 1 0.957458 0.498374 0.0456354 0 0 4.05312e-05
16 1 0.498532 0.408698 0.0511566 0 0 -0.000221968
17 1 0.537338 0.457362 0.654014 0 0 -2.11e-05
18 1 0.719243 0.284169 0.914195 0 0 -4.06504e-05
19 1 0.40701 0.492184 0.797286 0 0 -0.000184894
20 1 0.17817 0.373845 0.908674 0 0 0.000222206
21 1 0.854738 0.582422 0.777503 0 0 -0.000329852
22 1 0.220226 0.332288 0.530892 0 0 0.000402927
23 1 0.903228 0.540542 0.407915 0 0 -0.000313759
24 1 0.0903735 0.367086 0.674768 0 0 -0.00033772
25 1 0.773473 0.575335 0.551915 0 0 0.000313282
26 1 0.139364 0.325181 0.305816 0 0 2.08616e-05
27 1 0.821964 0.533454 0.182327 0 0 0.000330091
28 1 0.586328 0.415457 0.285062 0 0 0.000337481
29 1 0.269691 0.623693 0.162545 0 0 0.00018537
30 1 0.456476 0.450255 0.428938 0 0 -0.000402689
31 1 0.957458 0.831707 0.0456354 0 0 4.1604e-05
32 1 0.498532 0.742031 0.0511566 0 0 -0.000222206
33 1 0.537338 0.790696 0.654014 0 0 -2.13385e-05
34 1 0.719243 0.617503 0.914195 0 0 -4.1008e-05
35 1 0.40701 0.825517 0.797286 0 0 -0.000185251
36 1 0.17817 0.707179 0.908674 0 0 0.000222206
37 1 0.854738 0.915755 0.777503 0 0 -0.000329852
38 1 0.220226 0.665622 0.530892 0 0 0.000402927
39 1 0.903228 0.873875 0.407915 0 0 -0.000313878
40 1 0.0903735 0.700419 0.674768 0 0 -0.000337243
41 1 0.773473 0.908668 0.551915 0 0 0.000313282
42 1 0.139364 0.658514 0.305816 0 0 2.12193e-05
43 1 0.821964 0.866788 0.182327 0 0 0.000329971
44 1 0.586328 0.74879 0.285062 0 0 0.000337839
45 1 0.269691 0.957026 0.162545 0 0 0.000185132
46 1 0.456476 0.783588 0.428938 0 0 -0.000402927
47 1 0.220226 0.998955 0.530892 0 0 0.000402927
48 1 0.139364 0.991847 0.305816 0 0 2.12193e-05
ITEM: TIMESTEP
11
ITEM: NUMBER OF ATOMS
48
ITEM: BOX BOUNDS xy xz yz pp pp pp
-4.7169109582901001e+00 8.6109705567359924e+00 2.5110912919044495e+00
-1.0506033897399902e-02 9.6185076832771301e+00 -4.7023541331291199e+00
-2.6944518089294434e-02 1.9544072151184082e+01 3.6519104242324829e-01
ITEM: ATOMS id type xs ys zs fx fy fz
1 1 0.957458 0.16504 0.0456354 0 0 0.000286937
2 1 0.49853 0.0753645 0.0511545 0 0 -4.52995e-06
3 1 0.537335 0.124029 0.654011 0 0 5.17368e-05
4 1 0.719243 0.950836 0.914195 0 0 -0.00028646
5 1 0.407006 0.158851 0.79728 0 0 -1.70469e-05
6 1 0.178171 0.0405119 0.908676 0 0 4.76837e-06
7 1 0.854732 0.249089 0.777496 0 0 -4.27961e-05
8 1 0.903226 0.207209 0.407912 0 0 7.71284e-05
9 1 0.0903677 0.0337528 0.674761 0 0 -1.06096e-05
10 1 0.773476 0.242001 0.551919 0 0 -7.7486e-05
11 1 0.821969 0.200121 0.182334 0 0 4.31538e-05
12 1 0.586334 0.0821236 0.285069 0 0 1.0848e-05
13 1 0.269695 0.290359 0.16255 0 0 1.65701e-05
14 1 0.456472 0.116922 0.428934 0 0 2.18153e-05
15 1 0.957458 0.498374 0.0456354 0 0 0.000286937
16 1 0.49853 0.408698 0.0511545 0 0 -5.00679e-06
17 1 0.537336 0.457362 0.654011 0 0 5.20945e-05
18 1 0.719243 0.284169 0.914195 0 0 -0.000287056
19 1 0.407006 0.492184 0.79728 0 0 -1.68085e-05
20 1 0.178171 0.373845 0.908676 0 0 5.00679e-06
21 1 0.854732 0.582422 0.777496 0 0 -4.29153e-05
22 1 0.220229 0.332288 0.530896 0 0 -2.21729e-05
23 1 0.903226 0.540542 0.407912 0 0 7.70092e-05
24 1 0.0903678 0.367086 0.674761 0 0 -1.07288e-05
25 1 0.773476 0.575334 0.551919 0 0 -7.689e-05