ITEM: TIMESTEP
0
ITEM: NUMBER OF ATOMS
48
ITEM: BOX BOUNDS xy xz yz pp pp pp
-7.4045847058296204e+00 8.6067802309989929e+00 2.5094206929206848e+00
-9.4973444938659668e-03 9.3236122131347656e+00 -7.3925476074218750e+00
-2.8691649436950684e-02 1.9545819282531738e+01 7.1304261684417725e-02
ITEM: ATOMS id type xs ys zs fx fy fz
2 1 0.522142 0.0738739 0.0528103 0 0 -0.0147648
4 1 0.123695 0.948847 0.927808 0 0 -0.0331478
6 1 0.5619 0.0420026 0.90702 0 0 0.0147667
7 1 0.190343 0.250315 0.78202 0 0 0.00289726
8 1 0.0752479 0.208712 0.407029 0 0 0.000146866
9 1 0.38051 0.0321465 0.677802 0 0 2.09808e-05
10 1 0.00879464 0.240498 0.552801 0 0 -0.000139236
13 1 0.331903 0.292053 0.157025 0 0 -0.00140381
16 1 0.522142 0.407207 0.0528103 0 0 -0.0147667
18 1 0.123695 0.28218 0.927808 0 0 -0.0331516
20 1 0.5619 0.375336 0.90702 0 0 0.0147667
21 1 0.190343 0.583648 0.78202 0 0 0.00289345
22 1 0.447002 0.333676 0.532027 0 0 0.000406265
23 1 0.0752483 0.542046 0.407029 0 0 0.000141144
24 1 0.38051 0.36548 0.677802 0 0 2.67029e-05
25 1 0.00879458 0.573831 0.552801 0 0 -0.000143051
26 1 0.265328 0.323895 0.302807 0 0 -0.000837326
29 1 0.331903 0.625387 0.157025 0 0 -0.00140381
32 1 0.522142 0.740541 0.0528104 0 0 -0.0147629
34 1 0.123695 0.615514 0.927808 0 0 -0.0331497
36 1 0.5619 0.708669 0.90702 0 0 0.0147686
37 1 0.190343 0.916981 0.78202 0 0 0.00289345
38 1 0.447002 0.667009 0.532027 0 0 0.000404358
39 1 0.0752481 0.875379 0.407029 0 0 0.000141144
40 1 0.380509 0.698813 0.677802 0 0 2.09808e-05
41 1 0.00879426 0.907164 0.552801 0 0 -0.000137329
42 1 0.265328 0.657228 0.302807 0 0 -0.000839233
45 1 0.331904 0.95872 0.157026 0 0 -0.00140381
47 1 0.447001 0.000342385 0.532027 0 0 0.000404358
48 1 0.265328 0.990562 0.302807 0 0 -0.000837326
1 1 0.960347 0.16703 0.0320218 0 0 0.0331497
3 1 0.818714 0.125314 0.657023 0 0 0.000839233
5 1 0.752139 0.157156 0.802805 0 0 0.00139999
11 1 0.8937 0.198895 0.17781 0 0 -0.00289917
12 1 0.703533 0.0837297 0.282028 0 0 -2.28882e-05
14 1 0.637041 0.115534 0.427803 0 0 -0.00041008
15 1 0.960347 0.500363 0.0320219 0 0 0.0331478
17 1 0.818714 0.458648 0.657023 0 0 0.000841141
19 1 0.752139 0.49049 0.802805 0 0 0.00139999
27 1 0.8937 0.532228 0.17781 0 0 -0.00289345
28 1 0.703533 0.417063 0.282028 0 0 -1.90735e-05
30 1 0.637041 0.448867 0.427803 0 0 -0.00041008
31 1 0.960347 0.833696 0.0320219 0 0 0.033144
33 1 0.818714 0.791981 0.657023 0 0 0.000839233
35 1 0.752139 0.823823 0.802805 0 0 0.00140572
43 1 0.8937 0.865562 0.17781 0 0 -0.00289536
44 1 0.703533 0.750396 0.282028 0 0 -2.28882e-05
46 1 0.637041 0.782201 0.427803 0 0 -0.000404358
ITEM: TIMESTEP
1
ITEM: NUMBER OF ATOMS
48
ITEM: BOX BOUNDS xy xz yz pp pp pp
-7.4045847058296204e+00 8.6067802309989929e+00 2.5094206929206848e+00
-9.4973444938659668e-03 9.3236122131347656e+00 -7.3925476074218750e+00
-2.8691649436950684e-02 1.9545819282531738e+01 7.1304261684417725e-02
ITEM: ATOMS id type xs ys zs fx fy fz
2 1 0.521806 0.0738761 0.0525334 0 0 -0.00484467
4 1 0.122941 0.948852 0.927187 0 0 0.00215149
6 1 0.562236 0.0420005 0.907297 0 0 0.00484467
7 1 0.190409 0.250314 0.782074 0 0 -0.001091
8 1 0.0752512 0.208712 0.407032 0 0 -8.01086e-05
9 1 0.38051 0.0321465 0.677802 0 0 0.000268936
10 1 0.00879147 0.240498 0.552798 0 0 8.01086e-05
13 1 0.331872 0.292053 0.156999 0 0 0.00556564
16 1 0.521806 0.407209 0.0525334 0 0 -0.00484657
18 1 0.122941 0.282185 0.927187 0 0 0.00214577
20 1 0.562236 0.375334 0.907297 0 0 0.00484467
21 1 0.190409 0.583648 0.782074 0 0 -0.00109482
22 1 0.447011 0.333676 0.532035 0 0 0.00038147
23 1 0.0752515 0.542045 0.407032 0 0 -8.39233e-05
24 1 0.38051 0.36548 0.677802 0 0 0.000267029
25 1 0.00879133 0.573831 0.552798 0 0 7.82013e-05
26 1 0.265309 0.323895 0.302792 0 0 -0.00102806
29 1 0.331872 0.625387 0.156999 0 0 0.00556374
32 1 0.521806 0.740543 0.0525335 0 0 -0.00485039
34 1 0.122941 0.615518 0.927187 0 0 0.0021534
36 1 0.562236 0.708667 0.907297 0 0 0.00484276
37 1 0.190409 0.916981 0.782074 0 0 -0.001091
38 1 0.447011 0.667009 0.532035 0 0 0.000385284
39 1 0.0752513 0.875379 0.407032 0 0 -8.2016e-05
40 1 0.38051 0.698813 0.677802 0 0 0.000268936
41 1 0.00879113 0.907164 0.552798 0 0 8.01086e-05
42 1 0.265309 0.657229 0.302792 0 0 -0.00102615
45 1 0.331872 0.95872 0.156999 0 0 0.00555611
47 1 0.447011 0.000342327 0.532035 0 0 0.000383377
48 1 0.265309 0.990562 0.302792 0 0 -0.00102425
1 1 0.961101 0.167025 0.0326436 0 0 -0.00214767
3 1 0.818733 0.125314 0.657039 0 0 0.00102806
5 1 0.752171 0.157156 0.802831 0 0 -0.00555992
11 1 0.893634 0.198895 0.177756 0 0 0.00109291
12 1 0.703533 0.0837297 0.282028 0 0 -0.000267029
14 1 0.637032 0.115534 0.427796 0 0 -0.000379562
15 1 0.961102 0.500358 0.0326437 0 0 -0.00214958
17 1 0.818733 0.458648 0.657039 0 0 0.00102997
19 1 0.752171 0.49049 0.802831 0 0 -0.00555992
27 1 0.893634 0.532229 0.177756 0 0 0.001091
28 1 0.703533 0.417063 0.282028 0 0 -0.000270844
30 1 0.637031 0.448868 0.427796 0 0 -0.000379562
31 1 0.961102 0.833691 0.0326436 0 0 -0.00214577
33 1 0.818733 0.791981 0.657039 0 0 0.00102806
35 1 0.752171 0.823823 0.802831 0 0 -0.00556564
43 1 0.893634 0.865562 0.177756 0 0 0.00108528
44 1 0.703533 0.750396 0.282028 0 0 -0.000267029
46 1 0.637032 0.782201 0.427796 0 0 -0.00038147
ITEM: TIMESTEP
2
ITEM: NUMBER OF ATOMS
48
ITEM: BOX BOUNDS xy xz yz pp pp pp
-7.4045847058296204e+00 8.6067802309989929e+00 2.5094206929206848e+00
-9.4973444938659668e-03 9.3236122131347656e+00 -7.3925476074218750e+00
-2.8691649436950684e-02 1.9545819282531738e+01 7.1304261684417725e-02
ITEM: ATOMS id type xs ys zs fx fy fz
2 1 0.521705 0.0738767 0.0524505 0 0 0.000762939
4 1 0.122948 0.948852 0.927192 0 0 -2.47955e-05
6 1 0.562337 0.0419998 0.90738 0 0 -0.000764847
7 1 0.190392 0.250315 0.782061 0 0 0.000717163
8 1 0.07525 0.208712 0.407031 0 0 -2.86102e-05
9 1 0.380515 0.0321465 0.677806 0 0 -0.000921249
10 1 0.00879276 0.240498 0.552799 0 0 3.8147e-05
13 1 0.331969 0.292053 0.15708 0 0 0.00107193
16 1 0.521706 0.40721 0.0524504 0 0 0.000759125
18 1 0.122947 0.282185 0.927192 0 0 -1.71661e-05
20 1 0.562337 0.375333 0.90738 0 0 -0.000764847
21 1 0.190392 0.583648 0.782061 0 0 0.00071907
22 1 0.447018 0.333675 0.532041 0 0 0.000217438
23 1 0.0752501 0.542046 0.407031 0 0 -3.05176e-05
24 1 0.380515 0.36548 0.677806 0 0 -0.000926971
25 1 0.00879259 0.573831 0.552799 0 0 3.43323e-05
26 1 0.26529 0.323895 0.302776 0 0 0.000371933
29 1 0.331969 0.625386 0.15708 0 0 0.00107193
32 1 0.521706 0.740543 0.0524505 0 0 0.000766754
34 1 0.122947 0.615518 0.927192 0 0 -1.90735e-05
36 1 0.562337 0.708666 0.90738 0 0 -0.000762939
37 1 0.190392 0.916981 0.782061 0 0 0.000720978
38 1 0.447018 0.667009 0.532041 0 0 0.000213623
39 1 0.07525 0.875379 0.407031 0 0 -3.24249e-05
40 1 0.380515 0.698813 0.677806 0 0 -0.000919342
41 1 0.00879243 0.907164 0.552799 0 0 2.86102e-05
42 1 0.26529 0.657229 0.302776 0 0 0.00037384
45 1 0.33197 0.958719 0.15708 0 0 0.00107956
47 1 0.447018 0.000342281 0.532041 0 0 0.000217438
48 1 0.26529 0.990562 0.302776 0 0 0.000362396
1 1 0.961095 0.167025 0.0326381 0 0 1.90735e-05
3 1 0.818753 0.125314 0.657054 0 0 -0.00037384
5 1 0.752073 0.157157 0.80275 0 0 -0.00107193
11 1 0.893651 0.198895 0.177769 0 0 -0.000715256
12 1 0.703528 0.0837297 0.282024 0 0 0.000915527
14 1 0.637025 0.115534 0.42779 0 0 -0.000213623
15 1 0.961095 0.500358 0.0326382 0 0 2.28882e-05
17 1 0.818753 0.458647 0.657054 0 0 -0.000371933
19 1 0.752073 0.49049 0.80275 0 0 -0.00107002
27 1 0.893651 0.532228 0.177769 0 0 -0.000715256
28 1 0.703528 0.417063 0.282024 0 0 0.000915527
30 1 0.637024 0.448868 0.42779 0 0 -0.000213623
31 1 0.961095 0.833691 0.0326382 0 0 1.90735e-05
33 1 0.818752 0.791981 0.657054 0 0 -0.000370026
35 1 0.752073 0.823824 0.80275 0 0 -0.00107002
43 1 0.893651 0.865562 0.177769 0 0 -0.000715256
44 1 0.703528 0.750396 0.282024 0 0 0.00091362
46 1 0.637025 0.782201 0.42779 0 0 -0.000219345
ITEM: TIMESTEP
3
ITEM: NUMBER OF ATOMS
48
ITEM: BOX BOUNDS xy xz yz pp pp pp
-7.4045847058296204e+00 8.6067802309989929e+00 2.5094206929206848e+00
-9.4973444938659668e-03 9.3236122131347656e+00 -7.3925476074218750e+00
-2.8691649436950684e-02 1.9545819282531738e+01 7.1304261684417725e-02
ITEM: ATOMS id type xs ys zs fx fy fz
2 1 0.521721 0.0738766 0.052463 0 0 8.7738e-05
4 1 0.122947 0.948852 0.927192 0 0 -0.000175476
6 1 0.562321 0.0419999 0.907367 0 0 -8.2016e-05
7 1 0.190411 0.250314 0.782076 0 0 -0.000432968
8 1 0.0752491 0.208712 0.40703 0 0 0.000408173
9 1 0.380489 0.0321466 0.677785 0 0 -0.000192642
10 1 0.00879391 0.240498 0.5528 0 0 -0.000413895
13 1 0.332005 0.292053 0.157109 0 0 0.000104904
16 1 0.521721 0.40721 0.0524629 0 0 9.91821e-05
18 1 0.122947 0.282185 0.927192 0 0 -0.000169754
20 1 0.562322 0.375333 0.907367 0 0 -8.7738e-05
21 1 0.190411 0.583648 0.782076 0 0 -0.000427246
22 1 0.447025 0.333675 0.532046 0 0 -0.000358582
23 1 0.0752492 0.542046 0.40703 0 0 0.000406265
24 1 0.380489 0.36548 0.677785 0 0 -0.00018692
25 1 0.00879362 0.573831 0.5528 0 0 -0.00041008
26 1 0.265299 0.323895 0.302783 0 0 3.8147e-05
29 1 0.332005 0.625386 0.157109 0 0 0.000106812
32 1 0.521721 0.740543 0.0524631 0 0 8.7738e-05
34 1 0.122947 0.615518 0.927192 0 0 -0.000173569
36 1 0.562322 0.708667 0.907367 0 0 -8.58307e-05
37 1 0.190411 0.916981 0.782076 0 0 -0.000434875
38 1 0.447025 0.667009 0.532046 0 0 -0.000356674
39 1 0.075249 0.875379 0.40703 0 0 0.000404358
40 1 0.380489 0.698813 0.677785 0 0 -0.000198364
41 1 0.00879331 0.907164 0.5528 0 0 -0.000406265
42 1 0.265299 0.657229 0.302783 0 0 2.86102e-05
45 1 0.332006 0.958719 0.15711 0 0 9.72748e-05
47 1 0.447024 0.00034224 0.532046 0 0 -0.000360489
48 1 0.265299 0.990562 0.302783 0 0 4.00543e-05
1 1 0.961095 0.167025 0.0326382 0 0 0.000173569
3 1 0.818743 0.125314 0.657047 0 0 -3.8147e-05
5 1 0.752037 0.157157 0.802721 0 0 -0.000110626
11 1 0.893632 0.198895 0.177754 0 0 0.000425339
12 1 0.703553 0.0837295 0.282045 0 0 0.000205994
14 1 0.637018 0.115534 0.427784 0 0 0.000358582
15 1 0.961095 0.500358 0.0326384 0 0 0.000171661
17 1 0.818743 0.458648 0.657047 0 0 -3.8147e-05
19 1 0.752037 0.490491 0.802721 0 0 -0.000112534
27 1 0.893632 0.532229 0.177754 0 0 0.000421524
28 1 0.703553 0.417063 0.282045 0 0 0.000204086
30 1 0.637018 0.448868 0.427784 0 0 0.000356674
31 1 0.961095 0.833691 0.0326383 0 0 0.000173569
33 1 0.818743 0.791981 0.657047 0 0 -3.24249e-05
35 1 0.752037 0.823824 0.802721 0 0 -0.000104904
43 1 0.893632 0.865562 0.177754 0 0 0.000427246
44 1 0.703553 0.750396 0.282045 0 0 0.000202179
46 1 0.637018 0.782201 0.427784 0 0 0.000360489
ITEM: TIMESTEP
4
ITEM: NUMBER OF ATOMS
48
ITEM: BOX BOUNDS xy xz yz pp pp pp
-7.4045847058296204e+00 8.6067802309989929e+00 2.5094206929206848e+00
-9.4973444938659668e-03 9.3236122131347656e+00 -7.3925476074218750e+00
-2.8691649436950684e-02 1.9545819282531738e+01 7.1304261684417725e-02
ITEM: ATOMS id type xs ys zs fx fy fz
2 1 0.521727 0.0738766 0.0524685 0 0 -0.000104904
4 1 0.122941 0.948852 0.927187 0 0 -2.86102e-05
6 1 0.562315 0.042 0.907362 0 0 9.72748e-05
7 1 0.1904 0.250315 0.782067 0 0 -0.000244141
8 1 0.0752637 0.208712 0.407042 0 0 -0.000179291
9 1 0.380477 0.0321467 0.677775 0 0 -0.000144958
10 1 0.00877918 0.240498 0.552788 0 0 0.000183105
13 1 0.332017 0.292052 0.157119 0 0 -3.62396e-05
16 1 0.521728 0.40721 0.0524688 0 0 -0.000116348
18 1 0.122941 0.282185 0.927187 0 0 -4.3869e-05
20 1 0.562315 0.375333 0.907362 0 0 0.000108719
21 1 0.1904 0.583648 0.782067 0 0 -0.00025177
22 1 0.447013 0.333676 0.532036 0 0 0.000167847
23 1 0.0752637 0.542045 0.407042 0 0 -0.000181198
24 1 0.380477 0.36548 0.677775 0 0 -0.000144958
25 1 0.008779 0.573831 0.552788 0 0 0.000181198
26 1 0.265303 0.323895 0.302786 0 0 0.000337601
29 1 0.332018 0.625386 0.157119 0 0 -4.57764e-05
32 1 0.521728 0.740543 0.0524687 0 0 -0.000114441
34 1 0.122941 0.615518 0.927187 0 0 -3.62396e-05
36 1 0.562315 0.708667 0.907362 0 0 0.000101089
37 1 0.1904 0.916981 0.782067 0 0 -0.000242233
38 1 0.447013 0.667009 0.532036 0 0 0.000162125
39 1 0.0752634 0.875379 0.407042 0 0 -0.000173569
40 1 0.380476 0.698813 0.677774 0 0 -0.000135422
41 1 0.00877879 0.907164 0.552788 0 0 0.000177383
42 1 0.265302 0.657229 0.302786 0 0 0.000350952
45 1 0.332018 0.958719 0.157119 0 0 -3.8147e-05
47 1 0.447013 0.000342313 0.532036 0 0 0.000165939
48 1 0.265303 0.990562 0.302786 0 0 0.000339508
1 1 0.961101 0.167025 0.0326434 0 0 2.86102e-05
3 1 0.81874 0.125314 0.657044 0 0 -0.000343323
5 1 0.752025 0.157157 0.802711 0 0 5.34058e-05
11 1 0.893643 0.198895 0.177763 0 0 0.000261307
12 1 0.703566 0.0837295 0.282056 0 0 0.0001297
14 1 0.63703 0.115534 0.427794 0 0 -0.000165939
15 1 0.961101 0.500358 0.0326435 0 0 3.43323e-05
17 1 0.81874 0.458648 0.657044 0 0 -0.000343323
19 1 0.752025 0.490491 0.802711 0 0 5.53131e-05
27 1 0.893643 0.532228 0.177763 0 0 0.000261307
28 1 0.703566 0.417063 0.282056 0 0 0.000137329
30 1 0.637029 0.448868 0.427794 0 0 -0.000165939
31 1 0.961101 0.833691 0.0326435 0 0 2.67029e-05
33 1 0.81874 0.791981 0.657044 0 0 -0.000343323
35 1 0.752025 0.823824 0.802711 0 0 4.3869e-05
43 1 0.893643 0.865562 0.177763 0 0 0.000253677
44 1 0.703566 0.750396 0.282056 0 0 0.000137329
46 1 0.63703 0.782201 0.427794 0 0 -0.000171661
ITEM: TIMESTEP
5
ITEM: NUMBER OF ATOMS
48
ITEM: BOX BOUNDS xy xz yz pp pp pp
-7.4045847058296204e+00 8.6067802309989929e+00 2.5094206929206848e+00
-9.4973444938659668e-03 9.3236122131347656e+00 -7.3925476074218750e+00
-2.8691649436950684e-02 1.9545819282531738e+01 7.1304261684417725e-02
ITEM: ATOMS id type xs ys zs fx fy fz
2 1 0.521727 0.0738766 0.0524681 0 0 5.34058e-05
4 1 0.122938 0.948852 0.927184 0 0 5.72205e-06
6 1 0.562315 0.0419999 0.907362 0 0 -5.34058e-05
7 1 0.190388 0.250315 0.782057 0 0 -1.14441e-05
8 1 0.075264 0.208712 0.407042 0 0 -2.86102e-05
9 1 0.380467 0.0321468 0.677767 0 0 9.53674e-05
10 1 0.00877889 0.240498 0.552788 0 0 2.28882e-05
13 1 0.332021 0.292052 0.157123 0 0 4.19617e-05
16 1 0.521727 0.40721 0.0524682 0 0 4.95911e-05
18 1 0.122937 0.282185 0.927184 0 0 1.33514e-05
20 1 0.562315 0.375333 0.907362 0 0 -5.14984e-05
21 1 0.190388 0.583648 0.782057 0 0 -9.53674e-06
22 1 0.447014 0.333676 0.532037 0 0 -6.67572e-05
23 1 0.0752639 0.542045 0.407042 0 0 -2.09808e-05
24 1 0.380467 0.36548 0.677767 0 0 8.2016e-05
25 1 0.0087787 0.573831 0.552788 0 0 2.28882e-05
26 1 0.265315 0.323895 0.302796 0 0 6.48499e-05
29 1 0.332021 0.625386 0.157122 0 0 4.76837e-05
32 1 0.521727 0.740543 0.052468 0 0 5.14984e-05
34 1 0.122937 0.615518 0.927184 0 0 3.8147e-06
36 1 0.562315 0.708667 0.907362 0 0 -5.34058e-05
37 1 0.190388 0.916981 0.782057 0 0 -9.53674e-06
38 1 0.447014 0.667009 0.532037 0 0 -5.53131e-05
39 1 0.0752638 0.875379 0.407042 0 0 -2.28882e-05
40 1 0.380467 0.698814 0.677767 0 0 8.96454e-05
41 1 0.00877842 0.907164 0.552788 0 0 2.47955e-05
42 1 0.265314 0.657229 0.302796 0 0 6.48499e-05
45 1 0.332021 0.958719 0.157122 0 0 5.14984e-05
47 1 0.447013 0.00034231 0.532037 0 0 -5.91278e-05
48 1 0.265315 0.990562 0.302796 0 0 6.67572e-05
1 1 0.961105 0.167025 0.0326463 0 0 1.90735e-06
3 1 0.818728 0.125314 0.657034 0 0 -5.53131e-05
5 1 0.752022 0.157157 0.802708 0 0 -4.95911e-05
11 1 0.893655 0.198895 0.177773 0 0 3.8147e-06
12 1 0.703576 0.0837294 0.282063 0 0 -8.2016e-05
14 1 0.637029 0.115534 0.427793 0 0 6.10352e-05
15 1 0.961105 0.500358 0.0326465 0 0 -1.14441e-05
17 1 0.818728 0.458648 0.657034 0 0 -5.14984e-05
19 1 0.752022 0.490491 0.802708 0 0 -5.34058e-05
27 1 0.893655 0.532228 0.177773 0 0 9.53674e-06
28 1 0.703576 0.417063 0.282064 0 0 -9.72748e-05
30 1 0.637029 0.448868 0.427793 0 0 6.10352e-05
31 1 0.961105 0.833691 0.0326463 0 0 1.90735e-06
33 1 0.818728 0.791981 0.657034 0 0 -7.05719e-05
35 1 0.752022 0.823824 0.802708 0 0 -5.14984e-05
43 1 0.893655 0.865562 0.177773 0 0 5.72205e-06
44 1 0.703576 0.750396 0.282063 0 0 -9.34601e-05
46 1 0.637029 0.782201 0.427793 0 0 6.10352e-05
ITEM: TIMESTEP
6
ITEM: NUMBER OF ATOMS
48
ITEM: BOX BOUNDS xy xz yz pp pp pp
-7.4045847058296204e+00 8.6067802309989929e+00 2.5094206929206848e+00
-9.4973444938659668e-03 9.3236122131347656e+00 -7.3925476074218750e+00
-2.8691649436950684e-02 1.9545819282531738e+01 7.1304261684417725e-02
ITEM: ATOMS id type xs ys zs fx fy fz
2 1 0.521727 0.0738766 0.0524681 0 0 5.34058e-05
4 1 0.122938 0.948852 0.927184 0 0 5.72205e-06
6 1 0.562315 0.0419999 0.907362 0 0 -5.34058e-05
7 1 0.190388 0.250315 0.782057 0 0 -1.14441e-05
8 1 0.075264 0.208712 0.407042 0 0 -2.86102e-05
9 1 0.380467 0.0321468 0.677767 0 0 9.53674e-05
10 1 0.00877889 0.240498 0.552788 0 0 2.28882e-05
13 1 0.332021 0.292052 0.157123 0 0 4.19617e-05
16 1 0.521727 0.40721 0.0524682 0 0 4.95911e-05
18 1 0.122937 0.282185 0.927184 0 0 1.33514e-05
20 1 0.562315 0.375333 0.907362 0 0 -5.14984e-05
21 1 0.190388 0.583648 0.782057 0 0 -9.53674e-06
22 1 0.447014 0.333676 0.532037 0 0 -6.67572e-05
23 1 0.0752639 0.542045 0.407042 0 0 -2.09808e-05
24 1 0.380467 0.36548 0.677767 0 0 8.2016e-05
25 1 0.0087787 0.573831 0.552788 0 0 2.28882e-05
26 1 0.265315 0.323895 0.302796 0 0 6.48499e-05
29 1 0.332021 0.625386 0.157122 0 0 4.76837e-05
32 1 0.521727 0.740543 0.052468 0 0 5.14984e-05
34 1 0.122937 0.615518 0.927184 0 0 3.8147e-06
36 1 0.562315 0.708667 0.907362 0 0 -5.34058e-05
37 1 0.190388 0.916981 0.782057 0 0 -9.53674e-06
38 1 0.447014 0.667009 0.532037 0 0 -5.53131e-05
39 1 0.0752638 0.875379 0.407042 0 0 -2.28882e-05
40 1 0.380467 0.698814 0.677767 0 0 8.96454e-05
41 1 0.00877842 0.907164 0.552788 0 0 2.47955e-05
42 1 0.265314 0.657229 0.302796 0 0 6.48499e-05
45 1 0.332021 0.958719 0.157122 0 0 5.14984e-05
47 1 0.447013 0.00034231 0.532037 0 0 -5.91278e-05
48 1 0.265315 0.990562 0.302796 0 0 6.67572e-05
1 1 0.961105 0.167025 0.0326463 0 0 1.90735e-06
3 1 0.818728 0.125314 0.657034 0 0 -5.53131e-05
5 1 0.752022 0.157157 0.802708 0 0 -4.95911e-05
11 1 0.893655 0.198895 0.177773 0 0 3.8147e-06
12 1 0.703576 0.0837294 0.282063 0 0 -8.2016e-05
14 1 0.637029 0.115534 0.427793 0 0 6.10352e-05
15 1 0.961105 0.500358 0.0326465 0 0 -1.14441e-05
17 1 0.818728 0.458648 0.657034 0 0 -5.14984e-05
19 1 0.752022 0.490491 0.802708 0 0 -5.34058e-05
27 1 0.893655 0.532228 0.177773 0 0 9.53674e-06
28 1 0.703576 0.417063 0.282064 0 0 -9.72748e-05
30 1 0.637029 0.448868 0.427793 0 0 6.10352e-05
31 1 0.961105 0.833691 0.0326463 0 0 1.90735e-06
33 1 0.818728 0.791981 0.657034 0 0 -7.05719e-05
35 1 0.752022 0.823824 0.802708 0 0 -5.14984e-05
43 1 0.893655 0.865562 0.177773 0 0 5.72205e-06
44 1 0.703576 0.750396 0.282063 0 0 -9.34601e-05
46 1 0.637029 0.782201 0.427793 0 0 6.10352e-05
