ITEM: TIMESTEP
0
ITEM: NUMBER OF ATOMS
56
ITEM: BOX BOUNDS xy xz yz pp pp pp
-6.1854041123022956e+00 1.2163911692441133e+01 1.5526132515564727e-08
-3.0061665652343075e-03 5.5294143007778995e+00 -6.2065922936873230e+00
7.7232233150646462e-04 1.9019187752468508e+01 2.1812666742635317e-08
ITEM: ATOMS id type xs ys zs fx fy fz
1 1 0.618125 3.09294e-05 0.132367 0 -0.0267935 0.0314716
2 1 0.368126 0.166637 0.132367 0 0.0267736 0.0314715
3 1 0.328978 1.50434e-05 0.275226 0 -0.00157535 -3.82254e-05
4 1 0.0789781 0.166653 0.275226 0 0.00156544 -3.66871e-05
5 1 0.0397771 1.01858e-05 0.418082 0 -0.00101309 6.28238e-05
6 1 0.118126 3.06084e-05 0.132367 0 -0.0267865 0.0314757
7 1 0.0126728 0.500062 0.06094 0 0.10028 0.0814198
8 1 0.868127 0.166637 0.132367 0 0.0267828 0.0314728
9 1 0.762674 0.666605 0.06094 0 -0.100268 0.0814254
10 1 0.828979 1.49384e-05 0.275226 0 -0.00157154 -3.27685e-05
11 1 0.789776 0.166657 0.418083 0 0.00101801 6.18005e-05
12 1 0.750566 1.60347e-05 0.560942 0 -0.00116764 -0.000107318
13 1 0.500567 0.166652 0.560941 0 0.00114984 -9.38325e-05
14 1 0.461363 1.61665e-05 0.703801 0 -0.00139835 9.62261e-05
15 1 0.211363 0.166652 0.703801 0 0.00137181 8.69973e-05
16 1 0.172172 1.72772e-05 0.846652 0 -0.00270312 0.00357958
17 1 0.723569 0.500017 0.203801 0 -0.00269128 -0.00356968
18 1 0.578978 0.166653 0.275226 0 0.00154686 -3.76639e-05
19 1 0.47357 0.66665 0.203801 0 0.00270657 -0.0035678
20 1 0.539777 1.09165e-05 0.418082 0 -0.00103386 6.81531e-05
21 1 0.434378 0.500016 0.346652 0 -0.00138464 -9.0292e-05
22 1 0.289777 0.166657 0.418082 0 0.00102067 6.62814e-05
23 1 0.184378 0.666651 0.346652 0 0.00139623 -9.79105e-05
24 1 0.250567 1.5722e-05 0.560941 0 -0.00115783 -9.06357e-05
25 1 0.145174 0.500016 0.489511 0 -0.00115512 9.19721e-05
26 1 0.000567758 0.166652 0.560941 0 0.00115091 -7.71375e-05
27 1 0.895175 0.666651 0.489511 0 0.00115856 9.96281e-05
28 1 0.512673 0.500061 0.0609401 0 0.100287 0.0814039
29 1 0.262673 0.666605 0.06094 0 -0.100269 0.0814032
30 1 0.22357 0.500017 0.203801 0 -0.00269144 -0.00356611
31 1 0.97357 0.66665 0.203801 0 0.00268791 -0.00356515
32 1 0.934379 0.500016 0.346652 0 -0.001396 -9.8299e-05
33 1 0.92217 0.16665 0.846652 0 0.00269873 0.00355325
34 1 0.883068 6.23935e-05 0.989513 0 0.100273 -0.0814062
35 1 0.633068 0.166605 0.989513 0 -0.100279 -0.0814069
36 1 0.961362 1.60929e-05 0.703801 0 -0.00139633 9.0822e-05
37 1 0.855963 0.50001 0.632371 0 -0.00101912 -8.61382e-05
38 1 0.711363 0.166651 0.703801 0 0.00138943 9.92017e-05
39 1 0.605964 0.666656 0.63237 0 0.00102728 -7.15251e-05
40 1 0.672171 1.72431e-05 0.846652 0 -0.00270177 0.00356568
41 1 0.566762 0.500015 0.775227 0 -0.00156265 3.97701e-05
42 1 0.422171 0.16665 0.846652 0 0.00268793 0.00356788
43 1 0.316762 0.666652 0.775227 0 0.0015774 3.64049e-05
44 1 0.383068 6.17797e-05 0.989513 0 0.100277 -0.0814098
45 1 0.277616 0.50003 0.918085 0 -0.0267796 -0.0314559
46 1 0.684377 0.666651 0.346652 0 0.001405 -8.81257e-05
47 1 0.645174 0.500015 0.489511 0 -0.00113389 9.9246e-05
48 1 0.395174 0.666651 0.489511 0 0.00116048 9.41231e-05
49 1 0.355964 0.500011 0.63237 0 -0.00101854 -7.02289e-05
50 1 0.105964 0.666656 0.63237 0 0.00103694 -5.84169e-05
51 1 0.0667634 0.500015 0.775227 0 -0.00156136 4.39939e-05
52 1 0.133067 0.166605 0.989513 0 -0.100277 -0.0814246
53 1 0.0276144 0.666636 0.918086 0 0.0267857 -0.0314942
54 1 0.816762 0.666653 0.775227 0 0.00156012 4.69002e-05
55 1 0.777615 0.50003 0.918085 0 -0.026776 -0.0314788
56 1 0.527615 0.666636 0.918085 0 0.0267862 -0.031474
ITEM: TIMESTEP
9
ITEM: NUMBER OF ATOMS
56
ITEM: BOX BOUNDS xy xz yz pp pp pp
-6.1854041123022956e+00 1.2163911692441133e+01 1.5526132515564727e-08
-3.0061665652343075e-03 5.5294143007778995e+00 -6.2065922936873230e+00
7.7232233150646462e-04 1.9019187752468508e+01 2.1812666742635317e-08
ITEM: ATOMS id type xs ys zs fx fy fz
1 1 0.618527 0.000697291 0.133154 0 9.21701e-06 5.35548e-05
2 1 0.368528 0.16597 0.133154 0 -7.88621e-06 5.52613e-05
3 1 0.329254 -0.000370062 0.275765 0 1.94439e-05 -3.45472e-05
4 1 0.0792536 0.167037 0.275765 0 -1.99738e-05 -3.29701e-05
5 1 0.039897 -0.000329061 0.418317 0 -2.11659e-05 3.2525e-05
6 1 0.118527 0.000697342 0.133154 0 6.44987e-06 5.58818e-05
7 1 0.0132519 0.507532 0.0620729 0 9.01683e-06 1.092e-05
8 1 0.868528 0.16597 0.133154 0 -9.01928e-06 5.34985e-05
9 1 0.763253 0.659136 0.0620732 0 -5.1212e-06 1.19635e-05
10 1 0.829255 -0.000370201 0.275765 0 1.95282e-05 -3.44263e-05
11 1 0.789896 0.166997 0.418317 0 2.18414e-05 3.18387e-05
12 1 0.750524 -0.00033039 0.560859 0 -2.452e-06 -1.45553e-05
13 1 0.500525 0.166998 0.560859 0 1.58546e-06 -1.42763e-05
14 1 0.461154 -0.000372215 0.703391 0 5.37332e-06 -3.07925e-05
15 1 0.211154 0.167039 0.703391 0 -7.91257e-06 -2.71458e-05
16 1 0.17178 -0.00033067 0.845886 0 -6.73499e-06 -9.19948e-06
17 1 0.723961 0.499669 0.204567 0 -1.02023e-05 7.83979e-06
18 1 0.579254 0.167037 0.275765 0 -1.9524e-05 -3.37776e-05
19 1 0.473962 0.666998 0.204566 0 8.65557e-06 8.02518e-06
20 1 0.539897 -0.00032932 0.418317 0 -2.12641e-05 3.12367e-05
21 1 0.434587 0.499628 0.347062 0 7.07142e-06 2.78351e-05
22 1 0.289897 0.166997 0.418317 0 2.08141e-05 3.32276e-05
23 1 0.184587 0.667039 0.347062 0 -6.7267e-06 2.80835e-05
24 1 0.250525 -0.000330421 0.560859 0 -2.30566e-06 -1.54589e-05
25 1 0.145216 0.49967 0.489594 0 -2.84845e-06 1.60453e-05
26 1 0.000525844 0.166998 0.560859 0 2.45171e-06 -1.80383e-05
27 1 0.895217 0.666998 0.489594 0 1.5431e-06 1.7518e-05
28 1 0.513252 0.507532 0.0620728 0 6.58685e-06 1.02637e-05
29 1 0.263252 0.659136 0.0620728 0 -6.27354e-06 1.15735e-05
30 1 0.223962 0.499669 0.204566 0 -8.15163e-06 7.34575e-06
31 1 0.973962 0.666997 0.204567 0 1.00404e-05 8.69403e-06
32 1 0.934588 0.499628 0.347062 0 7.30186e-06 2.79552e-05
33 1 0.921779 0.166997 0.845886 0 1.03032e-05 -1.05838e-05
34 1 0.882489 0.00753163 0.98838 0 6.65175e-06 -6.63316e-06
35 1 0.632489 0.159136 0.98838 0 -8.31392e-06 -8.20443e-06
36 1 0.961153 -0.000372437 0.703391 0 7.82948e-06 -2.67113e-05
37 1 0.855843 0.49967 0.632136 0 -2.15475e-05 -3.13103e-05
38 1 0.711154 0.167039 0.703391 0 -6.1171e-06 -3.04796e-05
39 1 0.605844 0.666997 0.632136 0 2.12926e-05 -2.99094e-05
40 1 0.671779 -0.000330536 0.845886 0 -9.66949e-06 -6.20976e-06
41 1 0.566487 0.49963 0.774688 0 2.01746e-05 3.43451e-05
42 1 0.421779 0.166997 0.845886 0 9.35624e-06 -7.25071e-06
43 1 0.316487 0.667037 0.774688 0 -1.87916e-05 3.69819e-05
44 1 0.382489 0.00753159 0.98838 0 8.09665e-06 -9.16207e-06
45 1 0.277214 0.500697 0.917299 0 7.10061e-06 -5.83344e-05
46 1 0.684586 0.667039 0.347062 0 -6.99118e-06 2.83941e-05
47 1 0.645216 0.49967 0.489594 0 -2.0517e-06 1.60806e-05
48 1 0.395216 0.666998 0.489594 0 3.33812e-06 1.39891e-05
49 1 0.355844 0.49967 0.632136 0 -2.08465e-05 -3.29005e-05
50 1 0.105845 0.666996 0.632136 0 2.15155e-05 -3.17148e-05
51 1 0.066488 0.49963 0.774688 0 1.69872e-05 3.25742e-05
52 1 0.132488 0.159136 0.98838 0 -8.98726e-06 -1.11384e-05
53 1 0.0272123 0.66597 0.917299 0 -7.53962e-06 -5.37518e-05
54 1 0.816487 0.667037 0.774688 0 -2.14397e-05 3.40627e-05
55 1 0.777214 0.500697 0.917299 0 8.47282e-06 -6.06219e-05
56 1 0.527213 0.66597 0.917299 0 -8.04578e-06 -5.74715e-05
