ITEM: TIMESTEP
0
ITEM: NUMBER OF ATOMS
32
ITEM: BOX BOUNDS xy xz yz pp pp pp
-3.4762620925903320e-03 8.1574866175651550e+00 1.7594569325447083e+00
-4.2882263660430908e-02 2.2125610172748566e+01 4.4107437133789062e-06
1.5788495540618896e-02 5.1666774749755859e+00 -1.5008449554443359e-04
ITEM: ATOMS id type xs ys zs fx fy fz
1 1 0.926705 0.33658 0.593597 0 0.00380325 -1.90735e-06
2 1 0.426705 0.33658 0.593597 0 0.00379944 -3.8147e-06
3 1 0.188135 0.294997 0.0935973 0 0.00477791 1.14441e-05
4 1 0.688134 0.294997 0.0935972 0 0.00477409 1.14441e-05
5 1 0.142349 0.461582 0.593597 0 0.000831604 -2.09808e-05
6 1 0.642349 0.461582 0.593597 0 0.000827789 -2.28882e-05
7 1 0.903778 0.419999 0.0935965 0 -0.00141144 1.52588e-05
8 1 0.403778 0.419999 0.0935967 0 -0.0014019 1.71661e-05
9 1 0.857993 0.586581 0.593597 0 0.00131607 -5.72205e-06
10 1 0.357993 0.58658 0.593597 0 0.00131607 1.90735e-06
11 1 0.0736379 0.711577 0.593597 0 -0.00475883 -1.52588e-05
12 1 0.573638 0.711577 0.593598 0 -0.00475693 -1.90735e-05
13 1 0.835066 0.67 0.0935966 0 -0.00383759 1.14441e-05
14 1 0.119421 0.545001 0.0935972 0 -0.000986099 1.33514e-05
15 1 0.619421 0.545001 0.0935972 0 -0.000984192 1.52588e-05
16 1 0.335065 0.67 0.0935969 0 -0.00384712 5.72205e-06
17 1 0.789283 0.836574 0.593597 0 0.0204391 1.14441e-05
18 1 0.289283 0.836574 0.593597 0 0.0204353 9.53674e-06
19 1 0.00492678 0.961574 0.593597 0 -0.381861 6.10352e-05
20 1 0.504927 0.961574 0.593597 0 -0.381865 5.91278e-05
21 1 0.0507099 0.794998 0.0935969 0 0.0226002 7.62939e-06
22 1 0.55071 0.794998 0.093597 0 0.0225983 0
23 1 0.766355 0.919994 0.0935972 0 -0.698214 0
24 1 0.266355 0.919994 0.0935972 0 -0.698206 3.8147e-06
25 1 0.995419 0.0865748 0.593597 0 0.698303 -1.33514e-05
26 1 0.495419 0.0865748 0.593597 0 0.698301 -1.14441e-05
27 1 0.256848 0.0449931 0.0935972 0 0.382013 -5.34058e-05
28 1 0.756848 0.0449931 0.0935972 0 0.382019 -5.34058e-05
29 1 0.211062 0.211577 0.593597 0 -0.0226784 -1.14441e-05
30 1 0.711062 0.211577 0.593597 0 -0.0226688 -9.53674e-06
31 1 0.972491 0.169994 0.0935969 0 -0.0203381 -5.72205e-06
32 1 0.472491 0.169994 0.093597 0 -0.0203419 -7.62939e-06
ITEM: TIMESTEP
1
ITEM: NUMBER OF ATOMS
32
ITEM: BOX BOUNDS xy xz yz pp pp pp
-3.4762620925903320e-03 8.1574866175651550e+00 1.7594569325447083e+00
-4.2882263660430908e-02 2.2125610172748566e+01 4.4107437133789062e-06
1.5788495540618896e-02 5.1666774749755859e+00 -1.5008449554443359e-04
ITEM: ATOMS id type xs ys zs fx fy fz
1 1 0.926699 0.336604 0.593597 0 -0.00241852 0
2 1 0.426699 0.336604 0.593597 0 -0.00242233 1.90735e-06
3 1 0.188126 0.295028 0.0935976 0 0.0038147 3.8147e-06
4 1 0.688126 0.295028 0.0935975 0 0.00380898 5.72205e-06
5 1 0.142347 0.461587 0.593597 0 0.00230217 5.72205e-06
6 1 0.642347 0.461587 0.593597 0 0.00230217 9.53674e-06
7 1 0.90378 0.41999 0.0935969 0 0.000356674 7.62939e-06
8 1 0.40378 0.41999 0.0935971 0 0.000356674 5.72205e-06
9 1 0.857991 0.586589 0.593597 0 -0.000442505 -1.14441e-05
10 1 0.357991 0.586589 0.593597 0 -0.000442505 -9.53674e-06
11 1 0.0736463 0.711546 0.593597 0 -0.0037632 1.90735e-06
12 1 0.573646 0.711546 0.593597 0 -0.0037632 0
13 1 0.835072 0.669975 0.093597 0 0.00234413 5.72205e-06
14 1 0.119423 0.544994 0.0935975 0 -0.00242615 -1.52588e-05
15 1 0.619423 0.544994 0.0935976 0 -0.00242233 -1.71661e-05
16 1 0.335072 0.669975 0.0935971 0 0.00234985 1.90735e-06
17 1 0.789246 0.836706 0.593597 0 -0.0970383 0
18 1 0.289246 0.836706 0.593597 0 -0.0970402 3.8147e-06
19 1 0.00560477 0.959107 0.593598 0 0.0379467 4.19617e-05
20 1 0.505605 0.959107 0.593598 0 0.037941 4.00543e-05
21 1 0.0506698 0.795144 0.0935971 0 -0.10467 -3.8147e-06
22 1 0.55067 0.795144 0.093597 0 -0.104666 -3.8147e-06
23 1 0.767595 0.915483 0.0935972 0 -0.155779 2.67029e-05
24 1 0.267595 0.915483 0.0935973 0 -0.155788 2.47955e-05
25 1 0.994179 0.0910857 0.593597 0 0.155954 -4.57764e-05
26 1 0.494179 0.0910857 0.593597 0 0.155951 -4.19617e-05
27 1 0.256169 0.0474609 0.0935957 0 -0.0378628 -3.24249e-05
28 1 0.756169 0.0474609 0.0935957 0 -0.0378609 -3.24249e-05
29 1 0.211102 0.211431 0.593597 0 0.104563 3.8147e-06
30 1 0.711102 0.211431 0.593597 0 0.104565 3.8147e-06
31 1 0.972528 0.169863 0.0935968 0 0.0971241 1.14441e-05
32 1 0.472527 0.169863 0.0935968 0 0.097126 7.62939e-06
ITEM: TIMESTEP
2
ITEM: NUMBER OF ATOMS
32
ITEM: BOX BOUNDS xy xz yz pp pp pp
-3.4762620925903320e-03 8.1574866175651550e+00 1.7594569325447083e+00
-4.2882263660430908e-02 2.2125610172748566e+01 4.4107437133789062e-06
1.5788495540618896e-02 5.1666774749755859e+00 -1.5008449554443359e-04
ITEM: ATOMS id type xs ys zs fx fy fz
1 1 0.926714 0.336549 0.593597 0 0.0614471 1.33514e-05
2 1 0.426714 0.336549 0.593597 0 0.0614529 1.52588e-05
3 1 0.188102 0.295115 0.093598 0 0.0834293 -1.14441e-05
4 1 0.688102 0.295115 0.093598 0 0.0834465 -1.33514e-05
5 1 0.142333 0.46164 0.593597 0 -0.00291443 1.14441e-05
6 1 0.642333 0.46164 0.593598 0 -0.00291252 3.8147e-06
7 1 0.903778 0.419998 0.0935977 0 0.00312424 -1.52588e-05
8 1 0.403778 0.419999 0.0935977 0 0.00312424 -1.71661e-05
9 1 0.857994 0.586579 0.593596 0 -0.0031395 1.33514e-05
10 1 0.357993 0.586579 0.593596 0 -0.00313377 9.53674e-06
11 1 0.07367 0.71146 0.593597 0 -0.0835171 1.14441e-05
12 1 0.57367 0.71146 0.593597 0 -0.0835152 9.53674e-06
13 1 0.835058 0.670029 0.0935975 0 -0.0615635 -1.52588e-05
14 1 0.119438 0.544939 0.093596 0 0.00282097 -5.72205e-06
15 1 0.619438 0.544939 0.0935959 0 0.00282097 -7.62939e-06
16 1 0.335057 0.670029 0.0935973 0 -0.0615654 -9.53674e-06
17 1 0.789858 0.834482 0.593597 0 0.0143986 3.8147e-06
18 1 0.289858 0.834482 0.593597 0 0.0144043 -5.72205e-06
19 1 0.0053657 0.959977 0.593603 0 0.0357533 9.53674e-06
20 1 0.505366 0.959977 0.593602 0 0.0357609 9.53674e-06
21 1 0.0513292 0.792745 0.0935967 0 -0.0460281 9.53674e-06
22 1 0.551329 0.792745 0.0935966 0 -0.0460339 9.53674e-06
23 1 0.768576 0.911912 0.0935998 0 0.0322094 2.86102e-05
24 1 0.268576 0.911912 0.0935998 0 0.0322227 2.67029e-05
25 1 0.993197 0.0946605 0.593592 0 -0.0323315 1.33514e-05
26 1 0.493197 0.0946605 0.593593 0 -0.0323315 -1.90735e-06
27 1 0.256408 0.046593 0.0935925 0 -0.0356312 -2.47955e-05
28 1 0.756408 0.046593 0.0935925 0 -0.0356293 -2.28882e-05
29 1 0.210444 0.213828 0.593597 0 0.0462208 9.53674e-06
30 1 0.710444 0.213828 0.593597 0 0.046217 9.53674e-06
31 1 0.971916 0.172089 0.0935979 0 -0.0143013 -3.43323e-05
32 1 0.471915 0.172089 0.0935975 0 -0.0143051 -3.24249e-05
ITEM: TIMESTEP
3
ITEM: NUMBER OF ATOMS
32
ITEM: BOX BOUNDS xy xz yz pp pp pp
-3.4762620925903320e-03 8.1574866175651550e+00 1.7594569325447083e+00
-4.2882263660430908e-02 2.2125610172748566e+01 4.4107437133789062e-06
1.5788495540618896e-02 5.1666774749755859e+00 -1.5008449554443359e-04
ITEM: ATOMS id type xs ys zs fx fy fz
1 1 0.926374 0.337785 0.593598 0 0.0269413 -2.09808e-05
2 1 0.426374 0.337785 0.593599 0 0.026947 -2.47955e-05
3 1 0.187628 0.296842 0.0935971 0 0.00409889 2.86102e-05
4 1 0.687627 0.296842 0.093597 0 0.00408936 3.05176e-05
5 1 0.142345 0.461596 0.593598 0 0.0263405 -5.14984e-05
6 1 0.642345 0.461596 0.593598 0 0.0263386 -4.76837e-05
7 1 0.90376 0.420065 0.0935966 0 0.0567684 2.09808e-05
8 1 0.40376 0.420065 0.0935964 0 0.0567722 3.24249e-05
9 1 0.858012 0.586512 0.593597 0 -0.0568523 -2.86102e-05
10 1 0.358012 0.586512 0.593597 0 -0.05686 -3.24249e-05
11 1 0.074145 0.709732 0.593598 0 -0.00399971 -2.67029e-05
12 1 0.574145 0.709732 0.593598 0 -0.00400543 -2.28882e-05
13 1 0.835398 0.66879 0.0935964 0 -0.0268898 1.90735e-05
14 1 0.119427 0.54498 0.0935951 0 -0.0263615 5.14984e-05
15 1 0.619427 0.54498 0.0935947 0 -0.0263615 5.53131e-05
16 1 0.335398 0.66879 0.0935965 0 -0.0268917 1.90735e-05
17 1 0.78996 0.834111 0.593597 0 0.00455666 2.47955e-05
18 1 0.28996 0.834111 0.593597 0 0.00455284 3.05176e-05
19 1 0.00509398 0.960966 0.593605 0 -0.0280018 1.71661e-05
20 1 0.505094 0.960966 0.593604 0 -0.0280113 3.05176e-05
21 1 0.0517841 0.79109 0.0935974 0 0.0117397 1.14441e-05
22 1 0.551784 0.79109 0.0935974 0 0.0117359 1.33514e-05
23 1 0.768689 0.911502 0.0936031 0 -0.017374 3.8147e-06
24 1 0.268689 0.911502 0.0936029 0 -0.0173779 3.8147e-06
25 1 0.993084 0.0950697 0.593592 0 0.0175648 -3.43323e-05
26 1 0.493084 0.0950696 0.593592 0 0.0175648 -3.62396e-05
27 1 0.256679 0.0456074 0.0935893 0 0.027977 -2.09808e-05
28 1 0.756679 0.0456076 0.0935895 0 0.0279713 -1.90735e-05
29 1 0.209988 0.215486 0.593598 0 -0.0119019 -3.8147e-05
30 1 0.709988 0.215486 0.593598 0 -0.0119019 -3.24249e-05
31 1 0.971813 0.172463 0.0935952 0 -0.00458336 2.28882e-05
32 1 0.471813 0.172463 0.0935949 0 -0.00458527 2.09808e-05
ITEM: TIMESTEP
4
ITEM: NUMBER OF ATOMS
32
ITEM: BOX BOUNDS xy xz yz pp pp pp
-3.4762620925903320e-03 8.1574866175651550e+00 1.7594569325447083e+00
-4.2882263660430908e-02 2.2125610172748566e+01 4.4107437133789062e-06
1.5788495540618896e-02 5.1666774749755859e+00 -1.5008449554443359e-04
ITEM: ATOMS id type xs ys zs fx fy fz
1 1 0.926144 0.338624 0.593597 0 0.000799179 1.71661e-05
2 1 0.426144 0.338624 0.593597 0 0.000801086 1.33514e-05
3 1 0.18746 0.297451 0.0935989 0 -0.00378799 -3.24249e-05
4 1 0.68746 0.297451 0.0935989 0 -0.00379372 -2.28882e-05
5 1 0.142227 0.462025 0.593595 0 -0.00689697 4.95911e-05
6 1 0.642227 0.462025 0.593595 0 -0.00689507 4.95911e-05
7 1 0.903492 0.421038 0.0935977 0 0.00867844 -9.53674e-06
8 1 0.403492 0.421038 0.0935983 0 0.00867462 -2.47955e-05
9 1 0.85828 0.585537 0.593595 0 -0.00866508 3.43323e-05
10 1 0.35828 0.585537 0.593595 0 -0.0086689 4.19617e-05
11 1 0.074312 0.709124 0.593597 0 0.00374413 1.90735e-05
12 1 0.574312 0.709124 0.593596 0 0.00374222 2.28882e-05
13 1 0.835629 0.667951 0.0935974 0 -0.000816345 -2.28882e-05
14 1 0.119545 0.54455 0.0935985 0 0.00688744 -4.95911e-05
15 1 0.619545 0.54455 0.0935983 0 0.00688744 -5.14984e-05
16 1 0.335628 0.667951 0.0935976 0 -0.000825882 -3.05176e-05
17 1 0.789971 0.834071 0.593599 0 -0.0165329 9.53674e-06
18 1 0.289971 0.834071 0.593599 0 -0.0165386 1.14441e-05
19 1 0.00513813 0.960805 0.593606 0 -0.00626183 1.14441e-05
20 1 0.505138 0.960805 0.593607 0 -0.00626564 3.8147e-06
21 1 0.0518723 0.790769 0.0935985 0 -0.00733757 0
22 1 0.551872 0.790769 0.0935986 0 -0.0073185 -3.8147e-06
23 1 0.768805 0.911082 0.0936044 0 0.0123158 1.52588e-05
24 1 0.268804 0.911082 0.0936041 0 0.0123062 1.90735e-05
25 1 0.992968 0.0954926 0.59359 0 -0.012373 -1.14441e-05
26 1 0.492968 0.0954925 0.593588 0 -0.0123634 5.72205e-06
27 1 0.256634 0.0457686 0.0935868 0 0.00630569 -1.90735e-06
28 1 0.756634 0.0457687 0.0935872 0 0.00630379 -1.33514e-05
29 1 0.2099 0.215805 0.593596 0 0.00738525 1.33514e-05
30 1 0.7099 0.215805 0.593596 0 0.00738907 7.62939e-06
31 1 0.971802 0.172503 0.093596 0 0.0165596 -3.43323e-05
32 1 0.471802 0.172503 0.0935956 0 0.0165615 -3.62396e-05
ITEM: TIMESTEP
5
ITEM: NUMBER OF ATOMS
32
ITEM: BOX BOUNDS xy xz yz pp pp pp
-3.4762620925903320e-03 8.1574866175651550e+00 1.7594569325447083e+00
-4.2882263660430908e-02 2.2125610172748566e+01 4.4107437133789062e-06
1.5788495540618896e-02 5.1666774749755859e+00 -1.5008449554443359e-04
ITEM: ATOMS id type xs ys zs fx fy fz
1 1 0.926122 0.338702 0.593598 0 -0.000328064 -1.33514e-05
2 1 0.426122 0.338702 0.593598 0 -0.000350952 -1.33514e-05
3 1 0.187462 0.297444 0.093597 0 0.00865555 9.53674e-06
4 1 0.687462 0.297444 0.0935976 0 0.00864792 0
5 1 0.142245 0.461958 0.593598 0 -0.0042305 -2.86102e-05
6 1 0.642245 0.461958 0.593598 0 -0.00424004 -3.24249e-05
7 1 0.903436 0.421243 0.0935972 0 -0.00269318 1.33514e-05
8 1 0.403436 0.421243 0.0935969 0 -0.00268936 1.90735e-05
9 1 0.858337 0.585332 0.593597 0 0.00267601 -1.52588e-05
10 1 0.358336 0.585332 0.593597 0 0.00268555 -2.09808e-05
11 1 0.0743103 0.70913 0.593598 0 -0.00865364 -1.14441e-05
12 1 0.57431 0.70913 0.593598 0 -0.00864029 -9.53674e-06
13 1 0.83565 0.667872 0.093596 0 0.000333786 2.28882e-05
14 1 0.119527 0.544616 0.0935956 0 0.00424194 2.67029e-05
15 1 0.619527 0.544617 0.0935954 0 0.00422668 3.24249e-05
16 1 0.33565 0.667872 0.0935958 0 0.000347137 2.86102e-05
17 1 0.790038 0.833826 0.5936 0 -0.00227737 9.53674e-06
18 1 0.290038 0.833826 0.5936 0 -0.00226784 1.14441e-05
19 1 0.00516682 0.960701 0.593607 0 -0.00808334 1.14441e-05
20 1 0.505167 0.9607 0.593608 0 -0.00806808 3.8147e-06
21 1 0.0519088 0.790636 0.0935986 0 0.00349426 1.33514e-05
22 1 0.551909 0.790636 0.0935984 0 0.003479 1.71661e-05
23 1 0.768764 0.911228 0.0936055 0 -0.00425911 1.14441e-05
24 1 0.268764 0.911228 0.0936054 0 -0.00425148 1.14441e-05
25 1 0.993008 0.0953454 0.593589 0 0.00430679 -1.90735e-05
26 1 0.493008 0.0953455 0.593589 0 0.00429726 -1.90735e-05
27 1 0.256606 0.0458737 0.0935865 0 0.00807571 -7.62939e-06
28 1 0.756606 0.0458737 0.0935862 0 0.00807381 -5.72205e-06
29 1 0.209864 0.215938 0.593596 0 -0.00350571 -2.86102e-05
30 1 0.709864 0.215938 0.593596 0 -0.00351334 -2.86102e-05
31 1 0.971735 0.172748 0.0935939 0 0.00225067 1.90735e-06
32 1 0.471734 0.172748 0.0935934 0 0.00226021 9.53674e-06
ITEM: TIMESTEP
6
ITEM: NUMBER OF ATOMS
32
ITEM: BOX BOUNDS xy xz yz pp pp pp
-3.4762620925903320e-03 8.1574866175651550e+00 1.7594569325447083e+00
-4.2882263660430908e-02 2.2125610172748566e+01 4.4107437133789062e-06
1.5788495540618896e-02 5.1666774749755859e+00 -1.5008449554443359e-04
ITEM: ATOMS id type xs ys zs fx fy fz
1 1 0.926115 0.338726 0.593598 0 -0.00354767 0
2 1 0.426115 0.338726 0.593597 0 -0.00353622 1.90735e-06
3 1 0.187423 0.297585 0.0935969 0 0.00320053 -1.90735e-05
4 1 0.687423 0.297585 0.0935971 0 0.00320244 -1.52588e-05
5 1 0.142271 0.461863 0.593597 0 0.00316238 -7.62939e-06
6 1 0.642272 0.461863 0.593597 0 0.00317383 -1.90735e-06
7 1 0.903427 0.421275 0.093598 0 0.000846863 -1.90735e-05
8 1 0.403427 0.421275 0.0935977 0 0.000841141 -1.52588e-05
9 1 0.858346 0.585299 0.593597 0 -0.000852585 9.53674e-06
10 1 0.358345 0.5853 0.593597 0 -0.000854492 9.53674e-06
11 1 0.074349 0.70899 0.593597 0 -0.00319099 1.14441e-05
12 1 0.574349 0.70899 0.593598 0 -0.00319862 5.72205e-06
13 1 0.835657 0.667848 0.0935971 0 0.00354767 1.90735e-06
14 1 0.119501 0.544712 0.0935965 0 -0.00317192 1.90735e-05
15 1 0.619501 0.544711 0.0935966 0 -0.00316429 1.71661e-05
16 1 0.335657 0.667848 0.0935971 0 0.00354576 1.90735e-06
17 1 0.790074 0.833697 0.593601 0 -0.00105476 3.8147e-06
18 1 0.290074 0.833697 0.593601 0 -0.00106239 7.62939e-06
19 1 0.00521436 0.960528 0.593608 0 0.00140381 1.14441e-05
20 1 0.505214 0.960528 0.593608 0 0.00139427 2.09808e-05
21 1 0.0519066 0.790644 0.0935995 0 -0.000396729 1.90735e-06
22 1 0.551907 0.790644 0.0935996 0 -0.000396729 5.72205e-06
23 1 0.768769 0.911213 0.0936067 0 0.000177383 0
24 1 0.268768 0.911213 0.0936067 0 0.000181198 3.8147e-06
25 1 0.993004 0.0953614 0.593587 0 -0.000177383 1.14441e-05
26 1 0.493004 0.0953613 0.593587 0 -0.000171661 3.8147e-06
27 1 0.256558 0.0460468 0.0935859 0 -0.00140762 -2.09808e-05
28 1 0.756558 0.0460467 0.0935854 0 -0.00139809 -1.33514e-05
29 1 0.209866 0.215931 0.593595 0 0.000389099 -1.90735e-06
30 1 0.709866 0.215931 0.593595 0 0.000392914 -3.8147e-06
31 1 0.971699 0.172878 0.0935933 0 0.00106621 -1.71661e-05
32 1 0.471699 0.172878 0.0935932 0 0.00105667 -1.33514e-05
ITEM: TIMESTEP
7
ITEM: NUMBER OF ATOMS
32
ITEM: BOX BOUNDS xy xz yz pp pp pp
-3.4762620925903320e-03 8.1574866175651550e+00 1.7594569325447083e+00
-4.2882263660430908e-02 2.2125610172748566e+01 4.4107437133789062e-06
1.5788495540618896e-02 5.1666774749755859e+00 -1.5008449554443359e-04
ITEM: ATOMS id type xs ys zs fx fy fz
1 1 0.926127 0.338684 0.593598 0 0.000555038 -2.67029e-05
2 1 0.426127 0.338684 0.593597 0 0.00056076 -2.47955e-05
3 1 0.187407 0.297645 0.0935959 0 0.000272751 1.14441e-05
4 1 0.687406 0.297645 0.0935962 0 0.000276566 -1.90735e-06
5 1 0.142264 0.461891 0.593596 0 -0.000368118 1.52588e-05
6 1 0.642264 0.461891 0.593596 0 -0.000370026 1.33514e-05
7 1 0.903423 0.42129 0.093597 0 0.000205994 -3.8147e-06
8 1 0.403423 0.42129 0.093597 0 0.000211716 -5.72205e-06
9 1 0.85835 0.585284 0.593597 0 -0.000211716 9.53674e-06
10 1 0.358349 0.585284 0.593597 0 -0.000217438 7.62939e-06
11 1 0.0743656 0.708929 0.593598 0 -0.000265121 7.62939e-06
12 1 0.574366 0.708929 0.593598 0 -0.000270844 9.53674e-06
13 1 0.835645 0.667891 0.0935974 0 -0.00056839 1.14441e-05
14 1 0.119508 0.544683 0.0935977 0 0.000370026 -1.71661e-05
15 1 0.619509 0.544683 0.0935977 0 0.000371933 -1.71661e-05
16 1 0.335645 0.667891 0.0935974 0 -0.000570297 1.52588e-05
17 1 0.790082 0.833665 0.593601 0 -0.000623703 2.09808e-05
18 1 0.290082 0.833665 0.593602 0 -0.000627518 1.33514e-05
19 1 0.00521579 0.960522 0.593609 0 0.00113487 7.62939e-06
20 1 0.505216 0.960522 0.593609 0 0.00113869 3.8147e-06
21 1 0.0519078 0.79064 0.0935998 0 0.000102997 -5.72205e-06
22 1 0.551908 0.79064 0.0936001 0 0.000104904 -9.53674e-06
23 1 0.768769 0.911213 0.0936069 0 -0.000295639 1.33514e-05
24 1 0.268768 0.911213 0.0936071 0 -0.000305176 2.09808e-05
25 1 0.993004 0.0953613 0.593587 0 0.000293732 -2.86102e-05
26 1 0.493004 0.0953613 0.593587 0 0.000289917 -1.90735e-05
27 1 0.256557 0.0460519 0.0935846 0 -0.00112534 -1.90735e-06
28 1 0.756557 0.046052 0.0935845 0 -0.00113106 -1.90735e-06
29 1 0.209865 0.215935 0.593594 0 -9.91821e-05 -1.90735e-06
30 1 0.709865 0.215935 0.593594 0 -9.53674e-05 7.62939e-06
31 1 0.97169 0.172909 0.0935922 0 0.000629425 -1.33514e-05
32 1 0.47169 0.172909 0.0935925 0 0.00062561 -9.53674e-06
ITEM: TIMESTEP
8
ITEM: NUMBER OF ATOMS
32
ITEM: BOX BOUNDS xy xz yz pp pp pp
-3.4762620925903320e-03 8.1574866175651550e+00 1.7594569325447083e+00
-4.2882263660430908e-02 2.2125610172748566e+01 4.4107437133789062e-06
1.5788495540618896e-02 5.1666774749755859e+00 -1.5008449554443359e-04
ITEM: ATOMS id type xs ys zs fx fy fz
1 1 0.926126 0.338689 0.593596 0 0.000133514 3.8147e-06
2 1 0.426126 0.338689 0.593596 0 0.000137329 1.90735e-06
3 1 0.187404 0.297654 0.0935966 0 7.24792e-05 -2.47955e-05
4 1 0.687404 0.297654 0.093596 0 7.62939e-05 -2.28882e-05
5 1 0.142265 0.461888 0.593597 0 -5.14984e-05 -5.72205e-06
6 1 0.642265 0.461888 0.593597 0 -4.76837e-05 -5.72205e-06
7 1 0.903422 0.421295 0.0935967 0 0.000226974 3.8147e-06
8 1 0.403422 0.421295 0.0935965 0 0.000228882 5.72205e-06
9 1 0.858351 0.585279 0.593598 0 -0.000232697 -5.72205e-06
10 1 0.358351 0.585279 0.593598 0 -0.000226974 -1.14441e-05
11 1 0.0743681 0.70892 0.593598 0 -7.82013e-05 1.52588e-05
12 1 0.574368 0.70892 0.593599 0 -7.82013e-05 7.62939e-06
13 1 0.835647 0.667885 0.0935982 0 -0.000120163 5.72205e-06
14 1 0.119507 0.544687 0.0935966 0 3.24249e-05 9.53674e-06
15 1 0.619508 0.544687 0.0935966 0 4.57764e-05 7.62939e-06
16 1 0.335647 0.667885 0.0935985 0 -0.000123978 3.8147e-06
17 1 0.790086 0.833653 0.593603 0 0.00019455 -1.33514e-05
18 1 0.290086 0.833653 0.593603 0 0.000196457 -9.53674e-06
19 1 0.00521095 0.96054 0.59361 0 -0.000104904 1.33514e-05
20 1 0.505211 0.96054 0.59361 0 -0.000106812 1.52588e-05
21 1 0.0519074 0.790641 0.0935994 0 -0.000406265 3.24249e-05
22 1 0.551907 0.790641 0.0935994 0 -0.000402451 3.8147e-05
23 1 0.76877 0.911208 0.0936078 0 -0.000520706 1.71661e-05
24 1 0.26877 0.911208 0.0936086 0 -0.000509262 1.52588e-05
25 1 0.993003 0.0953659 0.593585 0 0.000528336 -1.33514e-05
26 1 0.493003 0.0953659 0.593586 0 0.000526428 -1.33514e-05
27 1 0.256561 0.0460345 0.0935844 0 9.34601e-05 -1.52588e-05
28 1 0.756561 0.0460345 0.0935843 0 0.000104904 -1.33514e-05
29 1 0.209865 0.215933 0.593594 0 0.000406265 -1.52588e-05
30 1 0.709865 0.215933 0.593595 0 0.000404358 -3.24249e-05
31 1 0.971687 0.172921 0.0935913 0 -0.000200272 7.62939e-06
32 1 0.471687 0.172921 0.0935918 0 -0.000198364 -1.90735e-06
ITEM: TIMESTEP
9
ITEM: NUMBER OF ATOMS
32
ITEM: BOX BOUNDS xy xz yz pp pp pp
-3.4762620925903320e-03 8.1574866175651550e+00 1.7594569325447083e+00
-4.2882263660430908e-02 2.2125610172748566e+01 4.4107437133789062e-06
1.5788495540618896e-02 5.1666774749755859e+00 -1.5008449554443359e-04
ITEM: ATOMS id type xs ys zs fx fy fz
1 1 0.926124 0.338694 0.593596 0 8.58307e-05 -1.71661e-05
2 1 0.426124 0.338694 0.593595 0 8.01086e-05 -1.52588e-05
3 1 0.187403 0.297658 0.0935946 0 5.91278e-05 7.62939e-06
4 1 0.687403 0.297658 0.0935939 0 5.91278e-05 5.72205e-06
5 1 0.142265 0.461885 0.593597 0 0.000104904 -1.52588e-05
6 1 0.642265 0.461885 0.593597 0 0.000101089 -1.52588e-05
7 1 0.90342 0.421301 0.0935969 0 4.3869e-05 -1.90735e-06
8 1 0.40342 0.421301 0.0935969 0 3.62396e-05 -1.90735e-06
9 1 0.858353 0.585273 0.593598 0 -3.05176e-05 7.62939e-06
10 1 0.358352 0.585273 0.593597 0 -3.62396e-05 7.62939e-06
11 1 0.0743692 0.708916 0.5936 0 -6.86646e-05 -3.8147e-06
12 1 0.574369 0.708916 0.593599 0 -6.29425e-05 3.8147e-06
13 1 0.835648 0.667881 0.0935989 0 -0.000101089 1.33514e-05
14 1 0.119507 0.544689 0.0935971 0 -8.39233e-05 1.71661e-05
15 1 0.619507 0.544689 0.093597 0 -9.72748e-05 1.14441e-05
16 1 0.335648 0.667881 0.0935991 0 -9.34601e-05 1.90735e-06
17 1 0.790086 0.833654 0.593602 0 -3.62396e-05 3.24249e-05
18 1 0.290086 0.833654 0.593602 0 -3.62396e-05 4.00543e-05
19 1 0.00521011 0.960543 0.593611 0 1.90735e-05 2.28882e-05
20 1 0.50521 0.960543 0.593611 0 1.90735e-05 2.67029e-05
21 1 0.0519096 0.790633 0.0936022 0 -0.000322342 -1.14441e-05
22 1 0.55191 0.790633 0.0936027 0 -0.000329971 -2.09808e-05
23 1 0.768773 0.911196 0.0936096 0 0.00021553 -1.90735e-06
24 1 0.268773 0.911196 0.0936104 0 0.000196457 -7.62939e-06
25 1 0.992999 0.0953783 0.593584 0 -0.000221252 9.53674e-06
26 1 0.492999 0.0953782 0.593584 0 -0.000209808 0
27 1 0.256562 0.0460312 0.0935829 0 -1.14441e-05 -2.47955e-05
28 1 0.756562 0.0460314 0.0935831 0 -2.28882e-05 -2.47955e-05
29 1 0.209863 0.215941 0.593593 0 0.000329971 -1.90735e-06
30 1 0.709863 0.215941 0.593592 0 0.000322342 9.53674e-06
31 1 0.971687 0.172921 0.0935916 0 4.3869e-05 -3.43323e-05
32 1 0.471687 0.172921 0.0935914 0 4.76837e-05 -1.90735e-05
ITEM: TIMESTEP
10
ITEM: NUMBER OF ATOMS
32
ITEM: BOX BOUNDS xy xz yz pp pp pp
-3.4762620925903320e-03 8.1574866175651550e+00 1.7594569325447083e+00
-4.2882263660430908e-02 2.2125610172748566e+01 4.4107437133789062e-06
1.5788495540618896e-02 5.1666774749755859e+00 -1.5008449554443359e-04
ITEM: ATOMS id type xs ys zs fx fy fz
1 1 0.926124 0.338694 0.593596 0 8.58307e-05 -1.71661e-05
2 1 0.426124 0.338694 0.593595 0 8.01086e-05 -1.52588e-05
3 1 0.187403 0.297658 0.0935946 0 5.91278e-05 7.62939e-06
4 1 0.687403 0.297658 0.0935939 0 5.91278e-05 5.72205e-06
5 1 0.142265 0.461885 0.593597 0 0.000104904 -1.52588e-05
6 1 0.642265 0.461885 0.593597 0 0.000101089 -1.52588e-05
7 1 0.90342 0.421301 0.0935969 0 4.3869e-05 -1.90735e-06
8 1 0.40342 0.421301 0.0935969 0 3.62396e-05 -1.90735e-06
9 1 0.858353 0.585273 0.593598 0 -3.05176e-05 7.62939e-06
10 1 0.358352 0.585273 0.593597 0 -3.62396e-05 7.62939e-06
11 1 0.0743692 0.708916 0.5936 0 -6.86646e-05 -3.8147e-06
12 1 0.574369 0.708916 0.593599 0 -6.29425e-05 3.8147e-06
13 1 0.835648 0.667881 0.0935989 0 -0.000101089 1.33514e-05
14 1 0.119507 0.544689 0.0935971 0 -8.39233e-05 1.71661e-05
15 1 0.619507 0.544689 0.093597 0 -9.72748e-05 1.14441e-05
16 1 0.335648 0.667881 0.0935991 0 -9.34601e-05 1.90735e-06
17 1 0.790086 0.833654 0.593602 0 -3.62396e-05 3.24249e-05
18 1 0.290086 0.833654 0.593602 0 -3.62396e-05 4.00543e-05
19 1 0.00521011 0.960543 0.593611 0 1.90735e-05 2.28882e-05
20 1 0.50521 0.960543 0.593611 0 1.90735e-05 2.67029e-05
21 1 0.0519096 0.790633 0.0936022 0 -0.000322342 -1.14441e-05
22 1 0.55191 0.790633 0.0936027 0 -0.000329971 -2.09808e-05
23 1 0.768773 0.911196 0.0936096 0 0.00021553 -1.90735e-06
24 1 0.268773 0.911196 0.0936104 0 0.000196457 -7.62939e-06
25 1 0.992999 0.0953783 0.593584 0 -0.000221252 9.53674e-06
26 1 0.492999 0.0953782 0.593584 0 -0.000209808 0
27 1 0.256562 0.0460312 0.0935829 0 -1.14441e-05 -2.47955e-05
28 1 0.756562 0.0460314 0.0935831 0 -2.28882e-05 -2.47955e-05
29 1 0.209863 0.215941 0.593593 0 0.000329971 -1.90735e-06
30 1 0.709863 0.215941 0.593592 0 0.000322342 9.53674e-06
31 1 0.971687 0.172921 0.0935916 0 4.3869e-05 -3.43323e-05
32 1 0.471687 0.172921 0.0935914 0 4.76837e-05 -1.90735e-05
