ITEM: TIMESTEP
0
ITEM: NUMBER OF ATOMS
32
ITEM: BOX BOUNDS xy xz yz pp pp pp
-4.0532350540161133e-03 6.4008854031562805e+00 0.0000000000000000e+00
-9.1640949249267578e-03 6.0825547575950623e+00 0.0000000000000000e+00
-4.7960281372070312e-02 2.0773346722126007e+01 5.5295950174331665e-01
ITEM: ATOMS id type xs ys zs fx fy fz
1 1 0.999986 0.660194 0.0597509 0 0 0.151861
2 1 0.499986 0.660194 0.0597509 0 0 0.151861
3 1 0.249986 0.160194 0.0597519 0 0 0.151785
4 1 0.749986 0.160194 0.0597519 0 0 0.151785
5 1 0.999986 0.635248 0.309753 0 0 -0.000108719
6 1 0.249986 0.48207 0.184753 0 0 -0.00198746
7 1 0.749986 0.48207 0.184753 0 0 -0.00198746
8 1 0.499986 0.635248 0.309753 0 0 -0.000108719
9 1 0.999986 0.982068 0.184753 0 0 -0.0019722
10 1 0.249986 0.135248 0.309753 0 0 -0.000162125
11 1 0.499986 0.982068 0.184753 0 0 -0.0019722
12 1 0.749986 0.135248 0.309753 0 0 -0.000162125
13 1 0.999986 0.610276 0.559749 0 0 6.10352e-05
14 1 0.499986 0.610276 0.559749 0 0 6.10352e-05
15 1 0.249986 0.110275 0.55975 0 0 4.95911e-05
16 1 0.749986 0.110275 0.55975 0 0 4.95911e-05
17 1 0.249986 0.457112 0.434752 0 0 -6.10352e-05
18 1 0.749986 0.457112 0.434752 0 0 -6.10352e-05
19 1 0.999986 0.957111 0.434752 0 0 -3.8147e-05
20 1 0.499986 0.957111 0.434752 0 0 -3.8147e-05
21 1 0.999986 0.585309 0.809748 0 0 0.0019722
22 1 0.249986 0.432134 0.684748 0 0 0.000133514
23 1 0.499986 0.585309 0.809748 0 0 0.0019722
24 1 0.749986 0.432134 0.684748 0 0 0.000133514
25 1 0.999986 0.932134 0.684749 0 0 0.000112534
26 1 0.249986 0.085309 0.809748 0 0 0.00198364
27 1 0.749986 0.085309 0.809748 0 0 0.00198364
28 1 0.499986 0.932134 0.684749 0 0 0.000112534
29 1 0.249986 0.407181 0.934749 0 0 -0.151779
30 1 0.749986 0.407181 0.934749 0 0 -0.151779
31 1 0.999986 0.907182 0.93475 0 0 -0.15185
32 1 0.499986 0.907182 0.93475 0 0 -0.15185
ITEM: TIMESTEP
1
ITEM: NUMBER OF ATOMS
32
ITEM: BOX BOUNDS xy xz yz pp pp pp
-4.0532350540161133e-03 6.4008854031562805e+00 0.0000000000000000e+00
-9.1640949249267578e-03 6.0825547575950623e+00 0.0000000000000000e+00
-4.7960281372070312e-02 2.0773346722126007e+01 5.5295950174331665e-01
ITEM: ATOMS id type xs ys zs fx fy fz
1 1 0.999986 0.660026 0.0614291 0 0 -0.008358
2 1 0.499986 0.660026 0.0614291 0 0 -0.008358
3 1 0.249986 0.160026 0.0614293 0 0 -0.00836182
4 1 0.749986 0.160026 0.0614293 0 0 -0.00836182
5 1 0.999986 0.635248 0.309752 0 0 0.00222778
6 1 0.249986 0.482072 0.184731 0 0 0.0422897
7 1 0.749986 0.482072 0.184731 0 0 0.0422897
8 1 0.499986 0.635248 0.309752 0 0 0.00222778
9 1 0.999986 0.98207 0.184731 0 0 0.0422974
10 1 0.249986 0.135248 0.309752 0 0 0.00221634
11 1 0.499986 0.98207 0.184731 0 0 0.0422974
12 1 0.749986 0.135248 0.309752 0 0 0.00221634
13 1 0.999986 0.610276 0.55975 0 0 0.000228882
14 1 0.499986 0.610276 0.55975 0 0 0.000228882
15 1 0.249986 0.110275 0.55975 0 0 0.000221252
16 1 0.749986 0.110275 0.55975 0 0 0.000221252
17 1 0.249986 0.457112 0.434752 0 0 -0.000232697
18 1 0.749986 0.457112 0.434752 0 0 -0.000232697
19 1 0.999986 0.957111 0.434751 0 0 -0.00022316
20 1 0.499986 0.957111 0.434751 0 0 -0.00022316
21 1 0.999986 0.585307 0.80977 0 0 -0.0422916
22 1 0.249986 0.432134 0.68475 0 0 -0.00222969
23 1 0.499986 0.585307 0.80977 0 0 -0.0422916
24 1 0.749986 0.432134 0.68475 0 0 -0.00222969
25 1 0.999986 0.932134 0.68475 0 0 -0.00222969
26 1 0.249986 0.0853068 0.80977 0 0 -0.0422878
27 1 0.749986 0.0853068 0.80977 0 0 -0.0422878
28 1 0.499986 0.932134 0.68475 0 0 -0.00222969
29 1 0.249986 0.407348 0.933072 0 0 0.00836945
30 1 0.749986 0.407348 0.933072 0 0 0.00836945
31 1 0.999986 0.907349 0.933072 0 0 0.00836372
32 1 0.499986 0.907349 0.933072 0 0 0.00836372
ITEM: TIMESTEP
2
ITEM: NUMBER OF ATOMS
32
ITEM: BOX BOUNDS xy xz yz pp pp pp
-4.0532350540161133e-03 6.4008854031562805e+00 0.0000000000000000e+00
-9.1640949249267578e-03 6.0825547575950623e+00 0.0000000000000000e+00
-4.7960281372070312e-02 2.0773346722126007e+01 5.5295950174331665e-01
ITEM: ATOMS id type xs ys zs fx fy fz
1 1 0.999986 0.659998 0.0617077 0 0 -0.00888062
2 1 0.499986 0.659998 0.0617077 0 0 -0.00888062
3 1 0.249986 0.159999 0.0617076 0 0 -0.00885963
4 1 0.749986 0.159999 0.0617076 0 0 -0.00885963
5 1 0.999986 0.635243 0.3098 0 0 0.0222874
6 1 0.249986 0.481981 0.185643 0 0 0.00175095
7 1 0.749986 0.481981 0.185643 0 0 0.00175095
8 1 0.499986 0.635243 0.3098 0 0 0.0222874
9 1 0.999986 0.981979 0.185643 0 0 0.00174713
10 1 0.249986 0.135244 0.309799 0 0 0.0223064
11 1 0.499986 0.981979 0.185643 0 0 0.00174713
12 1 0.749986 0.135244 0.309799 0 0 0.0223064
13 1 0.999986 0.610276 0.559755 0 0 -0.00271988
14 1 0.499986 0.610276 0.559755 0 0 -0.00271988
15 1 0.249986 0.110274 0.559755 0 0 -0.00272179
16 1 0.749986 0.110274 0.559755 0 0 -0.00272179
17 1 0.249986 0.457112 0.434746 0 0 0.00271988
18 1 0.749986 0.457112 0.434746 0 0 0.00271988
19 1 0.999986 0.957111 0.434746 0 0 0.00270844
20 1 0.499986 0.957111 0.434746 0 0 0.00270844
21 1 0.999986 0.585398 0.808858 0 0 -0.00174141
22 1 0.249986 0.432139 0.684702 0 0 -0.0222893
23 1 0.499986 0.585398 0.808858 0 0 -0.00174141
24 1 0.749986 0.432139 0.684702 0 0 -0.0222893
25 1 0.999986 0.932139 0.684702 0 0 -0.0223007
26 1 0.249986 0.0853979 0.808858 0 0 -0.00176048
27 1 0.749986 0.0853979 0.808858 0 0 -0.00176048
28 1 0.499986 0.932139 0.684702 0 0 -0.0223007
29 1 0.249986 0.407376 0.932794 0 0 0.00886917
30 1 0.749986 0.407376 0.932794 0 0 0.00886917
31 1 0.999986 0.907377 0.932794 0 0 0.00888443
32 1 0.499986 0.907377 0.932794 0 0 0.00888443
ITEM: TIMESTEP
3
ITEM: NUMBER OF ATOMS
32
ITEM: BOX BOUNDS xy xz yz pp pp pp
-4.0532350540161133e-03 6.4008854031562805e+00 0.0000000000000000e+00
-9.1640949249267578e-03 6.0825547575950623e+00 0.0000000000000000e+00
-4.7960281372070312e-02 2.0773346722126007e+01 5.5295950174331665e-01
ITEM: ATOMS id type xs ys zs fx fy fz
1 1 0.999986 0.660012 0.0615668 0 0 0.0104675
2 1 0.499986 0.660012 0.0615668 0 0 0.0104675
3 1 0.249986 0.160013 0.0615671 0 0 0.010458
4 1 0.749986 0.160013 0.0615671 0 0 0.010458
5 1 0.999986 0.635191 0.310316 0 0 0.00251198
6 1 0.249986 0.481957 0.185882 0 0 -0.00179291
7 1 0.749986 0.481957 0.185882 0 0 -0.00179291
8 1 0.499986 0.635191 0.310316 0 0 0.00251198
9 1 0.999986 0.981955 0.185883 0 0 -0.00179863
10 1 0.249986 0.135192 0.310316 0 0 0.00250626
11 1 0.499986 0.981955 0.185883 0 0 -0.00179863
12 1 0.749986 0.135192 0.310316 0 0 0.00250626
13 1 0.999986 0.610282 0.559694 0 0 -0.010231
14 1 0.499986 0.610282 0.559694 0 0 -0.010231
15 1 0.249986 0.11028 0.559694 0 0 -0.0102272
16 1 0.749986 0.11028 0.559694 0 0 -0.0102272
17 1 0.249986 0.457106 0.434807 0 0 0.0102215
18 1 0.749986 0.457106 0.434807 0 0 0.0102215
19 1 0.999986 0.957105 0.434807 0 0 0.0102234
20 1 0.499986 0.957105 0.434807 0 0 0.0102234
21 1 0.999986 0.585421 0.808619 0 0 0.00178528
22 1 0.249986 0.432191 0.684185 0 0 -0.00249672
23 1 0.499986 0.585421 0.808619 0 0 0.00178528
24 1 0.749986 0.432191 0.684185 0 0 -0.00249672
25 1 0.999986 0.932191 0.684185 0 0 -0.00250244
26 1 0.249986 0.0854218 0.808619 0 0 0.00180817
27 1 0.749986 0.0854218 0.808619 0 0 0.00180817
28 1 0.499986 0.932191 0.684185 0 0 -0.00250244
29 1 0.249986 0.407362 0.932935 0 0 -0.0104656
30 1 0.749986 0.407362 0.932935 0 0 -0.0104656
31 1 0.999986 0.907363 0.932935 0 0 -0.0104675
32 1 0.499986 0.907363 0.932935 0 0 -0.0104675
ITEM: TIMESTEP
4
ITEM: NUMBER OF ATOMS
32
ITEM: BOX BOUNDS xy xz yz pp pp pp
-4.0532350540161133e-03 6.4008854031562805e+00 0.0000000000000000e+00
-9.1640949249267578e-03 6.0825547575950623e+00 0.0000000000000000e+00
-4.7960281372070312e-02 2.0773346722126007e+01 5.5295950174331665e-01
ITEM: ATOMS id type xs ys zs fx fy fz
1 1 0.999986 0.66 0.0616955 0 0 0.000562668
2 1 0.499986 0.66 0.0616955 0 0 0.000562668
3 1 0.249986 0.16 0.0616957 0 0 0.000556946
4 1 0.749986 0.16 0.0616957 0 0 0.000556946
5 1 0.999986 0.635173 0.310505 0 0 -0.00192642
6 1 0.249986 0.481953 0.185922 0 0 0.00429344
7 1 0.749986 0.481953 0.185922 0 0 0.00429344
8 1 0.499986 0.635173 0.310505 0 0 -0.00192642
9 1 0.999986 0.981951 0.185922 0 0 0.00429344
10 1 0.249986 0.135173 0.310505 0 0 -0.00193024
11 1 0.499986 0.981951 0.185922 0 0 0.00429344
12 1 0.749986 0.135173 0.310505 0 0 -0.00193024
13 1 0.999986 0.6103 0.559512 0 0 -0.000743866
14 1 0.499986 0.6103 0.559512 0 0 -0.000743866
15 1 0.249986 0.110298 0.559512 0 0 -0.000753403
16 1 0.749986 0.110298 0.559512 0 0 -0.000753403
17 1 0.249986 0.457088 0.434989 0 0 0.000741959
18 1 0.749986 0.457088 0.434989 0 0 0.000741959
19 1 0.999986 0.957087 0.434989 0 0 0.000749588
20 1 0.499986 0.957087 0.434989 0 0 0.000749588
21 1 0.999986 0.585425 0.80858 0 0 -0.00428391
22 1 0.249986 0.432209 0.683997 0 0 0.00192261
23 1 0.499986 0.585425 0.80858 0 0 -0.00428391
24 1 0.749986 0.432209 0.683997 0 0 0.00192261
25 1 0.999986 0.932209 0.683996 0 0 0.00194168
26 1 0.249986 0.0854257 0.80858 0 0 -0.00428963
27 1 0.749986 0.0854257 0.80858 0 0 -0.00428963
28 1 0.499986 0.932209 0.683996 0 0 0.00194168
29 1 0.249986 0.407375 0.932806 0 0 -0.000564575
30 1 0.749986 0.407375 0.932806 0 0 -0.000564575
31 1 0.999986 0.907376 0.932806 0 0 -0.000570297
32 1 0.499986 0.907376 0.932806 0 0 -0.000570297
ITEM: TIMESTEP
5
ITEM: NUMBER OF ATOMS
32
ITEM: BOX BOUNDS xy xz yz pp pp pp
-4.0532350540161133e-03 6.4008854031562805e+00 0.0000000000000000e+00
-9.1640949249267578e-03 6.0825547575950623e+00 0.0000000000000000e+00
-4.7960281372070312e-02 2.0773346722126007e+01 5.5295950174331665e-01
ITEM: ATOMS id type xs ys zs fx fy fz
1 1 0.999986 0.659997 0.0617171 0 0 0.000509262
2 1 0.499986 0.659997 0.0617171 0 0 0.000509262
3 1 0.249986 0.159998 0.0617172 0 0 0.000511169
4 1 0.749986 0.159998 0.0617172 0 0 0.000511169
5 1 0.999986 0.635174 0.310492 0 0 0.00120926
6 1 0.249986 0.481946 0.185994 0 0 0.000753403
7 1 0.749986 0.481946 0.185994 0 0 0.000753403
8 1 0.499986 0.635174 0.310492 0 0 0.00120926
9 1 0.999986 0.981944 0.185994 0 0 0.000745773
10 1 0.249986 0.135175 0.310492 0 0 0.00121307
11 1 0.499986 0.981944 0.185994 0 0 0.000745773
12 1 0.749986 0.135175 0.310492 0 0 0.00121307
13 1 0.999986 0.610303 0.559482 0 0 0.00170898
14 1 0.499986 0.610303 0.559482 0 0 0.00170898
15 1 0.249986 0.110301 0.559482 0 0 0.00171471
16 1 0.749986 0.110301 0.559482 0 0 0.00171471
17 1 0.249986 0.457085 0.435019 0 0 -0.00169945
18 1 0.749986 0.457085 0.435019 0 0 -0.00169945
19 1 0.999986 0.957084 0.435019 0 0 -0.00170517
20 1 0.499986 0.957084 0.435019 0 0 -0.00170517
21 1 0.999986 0.585433 0.808507 0 0 -0.000753403
22 1 0.249986 0.432208 0.684009 0 0 -0.0012188
23 1 0.499986 0.585433 0.808507 0 0 -0.000753403
24 1 0.749986 0.432208 0.684009 0 0 -0.0012188
25 1 0.999986 0.932208 0.684009 0 0 -0.00122452
26 1 0.249986 0.0854329 0.808507 0 0 -0.000745773
27 1 0.749986 0.0854329 0.808507 0 0 -0.000745773
28 1 0.499986 0.932208 0.684009 0 0 -0.00122452
29 1 0.249986 0.407377 0.932784 0 0 -0.000509262
30 1 0.749986 0.407377 0.932784 0 0 -0.000509262
31 1 0.999986 0.907378 0.932784 0 0 -0.000509262
32 1 0.499986 0.907378 0.932784 0 0 -0.000509262
ITEM: TIMESTEP
6
ITEM: NUMBER OF ATOMS
32
ITEM: BOX BOUNDS xy xz yz pp pp pp
-4.0532350540161133e-03 6.4008854031562805e+00 0.0000000000000000e+00
-9.1640949249267578e-03 6.0825547575950623e+00 0.0000000000000000e+00
-4.7960281372070312e-02 2.0773346722126007e+01 5.5295950174331665e-01
ITEM: ATOMS id type xs ys zs fx fy fz
1 1 0.999986 0.659996 0.0617308 0 0 0.000137329
2 1 0.499986 0.659996 0.0617308 0 0 0.000137329
3 1 0.249986 0.159996 0.0617309 0 0 0.000141144
4 1 0.749986 0.159996 0.0617309 0 0 0.000141144
5 1 0.999986 0.635172 0.31051 0 0 0.000579834
6 1 0.249986 0.481943 0.186024 0 0 -0.000110626
7 1 0.749986 0.481943 0.186024 0 0 -0.000110626
8 1 0.499986 0.635172 0.31051 0 0 0.000579834
9 1 0.999986 0.981941 0.186024 0 0 -0.000106812
10 1 0.249986 0.135173 0.31051 0 0 0.000576019
11 1 0.499986 0.981941 0.186024 0 0 -0.000106812
12 1 0.749986 0.135173 0.31051 0 0 0.000576019
13 1 0.999986 0.610301 0.559504 0 0 -0.000379562
14 1 0.499986 0.610301 0.559504 0 0 -0.000379562
15 1 0.249986 0.110299 0.559503 0 0 -0.000383377
16 1 0.749986 0.110299 0.559503 0 0 -0.000383377
17 1 0.249986 0.457087 0.434998 0 0 0.00038147
18 1 0.749986 0.457087 0.434998 0 0 0.00038147
19 1 0.999986 0.957086 0.434998 0 0 0.000379562
20 1 0.499986 0.957086 0.434998 0 0 0.000379562
21 1 0.999986 0.585436 0.808477 0 0 9.34601e-05
22 1 0.249986 0.43221 0.683992 0 0 -0.000566483
23 1 0.499986 0.585436 0.808477 0 0 9.34601e-05
24 1 0.749986 0.43221 0.683992 0 0 -0.000566483
25 1 0.999986 0.93221 0.683992 0 0 -0.00056839
26 1 0.249986 0.0854359 0.808477 0 0 9.91821e-05
27 1 0.749986 0.0854359 0.808477 0 0 9.91821e-05
28 1 0.499986 0.93221 0.683992 0 0 -0.00056839
29 1 0.249986 0.407378 0.932771 0 0 -0.000137329
30 1 0.749986 0.407378 0.932771 0 0 -0.000137329
31 1 0.999986 0.907379 0.932771 0 0 -0.000135422
32 1 0.499986 0.907379 0.932771 0 0 -0.000135422
ITEM: TIMESTEP
7
ITEM: NUMBER OF ATOMS
32
ITEM: BOX BOUNDS xy xz yz pp pp pp
-4.0532350540161133e-03 6.4008854031562805e+00 0.0000000000000000e+00
-9.1640949249267578e-03 6.0825547575950623e+00 0.0000000000000000e+00
-4.7960281372070312e-02 2.0773346722126007e+01 5.5295950174331665e-01
ITEM: ATOMS id type xs ys zs fx fy fz
1 1 0.999986 0.659996 0.0617358 0 0 -0.000257492
2 1 0.499986 0.659996 0.0617358 0 0 -0.000257492
3 1 0.249986 0.159996 0.061736 0 0 -0.000253677
4 1 0.749986 0.159996 0.061736 0 0 -0.000253677
5 1 0.999986 0.635171 0.310526 0 0 -6.10352e-05
6 1 0.249986 0.481943 0.186026 0 0 0.000350952
7 1 0.749986 0.481943 0.186026 0 0 0.000350952
8 1 0.499986 0.635171 0.310526 0 0 -6.10352e-05
9 1 0.999986 0.981941 0.186026 0 0 0.000360489
10 1 0.249986 0.135171 0.310526 0 0 -6.10352e-05
11 1 0.499986 0.981941 0.186026 0 0 0.000360489
12 1 0.749986 0.135171 0.310526 0 0 -6.10352e-05
13 1 0.999986 0.610301 0.559497 0 0 -0.000259399
14 1 0.499986 0.610301 0.559497 0 0 -0.000259399
15 1 0.249986 0.1103 0.559497 0 0 -0.000249863
16 1 0.749986 0.1103 0.559497 0 0 -0.000249863
17 1 0.249986 0.457086 0.435004 0 0 0.000257492
18 1 0.749986 0.457086 0.435004 0 0 0.000257492
19 1 0.999986 0.957086 0.435004 0 0 0.000259399
20 1 0.499986 0.957086 0.435004 0 0 0.000259399
21 1 0.999986 0.585436 0.808476 0 0 -0.000328064
22 1 0.249986 0.432212 0.683976 0 0 4.00543e-05
23 1 0.499986 0.585436 0.808476 0 0 -0.000328064
24 1 0.749986 0.432212 0.683976 0 0 4.00543e-05
25 1 0.999986 0.932212 0.683976 0 0 4.76837e-05
26 1 0.249986 0.0854361 0.808476 0 0 -0.000337601
27 1 0.749986 0.0854361 0.808476 0 0 -0.000337601
28 1 0.499986 0.932212 0.683976 0 0 4.76837e-05
29 1 0.249986 0.407379 0.932766 0 0 0.000246048
30 1 0.749986 0.407379 0.932766 0 0 0.000246048
31 1 0.999986 0.90738 0.932766 0 0 0.000246048
32 1 0.499986 0.90738 0.932766 0 0 0.000246048
ITEM: TIMESTEP
8
ITEM: NUMBER OF ATOMS
32
ITEM: BOX BOUNDS xy xz yz pp pp pp
-4.0532350540161133e-03 6.4008854031562805e+00 0.0000000000000000e+00
-9.1640949249267578e-03 6.0825547575950623e+00 0.0000000000000000e+00
-4.7960281372070312e-02 2.0773346722126007e+01 5.5295950174331665e-01
ITEM: ATOMS id type xs ys zs fx fy fz
1 1 0.999986 0.659996 0.0617335 0 0 9.53674e-05
2 1 0.499986 0.659996 0.0617335 0 0 9.53674e-05
3 1 0.249986 0.159996 0.0617339 0 0 8.96454e-05
4 1 0.749986 0.159996 0.0617339 0 0 8.96454e-05
5 1 0.999986 0.63517 0.31053 0 0 -5.72205e-06
6 1 0.249986 0.481942 0.186031 0 0 0.000110626
7 1 0.749986 0.481942 0.186031 0 0 0.000110626
8 1 0.499986 0.63517 0.31053 0 0 -5.72205e-06
9 1 0.999986 0.98194 0.186031 0 0 0.000106812
10 1 0.249986 0.135171 0.31053 0 0 -7.62939e-06
11 1 0.499986 0.98194 0.186031 0 0 0.000106812
12 1 0.749986 0.135171 0.31053 0 0 -7.62939e-06
13 1 0.999986 0.610302 0.559491 0 0 7.62939e-05
14 1 0.499986 0.610302 0.559491 0 0 7.62939e-05
15 1 0.249986 0.1103 0.559491 0 0 8.01086e-05
16 1 0.749986 0.1103 0.559491 0 0 8.01086e-05
17 1 0.249986 0.457086 0.43501 0 0 -7.82013e-05
18 1 0.749986 0.457086 0.43501 0 0 -7.82013e-05
19 1 0.999986 0.957085 0.43501 0 0 -7.62939e-05
20 1 0.499986 0.957085 0.43501 0 0 -7.62939e-05
21 1 0.999986 0.585436 0.80847 0 0 -0.000120163
22 1 0.249986 0.432212 0.683972 0 0 1.52588e-05
23 1 0.499986 0.585436 0.80847 0 0 -0.000120163
24 1 0.749986 0.432212 0.683972 0 0 1.52588e-05
25 1 0.999986 0.932212 0.683972 0 0 7.62939e-06
26 1 0.249986 0.0854366 0.80847 0 0 -0.000114441
27 1 0.749986 0.0854366 0.80847 0 0 -0.000114441
28 1 0.499986 0.932212 0.683972 0 0 7.62939e-06
29 1 0.249986 0.407379 0.932768 0 0 -8.39233e-05
30 1 0.749986 0.407379 0.932768 0 0 -8.39233e-05
31 1 0.999986 0.907379 0.932768 0 0 -9.53674e-05
32 1 0.499986 0.907379 0.932768 0 0 -9.53674e-05
ITEM: TIMESTEP
9
ITEM: NUMBER OF ATOMS
32
ITEM: BOX BOUNDS xy xz yz pp pp pp
-4.0532350540161133e-03 6.4008854031562805e+00 0.0000000000000000e+00
-9.1640949249267578e-03 6.0825547575950623e+00 0.0000000000000000e+00
-4.7960281372070312e-02 2.0773346722126007e+01 5.5295950174331665e-01
ITEM: ATOMS id type xs ys zs fx fy fz
1 1 0.999986 0.659996 0.0617335 0 0 9.53674e-05
2 1 0.499986 0.659996 0.0617335 0 0 9.53674e-05
3 1 0.249986 0.159996 0.0617339 0 0 8.96454e-05
4 1 0.749986 0.159996 0.0617339 0 0 8.96454e-05
5 1 0.999986 0.63517 0.31053 0 0 -5.72205e-06
6 1 0.249986 0.481942 0.186031 0 0 0.000110626
7 1 0.749986 0.481942 0.186031 0 0 0.000110626
8 1 0.499986 0.63517 0.31053 0 0 -5.72205e-06
9 1 0.999986 0.98194 0.186031 0 0 0.000106812
10 1 0.249986 0.135171 0.31053 0 0 -7.62939e-06
11 1 0.499986 0.98194 0.186031 0 0 0.000106812
12 1 0.749986 0.135171 0.31053 0 0 -7.62939e-06
13 1 0.999986 0.610302 0.559491 0 0 7.62939e-05
14 1 0.499986 0.610302 0.559491 0 0 7.62939e-05
15 1 0.249986 0.1103 0.559491 0 0 8.01086e-05
16 1 0.749986 0.1103 0.559491 0 0 8.01086e-05
17 1 0.249986 0.457086 0.43501 0 0 -7.82013e-05
18 1 0.749986 0.457086 0.43501 0 0 -7.82013e-05
19 1 0.999986 0.957085 0.43501 0 0 -7.62939e-05
20 1 0.499986 0.957085 0.43501 0 0 -7.62939e-05
21 1 0.999986 0.585436 0.80847 0 0 -0.000120163
22 1 0.249986 0.432212 0.683972 0 0 1.52588e-05
23 1 0.499986 0.585436 0.80847 0 0 -0.000120163
24 1 0.749986 0.432212 0.683972 0 0 1.52588e-05
25 1 0.999986 0.932212 0.683972 0 0 7.62939e-06
26 1 0.249986 0.0854366 0.80847 0 0 -0.000114441
27 1 0.749986 0.0854366 0.80847 0 0 -0.000114441
28 1 0.499986 0.932212 0.683972 0 0 7.62939e-06
29 1 0.249986 0.407379 0.932768 0 0 -8.39233e-05
30 1 0.749986 0.407379 0.932768 0 0 -8.39233e-05
31 1 0.999986 0.907379 0.932768 0 0 -9.53674e-05
32 1 0.499986 0.907379 0.932768 0 0 -9.53674e-05
