ITEM: TIMESTEP
0
ITEM: NUMBER OF ATOMS
56
ITEM: BOX BOUNDS xy xz yz pp pp pp
-4.8658525943756104e-01 1.2203788340091705e+01 0.0000000000000000e+00
-8.4733366966247559e-03 5.5348814725875854e+00 -4.6789675951004028e-01
-2.9168844223022461e-02 1.9049128890037537e+01 0.0000000000000000e+00
ITEM: ATOMS id type xs ys zs fx fy fz
1 1 0.555139 4.41887e-05 0.132366 0 0.000125885 0.000139236
2 1 0.305139 0.166624 0.132366 0 -0.000148773 0.000146866
3 1 0.198017 2.39879e-05 0.275225 0 4.57764e-05 -4.19617e-05
4 1 0.948016 0.166644 0.275225 0 -7.05719e-05 -3.24249e-05
5 1 0.840841 1.9421e-05 0.418082 0 8.2016e-05 2.86102e-05
6 1 0.0551392 4.41295e-05 0.132366 0 0.0001297 0.000137329
7 1 0.983672 0.500074 0.0609403 0 -0.000253677 8.39233e-05
8 1 0.80514 0.166623 0.132366 0 -0.000144958 0.000143051
9 1 0.733673 0.666593 0.0609403 0 0.000267029 9.53674e-05
10 1 0.698018 2.39872e-05 0.275225 0 5.14984e-05 -3.43323e-05
11 1 0.59084 0.166647 0.418082 0 -7.82013e-05 2.09808e-05
12 1 0.483653 2.47556e-05 0.560942 0 -2.28882e-05 -1.90735e-05
13 1 0.233654 0.166643 0.560942 0 1.33514e-05 -2.09808e-05
14 1 0.126475 2.39811e-05 0.703801 0 -2.47955e-05 -0.000171661
15 1 0.876475 0.166644 0.703801 0 -3.8147e-06 -0.000175476
16 1 0.769312 2.63435e-05 0.846651 0 0.000127792 0.000270844
17 1 0.626594 0.500026 0.203802 0 0.000144958 -0.000261307
18 1 0.448016 0.166645 0.275225 0 -8.2016e-05 -3.43323e-05
19 1 0.376595 0.66664 0.203802 0 -0.000120163 -0.000257492
20 1 0.340841 2.01694e-05 0.418082 0 6.48499e-05 2.67029e-05
21 1 0.26943 0.500023 0.346651 0 0 0.000188828
22 1 0.0908407 0.166648 0.418082 0 -8.2016e-05 2.28882e-05
23 1 0.0194298 0.666642 0.346651 0 3.62396e-05 0.000167847
24 1 0.983654 2.49573e-05 0.560941 0 -2.67029e-05 -1.14441e-05
25 1 0.91225 0.500025 0.489511 0 -1.90735e-05 5.72205e-06
26 1 0.733655 0.166643 0.560941 0 1.33514e-05 -5.72205e-06
27 1 0.662252 0.666642 0.489511 0 2.47955e-05 2.86102e-05
28 1 0.483672 0.500073 0.0609404 0 -0.000236511 9.15527e-05
29 1 0.233672 0.666593 0.0609403 0 0.000268936 9.15527e-05
30 1 0.126595 0.500026 0.203802 0 0.000146866 -0.000263214
31 1 0.876595 0.666641 0.203802 0 -0.000139236 -0.000257492
32 1 0.769431 0.500024 0.346651 0 -2.47955e-05 0.000169754
33 1 0.51931 0.166641 0.846652 0 -0.000135422 0.000236511
34 1 0.412233 7.47473e-05 0.989512 0 -0.000272751 -7.62939e-05
35 1 0.162233 0.166594 0.989513 0 0.000249863 -8.7738e-05
36 1 0.626474 2.44315e-05 0.703801 0 -2.86102e-05 -0.000173569
37 1 0.555063 0.50002 0.632371 0 7.62939e-05 -4.00543e-05
38 1 0.376476 0.166643 0.703801 0 3.8147e-06 -0.000167847
39 1 0.305064 0.666647 0.632371 0 -7.24792e-05 -2.67029e-05
40 1 0.269311 2.63314e-05 0.846651 0 0.000133514 0.000255585
41 1 0.197889 0.500023 0.775228 0 6.10352e-05 4.00543e-05
42 1 0.0193103 0.166641 0.846651 0 -0.000139236 0.000253677
43 1 0.947889 0.666644 0.775228 0 -5.53131e-05 2.47955e-05
44 1 0.912234 7.37033e-05 0.989512 0 -0.00025177 -8.39233e-05
45 1 0.840766 0.500043 0.918087 0 0.000141144 -0.000123978
46 1 0.519429 0.666643 0.346651 0 3.62396e-05 0.000171661
47 1 0.412251 0.500025 0.489511 0 -1.52588e-05 9.53674e-06
48 1 0.162251 0.666642 0.489511 0 2.86102e-05 9.53674e-06
49 1 0.0550642 0.500019 0.632371 0 9.15527e-05 -2.09808e-05
50 1 0.805065 0.666647 0.63237 0 -6.10352e-05 -3.8147e-06
51 1 0.69789 0.500022 0.775228 0 8.01086e-05 3.24249e-05
52 1 0.662231 0.166594 0.989513 0 0.000249863 -9.34601e-05
53 1 0.590765 0.666624 0.918087 0 -0.000143051 -0.000160217
54 1 0.447888 0.666643 0.775228 0 -5.53131e-05 3.8147e-05
55 1 0.340766 0.500044 0.918087 0 0.000154495 -0.000148773
56 1 0.0907659 0.666624 0.918087 0 -0.000141144 -0.000137329
ITEM: TIMESTEP
1
ITEM: NUMBER OF ATOMS
56
ITEM: BOX BOUNDS xy xz yz pp pp pp
-4.8658525943756104e-01 1.2203788340091705e+01 0.0000000000000000e+00
-8.4733366966247559e-03 5.5348814725875854e+00 -4.6789675951004028e-01
-2.9168844223022461e-02 1.9049128890037537e+01 0.0000000000000000e+00
ITEM: ATOMS id type xs ys zs fx fy fz
1 1 0.555139 4.41887e-05 0.132366 0 0.000125885 0.000139236
2 1 0.305139 0.166624 0.132366 0 -0.000148773 0.000146866
3 1 0.198017 2.39879e-05 0.275225 0 4.57764e-05 -4.19617e-05
4 1 0.948016 0.166644 0.275225 0 -7.05719e-05 -3.24249e-05
5 1 0.840841 1.9421e-05 0.418082 0 8.2016e-05 2.86102e-05
6 1 0.0551392 4.41295e-05 0.132366 0 0.0001297 0.000137329
7 1 0.983672 0.500074 0.0609403 0 -0.000253677 8.39233e-05
8 1 0.80514 0.166623 0.132366 0 -0.000144958 0.000143051
9 1 0.733673 0.666593 0.0609403 0 0.000267029 9.53674e-05
10 1 0.698018 2.39872e-05 0.275225 0 5.14984e-05 -3.43323e-05
11 1 0.59084 0.166647 0.418082 0 -7.82013e-05 2.09808e-05
12 1 0.483653 2.47556e-05 0.560942 0 -2.28882e-05 -1.90735e-05
13 1 0.233654 0.166643 0.560942 0 1.33514e-05 -2.09808e-05
14 1 0.126475 2.39811e-05 0.703801 0 -2.47955e-05 -0.000171661
15 1 0.876475 0.166644 0.703801 0 -3.8147e-06 -0.000175476
16 1 0.769312 2.63435e-05 0.846651 0 0.000127792 0.000270844
17 1 0.626594 0.500026 0.203802 0 0.000144958 -0.000261307
18 1 0.448016 0.166645 0.275225 0 -8.2016e-05 -3.43323e-05
19 1 0.376595 0.66664 0.203802 0 -0.000120163 -0.000257492
20 1 0.340841 2.01694e-05 0.418082 0 6.48499e-05 2.67029e-05
21 1 0.26943 0.500023 0.346651 0 0 0.000188828
22 1 0.0908407 0.166648 0.418082 0 -8.2016e-05 2.28882e-05
23 1 0.0194298 0.666642 0.346651 0 3.62396e-05 0.000167847
24 1 0.983654 2.49573e-05 0.560941 0 -2.67029e-05 -1.14441e-05
25 1 0.91225 0.500025 0.489511 0 -1.90735e-05 5.72205e-06
26 1 0.733655 0.166643 0.560941 0 1.33514e-05 -5.72205e-06
27 1 0.662252 0.666642 0.489511 0 2.47955e-05 2.86102e-05
28 1 0.483672 0.500073 0.0609404 0 -0.000236511 9.15527e-05
29 1 0.233672 0.666593 0.0609403 0 0.000268936 9.15527e-05
30 1 0.126595 0.500026 0.203802 0 0.000146866 -0.000263214
31 1 0.876595 0.666641 0.203802 0 -0.000139236 -0.000257492
32 1 0.769431 0.500024 0.346651 0 -2.47955e-05 0.000169754
33 1 0.51931 0.166641 0.846652 0 -0.000135422 0.000236511
34 1 0.412233 7.47473e-05 0.989512 0 -0.000272751 -7.62939e-05
35 1 0.162233 0.166594 0.989513 0 0.000249863 -8.7738e-05
36 1 0.626474 2.44315e-05 0.703801 0 -2.86102e-05 -0.000173569
37 1 0.555063 0.50002 0.632371 0 7.62939e-05 -4.00543e-05
38 1 0.376476 0.166643 0.703801 0 3.8147e-06 -0.000167847
39 1 0.305064 0.666647 0.632371 0 -7.24792e-05 -2.67029e-05
40 1 0.269311 2.63314e-05 0.846651 0 0.000133514 0.000255585
41 1 0.197889 0.500023 0.775228 0 6.10352e-05 4.00543e-05
42 1 0.0193103 0.166641 0.846651 0 -0.000139236 0.000253677
43 1 0.947889 0.666644 0.775228 0 -5.53131e-05 2.47955e-05
44 1 0.912234 7.37033e-05 0.989512 0 -0.00025177 -8.39233e-05
45 1 0.840766 0.500043 0.918087 0 0.000141144 -0.000123978
46 1 0.519429 0.666643 0.346651 0 3.62396e-05 0.000171661
47 1 0.412251 0.500025 0.489511 0 -1.52588e-05 9.53674e-06
48 1 0.162251 0.666642 0.489511 0 2.86102e-05 9.53674e-06
49 1 0.0550642 0.500019 0.632371 0 9.15527e-05 -2.09808e-05
50 1 0.805065 0.666647 0.63237 0 -6.10352e-05 -3.8147e-06
51 1 0.69789 0.500022 0.775228 0 8.01086e-05 3.24249e-05
52 1 0.662231 0.166594 0.989513 0 0.000249863 -9.34601e-05
53 1 0.590765 0.666624 0.918087 0 -0.000143051 -0.000160217
54 1 0.447888 0.666643 0.775228 0 -5.53131e-05 3.8147e-05
55 1 0.340766 0.500044 0.918087 0 0.000154495 -0.000148773
56 1 0.0907659 0.666624 0.918087 0 -0.000141144 -0.000137329
