ITEM: TIMESTEP
0
ITEM: NUMBER OF ATOMS
32
ITEM: BOX BOUNDS xy xz yz pp pp pp
-2.1013021469116211e-03 7.3561478853225708e+00 9.5949757099151611e-01
-4.1524946689605713e-02 2.2124402940273285e+01 -0.0000000000000000e+00
-1.4066457748413086e-02 5.1965324282646179e+00 0.0000000000000000e+00
ITEM: ATOMS id type xs ys zs fx fy fz
1 1 0.968737 0.336621 0.593597 0 0.000983119 -1.19209e-07
2 1 0.468737 0.336621 0.593597 0 0.000983834 -4.76837e-07
3 1 0.224985 0.294954 0.093597 0 0.00143456 7.15256e-07
4 1 0.724985 0.294954 0.0935971 0 0.00143349 3.57628e-07
5 1 0.199994 0.461621 0.593597 0 -2.89679e-05 3.57628e-07
6 1 0.699994 0.461621 0.593597 0 -2.94447e-05 1.19209e-07
7 1 0.956241 0.419954 0.0935971 0 -6.10352e-05 -4.76837e-07
8 1 0.456241 0.419954 0.0935971 0 -6.12736e-05 0
9 1 0.93125 0.586621 0.593597 0 5.57899e-05 -3.57628e-07
10 1 0.43125 0.586621 0.593597 0 5.55515e-05 -7.15256e-07
11 1 0.162506 0.711621 0.593597 0 -0.00143445 -1.3113e-06
12 1 0.662506 0.711621 0.593597 0 -0.00143433 -1.3113e-06
13 1 0.918754 0.669954 0.093597 0 -0.000988841 1.3113e-06
14 1 0.187498 0.544954 0.0935971 0 3.06368e-05 1.19209e-07
15 1 0.687498 0.544954 0.0935971 0 3.09944e-05 -1.19209e-07
16 1 0.418754 0.669954 0.093597 0 -0.000988483 1.43051e-06
17 1 0.893762 0.83662 0.593597 0 0.00827575 1.19209e-07
18 1 0.393762 0.83662 0.593597 0 0.00827491 -2.38419e-07
19 1 0.125018 0.96162 0.593597 0 -0.261225 -2.38419e-07
20 1 0.625018 0.96162 0.593597 0 -0.261225 0
21 1 0.15001 0.794954 0.093597 0 0.00275135 3.57628e-07
22 1 0.65001 0.794954 0.0935971 0 0.00275207 2.38419e-07
23 1 0.881266 0.919954 0.0935971 0 -0.429521 -2.38419e-07
24 1 0.381266 0.919954 0.093597 0 -0.429521 5.96046e-07
25 1 0.00622514 0.0866205 0.593597 0 0.429526 -9.53674e-07
26 1 0.506225 0.0866205 0.593597 0 0.429525 -7.15256e-07
27 1 0.262473 0.0449538 0.093597 0 0.261222 1.19209e-06
28 1 0.762473 0.0449538 0.093597 0 0.261223 2.38419e-07
29 1 0.237481 0.211621 0.593597 0 -0.00275028 -4.76837e-07
30 1 0.737481 0.211621 0.593597 0 -0.00275016 -5.96046e-07
31 1 0.993729 0.169954 0.093597 0 -0.00826967 8.34465e-07
32 1 0.493729 0.169954 0.0935971 0 -0.00826967 3.57628e-07
ITEM: TIMESTEP
1
ITEM: NUMBER OF ATOMS
32
ITEM: BOX BOUNDS xy xz yz pp pp pp
-2.1013021469116211e-03 7.3561478853225708e+00 9.5949757099151611e-01
-4.1524946689605713e-02 2.2124402940273285e+01 -0.0000000000000000e+00
-1.4066457748413086e-02 5.1965324282646179e+00 0.0000000000000000e+00
ITEM: ATOMS id type xs ys zs fx fy fz
1 1 0.968736 0.336629 0.593597 0 0.00242579 -1.19209e-07
2 1 0.468736 0.336629 0.593597 0 0.00242627 -1.19209e-07
3 1 0.224983 0.294967 0.0935971 0 0.0109425 1.19209e-07
4 1 0.724983 0.294967 0.0935971 0 0.010942 3.57628e-07
5 1 0.199994 0.46162 0.593597 0 0.00029254 -1.19209e-07
6 1 0.699994 0.46162 0.593597 0 0.000292182 0
7 1 0.956242 0.419953 0.0935971 0 -0.000909328 -2.38419e-07
8 1 0.456242 0.419953 0.0935971 0 -0.000909448 -1.19209e-07
9 1 0.93125 0.586621 0.593597 0 0.000906825 -1.19209e-07
10 1 0.43125 0.586621 0.593597 0 0.000906587 -2.38419e-07
11 1 0.162508 0.711608 0.593597 0 -0.0109417 -2.38419e-07
12 1 0.662508 0.711608 0.593597 0 -0.010941 -2.38419e-07
13 1 0.918755 0.669945 0.0935971 0 -0.00242829 4.76837e-07
14 1 0.187498 0.544954 0.0935971 0 -0.000294685 0
15 1 0.687498 0.544954 0.0935971 0 -0.00029397 0
16 1 0.418755 0.669945 0.0935971 0 -0.00242817 3.57628e-07
17 1 0.893751 0.836694 0.593597 0 -0.0831742 0
18 1 0.393751 0.836694 0.593597 0 -0.0831749 -1.19209e-07
19 1 0.125367 0.959295 0.593597 0 0.0638431 0
20 1 0.625367 0.959295 0.593597 0 0.0638429 0
21 1 0.150006 0.794978 0.0935971 0 -0.0909127 2.38419e-07
22 1 0.650006 0.794978 0.0935971 0 -0.0909128 0
23 1 0.88184 0.91613 0.0935971 0 -0.0299615 -1.19209e-07
24 1 0.38184 0.91613 0.093597 0 -0.0299618 2.38419e-07
25 1 0.00565175 0.0904443 0.593597 0 0.0299634 -3.57628e-07
26 1 0.505652 0.0904443 0.593597 0 0.0299637 0
27 1 0.262124 0.0472793 0.093597 0 -0.0638409 2.38419e-07
28 1 0.762124 0.0472793 0.093597 0 -0.0638398 2.38419e-07
29 1 0.237485 0.211596 0.593597 0 0.0909129 2.38419e-07
30 1 0.737485 0.211596 0.593597 0 0.0909114 0
31 1 0.99374 0.16988 0.0935971 0 0.0831767 1.19209e-07
32 1 0.49374 0.16988 0.0935971 0 0.0831765 -4.76837e-07
ITEM: TIMESTEP
2
ITEM: NUMBER OF ATOMS
32
ITEM: BOX BOUNDS xy xz yz pp pp pp
-2.1013021469116211e-03 7.3561478853225708e+00 9.5949757099151611e-01
-4.1524946689605713e-02 2.2124402940273285e+01 -0.0000000000000000e+00
-1.4066457748413086e-02 5.1965324282646179e+00 0.0000000000000000e+00
ITEM: ATOMS id type xs ys zs fx fy fz
1 1 0.968727 0.336691 0.593597 0 0.0496438 0
2 1 0.468727 0.336691 0.593597 0 0.0496434 0
3 1 0.224943 0.295237 0.0935971 0 0.0580974 0
4 1 0.724943 0.295237 0.0935971 0 0.0580978 -1.19209e-07
5 1 0.199993 0.461627 0.593597 0 0.00312364 2.38419e-07
6 1 0.699993 0.461627 0.593597 0 0.00312424 0
7 1 0.956245 0.419931 0.0935971 0 0.0131196 1.19209e-07
8 1 0.456245 0.419931 0.0935971 0 0.0131198 0
9 1 0.931246 0.586643 0.593597 0 -0.0131204 4.76837e-07
10 1 0.431246 0.586643 0.593597 0 -0.0131199 3.57628e-07
11 1 0.162548 0.711337 0.593597 0 -0.0580993 4.76837e-07
12 1 0.662548 0.711337 0.593597 0 -0.0580997 4.76837e-07
13 1 0.918764 0.669883 0.0935971 0 -0.0496434 -7.15256e-07
14 1 0.187499 0.544947 0.0935971 0 -0.00312495 -5.96046e-07
15 1 0.687499 0.544947 0.0935971 0 -0.00312638 -1.19209e-07
16 1 0.418764 0.669883 0.0935971 0 -0.0496435 -7.15256e-07
17 1 0.894053 0.834682 0.593597 0 0.0225327 1.19209e-07
18 1 0.394053 0.834682 0.593597 0 0.0225328 4.76837e-07
19 1 0.125228 0.960223 0.593597 0 0.00473738 0
20 1 0.625228 0.960223 0.593597 0 0.00473809 1.19209e-07
21 1 0.150338 0.792764 0.0935971 0 -0.00489211 -3.57628e-07
22 1 0.650338 0.792764 0.0935971 0 -0.00489211 -1.19209e-07
23 1 0.882105 0.91436 0.0935971 0 -0.00249684 0
24 1 0.382105 0.91436 0.0935971 0 -0.00249743 -2.38419e-07
25 1 0.00538633 0.0922143 0.593597 0 0.00249696 8.34465e-07
26 1 0.505386 0.0922143 0.593597 0 0.00249696 -1.19209e-07
27 1 0.262264 0.0463511 0.0935971 0 -0.00473499 -2.38419e-07
28 1 0.762264 0.0463511 0.0935971 0 -0.00473607 -2.38419e-07
29 1 0.237153 0.21381 0.593597 0 0.00489271 -4.76837e-07
30 1 0.737153 0.21381 0.593597 0 0.0048945 -1.19209e-07
31 1 0.993439 0.171892 0.0935971 0 -0.0225325 0
32 1 0.493439 0.171892 0.093597 0 -0.0225321 4.76837e-07
ITEM: TIMESTEP
3
ITEM: NUMBER OF ATOMS
32
ITEM: BOX BOUNDS xy xz yz pp pp pp
-2.1013021469116211e-03 7.3561478853225708e+00 9.5949757099151611e-01
-4.1524946689605713e-02 2.2124402940273285e+01 -0.0000000000000000e+00
-1.4066457748413086e-02 5.1965324282646179e+00 0.0000000000000000e+00
ITEM: ATOMS id type xs ys zs fx fy fz
1 1 0.968538 0.337953 0.593597 0 0.00356364 3.57628e-07
2 1 0.468538 0.337953 0.593597 0 0.00356388 3.57628e-07
3 1 0.224711 0.296783 0.0935971 0 -0.0096339 -2.38419e-07
4 1 0.724711 0.296783 0.0935971 0 -0.0096339 -2.38419e-07
5 1 0.19998 0.461708 0.593597 0 0.0157501 -2.38419e-07
6 1 0.699981 0.461708 0.593597 0 0.0157491 -1.19209e-07
7 1 0.956197 0.420251 0.0935971 0 0.0378374 -1.19209e-07
8 1 0.456197 0.420251 0.0935971 0 0.0378371 -1.19209e-07
9 1 0.931294 0.586323 0.593597 0 -0.0378374 -4.76837e-07
10 1 0.431294 0.586323 0.593597 0 -0.0378376 -2.38419e-07
11 1 0.16278 0.709791 0.593597 0 0.00963497 -4.76837e-07
12 1 0.66278 0.709791 0.593597 0 0.00963497 -1.19209e-07
13 1 0.918954 0.668622 0.0935971 0 -0.00356364 1.19209e-07
14 1 0.187511 0.544867 0.093597 0 -0.0157505 7.15256e-07
15 1 0.687511 0.544867 0.0935971 0 -0.0157501 2.38419e-07
16 1 0.418954 0.668622 0.0935971 0 -0.00356328 3.57628e-07
17 1 0.894073 0.834546 0.593597 0 -0.00452292 -3.57628e-07
18 1 0.394073 0.834546 0.593597 0 -0.00452209 -2.38419e-07
19 1 0.125162 0.960664 0.593597 0 -0.0117941 -1.19209e-07
20 1 0.625162 0.960664 0.593597 0 -0.0117948 0
21 1 0.150472 0.791873 0.0935971 0 -0.00837779 2.38419e-07
22 1 0.650472 0.791873 0.0935971 0 -0.00837779 2.38419e-07
23 1 0.882206 0.913683 0.0935971 0 0.00840139 2.38419e-07
24 1 0.382206 0.913683 0.093597 0 0.00840247 2.38419e-07
25 1 0.00528478 0.0928916 0.593597 0 -0.00839913 -2.38419e-07
26 1 0.505285 0.0928916 0.593597 0 -0.00839972 4.76837e-07
27 1 0.26233 0.0459104 0.093597 0 0.0117936 1.19209e-07
28 1 0.76233 0.0459104 0.093597 0 0.0117941 0
29 1 0.237019 0.214702 0.593597 0 0.00837588 0
30 1 0.737019 0.214702 0.593597 0 0.00837517 2.38419e-07
31 1 0.993418 0.172028 0.0935971 0 0.00452256 -2.38419e-07
32 1 0.493418 0.172028 0.0935971 0 0.00452232 -3.57628e-07
ITEM: TIMESTEP
4
ITEM: NUMBER OF ATOMS
32
ITEM: BOX BOUNDS xy xz yz pp pp pp
-2.1013021469116211e-03 7.3561478853225708e+00 9.5949757099151611e-01
-4.1524946689605713e-02 2.2124402940273285e+01 -0.0000000000000000e+00
-1.4066457748413086e-02 5.1965324282646179e+00 0.0000000000000000e+00
ITEM: ATOMS id type xs ys zs fx fy fz
1 1 0.968492 0.338257 0.593597 0 0.00306475 0
2 1 0.468492 0.338257 0.593597 0 0.00306463 -1.19209e-07
3 1 0.224688 0.296936 0.0935971 0 0.00154865 1.19209e-07
4 1 0.724688 0.296936 0.0935971 0 0.00154865 0
5 1 0.199941 0.461971 0.593597 0 -0.00800931 0
6 1 0.699941 0.461971 0.593597 0 -0.00800896 -2.38419e-07
7 1 0.956098 0.420909 0.0935971 0 0.000641108 1.19209e-07
8 1 0.456098 0.420909 0.0935971 0 0.000641227 1.19209e-07
9 1 0.931393 0.585665 0.593597 0 -0.000641108 0
10 1 0.431393 0.585665 0.593597 0 -0.000641346 0
11 1 0.162803 0.709638 0.593597 0 -0.00154829 0
12 1 0.662803 0.709638 0.593597 0 -0.00154877 -4.76837e-07
13 1 0.918999 0.668317 0.0935971 0 -0.00306618 1.19209e-07
14 1 0.18755 0.544603 0.0935971 0 0.00800955 0
15 1 0.68755 0.544603 0.0935971 0 0.00800991 -1.19209e-07
16 1 0.418999 0.668317 0.0935971 0 -0.0030663 2.38419e-07
17 1 0.894088 0.834449 0.593597 0 -0.00573027 2.38419e-07
18 1 0.394088 0.834449 0.593597 0 -0.00573075 0
19 1 0.125176 0.960565 0.593597 0 -0.00750864 2.38419e-07
20 1 0.625176 0.960565 0.593597 0 -0.00750899 0
21 1 0.150518 0.791565 0.0935971 0 0.000840664 -1.19209e-07
22 1 0.650518 0.791565 0.0935971 0 0.000840783 1.19209e-07
23 1 0.882207 0.913681 0.0935971 0 0.00214612 -1.19209e-07
24 1 0.382207 0.913681 0.0935971 0 0.00214636 -1.19209e-07
25 1 0.00528458 0.0928929 0.593597 0 -0.00214684 -5.96046e-07
26 1 0.505284 0.0928929 0.593597 0 -0.0021466 0
27 1 0.262315 0.046009 0.0935971 0 0.00750875 2.38419e-07
28 1 0.762315 0.046009 0.093597 0 0.00750875 2.38419e-07
29 1 0.236973 0.215009 0.593597 0 -0.000839829 2.38419e-07
30 1 0.736973 0.215009 0.593597 0 -0.000839829 0
31 1 0.993404 0.172126 0.0935971 0 0.00573111 -1.19209e-07
32 1 0.493403 0.172126 0.0935971 0 0.00573099 0
ITEM: TIMESTEP
5
ITEM: NUMBER OF ATOMS
32
ITEM: BOX BOUNDS xy xz yz pp pp pp
-2.1013021469116211e-03 7.3561478853225708e+00 9.5949757099151611e-01
-4.1524946689605713e-02 2.2124402940273285e+01 -0.0000000000000000e+00
-1.4066457748413086e-02 5.1965324282646179e+00 0.0000000000000000e+00
ITEM: ATOMS id type xs ys zs fx fy fz
1 1 0.968478 0.33835 0.593597 0 -0.00406361 -1.19209e-07
2 1 0.468478 0.33835 0.593597 0 -0.00406349 1.19209e-07
3 1 0.224681 0.296983 0.0935971 0 0.00352156 -2.38419e-07
4 1 0.724681 0.296983 0.0935971 0 0.00352132 0
5 1 0.199962 0.46183 0.593597 0 0.00184345 0
6 1 0.699962 0.46183 0.593597 0 0.00184369 1.19209e-07
7 1 0.956087 0.420986 0.0935971 0 0.000771999 1.19209e-07
8 1 0.456087 0.420986 0.0935971 0 0.000771999 -1.19209e-07
9 1 0.931404 0.585589 0.593597 0 -0.00077188 -1.19209e-07
10 1 0.431404 0.585589 0.593597 0 -0.00077188 2.38419e-07
11 1 0.16281 0.709592 0.593597 0 -0.0035212 0
12 1 0.66281 0.709592 0.593597 0 -0.00352097 3.57628e-07
13 1 0.919013 0.668224 0.0935971 0 0.00406456 -1.19209e-07
14 1 0.187529 0.544745 0.0935971 0 -0.00184429 1.19209e-07
15 1 0.687529 0.544745 0.0935971 0 -0.00184441 -2.38419e-07
16 1 0.419013 0.668224 0.0935971 0 0.0040642 -3.57628e-07
17 1 0.894107 0.83432 0.593597 0 -0.00259364 0
18 1 0.394107 0.83432 0.593597 0 -0.00259316 -2.38419e-07
19 1 0.125201 0.9604 0.593597 0 -8.88109e-05 0
20 1 0.625201 0.9604 0.593597 0 -8.84533e-05 -1.19209e-07
21 1 0.15052 0.791553 0.0935971 0 -0.000279427 1.19209e-07
22 1 0.65052 0.791553 0.0935971 0 -0.000279784 0
23 1 0.8822 0.913726 0.0935971 0 0.00149107 0
24 1 0.3822 0.913726 0.093597 0 0.00149119 1.19209e-07
25 1 0.00529126 0.0928484 0.593597 0 -0.00149083 7.15256e-07
26 1 0.505291 0.0928483 0.593597 0 -0.00149107 1.19209e-07
27 1 0.26229 0.0461748 0.0935971 0 8.9407e-05 -2.38419e-07
28 1 0.76229 0.0461748 0.0935971 0 8.90493e-05 -2.38419e-07
29 1 0.236971 0.215021 0.593597 0 0.000279188 2.38419e-07
30 1 0.736971 0.215021 0.593597 0 0.00027895 -1.19209e-07
31 1 0.993384 0.172255 0.0935971 0 0.00259256 -2.38419e-07
32 1 0.493384 0.172255 0.0935971 0 0.00259268 1.19209e-07
ITEM: TIMESTEP
6
ITEM: NUMBER OF ATOMS
32
ITEM: BOX BOUNDS xy xz yz pp pp pp
-2.1013021469116211e-03 7.3561478853225708e+00 9.5949757099151611e-01
-4.1524946689605713e-02 2.2124402940273285e+01 -0.0000000000000000e+00
-1.4066457748413086e-02 5.1965324282646179e+00 0.0000000000000000e+00
ITEM: ATOMS id type xs ys zs fx fy fz
1 1 0.968487 0.338291 0.593597 0 0.000215292 0
2 1 0.468487 0.338291 0.593597 0 0.000215292 -1.19209e-07
3 1 0.224668 0.297068 0.0935971 0 0.00114095 3.57628e-07
4 1 0.724668 0.297068 0.0935971 0 0.00114119 -3.57628e-07
5 1 0.199962 0.461831 0.593597 0 -0.000114322 2.38419e-07
6 1 0.699962 0.461831 0.593597 0 -0.000115037 2.38419e-07
7 1 0.956081 0.421021 0.0935971 0 7.22408e-05 -5.96046e-07
8 1 0.456081 0.421021 0.0935971 0 7.22408e-05 0
9 1 0.93141 0.585553 0.593597 0 -7.236e-05 1.19209e-07
10 1 0.43141 0.585553 0.593597 0 -7.20024e-05 -2.38419e-07
11 1 0.162823 0.709507 0.593597 0 -0.00114167 -1.19209e-07
12 1 0.662823 0.709507 0.593597 0 -0.00114155 0
13 1 0.919004 0.668284 0.0935971 0 -0.000215292 -2.38419e-07
14 1 0.187529 0.544743 0.0935971 0 0.000114322 -1.19209e-07
15 1 0.687529 0.544743 0.0935971 0 0.000114441 1.19209e-07
16 1 0.419004 0.668284 0.0935971 0 -0.000214815 1.19209e-07
17 1 0.89412 0.834233 0.593597 0 7.02143e-05 -1.19209e-07
18 1 0.39412 0.834233 0.593597 0 7.03335e-05 1.19209e-07
19 1 0.125208 0.960355 0.593597 0 2.68221e-05 -1.19209e-07
20 1 0.625208 0.960355 0.593597 0 2.67029e-05 0
21 1 0.150521 0.791544 0.0935971 0 0.0014497 1.19209e-07
22 1 0.650521 0.791544 0.0935971 0 0.00145018 0
23 1 0.882194 0.913768 0.0935971 0 -0.00158358 1.19209e-07
24 1 0.382194 0.913768 0.0935971 0 -0.00158393 2.38419e-07
25 1 0.00529761 0.092806 0.593597 0 0.0015837 -1.19209e-07
26 1 0.505297 0.092806 0.593597 0 0.00158417 -2.38419e-07
27 1 0.262283 0.0462197 0.0935971 0 -2.75373e-05 1.19209e-07
28 1 0.762283 0.0462197 0.093597 0 -2.74181e-05 1.19209e-07
29 1 0.23697 0.21503 0.593597 0 -0.00145018 -4.76837e-07
30 1 0.73697 0.21503 0.593597 0 -0.00145006 2.38419e-07
31 1 0.993371 0.172342 0.093597 0 -6.92606e-05 5.96046e-07
32 1 0.493371 0.172342 0.0935971 0 -6.87838e-05 0
ITEM: TIMESTEP
7
ITEM: NUMBER OF ATOMS
32
ITEM: BOX BOUNDS xy xz yz pp pp pp
-2.1013021469116211e-03 7.3561478853225708e+00 9.5949757099151611e-01
-4.1524946689605713e-02 2.2124402940273285e+01 -0.0000000000000000e+00
-1.4066457748413086e-02 5.1965324282646179e+00 0.0000000000000000e+00
ITEM: ATOMS id type xs ys zs fx fy fz
1 1 0.968487 0.338288 0.593597 0 6.19888e-05 0
2 1 0.468487 0.338288 0.593597 0 6.1512e-05 -1.19209e-07
3 1 0.224665 0.297088 0.0935971 0 4.12464e-05 0
4 1 0.724665 0.297088 0.0935971 0 4.1604e-05 1.19209e-07
5 1 0.199962 0.46183 0.593597 0 -0.000172377 -1.19209e-07
6 1 0.699962 0.46183 0.593597 0 -0.000172257 -2.38419e-07
7 1 0.956081 0.421025 0.0935971 0 0.000261903 0
8 1 0.456081 0.421025 0.0935971 0 0.000261784 0
9 1 0.93141 0.585549 0.593597 0 -0.000262141 -1.19209e-07
10 1 0.43141 0.585549 0.593597 0 -0.000261784 -2.38419e-07
11 1 0.162826 0.709486 0.593597 0 -4.13656e-05 1.19209e-07
12 1 0.662826 0.709486 0.593597 0 -4.12464e-05 0
13 1 0.919004 0.668286 0.0935971 0 -6.17504e-05 3.57628e-07
14 1 0.187529 0.544744 0.0935971 0 0.000172257 0
15 1 0.687529 0.544744 0.0935971 0 0.000172257 1.19209e-07
16 1 0.419004 0.668286 0.0935971 0 -6.17504e-05 1.19209e-07
17 1 0.894121 0.834226 0.593597 0 -0.000180125 1.19209e-07
18 1 0.394121 0.834226 0.593597 0 -0.000180244 2.38419e-07
19 1 0.125209 0.960351 0.593597 0 0.000524998 0
20 1 0.625209 0.960351 0.593597 0 0.000524998 0
21 1 0.150519 0.791561 0.0935971 0 -0.000142217 0
22 1 0.650519 0.791561 0.0935971 0 -0.000142574 -2.38419e-07
23 1 0.882196 0.913753 0.0935971 0 -7.25985e-05 0
24 1 0.382196 0.913753 0.0935971 0 -7.27177e-05 -1.19209e-07
25 1 0.00529529 0.0928215 0.593597 0 7.236e-05 -1.19209e-07
26 1 0.505295 0.0928215 0.593597 0 7.22408e-05 0
27 1 0.262283 0.0462231 0.0935971 0 -0.000524521 0
28 1 0.762283 0.0462231 0.0935971 0 -0.000524879 0
29 1 0.236973 0.215013 0.593597 0 0.000142455 -1.19209e-07
30 1 0.736972 0.215013 0.593597 0 0.000142932 0
31 1 0.99337 0.172348 0.0935971 0 0.000180006 1.19209e-07
32 1 0.49337 0.172348 0.0935971 0 0.000180006 1.19209e-07
ITEM: TIMESTEP
8
ITEM: NUMBER OF ATOMS
32
ITEM: BOX BOUNDS xy xz yz pp pp pp
-2.1013021469116211e-03 7.3561478853225708e+00 9.5949757099151611e-01
-4.1524946689605713e-02 2.2124402940273285e+01 -0.0000000000000000e+00
-1.4066457748413086e-02 5.1965324282646179e+00 0.0000000000000000e+00
ITEM: ATOMS id type xs ys zs fx fy fz
1 1 0.968487 0.338289 0.593597 0 2.57492e-05 -1.19209e-07
2 1 0.468487 0.338289 0.593597 0 2.63453e-05 1.19209e-07
3 1 0.224665 0.297092 0.0935971 0 6.06775e-05 -1.19209e-07
4 1 0.724665 0.297092 0.0935971 0 6.04391e-05 0
5 1 0.199963 0.461827 0.593597 0 -2.6226e-05 -2.38419e-07
6 1 0.699963 0.461827 0.593597 0 -2.67029e-05 0
7 1 0.95608 0.421031 0.0935971 0 8.45194e-05 1.19209e-07
8 1 0.45608 0.421031 0.0935971 0 8.47578e-05 0
9 1 0.931411 0.585544 0.593597 0 -8.41618e-05 1.19209e-07
10 1 0.431411 0.585544 0.593597 0 -8.47578e-05 1.19209e-07
11 1 0.162826 0.709483 0.593597 0 -6.06775e-05 1.19209e-07
12 1 0.662826 0.709483 0.593597 0 -6.04391e-05 0
13 1 0.919004 0.668285 0.0935971 0 -2.64645e-05 -4.76837e-07
14 1 0.187529 0.544748 0.0935971 0 2.63453e-05 1.19209e-07
15 1 0.687529 0.544748 0.0935971 0 2.65837e-05 1.19209e-07
16 1 0.419004 0.668285 0.0935971 0 -2.59876e-05 -1.19209e-07
17 1 0.894122 0.834222 0.593597 0 0.000109911 0
18 1 0.394122 0.834222 0.593597 0 0.000109911 0
19 1 0.125207 0.960361 0.593597 0 -0.000106692 0
20 1 0.625207 0.960361 0.593597 0 -0.000106573 1.19209e-07
21 1 0.150519 0.79156 0.0935971 0 -0.000223994 0
22 1 0.650519 0.79156 0.0935971 0 -0.00022316 0
23 1 0.882196 0.91375 0.0935971 0 -0.000162721 0
24 1 0.382196 0.91375 0.0935971 0 -0.000162482 0
25 1 0.00529481 0.0928247 0.593597 0 0.000163078 1.19209e-07
26 1 0.505295 0.0928247 0.593597 0 0.00016284 2.38419e-07
27 1 0.262284 0.0462134 0.0935971 0 0.000106335 0
28 1 0.762284 0.0462134 0.0935971 0 0.000106931 0
29 1 0.236972 0.215014 0.593597 0 0.000223637 2.38419e-07
30 1 0.736972 0.215014 0.593597 0 0.000223279 0
31 1 0.99337 0.172352 0.0935971 0 -0.00011003 -1.19209e-07
32 1 0.49337 0.172352 0.0935971 0 -0.000110269 -3.57628e-07
ITEM: TIMESTEP
9
ITEM: NUMBER OF ATOMS
32
ITEM: BOX BOUNDS xy xz yz pp pp pp
-2.1013021469116211e-03 7.3561478853225708e+00 9.5949757099151611e-01
-4.1524946689605713e-02 2.2124402940273285e+01 -0.0000000000000000e+00
-1.4066457748413086e-02 5.1965324282646179e+00 0.0000000000000000e+00
ITEM: ATOMS id type xs ys zs fx fy fz
1 1 0.968487 0.33829 0.593597 0 9.42945e-05 1.19209e-07
2 1 0.468487 0.33829 0.593597 0 9.39369e-05 -1.19209e-07
3 1 0.224664 0.297094 0.0935971 0 4.04119e-05 -1.19209e-07
4 1 0.724664 0.297094 0.0935971 0 4.00543e-05 1.19209e-07
5 1 0.199963 0.461825 0.593597 0 4.07696e-05 2.38419e-07
6 1 0.699963 0.461825 0.593597 0 4.12464e-05 1.19209e-07
7 1 0.956079 0.421034 0.0935971 0 -2.90871e-05 0
8 1 0.456079 0.421034 0.0935971 0 -2.95639e-05 -1.19209e-07
9 1 0.931412 0.58554 0.593597 0 2.88486e-05 -1.19209e-07
10 1 0.431412 0.58554 0.593597 0 2.90871e-05 1.19209e-07
11 1 0.162827 0.70948 0.593597 0 -4.01735e-05 -2.38419e-07
12 1 0.662827 0.70948 0.593597 0 -4.05312e-05 -2.38419e-07
13 1 0.919004 0.668284 0.0935971 0 -9.36985e-05 2.38419e-07
14 1 0.187528 0.54475 0.0935971 0 -4.04119e-05 -2.38419e-07
15 1 0.687528 0.54475 0.0935971 0 -4.12464e-05 0
16 1 0.419004 0.668284 0.0935971 0 -9.4533e-05 1.19209e-07
17 1 0.894121 0.834224 0.593597 0 -6.06775e-05 -1.19209e-07
18 1 0.394121 0.834224 0.593597 0 -6.02007e-05 -1.19209e-07
19 1 0.125207 0.960362 0.593597 0 -9.29832e-06 1.19209e-07
20 1 0.625207 0.960362 0.593597 0 -1.01328e-05 -1.19209e-07
21 1 0.15052 0.791555 0.0935971 0 -4.58956e-05 1.19209e-07
22 1 0.65052 0.791555 0.0935971 0 -4.66108e-05 1.19209e-07
23 1 0.882197 0.913745 0.0935971 0 3.70741e-05 -1.19209e-07
24 1 0.382197 0.913745 0.0935971 0 3.65973e-05 2.38419e-07
25 1 0.00529411 0.0928294 0.593597 0 -3.69549e-05 -1.19209e-07
26 1 0.505294 0.0928294 0.593597 0 -3.63588e-05 -4.76837e-07
27 1 0.262284 0.0462128 0.0935971 0 9.41753e-06 1.19209e-07
28 1 0.762284 0.0462129 0.0935971 0 8.9407e-06 2.38419e-07
29 1 0.236972 0.215019 0.593597 0 4.63724e-05 -3.57628e-07
30 1 0.736972 0.215019 0.593597 0 4.58956e-05 0
31 1 0.99337 0.172351 0.0935971 0 6.11544e-05 0
32 1 0.49337 0.172351 0.093597 0 6.12736e-05 5.96046e-07
ITEM: TIMESTEP
10
ITEM: NUMBER OF ATOMS
32
ITEM: BOX BOUNDS xy xz yz pp pp pp
-2.1013021469116211e-03 7.3561478853225708e+00 9.5949757099151611e-01
-4.1524946689605713e-02 2.2124402940273285e+01 -0.0000000000000000e+00
-1.4066457748413086e-02 5.1965324282646179e+00 0.0000000000000000e+00
ITEM: ATOMS id type xs ys zs fx fy fz
1 1 0.968487 0.338293 0.593597 0 -2.26498e-06 -1.19209e-07
2 1 0.468487 0.338293 0.593597 0 -2.26498e-06 1.19209e-07
3 1 0.224664 0.297096 0.0935971 0 2.26498e-06 1.19209e-07
4 1 0.724664 0.297096 0.0935971 0 2.74181e-06 -4.76837e-07
5 1 0.199963 0.461826 0.593597 0 4.62532e-05 -1.19209e-07
6 1 0.699963 0.461826 0.593597 0 4.6134e-05 -1.19209e-07
7 1 0.956079 0.421034 0.0935971 0 2.28882e-05 0
8 1 0.456079 0.421034 0.0935971 0 2.38419e-05 3.57628e-07
9 1 0.931412 0.58554 0.593597 0 -2.31266e-05 0
10 1 0.431412 0.58554 0.593597 0 -2.3365e-05 -2.38419e-07
11 1 0.162827 0.709479 0.593597 0 -2.38419e-06 1.19209e-07
12 1 0.662827 0.709479 0.593597 0 -2.14577e-06 4.76837e-07
13 1 0.919005 0.668281 0.0935971 0 2.14577e-06 -2.38419e-07
14 1 0.187528 0.544749 0.0935971 0 -4.68493e-05 2.38419e-07
15 1 0.687528 0.544749 0.0935971 0 -4.58956e-05 0
16 1 0.419005 0.668281 0.0935971 0 2.74181e-06 -2.38419e-07
17 1 0.894122 0.834222 0.593597 0 -2.65837e-05 -1.19209e-07
18 1 0.394122 0.834222 0.593597 0 -2.77758e-05 1.19209e-07
19 1 0.125207 0.960361 0.593597 0 -3.1352e-05 0
20 1 0.625207 0.960361 0.593597 0 -2.99215e-05 1.19209e-07
21 1 0.15052 0.791552 0.0935971 0 2.96831e-05 0
22 1 0.65052 0.791552 0.0935971 0 3.016e-05 -1.19209e-07
23 1 0.882197 0.913745 0.0935971 0 -4.24385e-05 1.19209e-07
24 1 0.382197 0.913745 0.0935971 0 -4.13656e-05 -1.19209e-07
25 1 0.0052941 0.0928294 0.593597 0 4.1604e-05 3.57628e-07
26 1 0.505294 0.0928294 0.593597 0 4.01735e-05 7.15256e-07
27 1 0.262284 0.046213 0.0935971 0 3.14713e-05 -4.76837e-07
28 1 0.762284 0.046213 0.0935971 0 3.21865e-05 -3.57628e-07
29 1 0.236971 0.215022 0.593597 0 -2.96831e-05 3.57628e-07
30 1 0.736971 0.215022 0.593597 0 -2.90871e-05 1.19209e-07
31 1 0.99337 0.172352 0.0935971 0 2.59876e-05 -1.19209e-07
32 1 0.493369 0.172352 0.0935971 0 2.6226e-05 -4.76837e-07
ITEM: TIMESTEP
11
ITEM: NUMBER OF ATOMS
32
ITEM: BOX BOUNDS xy xz yz pp pp pp
-2.1013021469116211e-03 7.3561478853225708e+00 9.5949757099151611e-01
-4.1524946689605713e-02 2.2124402940273285e+01 -0.0000000000000000e+00
-1.4066457748413086e-02 5.1965324282646179e+00 0.0000000000000000e+00
ITEM: ATOMS id type xs ys zs fx fy fz
1 1 0.968487 0.338293 0.593597 0 -1.0252e-05 1.19209e-07
2 1 0.468487 0.338293 0.593597 0 -9.53674e-06 0
3 1 0.224664 0.297096 0.0935971 0 6.91414e-06 0
4 1 0.724664 0.297096 0.0935971 0 6.91414e-06 1.19209e-07
5 1 0.199963 0.461826 0.593597 0 -6.31809e-06 0
6 1 0.699963 0.461826 0.593597 0 -6.4373e-06 4.76837e-07
7 1 0.956079 0.421035 0.0935971 0 1.3113e-06 -1.19209e-07
8 1 0.456079 0.421035 0.0935971 0 9.53674e-07 -1.19209e-07
9 1 0.931412 0.58554 0.593597 0 -5.96046e-07 2.38419e-07
10 1 0.431412 0.58554 0.593597 0 -9.53674e-07 0
11 1 0.162827 0.709478 0.593597 0 -6.79493e-06 2.38419e-07
12 1 0.662827 0.709478 0.593597 0 -6.79493e-06 -1.19209e-07
13 1 0.919005 0.668281 0.0935971 0 9.77516e-06 0
14 1 0.187529 0.544748 0.0935971 0 5.36442e-06 0
15 1 0.687529 0.544748 0.0935971 0 6.55651e-06 -2.38419e-07
16 1 0.419005 0.668281 0.0935971 0 1.0252e-05 0
17 1 0.894122 0.834221 0.593597 0 -1.51396e-05 3.57628e-07
18 1 0.394122 0.834221 0.593597 0 -1.49012e-05 1.19209e-07
19 1 0.125207 0.960361 0.593597 0 1.43051e-06 -1.19209e-07
20 1 0.625207 0.960361 0.593597 0 1.19209e-06 0
21 1 0.15052 0.791552 0.0935971 0 -7.15256e-07 -5.96046e-07
22 1 0.65052 0.791552 0.0935971 0 -5.96046e-07 -2.38419e-07
23 1 0.882197 0.913744 0.0935971 0 3.57628e-06 1.19209e-07
24 1 0.382197 0.913744 0.0935971 0 3.09944e-06 -1.19209e-07
25 1 0.00529402 0.09283 0.593597 0 -2.74181e-06 0
26 1 0.505294 0.09283 0.593597 0 -2.98023e-06 1.19209e-07
27 1 0.262284 0.0462134 0.0935971 0 -1.54972e-06 3.57628e-07
28 1 0.762284 0.0462135 0.0935971 0 -1.78814e-06 -1.19209e-07
29 1 0.236971 0.215022 0.593597 0 4.76837e-07 1.19209e-07
30 1 0.736971 0.215022 0.593597 0 4.76837e-07 -2.38419e-07
31 1 0.993369 0.172353 0.0935971 0 1.51396e-05 -1.19209e-07
32 1 0.493369 0.172353 0.0935971 0 1.46627e-05 -2.38419e-07
ITEM: TIMESTEP
12
ITEM: NUMBER OF ATOMS
32
ITEM: BOX BOUNDS xy xz yz pp pp pp
-2.1013021469116211e-03 7.3561478853225708e+00 9.5949757099151611e-01
-4.1524946689605713e-02 2.2124402940273285e+01 -0.0000000000000000e+00
-1.4066457748413086e-02 5.1965324282646179e+00 0.0000000000000000e+00
ITEM: ATOMS id type xs ys zs fx fy fz
1 1 0.968487 0.338293 0.593597 0 2.5034e-06 -3.57628e-07
2 1 0.468487 0.338293 0.593597 0 2.02656e-06 0
3 1 0.224664 0.297096 0.0935971 0 4.64916e-06 2.38419e-07
4 1 0.724664 0.297096 0.0935971 0 5.00679e-06 0
5 1 0.199963 0.461826 0.593597 0 -5.60284e-06 -1.19209e-07
6 1 0.699963 0.461826 0.593597 0 -5.60284e-06 -5.96046e-07
7 1 0.956079 0.421035 0.0935971 0 1.54972e-06 1.19209e-07
8 1 0.456079 0.421035 0.0935971 0 2.14577e-06 1.19209e-07
9 1 0.931412 0.58554 0.593597 0 -2.6226e-06 -1.19209e-07
10 1 0.431412 0.58554 0.593597 0 -1.54972e-06 0
11 1 0.162827 0.709478 0.593597 0 -4.52995e-06 -3.57628e-07
12 1 0.662827 0.709478 0.593597 0 -4.76837e-06 2.38419e-07
13 1 0.919005 0.668281 0.0935971 0 -2.38419e-06 2.38419e-07
14 1 0.187529 0.544748 0.0935971 0 6.31809e-06 1.19209e-07
15 1 0.687529 0.544748 0.0935971 0 5.48363e-06 1.19209e-07
16 1 0.419005 0.668281 0.0935971 0 -2.6226e-06 -2.38419e-07
17 1 0.894122 0.834221 0.593597 0 3.09944e-06 -5.96046e-07
18 1 0.394122 0.834221 0.593597 0 2.98023e-06 -3.57628e-07
19 1 0.125207 0.960361 0.593597 0 -5.72205e-06 0
20 1 0.625207 0.960361 0.593597 0 -5.84126e-06 1.19209e-07
21 1 0.15052 0.791552 0.093597 0 2.38419e-06 7.15256e-07
22 1 0.65052 0.791552 0.093597 0 2.5034e-06 3.57628e-07
23 1 0.882197 0.913744 0.0935971 0 -1.90735e-06 1.19209e-07
24 1 0.382197 0.913744 0.0935971 0 -1.66893e-06 0
25 1 0.00529402 0.09283 0.593597 0 9.53674e-07 -2.38419e-07
26 1 0.505294 0.0928299 0.593597 0 1.66893e-06 0
27 1 0.262284 0.0462135 0.0935971 0 5.96046e-06 -1.19209e-07
28 1 0.762284 0.0462135 0.0935971 0 6.19888e-06 1.19209e-07
29 1 0.236971 0.215022 0.593597 0 -2.5034e-06 0
30 1 0.736971 0.215022 0.593597 0 -2.26498e-06 1.19209e-07
31 1 0.993369 0.172353 0.093597 0 -2.98023e-06 2.38419e-07
32 1 0.493369 0.172353 0.0935971 0 -2.86102e-06 1.19209e-07
ITEM: TIMESTEP
13
ITEM: NUMBER OF ATOMS
32
ITEM: BOX BOUNDS xy xz yz pp pp pp
-2.1013021469116211e-03 7.3561478853225708e+00 9.5949757099151611e-01
-4.1524946689605713e-02 2.2124402940273285e+01 -0.0000000000000000e+00
-1.4066457748413086e-02 5.1965324282646179e+00 0.0000000000000000e+00
ITEM: ATOMS id type xs ys zs fx fy fz
1 1 0.968487 0.338293 0.593597 0 2.38419e-07 1.19209e-07
2 1 0.468487 0.338293 0.593597 0 0 0
3 1 0.224664 0.297096 0.0935971 0 1.19209e-07 -1.19209e-07
4 1 0.724664 0.297096 0.0935971 0 2.38419e-07 0
5 1 0.199963 0.461826 0.593597 0 0 0
6 1 0.699963 0.461826 0.593597 0 2.38419e-07 -3.57628e-07
7 1 0.956079 0.421035 0.0935971 0 3.45707e-06 0
8 1 0.456079 0.421035 0.0935971 0 3.69549e-06 1.19209e-07
9 1 0.931412 0.58554 0.593597 0 -3.69549e-06 -2.38419e-07
10 1 0.431412 0.58554 0.593597 0 -4.17233e-06 0
11 1 0.162827 0.709478 0.593597 0 -3.57628e-07 -2.38419e-07
12 1 0.662827 0.709478 0.593597 0 -2.38419e-07 -1.19209e-07
13 1 0.919005 0.668281 0.0935971 0 -3.57628e-07 0
14 1 0.187529 0.544748 0.0935971 0 9.53674e-07 0
15 1 0.687529 0.544748 0.0935971 0 -2.38419e-07 2.38419e-07
16 1 0.419005 0.668281 0.0935971 0 -7.15256e-07 2.38419e-07
17 1 0.894122 0.834221 0.593597 0 1.66893e-06 1.19209e-07
18 1 0.394122 0.834221 0.593597 0 1.66893e-06 1.19209e-07
19 1 0.125207 0.960361 0.593597 0 -4.76837e-07 1.19209e-07
20 1 0.625207 0.960361 0.593597 0 2.38419e-07 0
21 1 0.15052 0.791552 0.0935971 0 -1.07288e-06 1.19209e-07
22 1 0.65052 0.791552 0.0935971 0 -1.3113e-06 1.19209e-07
23 1 0.882197 0.913744 0.0935971 0 1.90735e-06 -2.38419e-07
24 1 0.382197 0.913744 0.0935971 0 2.14577e-06 -1.19209e-07
25 1 0.00529402 0.09283 0.593597 0 -1.90735e-06 1.19209e-07
26 1 0.505294 0.09283 0.593597 0 -2.38419e-06 -1.19209e-07
27 1 0.262284 0.0462135 0.0935971 0 2.38419e-07 -1.19209e-07
28 1 0.762284 0.0462136 0.0935971 0 2.38419e-07 1.19209e-07
29 1 0.236971 0.215022 0.593597 0 1.54972e-06 2.38419e-07
30 1 0.736971 0.215022 0.593597 0 1.3113e-06 1.19209e-07
31 1 0.993369 0.172353 0.0935971 0 -1.3113e-06 -1.19209e-07
32 1 0.493369 0.172353 0.0935971 0 -1.66893e-06 -1.19209e-07
