LAMMPS (4 May 2022)
## variable
variable        temp            equal 400
variable        eql_step        equal 500000
variable        rd_seed         equal 3

variable        temp_damp       equal 0.2 # tau_NVT = timestep * 100
variable        t_step          equal 0.002
variable        rlx_step        equal 20000

variable        thermo_freq     equal 100
variable        dump_freq       equal 100

## units
dimension       3
boundary        p p p
units           metal
atom_style      atomic
neighbor        1.0 bin
neigh_modify    every 10 delay 0 check no

## data.lmp, potential
read_data       data.lmp
Reading data file ...
  orthogonal box = (0 0 0) to (26.16621 26.16621 25.2548)
  1 by 1 by 1 MPI processor grid
  reading atoms ...
  900 atoms
  read_data CPU = 0.002 seconds
pair_style      nvnmd model.pb
pair_coeff * *

## velocity, timestep
velocity        all create ${temp} ${rd_seed} loop geom
velocity        all create 400 ${rd_seed} loop geom
velocity        all create 400 3 loop geom
timestep        ${t_step}
timestep        0.002

## nvt-relax
fix             equil all nvt temp ${temp} ${temp} ${temp_damp}
fix             equil all nvt temp 400 ${temp} ${temp_damp}
fix             equil all nvt temp 400 400 ${temp_damp}
fix             equil all nvt temp 400 400 0.2
run             ${rlx_step}
run             20000
Generated 0 of 6 mixed pair_coeff terms from geometric mixing rule
Neighbor list info ...
  update every 10 steps, delay 0 steps, check no
  max neighbors/atom: 2000, page size: 100000
  master list distance cutoff = 8
  ghost atom cutoff = 8
  binsize = 4, bins = 7 7 7
  1 neighbor lists, perpetual/occasional/extra = 1 0 0
  (1) pair nvnmd, perpetual
      attributes: full, newton on
      pair build: full/bin/atomonly
      stencil: full/bin/3d
      bin: standard
Per MPI rank memory allocation (min/avg/max) = 3.057 | 3.057 | 3.057 Mbytes
   Step          Temp          E_pair         E_mol          TotEng         Press     
         0   400            201.17586      0              247.65781      16168.803    
     20000   404.46675      239.40732      0              286.40833      15705.153    
Loop time of 12.0864 on 1 procs for 20000 steps with 900 atoms

Performance: 285.942 ns/day, 0.084 hours/ns, 1654.755 timesteps/s
53.9% CPU use with 1 MPI tasks x no OpenMP threads

MPI task timing breakdown:
Section |  min time  |  avg time  |  max time  |%varavg| %total
---------------------------------------------------------------
Pair    | 7.7008     | 7.7008     | 7.7008     |   0.0 | 63.71
Neigh   | 4.0996     | 4.0996     | 4.0996     |   0.0 | 33.92
Comm    | 0.13764    | 0.13764    | 0.13764    |   0.0 |  1.14
Output  | 1.7687e-05 | 1.7687e-05 | 1.7687e-05 |   0.0 |  0.00
Modify  | 0.12438    | 0.12438    | 0.12438    |   0.0 |  1.03
Other   |            | 0.02388    |            |       |  0.20

Nlocal:            900 ave         900 max         900 min
Histogram: 1 0 0 0 0 0 0 0 0 0
Nghost:           2787 ave        2787 max        2787 min
Histogram: 1 0 0 0 0 0 0 0 0 0
Neighs:              0 ave           0 max           0 min
Histogram: 1 0 0 0 0 0 0 0 0 0
FullNghs:       100364 ave      100364 max      100364 min
Histogram: 1 0 0 0 0 0 0 0 0 0

Total # of neighbors = 100364
Ave neighs/atom = 111.51556
Neighbor list builds = 2000
Dangerous builds not checked
unfix           equil

## nvt-equal
reset_timestep  0
fix             equil all nvt temp ${temp} ${temp} ${temp_damp}
fix             equil all nvt temp 400 ${temp} ${temp_damp}
fix             equil all nvt temp 400 400 ${temp_damp}
fix             equil all nvt temp 400 400 0.2
fix             com all recenter INIT INIT INIT

## thermo_style
thermo_style    custom step time temp ke etotal press
thermo          ${thermo_freq}
thermo          100
thermo_modify   flush yes
dump            1 all custom ${dump_freq} dump.lammpstraj id type x y z
dump            1 all custom 100 dump.lammpstraj id type x y z
run             500000
Generated 0 of 6 mixed pair_coeff terms from geometric mixing rule
Per MPI rank memory allocation (min/avg/max) = 4.341 | 4.341 | 4.341 Mbytes
   Step          Time           Temp          KinEng         TotEng         Press     
         0   0              404.46675      47.001006      286.40833      15705.153    
       100   0.2            392.64159      45.626865      285.84575      15149.578    
       200   0.4            398.00405      46.250009      285.00285      14668.236    
       300   0.6            392.63557      45.626166      283.12786      14702.261    
       400   0.8            391.13893      45.452248      282.97331      15848.816    
       500   1              398.72667      46.333981      285.76597      15315.407    
       600   1.2            405.90934      47.168643      287.40468      16365.385    
       700   1.4            392.65435      45.628348      286.77325      14947.878    
       800   1.6            393.40869      45.716006      284.91315      15690.652    
       900   1.8            386.81496      44.949782      283.06662      15597.288    
      1000   2              401.21767      46.623447      283.61134      15126.226    
      1100   2.2            412.72599      47.96077       287.76863      16373.162    
      1200   2.4            398.05346      46.25575       288.68258      16980.615    
      1300   2.6            406.03523      47.183272      286.48467      15745.257    
      1400   2.8            376.07332      43.701552      284.35486      16899.142    
      1500   3              390.83295      45.416693      283.75561      16232.541    
      1600   3.2            393.28463      45.701589      284.49167      14571.399    
      1700   3.4            400.48401      46.538193      287.61859      15494.919    
      1800   3.6            427.62234      49.691798      287.93923      16887.014    
      1900   3.8            396.38949      46.062389      286.19759      13485.498    
      2000   4              404.42715      46.996404      285.17433      16655.357    
      2100   4.2            397.11351      46.146524      285.08711      16473.592    
      2200   4.4            403.67199      46.908651      285.45473      15415.909    
      2300   4.6            416.07137      48.349519      285.56432      16189.172    
      2400   4.8            391.78205      45.526983      285.35158      16196.385    
      2500   5              390.83581      45.417024      284.62191      15057.466    
      2600   5.2            414.2589       48.138902      284.74507      16936.942    
      2700   5.4            389.65686      45.280025      285.43499      15224.116    
      2800   5.6            397.34587      46.173525      286.98251      15469.936    
      2900   5.8            415.70004      48.306369      288.75966      16657.985    
      3000   6              396.81387      46.111704      287.28453      16542.87     
      3100   6.2            393.47887      45.724162      284.12922      14795.992    
      3200   6.4            389.84789      45.302223      283.85233      14986.538    
      3300   6.6            388.03263      45.091281      285.20907      15704.701    
      3400   6.8            412.0117       47.877766      286.90624      16058.328    
      3500   7              418.55019      48.637571      288.99167      16924.448    
      3600   7.2            430.56839      50.034144      290.82988      15589.198    
      3700   7.4            403.93783      46.939543      287.38212      14888.282    
      3800   7.6            404.65221      47.022558      285.54193      14679.638    
      3900   7.8            406.48431      47.235456      284.97089      15323.77     
      4000   8              391.49928      45.494123      284.48277      14786.302    
      4100   8.2            395.48566      45.957359      285.48939      14958.148    
      4200   8.4            422.05213      49.044513      287.63492      14988.972    
      4300   8.6            401.25762      46.62809       288.18716      15287.683    
      4400   8.8            405.66926      47.140744      285.40711      15160.134    
      4500   9              393.09528      45.679586      283.16136      14300.094    
      4600   9.2            390.41294      45.367885      283.43784      15160.223    
      4700   9.4            402.5782       46.781547      285.42788      16844.246    
      4800   9.6            423.63305      49.228224      287.04398      15392.069    
      4900   9.8            408.73212      47.496663      286.21299      16450.818    
      5000   10             385.16702      44.758283      281.85416      15748.859    
      5100   10.2           394.05567      45.791188      281.82246      15520.088    
      5200   10.4           394.82823      45.880963      284.14636      16110.74     
      5300   10.6           411.95264      47.870903      285.92721      15186.545    
      5400   10.8           415.90088      48.329708      286.49804      15715.316    
      5500   11             405.07663      47.071877      284.96063      15904.076    
      5600   11.2           390.08158      45.32938       281.66979      15505.186    
      5700   11.4           386.73544      44.940542      282.02268      15432.991    
      5800   11.6           400.60299      46.552018      284.0888       15468.98     
      5900   11.8           403.98453      46.94497       285.57833      15579.041    
      6000   12             412.5345       47.938518      286.16715      15420.154    
      6100   12.2           389.71428      45.286698      285.40523      14945.506    
      6200   12.4           382.33593      44.429298      282.21463      15651.563    
      6300   12.6           368.76801      42.852639      281.39077      16190.995    
      6400   12.8           408.4849       47.467935      283.37034      15076.838    
      6500   13             397.87575      46.2351        284.77951      16212.242    
      6600   13.2           386.92499      44.962568      285.16623      16362.568    
      6700   13.4           400.07132      46.490236      285.41801      14579.193    
      6800   13.6           390.29294      45.35394       285.60377      15317.891    
      6900   13.8           384.87457      44.724299      284.79815      15398.06     
      7000   14             400.04469      46.487142      284.06999      16304.789    
      7100   14.2           404.60321      47.016864      284.64507      15858.601    
      7200   14.4           405.55056      47.12695       286.48953      15765.871    
      7300   14.6           401.78622      46.689515      288.02487      15344.29     
      7400   14.8           412.57905      47.943695      287.0207       16941.514    
      7500   15             397.59198      46.202124      283.54034      13972.319    
      7600   15.2           390.05048      45.325765      283.18031      15029.733    
      7700   15.4           386.61065      44.92604       284.79227      15858.566    
      7800   15.6           413.83253      48.089355      286.73003      15340.616    
      7900   15.8           417.82086      48.552819      287.31147      14106.826    
      8000   16             406.33018      47.217546      284.36735      16608.142    
      8100   16.2           394.04251      45.789659      281.96764      15456.045    
      8200   16.4           400.43601      46.532614      283.44007      14719.216    
      8300   16.6           409.32183      47.56519       285.78108      16096.747    
      8400   16.8           412.05003      47.88222       286.31638      14607.625    
      8500   17             403.28941      46.864193      285.65234      14789.184    
      8600   17.2           390.42301      45.369055      282.84239      15121.985    
      8700   17.4           386.58829      44.923442      281.96556      16348.456    
      8800   17.6           401.82853      46.694432      284.00306      14910.307    
      8900   17.8           405.90721      47.168395      286.33163      15603.355    
      9000   18             401.18556      46.619716      286.39447      15557.449    
      9100   18.2           387.97943      45.085099      285.34938      13978.861    
      9200   18.4           393.68131      45.747686      283.53052      16988.386    
      9300   18.6           382.62842      44.463286      282.57216      14751.252    
      9400   18.8           406.09248      47.189923      284.35654      15576.08     
      9500   19             409.64932      47.603246      287.30919      14993.176    
      9600   19.2           416.7376       48.426938      287.18658      17425.638    
      9700   19.4           393.40077      45.715085      284.95878      14597.11     
      9800   19.6           408.23787      47.439229      283.49521      16120.697    
      9900   19.8           406.96634      47.291471      283.58448      14501.974    
     10000   20             395.60515      45.971245      284.36551      14218.282    
     10100   20.2           415.1398       48.241266      285.0547       14378.841    
     10200   20.4           400.35256      46.522917      285.12331      15818.358    
     10300   20.6           407.56089      47.36056       284.82013      13678.231    
     10400   20.8           381.33552      44.313045      282.34857      14976.039    
     10500   21             384.92678      44.730367      281.07061      16180.095    
     10600   21.2           376.16226      43.711887      283.06968      15358.212    
     10700   21.4           401.29512      46.632447      285.47817      15179.732    
     10800   21.6           412.44785      47.928449      285.92914      17346.564    
     10900   21.8           405.62018      47.135041      284.9889       13582.727    
     11000   22             393.96073      45.780156      282.06514      15036.178    
     11100   22.2           397.36551      46.175807      281.3054       16236.98     
     11200   22.4           396.9399       46.12635       282.96343      15479.394    
     11300   22.6           407.61404      47.366737      284.03488      15488.082    
     11400   22.8           401.32932      46.636422      284.92996      14705.954    
     11500   23             399.8156       46.46052       286.27303      15263.993    
     11600   23.2           417.22952      48.484102      287.39506      14862.42     
     11700   23.4           402.22595      46.740614      285.91386      15534.756    
     11800   23.6           397.5088       46.192459      283.08211      13584.315    
     11900   23.8           392.96956      45.664977      282.43128      15076.803    
     12000   24             399.41355      46.4138        284.24011      15355.611    
     12100   24.2           412.66115      47.953236      286.28639      15115.99     
     12200   24.4           405.12244      47.0772        286.16555      15895.775    
     12300   24.6           413.58753      48.060886      285.37628      15046.357    
     12400   24.8           407.54518      47.358734      284.0115       14569.315    
     12500   25             396.48497      46.073484      282.82477      15867.003    
     12600   25.2           379.99245      44.156973      280.83609      13637.216    
     12700   25.4           400.48957      46.538838      279.89937      15000.948    
     12800   25.6           398.95544      46.360565      282.76514      13892.573    
     12900   25.8           405.10358      47.075009      284.73019      15532.006    
     13000   26             403.57293      46.89714       285.20509      14426.028    
     13100   26.2           396.47132      46.071899      284.5167       14505.961    
     13200   26.4           404.16289      46.965696      282.70197      15422.71     
     13300   26.6           384.02273      44.625311      281.08151      15284.557    
     13400   26.8           401.38468      46.642855      283.44979      15648.224    
     13500   27             397.93301      46.241754      285.7966       15279.464    
     13600   27.2           410.44329      47.695509      285.56334      14761.37     
     13700   27.4           399.15356      46.383587      283.89076      16151.096    
     13800   27.6           386.97075      44.967885      282.0314       15108.139    
     13900   27.8           389.6999       45.285026      282.14978      14357.897    
     14000   28             423.54823      49.218367      286.27571      13648.929    
     14100   28.2           403.61647      46.9022        286.8684       18049.771    
     14200   28.4           398.26369      46.28018       285.17732      15417.25     
     14300   28.6           403.50546      46.8893        283.17726      15700.437    
     14400   28.8           402.88039      46.816663      282.67384      16307.326    
     14500   29             395.18175      45.922043      284.37708      14885.949    
     14600   29.2           417.45536      48.510346      287.8892       16875.19     
     14700   29.4           397.37879      46.17735       286.98015      17519.318    
     14800   29.6           414.12129      48.122911      284.938        15562.286    
     14900   29.8           377.38874      43.85441       283.61434      13176.376    
     15000   30             394.10452      45.796865      283.93713      17597.628    
     15100   30.2           399.12852      46.380678      287.06895      15758.374    
     15200   30.4           403.77305      46.920395      288.93995      15598.191    
     15300   30.6           408.0697       47.419687      287.2362       17472.125    
     15400   30.8           392.3015       45.587345      285.21626      15399.525    
     15500   31             402.45929      46.767729      283.95973      16960.327    
     15600   31.2           404.54251      47.00981       283.72307      16372.713    
     15700   31.4           403.47598      46.885874      284.79016      14832.857    
     15800   31.6           433.72054      50.400439      288.53287      15649.329    
     15900   31.8           414.76917      48.198197      287.91334      16459.07     
     16000   32             408.74089      47.497683      285.48476      13626.642    
     16100   32.2           413.91595      48.09905       284.50025      16899.462    
     16200   32.4           383.55474      44.570929      283.7459       17349.109    
     16300   32.6           396.64834      46.092469      284.61289      14294.758    
     16400   32.8           406.95384      47.290018      288.07858      16813.368    
     16500   33             413.85028      48.091418      288.35298      13825.767    
     16600   33.2           412.44667      47.928312      286.50358      16829.787    
     16700   33.4           397.29678      46.167821      284.76321      15975.255    
     16800   33.6           397.67323      46.211566      283.63701      16017.008    
     16900   33.8           386.96324      44.967013      283.17898      15135.631    
     17000   34             393.62452      45.741086      284.64636      16183.206    
     17100   34.2           415.73259      48.310152      287.74744      15040.912    
     17200   34.4           423.0681       49.162574      287.2589       16724.484    
     17300   34.6           403.79888      46.923396      284.8323       15793.334    
     17400   34.8           405.92986      47.171027      284.16302      15745.705    
     17500   35             389.97152      45.31659       284.07411      14692.368    
     17600   35.2           399.92792      46.473572      284.89719      16486.865    
     17700   35.4           406.50625      47.238006      287.00549      15696.726    
     17800   35.6           422.57505      49.105279      288.2675       18025.913    
     17900   35.8           410.30678      47.679647      285.54241      16257.552    
     18000   36             389.15495      45.2217        283.45872      16869.527    
     18100   36.2           407.96546      47.407573      283.3156       15426.949    
     18200   36.4           394.26398      45.815395      284.49597      14245.779    
     18300   36.6           410.89355      47.747832      287.15069      16548.659    
     18400   36.8           427.57229      49.685983      287.19947      16782.508    
     18500   37             399.63381      46.439395      285.37064      14464.039    
     18600   37.2           396.83203      46.113815      284.79085      16799.253    
     18700   37.4           394.51445      45.844501      284.2934       15987.112    
     18800   37.6           397.07385      46.141915      283.786        15471.374    
     18900   37.8           400.75514      46.569699      283.29085      16350.914    
     19000   38             405.39596      47.108986      283.06296      16175.274    
     19100   38.2           397.61764      46.205106      284.12549      15830.634    
     19200   38.4           412.75197      47.96379       285.91364      16899.762    
     19300   38.6           400.7667       46.571042      286.37627      15908.761    
     19400   38.8           399.38891      46.410937      284.13304      14845.93     
     19500   39             385.72104      44.822663      281.7778       15314.128    
     19600   39.2           389.09166      45.214346      282.20961      15692.892    
     19700   39.4           401.48179      46.654139      284.07144      16177.892    
     19800   39.6           400.09423      46.492899      285.13459      16420.18     
     19900   39.8           400.24824      46.510795      284.94538      15040.846    
     20000   40             398.60587      46.319944      284.57037      14421.074    
     20100   40.2           390.3023       45.355029      283.93257      16065.102    
     20200   40.4           395.60996      45.971804      284.55926      13970.828    
     20300   40.6           412.86303      47.976695      287.12826      16381.04     
     20400   40.8           405.19964      47.086172      287.49218      15246.645    
     20500   41             395.47778      45.956444      285.00853      15618.111    
     20600   41.2           397.02182      46.135869      283.10894      15836.71     
     20700   41.4           393.52579      45.729614      283.44725      16278.089    
     20800   41.6           397.76027      46.221681      284.49428      15959.734    
     20900   41.8           393.69785      45.749607      286.11568      15248.407    
     21000   42             407.16424      47.314467      288.40802      17029.301    
     21100   42.2           421.11613      48.935746      290.21299      15256.506    
     21200   42.4           392.05724      45.55896       286.82185      15647.575    
     21300   42.6           391.1213       45.4502        284.91079      17579.921    
     21400   42.8           398.29905      46.28429       284.10776      15898.164    
     21500   43             394.84685      45.883128      284.15644      17214.621    
     21600   43.2           392.60645      45.622782      285.75633      17483.818    
     21700   43.4           417.68921      48.537521      287.75977      15001.441    
     21800   43.6           401.20869      46.622404      286.81191      17211.627    
     21900   43.8           397.03667      46.137595      283.40958      16074.592    
     22000   44             396.6048       46.087409      283.38093      14283.474    
     22100   44.2           414.34131      48.148479      284.87504      17298.48     
     22200   44.4           400.57837      46.549157      285.71531      13449.686    
     22300   44.6           405.83467      47.159965      286.72018      15325.796    
     22400   44.8           407.81553      47.390151      287.68235      16948.907    
     22500   45             405.92637      47.170622      286.00305      13635.444    
     22600   45.2           397.50569      46.192098      283.82606      15013.573    
     22700   45.4           402.14746      46.731493      283.68335      14109.665    
     22800   45.6           402.14001      46.730628      285.41112      14725.341    
     22900   45.8           414.72894      48.193523      288.59641      17764.929    
     23000   46             418.30498      48.609075      287.66994      15473.834    
     23100   46.2           402.21864      46.739765      285.37559      14812.106    
     23200   46.4           412.66567      47.953761      284.32193      16546.404    
     23300   46.6           378.5072       43.98438       283.56235      16949.025    
     23400   46.8           394.88901      45.888026      283.53713      15752.347    
     23500   47             418.86966      48.674695      285.66115      15549.247    
     23600   47.2           401.14802      46.615354      287.57462      18045.844    
     23700   47.4           398.42688      46.299144      286.316        14880.633    
     23800   47.6           398.49011      46.306491      283.99606      15557.108    
     23900   47.8           404.64531      47.021755      283.19752      15385.27     
     24000   48             390.05169      45.325906      283.44887      14387.994    
     24100   48.2           398.01526      46.251312      284.24885      15895.241    
     24200   48.4           413.93257      48.100981      284.95444      16146.547    
     24300   48.6           392.72539      45.636602      283.96976      15756.06     
     24400   48.8           392.3494       45.592911      281.3757       13845.433    
     24500   49             383.20542      44.530336      280.44109      16052.627    
     24600   49.2           395.49288      45.958199      283.02907      14332.071    
     24700   49.4           387.58356      45.039097      284.74725      15391.333    
     24800   49.6           398.46577      46.303663      285.39972      15310.373    
     24900   49.8           410.55266      47.708218      285.47551      17268.465    
     25000   50             392.43675      45.603062      284.11274      16128.465    
     25100   50.2           399.15141      46.383338      281.60031      15848.629    
     25200   50.4           387.41966      45.020052      281.873        16079.093    
     25300   50.6           396.21504      46.042118      285.14898      14750.82     
     25400   50.8           405.44211      47.114348      286.03527      17098.732    
     25500   51             397.94431      46.243067      285.85444      14915.132    
     25600   51.2           397.28572      46.166536      284.22583      14885.528    
     25700   51.4           393.23258      45.695541      282.53822      17193.412    
     25800   51.6           389.4886       45.260473      282.38375      14471.78     
     25900   51.8           405.96455      47.175058      286.1672       15813.968    
     26000   52             398.60883      46.320288      287.01799      17145.47     
     26100   52.2           412.06644      47.884127      286.33299      14324.021    
     26200   52.4           401.58788      46.666468      284.18635      16263.027    
     26300   52.6           396.37566      46.060782      282.69127      15634.979    
     26400   52.8           395.24794      45.929736      284.38633      16111.838    
     26500   53             411.79883      47.85303       287.77292      16617.649    
     26600   53.2           400.84385      46.580008      287.25888      16123.919    
     26700   53.4           397.0225       46.135948      284.95747      16549.272    
     26800   53.6           400.32848      46.520119      283.53162      14510.743    
     26900   53.8           384.17633      44.643161      283.94538      17716.897    
     27000   54             415.88845      48.328263      286.22913      15151.113    
     27100   54.2           410.42918      47.693869      287.68655      16404.944    
     27200   54.4           403.48902      46.88739       287.3999       17299.987    
     27300   54.6           406.76365      47.267917      286.41976      16962.036    
     27400   54.8           392.74156      45.638482      284.98154      15764.413    
     27500   55             385.13481      44.75454       283.08923      16037.989    
     27600   55.2           380.88732      44.260962      282.65112      15777.636    
     27700   55.4           418.05886      48.580476      286.19775      15130.349    
     27800   55.6           398.19239      46.271895      287.66084      16445.18     
     27900   55.8           409.44975      47.580056      287.57132      16837.902    
     28000   56             411.04615      47.765564      285.40943      17079.163    
     28100   56.2           403.35678      46.872022      283.46419      14072.146    
     28200   56.4           390.36643      45.36248       283.87074      15878.823    
     28300   56.6           393.5882       45.736866      286.48103      16575.525    
     28400   56.8           403.64805      46.905869      288.12185      15695.318    
     28500   57             401.59768      46.667606      287.14085      15173.699    
     28600   57.2           399.37063      46.408812      285.52689      17298.909    
     28700   57.4           382.06528      44.397847      284.04683      15954.768    
     28800   57.6           416.62654      48.414033      284.04354      16794.381    
     28900   57.8           395.49708      45.958686      286.6818       16653.862    
     29000   58             409.97209      47.640753      288.51508      15498.039    
     29100   58.2           403.58074      46.898048      287.25654      16504.954    
     29200   58.4           409.69692      47.608777      285.87071      16398.656    
     29300   58.6           396.012        46.018523      285.42329      13966.532    
     29400   58.8           403.11371      46.843777      285.17249      16714.123    
     29500   59             402.40814      46.761785      284.37252      15320.726    
     29600   59.2           386.35493      44.896325      282.19864      14216.921    
     29700   59.4           376.26946      43.724344      282.55784      16339.857    
     29800   59.6           390.36182      45.361945      285.47599      18247.105    
     29900   59.8           397.80108      46.226423      286.49116      14609.605    
     30000   60             414.35362      48.149909      286.15283      16101.233    
     30100   60.2           402.72056      46.798091      284.61302      17160.538    
     30200   60.4           385.58586      44.806955      281.88418      14840.878    
     30300   60.6           379.74235      44.12791       279.85046      16328.153    
     30400   60.8           399.96461      46.477836      282.747        17231.329    
     30500   61             407.61533      47.366887      284.48072      14852.587    
     30600   61.2           397.69966      46.214637      285.22615      18376.914    
     30700   61.4           401.97274      46.71119       286.07256      15894.146    
     30800   61.6           395.87526      46.002633      286.24405      16946.899    
     30900   61.8           402.02642      46.717428      285.52849      17529.579    
     31000   62             392.20222      45.575808      283.63213      15066.785    
     31100   62.2           402.11454      46.727668      282.22899      16215.314    
     31200   62.4           379.32197      44.079061      283.05075      16979.423    
     31300   62.6           407.9248       47.402848      286.52115      15754.537    
     31400   62.8           407.27379      47.327198      286.79475      17204.955    
     31500   63             393.09409      45.679448      285.57541      15644.01     
     31600   63.2           392.63947      45.626619      284.24158      15260.619    
     31700   63.4           394.00389      45.785171      281.62997      15944.695    
     31800   63.6           381.62952      44.347209      280.78088      13508.109    
     31900   63.8           403.40402      46.877511      284.40641      16319.521    
     32000   64             397.6353       46.207158      285.50186      15810.819    
     32100   64.2           406.92175      47.286289      285.97552      15063.724    
     32200   64.4           415.08685      48.235113      286.42592      16974.759    
     32300   64.6           405.91381      47.169162      285.42271      15051.505    
     32400   64.8           388.23246      45.114503      283.08671      16489.232    
     32500   65             382.95606      44.501359      281.84023      15252.633    
     32600   65.2           409.11733      47.541426      284.18236      15291.221    
     32700   65.4           413.07076      48.000835      286.86476      16228.695    
     32800   65.6           404.82667      47.04283       286.42542      17746.434    
     32900   65.8           387.70951      45.053734      284.77344      16514.899    
     33000   66             385.96229      44.850698      283.5427       16578.977    
     33100   66.2           385.63197      44.812314      282.8074       16856.437    
     33200   66.4           412.87444      47.978021      284.1988       15723.966    
     33300   66.6           420.00163      48.806235      286.94016      15024.705    
     33400   66.8           411.30972      47.796192      287.14935      17109.899    
     33500   67             402.35082      46.755125      285.00629      16278.385    
     33600   67.2           396.93948      46.126301      283.49731      15061.495    
     33700   67.4           389.35946      45.245465      284.02704      16660.086    
     33800   67.6           408.4979       47.469445      285.11685      15475.418    
     33900   67.8           406.913        47.285272      285.55583      15858.814    
     34000   68             395.23904      45.928702      285.48045      15774.607    
     34100   68.2           394.11062      45.797574      285.20464      14657.464    
     34200   68.4           388.28031      45.120063      283.56455      15642.726    
     34300   68.6           394.66205      45.861653      282.75263      15466.567    
     34400   68.8           387.54791      45.034955      283.89089      13173.446    
     34500   69             407.32128      47.332717      286.62599      16291.131    
     34600   69.2           396.35802      46.058732      287.01822      16114.037    
     34700   69.4           409.94052      47.637085      285.96733      16364.769    
     34800   69.6           401.08897      46.608492      284.06903      16654.234    
     34900   69.8           381.08157      44.283535      280.70137      14233.395    
     35000   70             367.72873      42.731869      279.48224      14552.257    
     35100   70.2           401.89363      46.701997      281.53462      16790.012    
     35200   70.4           389.85328      45.302849      283.73133      14174.379    
     35300   70.6           407.15073      47.312898      286.13709      16399.369    
     35400   70.8           400.76372      46.570696      287.00753      15228.837    
     35500   71             405.5024       47.121354      286.33398      16476.127    
     35600   71.2           398.52128      46.310114      283.92273      14882.937    
     35700   71.4           375.94385      43.686506      282.80364      14670.612    
     35800   71.6           392.72488      45.636543      285.86123      16094.142    
     35900   71.8           407.29844      47.330062      287.60112      15371.144    
     36000   72             411.65631      47.836468      286.80514      15555.017    
     36100   72.2           396.94698      46.127172      284.76405      16022.379    
     36200   72.4           390.92077      45.426898      283.77617      14621.648    
     36300   72.6           417.27534      48.489427      284.33487      15503.705    
     36400   72.8           400.22518      46.508116      287.77512      15450.096    
     36500   73             408.29451      47.445811      288.93351      17583.756    
     36600   73.2           398.97677      46.363044      286.98637      14318.711    
     36700   73.4           401.00936      46.599241      285.29035      15826.094    
     36800   73.6           399.51034      46.425047      284.89839      13851.298    
     36900   73.8           396.22817      46.043644      285.39154      15844.471    
     37000   74             413.81704      48.087556      286.27707      14391.173    
     37100   74.2           436.89912      50.769806      290.08505      15371.16     
     37200   74.4           414.33441      48.147676      289.7843       16889.188    
     37300   74.6           417.39314      48.503115      287.43994      16823.236    
     37400   74.8           408.83333      47.508424      285.9148       16062.351    
     37500   75             391.55944      45.501114      284.88643      15032.254    
     37600   75.2           404.0966       46.957993      285.09189      17670.832    
     37700   75.4           400.01014      46.483126      287.42213      16537.937    
     37800   75.6           410.12159      47.658126      289.53163      16369.408    
     37900   75.8           397.5983       46.202859      288.03785      16255.091    
     38000   76             399.51438      46.425517      285.73158      16432.013    
     38100   76.2           400.9183       46.588659      285.15028      16865.116    
     38200   76.4           411.62481      47.832808      285.66981      14825.914    
     38300   76.6           397.69917      46.21458       286.5735       16518.538    
     38400   76.8           407.70618      47.377444      289.13559      15730.407    
     38500   77             410.89633      47.748155      289.50105      16152.334    
     38600   77.2           407.43511      47.345944      285.96216      16323.707    
     38700   77.4           386.33384      44.893873      284.70473      17352.793    
     38800   77.6           376.29749      43.727601      284.84556      15339.925    
     38900   77.8           402.79085      46.806258      286.26203      16270.471    
     39000   78             408.94842      47.521798      288.55022      15512.363    
     39100   78.2           424.05947      49.277776      289.68018      17113.317    
     39200   78.4           402.52737      46.775641      285.82623      16608.487    
     39300   78.6           396.09609      46.028295      284.35715      16213.784    
     39400   78.8           382.85572      44.489699      284.57508      14842.283    
     39500   79             413.60923      48.063407      286.6751       17212.284    
     39600   79.2           416.91179      48.447181      288.28866      15449.623    
     39700   79.4           414.01784      48.11089       287.33457      17370.988    
     39800   79.6           402.84853      46.812961      285.08609      15420.198    
     39900   79.8           386.47508      44.910287      284.66404      15073.727    
     40000   80             402.1771       46.734938      285.4455       15821.542    
     40100   80.2           408.67806      47.49038       286.45757      14739.607    
     40200   80.4           408.38225      47.456007      287.50209      16674.094    
     40300   80.6           416.30779      48.376992      287.44162      14171.042    
     40400   80.8           404.66763      47.024349      284.58338      14691.244    
     40500   81             390.20762      45.344026      283.55517      14862.825    
     40600   81.2           392.63549      45.626157      284.45092      16468.117    
     40700   81.4           393.24034      45.696442      287.79692      15684.615    
     40800   81.6           423.92232      49.261838      288.53365      15656.721    
     40900   81.8           407.04908      47.301085      287.00184      16938.146    
     41000   82             402.00226      46.714621      285.2759       15341.964    
     41100   82.2           394.00677      45.785505      284.63508      16343.286    
     41200   82.4           392.62749      45.625226      284.87562      15660.109    
     41300   82.6           404.76594      47.035774      287.89347      16414.83     
     41400   82.8           405.02059      47.065365      288.76335      16310.041    
     41500   83             394.58314      45.852483      286.94148      14708.84     
     41600   83.2           409.89213      47.631462      284.62285      15275.131    
     41700   83.4           369.26845      42.910793      284.45757      15122.964    
     41800   83.6           392.85135      45.65124       285.74464      15212.742    
     41900   83.8           408.37942      47.455678      286.42934      15234.106    
     42000   84             397.77332      46.223197      286.83664      15535.932    
     42100   84.2           407.49762      47.353208      287.00689      15802.667    
     42200   84.4           393.52322      45.729315      285.64206      14996.119    
     42300   84.6           379.00558      44.042294      284.27825      14850.238    
     42400   84.8           397.98386      46.247662      284.60926      16818.652    
     42500   85             404.93095      47.054948      286.93127      15879.686    
     42600   85.2           414.70736      48.191015      288.36554      14803.162    
     42700   85.4           401.74382      46.684589      287.72377      17478.522    
     42800   85.6           390.89371      45.423753      284.49542      14777.812    
     42900   85.8           392.84904      45.650972      283.40928      15426.196    
     43000   86             405.79405      47.155245      284.73241      16102.514    
     43100   86.2           388.76595      45.176497      286.46392      14350.537    
     43200   86.4           411.17044      47.780008      287.32106      15824.683    
     43300   86.6           406.04137      47.183984      286.09998      16196.307    
     43400   86.8           387.21411      44.996165      282.81379      14860.826    
     43500   87             384.67406      44.700999      283.0226       15716.812    
     43600   87.2           398.43452      46.300032      285.27874      16293.221    
     43700   87.4           404.21994      46.972326      286.15184      15956.536    
     43800   87.6           396.8544       46.116415      286.06298      15486.432    
     43900   87.8           402.40418      46.761325      285.7506       16060.887    
     44000   88             407.78892      47.387059      284.2476       14614.603    
     44100   88.2           375.19882      43.59993       282.1945       17142.465    
     44200   88.4           396.99631      46.132904      283.52794      14363.534    
     44300   88.6           418.29052      48.607396      286.07999      15381.588    
     44400   88.8           397.05453      46.13967       286.65457      16346.181    
     44500   89             394.52223      45.845405      285.88853      14277.935    
     44600   89.2           401.62546      46.670834      283.84749      15104.781    
     44700   89.4           383.3567       44.547915      281.46098      15420.487    
     44800   89.6           381.22609      44.300328      281.15474      14085.962    
     44900   89.8           410.89031      47.747455      284.70832      13429.563    
     45000   90             393.98762      45.78328       286.61347      15813.262    
     45100   90.2           398.40905      46.297072      287.1311       16736.644    
     45200   90.4           394.7062       45.866783      286.46334      14284.576    
     45300   90.6           382.22372      44.416257      284.26541      15137.079    
     45400   90.8           396.55731      46.08189       283.01599      15938.859    
     45500   91             391.90199      45.54092       284.34221      14846.819    
     45600   91.2           414.45166      48.161301      287.80792      15255.82     
     45700   91.4           417.2575       48.487354      287.9062       15642.363    
     45800   91.6           405.34014      47.102498      286.14977      14035.675    
     45900   91.8           406.94446      47.288928      284.30071      15794.4      
     46000   92             396.30607      46.052695      283.50439      14675.31     
     46100   92.2           382.89662      44.494453      285.01214      14848.916    
     46200   92.4           409.32353      47.565387      287.75608      15552.476    
     46300   92.6           412.77291      47.966223      287.89626      14122.786    
     46400   92.8           403.7161       46.913777      285.43157      14630.681    
     46500   93             387.79611      45.063797      283.9072       15768.027    
     46600   93.2           396.49046      46.074122      284.50109      14301.433    
     46700   93.4           397.25956      46.163496      285.38943      15279.825    
     46800   93.6           392.06441      45.559794      285.9565       15948.828    
     46900   93.8           388.96409      45.199521      286.14458      15123.581    
     47000   94             404.12487      46.961278      286.24369      16640.347    
     47100   94.2           405.38826      47.10809       285.93548      15331.301    
     47200   94.4           392.82108      45.647722      283.93288      14666.088    
     47300   94.6           397.84631      46.231678      281.83318      14830.97     
     47400   94.8           394.58191      45.852339      283.14385      14466.83     
     47500   95             401.13513      46.613856      285.65866      14392.332    
     47600   95.2           396.76308      46.105803      286.37147      15280.07     
     47700   95.4           414.43427      48.15928       286.62221      16152.211    
     47800   95.6           402.7206       46.798095      285.50494      13884.091    
     47900   95.8           390.02222      45.322481      282.68354      16450.152    
     48000   96             392.27127      45.583832      282.43217      14668.231    
     48100   96.2           396.98607      46.131715      285.39435      15819.439    
     48200   96.4           406.58707      47.247398      286.77077      15756.524    
     48300   96.6           395.65941      45.977551      286.65649      15921.991    
     48400   96.8           406.38408      47.223809      286.66235      14630.634    
     48500   97             412.7099       47.9589        286.16817      17312.502    
     48600   97.2           388.67592      45.166035      284.63262      14628.071    
     48700   97.4           408.14461      47.428391      283.40135      14599.741    
     48800   97.6           389.90482      45.308839      283.90211      16111.075    
     48900   97.8           402.24231      46.742516      287.016        16260.247    
     49000   98             417.13127      48.472685      288.16061      14918.198    
     49100   98.2           410.46691      47.698254      286.89576      17011.654    
     49200   98.4           395.81762      45.995935      284.98884      15846.102    
     49300   98.6           387.10218      44.983158      284.37267      15758.724    
     49400   98.8           398.36207      46.291613      284.80171      17562.964    
     49500   99             397.05063      46.139217      285.23001      15263.523    
     49600   99.2           410.24588      47.672569      285.93655      16696.676    
     49700   99.4           407.22326      47.321326      287.0428       16095.315    
     49800   99.6           413.70774      48.074854      288.80988      14502.51     
     49900   99.8           411.52615      47.821343      289.51726      16148.964    
     50000   100            415.69587      48.305885      286.49671      15195.921    
     50100   100.2          396.6349       46.090907      285.18222      15576.28     
     50200   100.4          403.74312      46.916917      285.3605       14786.283    
     50300   100.6          391.9262       45.543734      286.28698      15658.304    
     50400   100.8          403.59474      46.899674      288.74225      14710.045    
     50500   101            416.31848      48.378235      290.03359      17615.339    
     50600   101.2          404.26545      46.977614      287.28853      15163.164    
     50700   101.4          398.49611      46.307189      285.26696      14492.365    
     50800   101.6          395.42987      45.950877      285.68635      15711.863    
     50900   101.8          402.67015      46.792233      287.42363      15016.694    
     51000   102            414.85675      48.208374      288.92105      14898.163    
     51100   102.2          390.74428      45.406388      287.22766      16255.033    
     51200   102.4          397.44638      46.185205      284.05729      14760.703    
     51300   102.6          391.64598      45.51117       284.18947      15138.29     
     51400   102.8          405.07439      47.071617      286.21509      16571.145    
     51500   103            413.75799      48.080693      287.61388      14040.951    
     51600   103.2          414.42845      48.158604      286.87528      16361.675    
     51700   103.4          392.14247      45.568865      284.44939      15261.069    
     51800   103.6          394.56618      45.850512      280.76872      13828.257    
     51900   103.8          360.50278      41.892179      281.38683      15106.097    
     52000   104            398.83482      46.346548      284.1333       14321.223    
     52100   104.2          395.09222      45.91164       285.94901      14534.505    
     52200   104.4          412.34635      47.916654      287.53185      15771.86     
     52300   104.6          417.0209       48.45986       287.59143      15301.271    
     52400   104.8          404.63232      47.020246      284.72319      15252.762    
     52500   105            386.09391      44.865993      283.04117      15461.818    
     52600   105.2          403.69533      46.911364      284.25974      15815.199    
     52700   105.4          407.47898      47.351043      285.88721      13361.535    
     52800   105.6          422.61404      49.10981       286.64531      15278.626    
     52900   105.8          413.05486      47.998987      286.57982      13756.777    
     53000   106            413.56751      48.058559      286.24234      15354.422    
     53100   106.2          394.80219      45.877937      285.88906      14518.158    
     53200   106.4          391.95651      45.547255      286.08481      16125.166    
     53300   106.6          403.49115      46.887637      286.41211      14721.176    
     53400   106.8          398.42306      46.2987        287.19366      15737.4      
     53500   107            410.65525      47.72014       288.58518      15315.002    
     53600   107.2          415.89431      48.328945      288.5386       14497.414    
     53700   107.4          393.34383      45.708469      285.50374      15918.371    
     53800   107.6          403.39627      46.876611      284.07502      15705.253    
     53900   107.8          395.36557      45.943405      284.25013      16304.977    
     54000   108            401.63537      46.671986      286.56302      16028.686    
     54100   108.2          418.12984      48.588724      288.47043      15832.6      
     54200   108.4          402.74607      46.801055      287.62963      16659.302    
     54300   108.6          409.79274      47.619913      286.17341      16084.574    
     54400   108.8          402.61543      46.785874      285.14908      15611.794    
     54500   109            405.26874      47.094201      285.19526      15331.093    
     54600   109.2          401.26392      46.628822      287.50113      15906.619    
     54700   109.4          410.16354      47.663001      289.60609      15077.402    
     54800   109.6          414.25302      48.138218      288.16956      16671.279    
     54900   109.8          393.04948      45.674264      285.86025      13786.913    
     55000   110            394.43175      45.834891      285.31376      16306.765    
     55100   110.2          409.50372      47.586327      285.80608      14642.077    
     55200   110.4          416.73494      48.42663       287.02015      16984.159    
     55300   110.6          412.87776      47.978406      289.74753      14855.622    
     55400   110.8          406.63505      47.252973      288.81803      18969.04     
     55500   111            393.43931      45.719564      285.78132      16115.844    
     55600   111.2          395.75225      45.988339      285.18188      17120.895    
     55700   111.4          420.63592      48.879943      285.34212      16302.225    
     55800   111.6          397.24122      46.161365      285.73207      15199.96     
     55900   111.8          397.26129      46.163697      287.76943      16884.31     
     56000   112            402.06987      46.722478      288.72248      16622.586    
     56100   112.2          398.28086      46.282176      286.51392      15144.87     
     56200   112.4          397.42222      46.182397      284.13108      14225.81     
     56300   112.6          391.50702      45.495022      284.46611      15032.41     
     56400   112.8          403.76762      46.919764      285.64097      14836.473    
     56500   113            407.11507      47.308754      286.88583      14917.049    
     56600   113.2          393.26313      45.699091      286.17517      14588.032    
     56700   113.4          394.58729      45.852965      283.48608      14993.433    
     56800   113.6          386.53194      44.916894      283.04474      14264.951    
     56900   113.8          405.24918      47.091929      285.40783      14135.117    
     57000   114            406.59381      47.24818       287.09532      15223.833    
     57100   114.2          404.48095      47.002657      286.89694      14914.755    
     57200   114.4          393.8758       45.770287      285.93634      14549.868    
     57300   114.6          385.45491      44.791738      283.33155      14598.6      
     57400   114.8          384.66869      44.700376      281.6408       15749.896    
     57500   115            394.83844      45.882149      283.52843      16359.853    
     57600   115.2          387.25654      45.001096      285.09322      15376.082    
     57700   115.4          406.57516      47.246014      285.6662       14676.96     
     57800   115.6          411.37887      47.804228      285.99356      17917.385    
     57900   115.8          417.76624      48.546472      286.25156      15311.953    
     58000   116            392.75883      45.640489      284.80048      14574.769    
     58100   116.2          392.92024      45.659246      282.83033      16485.007    
     58200   116.4          380.70641      44.239939      282.70958      14496.002    
     58300   116.6          403.1877       46.852375      285.85779      16186.736    
     58400   116.8          403.89608      46.934691      287.04526      15477.054    
     58500   117            405.75744      47.150991      286.31505      15926.031    
     58600   117.2          391.0307       45.439671      284.23728      15251.792    
     58700   117.4          391.39003      45.481427      283.75579      15183.689    
     58800   117.6          369.98958      42.994591      284.43557      15192.278    
     58900   117.8          391.32778      45.474194      286.1596       16849.618    
     59000   118            406.65753      47.255586      286.4585       14645.203    
     59100   118.2          404.20635      46.970746      285.59221      15685.89     
     59200   118.4          404.74326      47.033138      284.54687      15632.768    
     59300   118.6          402.39499      46.760258      283.33233      14532.738    
     59400   118.8          396.4149       46.065342      283.65966      15899.499    
     59500   119            410.78483      47.735198      286.49617      15526.93     
     59600   119.2          416.1208       48.355263      287.96513      15048.206    
     59700   119.4          410.18721      47.665752      287.00213      15873.639    
     59800   119.6          384.09054      44.633191      285.4471       16355.65     
     59900   119.8          383.03018      44.509972      284.80654      15539.328    
     60000   120            407.39618      47.34142       285.21097      15269.729    
     60100   120.2          399.99993      46.48194       285.7975       15906.047    
     60200   120.4          401.92057      46.705128      286.6834       15886.777    
     60300   120.6          391.71669      45.519387      287.4492       14724.809    
     60400   120.8          411.91121      47.866089      288.10351      16285.216    
     60500   121            401.58404      46.666021      285.96415      16878.342    
     60600   121.2          398.94606      46.359475      284.22788      14808.16     
     60700   121.4          395.41793      45.949489      283.78496      15894.91     
     60800   121.6          401.24969      46.627169      286.26641      13848.668    
     60900   121.8          415.01719      48.227019      288.24097      17843.705    
     61000   122            403.2551       46.860207      287.27784      15530.74     
     61100   122.2          405.38983      47.108272      284.81984      14545.614    
     61200   122.4          397.26034      46.163587      283.76792      15566.205    
     61300   122.6          397.91293      46.239421      284.42635      14686.694    
     61400   122.8          405.65503      47.13909       285.35072      15537.092    
     61500   123            403.98502      46.945026      286.41196      16051.261    
     61600   123.2          420.74636      48.892776      289.48624      15411.427    
     61700   123.4          418.19107      48.595839      290.14158      15379.637    
     61800   123.6          406.82534      47.275086      287.17698      14810.313    
     61900   123.8          407.54811      47.359075      285.78449      16226.393    
     62000   124            406.17299      47.19928       284.99958      14650.06     
     62100   124.2          393.45372      45.721239      284.446        14503.785    
     62200   124.4          401.04898      46.603844      285.65116      15937.66     
     62300   124.6          396.97035      46.129889      287.97116      14113.794    
     62400   124.8          403.77729      46.920888      287.77491      15092.893    
     62500   125            394.07846      45.793836      284.80778      15761.147    
     62600   125.2          400.08455      46.491773      284.20154      14736.154    
     62700   125.4          396.72816      46.101744      284.58879      14480.479    
     62800   125.6          408.59003      47.480152      285.69967      16269.262    
     62900   125.8          420.98473      48.920476      287.9961       15176.577    
     63000   126            433.88768      50.419862      290.09848      15389.368    
     63100   126.2          423.25079      49.183804      288.98483      15836.83     
     63200   126.4          407.47366      47.350424      285.3885       16906.496    
     63300   126.6          393.9739       45.781686      284.18697      13905.539    
     63400   126.8          392.29891      45.587044      284.29425      17182.335    
     63500   127            421.09704      48.933527      285.55086      16690.981    
     63600   127.2          420.91606      48.912497      287.51654      16873.353    
     63700   127.4          418.92567      48.681204      287.75903      15781.422    
     63800   127.6          390.14259      45.336469      284.25874      16623.793    
     63900   127.8          391.97049      45.548881      282.91782      15074.008    
     64000   128            397.70829      46.21564       283.42247      15702.937    
     64100   128.2          404.3609       46.988706      285.71516      15545.382    
     64200   128.4          403.94974      46.940927      287.26183      15266.615    
     64300   128.6          408.55915      47.476563      286.36389      17144.979    
     64400   128.8          408.76193      47.500127      285.34851      14041.293    
     64500   129            400.23177      46.50888       285.3647       15174.695    
     64600   129.2          408.44729      47.463564      284.87737      16060.349    
     64700   129.4          400.48339      46.538121      283.9343       13498.354    
     64800   129.6          401.9743       46.711371      283.28867      14585.049    
     64900   129.8          408.37536      47.455205      283.27785      15000.217    
     65000   130            397.33591      46.172367      285.05133      15113.307    
     65100   130.2          418.82935      48.670011      287.26166      14728.23     
     65200   130.4          394.65524      45.860861      286.89305      16491.2      
     65300   130.6          401.09304      46.608964      284.25364      13720.253    
     65400   130.8          392.35413      45.593461      283.149        14310.351    
     65500   131            385.26661      44.769857      283.6948       15815.594    
     65600   131.2          401.57981      46.665529      285.48174      14751.415    
     65700   131.4          407.90116      47.400101      286.43242      16870.212    
     65800   131.6          412.3208       47.913686      286.2258       14400.782    
     65900   131.8          389.9889       45.31861       283.12651      15468.963    
     66000   132            384.43465      44.673178      282.26694      15114.802    
     66100   132.2          392.70512      45.634247      284.34493      15621.773    
     66200   132.4          414.52212      48.169489      286.25852      14994.132    
     66300   132.6          404.86435      47.04721       286.0337       17631.069    
     66400   132.8          389.81668      45.298597      284.75407      15371.042    
     66500   133            399.06082      46.372811      283.38508      16062.752    
     66600   133.2          384.04391      44.627772      280.91317      16343.685    
     66700   133.4          392.8214       45.64776       280.1649       15319.771    
     66800   133.6          404.50219      47.005124      283.50967      16118.653    
     66900   133.8          395.8425       45.998826      284.979        16568.044    
     67000   134            406.16414      47.198251      285.77671      17027.069    
     67100   134.2          398.296        46.283935      285.81424      15635.005    
     67200   134.4          397.54804      46.197019      284.51039      16049.74     
     67300   134.6          376.31928      43.730133      282.13691      14818.134    
     67400   134.8          404.24372      46.975089      282.69801      17147.608    
     67500   135            401.29087      46.631954      285.38515      16736.923    
     67600   135.2          405.94748      47.173074      286.61016      17022.477    
     67700   135.4          399.61592      46.437316      285.79463      16566.3      
     67800   135.6          396.09526      46.028198      284.48122      15918.038    
     67900   135.8          393.16227      45.68737       283.63537      14985.045    
     68000   136            393.26544      45.699359      282.32391      14967.059    
     68100   136.2          386.30282      44.890269      282.04672      14348.934    
     68200   136.4          412.3601       47.918252      284.41793      15234.205    
     68300   136.6          398.4784       46.305131      286.32121      16056.015    
     68400   136.8          424.45284      49.323487      286.57943      15491.23     
     68500   137            384.07249      44.631094      284.55781      14322.705    
     68600   137.2          388.06717      45.095295      281.82991      15283.365    
     68700   137.4          388.56834      45.153533      281.60528      14055.713    
     68800   137.6          391.47289      45.491057      283.03966      13037.473    
     68900   137.8          413.22427      48.018673      284.10513      17430.551    
     69000   138            388.88428      45.190247      285.44387      14167.17     
     69100   138.2          407.20693      47.319429      286.56493      16798.3      
     69200   138.4          424.02561      49.273841      286.80937      14835.764    
     69300   138.6          387.44357      45.022829      284.86663      15340.9      
     69400   138.8          393.72583      45.752859      283.03754      14523.386    
     69500   139            377.16126      43.827975      283.21471      16988.876    
     69600   139.2          406.56209      47.244495      287.0124       15376.691    
     69700   139.4          410.12083      47.658038      287.39621      16951.06     
     69800   139.6          408.68164      47.490796      286.35484      16662.491    
     69900   139.8          408.98254      47.525763      283.99144      14145.815    
     70000   140            392.88493      45.655142      283.98421      18264.071    
     70100   140.2          419.84513      48.788049      286.38987      14940.588    
     70200   140.4          425.62295      49.45946       289.65864      15088.108    
     70300   140.6          413.65615      48.068859      288.27115      15534.689    
     70400   140.8          401.01021      46.599339      286.19433      15118.399    
     70500   141            408.20579      47.435501      284.87003      15444.841    
     70600   141.2          397.52572      46.194424      283.96038      15064.132    
     70700   141.4          393.74467      45.755049      283.66393      14238.194    
     70800   141.6          410.73911      47.729885      286.08698      15826.065    
     70900   141.8          410.02133      47.646476      287.97934      16630.381    
     71000   142            394.72775      45.869287      287.30823      14563.689    
     71100   142.2          396.52361      46.077974      284.68547      15086.984    
     71200   142.4          394.35165      45.825582      283.58428      17046.812    
     71300   142.6          412.41131      47.924202      284.24351      15919.883    
     71400   142.8          397.78533      46.224593      285.08226      15932.32     
     71500   143            384.87076      44.723857      285.74202      16489.475    
     71600   143.2          404.27374      46.978578      285.92593      15982.74     
     71700   143.4          397.88483      46.236155      283.80179      15717.747    
     71800   143.6          380.15129      44.175431      280.88096      15631.662    
     71900   143.8          383.34407      44.546448      282.78507      15274.192    
     72000   144            397.8635       46.233676      285.38949      15761.024    
     72100   144.2          408.92101      47.518613      286.07404      15392.196    
     72200   144.4          401.50426      46.65675       285.29976      16525.879    
     72300   144.6          381.24391      44.302399      282.88601      14337.676    
     72400   144.8          382.14933      44.407614      281.15035      15170.932    
     72500   145            384.64839      44.698016      282.16171      15539.928    
     72600   145.2          400.2111       46.506479      285.94575      15056.072    
     72700   145.4          413.49156      48.049733      286.8188       14563.933    
     72800   145.6          406.07701      47.188126      285.9648       15802.343    
     72900   145.8          400.0268       46.485062      283.53927      14852.81     
     73000   146            399.47668      46.421136      282.86096      13626.541    
     73100   146.2          400.50703      46.540868      284.41537      16312.139    
     73200   146.4          395.03854      45.905402      288.00218      16196.953    
     73300   146.6          409.72572      47.612124      287.63682      17024.028    
     73400   146.8          410.42472      47.693351      285.91037      14363.58     
     73500   147            402.58197      46.781986      283.87304      15190.007    
     73600   147.2          402.90399      46.819406      283.46322      15192.962    
     73700   147.4          392.29552      45.586651      284.34409      14242.459    
     73800   147.6          436.01324      50.666862      288.23055      15190.879    
     73900   147.8          417.09232      48.468159      288.6445       14754.193    
     74000   148            410.55246      47.708195      286.34453      14799.227    
     74100   148.2          387.28025      45.003851      284.88505      15109.924    
     74200   148.4          400.95373      46.592776      284.43974      14491.797    
     74300   148.6          404.26492      46.977552      285.2591       15211.708    
     74400   148.8          416.60293      48.411289      287.87705      14367.247    
     74500   149            423.16451      49.173777      289.57333      15498.335    
     74600   149.2          404.22419      46.97282       287.09071      15128.531    
     74700   149.4          408.7931       47.503749      285.59392      14069.475    
     74800   149.6          385.00755      44.739753      284.79774      16189.856    
     74900   149.8          392.70599      45.634349      285.19475      14346.39     
     75000   150            411.92641      47.867855      286.78602      14106.478    
     75100   150.2          406.03203      47.182899      288.77739      15689.197    
     75200   150.4          430.91052      50.073902      289.01976      14401.285    
     75300   150.6          409.13391      47.543353      285.45816      15925.185    
     75400   150.8          394.96847      45.89726       284.24252      15265.775    
     75500   151            385.76336      44.827581      284.2623       14623.677    
     75600   151.2          403.76259      46.919179      286.49764      15771.698    
     75700   151.4          401.24679      46.626831      288.14158      16650.776    
     75800   151.6          407.66491      47.372648      287.41869      14994.435    
     75900   151.8          411.93441      47.868785      284.44368      15375.71     
     76000   152            405.25384      47.09247       284.09837      15660.549    
     76100   152.2          389.94749      45.313797      284.71953      16683.722    
     76200   152.4          394.60534      45.855063      285.92354      16071.338    
     76300   152.6          411.25185      47.789468      286.41561      16326.048    
     76400   152.8          390.68         45.398919      285.81525      15751.022    
     76500   153            395.87913      46.003083      283.57356      16148.303    
     76600   153.2          376.20031      43.716308      282.21105      15206.542    
     76700   153.4          385.8996       44.843413      283.6339       15740.801    
     76800   153.6          423.95479      49.265612      286.83374      15840.646    
     76900   153.8          413.76867      48.081935      286.79862      16328.592    
     77000   154            401.78365      46.689217      285.29618      15613.96     
     77100   154.2          389.16257      45.222585      283.56799      14797.783    
     77200   154.4          388.41071      45.135217      283.26492      15140.344    
     77300   154.6          411.05539      47.766638      286.95784      15634.491    
     77400   154.8          416.89302      48.444999      287.6235       15226.435    
     77500   155            418.44712      48.625593      285.98248      15705.502    
     77600   155.2          405.38461      47.107666      283.94346      15339.653    
     77700   155.4          402.74411      46.800827      283.6247       14940.175    
     77800   155.6          403.54598      46.894009      284.83125      15795.959    
     77900   155.8          431.39202      50.129854      289.28675      14144.077    
     78000   156            428.30927      49.771623      288.96912      15929.726    
     78100   156.2          400.59837      46.551482      286.15031      16317.93     
     78200   156.4          400.52258      46.542674      284.21978      15746.76     
     78300   156.6          395.43104      45.951013      283.6821       15899.651    
     78400   156.8          398.35951      46.291315      284.82437      14539.305    
     78500   157            405.83655      47.160183      287.8906       17249.053    
     78600   157.2          415.84884      48.323661      288.15465      14866.189    
     78700   157.4          410.24993      47.67304       286.44305      16278.828    
     78800   157.6          401.91582      46.704576      285.40538      16503.091    
     78900   157.8          396.52634      46.078292      284.40648      15336.012    
     79000   158            393.54368      45.731693      284.45326      14002.593    
     79100   158.2          401.2685       46.629354      286.41469      15812.086    
     79200   158.4          404.44673      46.99868       289.09351      15471.918    
     79300   158.6          419.98917      48.804787      288.14091      14846.454    
     79400   158.8          410.21975      47.669533      285.73382      14307.468    
     79500   159            414.30701      48.144493      284.86053      17317.046    
     79600   159.2          382.6433       44.465015      284.19821      14036.245    
     79700   159.4          412.26373      47.907054      284.56498      14364.795    
     79800   159.6          391.20025      45.459374      286.15909      17048.794    
     79900   159.8          400.23895      46.509715      287.81376      13698.323    
     80000   160            397.69264      46.213822      286.31933      16217.132    
     80100   160.2          397.47462      46.188486      283.60391      15111.915    
     80200   160.4          393.2306       45.695311      283.96334      16000.567    
     80300   160.6          397.67669      46.211968      285.39177      17199.178    
     80400   160.8          416.13322      48.356707      286.69522      16372.408    
     80500   161            414.18955      48.130842      288.10725      16307.891    
     80600   161.2          403.42169      46.879565      289.05378      15573.462    
     80700   161.4          409.04039      47.532485      286.64389      16484.23     
     80800   161.6          403.52187      46.891207      284.47539      14791.424    
     80900   161.8          398.16615      46.268845      283.91893      16551.257    
     81000   162            397.93433      46.241908      284.40367      15106.603    
     81100   162.2          415.83594      48.322162      287.31314      16168.799    
     81200   162.4          398.20893      46.273817      288.44007      16852.6      
     81300   162.6          421.34827      48.962721      286.47068      16088.773    
     81400   162.8          417.86127      48.557515      285.08204      15916.565    
     81500   163            386.52321      44.91588       284.59918      14683.411    
     81600   163.2          406.12488      47.193689      284.44616      17571.201    
     81700   163.4          388.99878      45.203553      284.09673      14938.165    
     81800   163.6          401.44729      46.65013       284.61148      16816.555    
     81900   163.8          413.30338      48.027866      285.72563      15169.829    
     82000   164            404.10068      46.958468      286.33474      15822.945    
     82100   164.2          406.55032      47.243128      284.84756      16009.932    
     82200   164.4          387.84008      45.068906      282.50758      16266.377    
     82300   164.6          385.67932      44.817815      282.65619      15135.763    
     82400   164.8          394.27179      45.816302      285.54204      15952.854    
     82500   165            409.48491      47.584141      286.77331      14357.129    
     82600   165.2          404.60294      47.016832      286.08909      15999.907    
     82700   165.4          395.42316      45.950098      284.60962      14883.118    
     82800   165.6          394.62332      45.857152      282.9676       15120.11     
     82900   165.8          392.31385      45.58878       283.10257      15840.434    
     83000   166            399.62415      46.438272      286.83387      15295.34     
     83100   166.2          404.92139      47.053837      287.50818      16714.111    
     83200   166.4          414.94074      48.218135      285.55547      16896.183    
     83300   166.6          390.09534      45.330979      283.65619      14781.555    
     83400   166.8          394.38183      45.829089      283.52233      17551.798    
     83500   167            404.74656      47.033521      284.86045      16501.936    
     83600   167.2          409.17817      47.548496      286.54022      16454.163    
     83700   167.4          412.21795      47.901734      290.05499      16985.007    
     83800   167.6          420.65131      48.881731      291.2031       17182.74     
     83900   167.8          420.99731      48.921937      287.93202      17118.949    
     84000   168            389.39111      45.249143      285.37176      17257.048    
     84100   168.2          397.0862       46.143351      283.95047      16836.797    
     84200   168.4          391.55048      45.500073      283.16489      16348.888    
     84300   168.6          384.21242      44.647354      283.78968      16531.167    
     84400   168.8          399.54412      46.428972      286.72069      16323.881    
     84500   169            406.69945      47.260457      287.57671      15279.122    
     84600   169.2          405.97944      47.176789      285.85378      18262.051    
     84700   169.4          393.18568      45.690091      284.102        15943.055    
     84800   169.6          397.85907      46.233161      284.02896      16633.533    
     84900   169.8          398.8686       46.350474      284.60528      16592.762    
     85000   170            398.50575      46.308309      285.56871      16507.377    
     85100   170.2          410.88407      47.74673       287.18055      16462.335    
     85200   170.4          411.02036      47.762568      287.62084      18367.729    
     85300   170.6          390.38345      45.364458      284.67399      16477.267    
     85400   170.8          404.68074      47.025873      283.39392      15903.476    
     85500   171            399.9919       46.481007      284.1837       16073.949    
     85600   171.2          398.08605      46.259537      286.03824      16750.85     
     85700   171.4          411.58773      47.828499      289.04246      15564.611    
     85800   171.6          407.76212      47.383944      289.06784      16828.948    
     85900   171.8          383.27159      44.538026      284.42176      16313.567    
     86000   172            399.99451      46.48131       284.13748      15473.865    
     86100   172.2          417.03229      48.461183      285.16771      15572.91     
     86200   172.4          402.4633       46.768196      285.90944      15934.402    
     86300   172.6          399.91454      46.472017      285.74745      16260.038    
     86400   172.8          384.40216      44.669403      284.1902       17137.608    
     86500   173            402.16082      46.733045      282.44913      16937.369    
     86600   173.2          379.83157      44.138279      283.2522       13740.195    
     86700   173.4          408.84241      47.509479      286.5843       15561.405    
     86800   173.6          407.16663      47.314746      286.93896      15873.029    
     86900   173.8          398.22756      46.275981      285.96487      15218.472    
     87000   174            387.51909      45.031605      284.42728      16980.24     
[...]
    478600   957.2          422.9329       49.146863      286.39797      12837.109    
    478700   957.4          401.74038      46.684189      286.46908      15559.935    
    478800   957.6          404.26336      46.977371      286.28337      15052.704    
    478900   957.8          405.00894      47.064012      285.39341      14301.382    
    479000   958            400.16633      46.501277      283.80708      15517.086    
    479100   958.2          398.2368       46.277056      283.3785       16930.912    
    479200   958.4          387.13589      44.987076      286.0605       16685.053    
    479300   958.6          398.12321      46.263856      287.98297      15628.741    
    479400   958.8          404.03449      46.950775      287.66234      17788.177    
    479500   959            394.26144      45.8151        285.54162      14296.46     
    479600   959.2          408.24545      47.44011       284.34054      15940.588    
    479700   959.4          402.99106      46.829524      284.52101      15561.802    
    479800   959.6          400.02418      46.484757      287.56338      14666.11     
    479900   959.8          405.9763       47.176424      288.91618      15444.158    
    480000   960            398.9044       46.354634      287.99428      16746.664    
    480100   960.2          390.89138      45.423482      285.16562      15803.09     
    480200   960.4          377.74899      43.896273      284.57212      15438.216    
    480300   960.6          401.00544      46.598785      285.23861      15742.022    
    480400   960.8          414.69905      48.190049      287.74974      15315.34     
    480500   961            420.16334      48.825026      289.94661      16928.071    
    480600   961.2          401.07319      46.606658      288.2293       14815.977    
    480700   961.4          398.91189      46.355505      286.68456      14390.13     
    480800   961.6          414.33421      48.147653      285.9768       16408.536    
    480900   961.8          407.49304      47.352676      285.03005      15921.063    
    481000   962            405.16603      47.082265      284.68514      13242.706    
    481100   962.2          379.98638      44.156267      285.46243      17615.014    
    481200   962.4          412.61026      47.947322      287.89612      13846.55     
    481300   962.6          412.94578      47.98631       288.88847      16009.119    
    481400   962.8          406.93491      47.287818      286.57113      17653.323    
    481500   963            388.54511      45.150834      283.92651      14252        
    481600   963.2          401.67235      46.676283      284.27789      15059.606    
    481700   963.4          407.07845      47.304499      285.63589      16016.886    
    481800   963.6          400.94278      46.591503      287.58396      14740.344    
    481900   963.8          407.97422      47.408592      288.88399      14955.291    
    482000   964            409.08141      47.537252      286.78078      16014.741    
    482100   964.2          402.63649      46.788321      283.8776       14888.801    
    482200   964.4          384.40352      44.669562      283.80054      14940.398    
    482300   964.6          395.4558       45.95389       285.49709      14239.991    
    482400   964.8          415.78911      48.316719      287.92665      15101.531    
    482500   965            410.70163      47.72553       288.13642      16742.649    
    482600   965.2          395.14936      45.91828       286.76949      15888.833    
    482700   965.4          400.3249       46.519703      285.93789      15691.448    
    482800   965.6          404.24883      46.975683      285.34278      16078.616    
    482900   965.8          400.22331      46.507898      285.16347      15707.75     
    483000   966            401.45283      46.650774      284.89363      16739.667    
    483100   966.2          388.75811      45.175586      284.6841       15471.229    
    483200   966.4          413.01903      47.994823      285.69492      15115.487    
    483300   966.6          411.41633      47.808581      286.82157      17283.09     
    483400   966.8          408.67473      47.489994      287.71245      13980.097    
    483500   967            405.89058      47.166462      287.58894      15522.544    
    483600   967.2          403.17287      46.850651      285.14151      16624.252    
    483700   967.4          387.48867      45.02807       283.68579      13814.553    
    483800   967.6          381.42884      44.323889      284.98092      16392.038    
    483900   967.8          395.1723       45.920946      287.21581      16133.201    
    484000   968            405.78793      47.154533      287.31314      14722.417    
    484100   968.2          405.19358      47.085468      286.07193      16787.516    
    484200   968.4          395.06491      45.908467      284.89421      15332.159    
    484300   968.6          391.1796       45.456975      284.58528      14625.332    
    484400   968.8          402.84726      46.812814      286.22625      15689.468    
    484500   969            421.50246      48.980639      289.17205      15533.58     
    484600   969.2          406.03014      47.18268       288.002        15951.388    
    484700   969.4          392.66235      45.629277      285.46279      15558.894    
    484800   969.6          393.41406      45.71663       284.81907      16639.342    
    484900   969.8          392.31053      45.588394      285.32356      13381.532    
    485000   970            398.53367      46.311554      286.39762      14761.803    
    485100   970.2          409.16314      47.546749      289.50752      17141.042    
    485200   970.4          417.83059      48.55395       289.96536      12718.475    
    485300   970.6          409.243        47.55603       286.7971       14580.224    
    485400   970.8          402.31137      46.75054       285.69476      15353.507    
    485500   971            398.00928      46.250617      285.07656      15547.11     
    485600   971.2          409.97524      47.64112       285.0512       14356.51     
    485700   971.4          409.25019      47.556866      286.29846      18436.161    
    485800   971.6          389.10041      45.215363      287.81132      14846.29     
    485900   971.8          418.13706      48.589563      288.41826      15616.954    
    486000   972            402.15882      46.732813      285.67507      15989.878    
    486100   972.2          394.04878      45.790387      284.01363      16003.261    
    486200   972.4          397.62465      46.205921      284.97654      15550.545    
    486300   972.6          402.23161      46.741272      286.5495       16168.33     
    486400   972.8          409.88235      47.630325      289.15315      16662.975    
    486500   973            415.92501      48.332512      291.90994      17123.431    
    486600   973.2          430.21987      49.993644      292.17832      15569.558    
    486700   973.4          409.35969      47.56959       287.8261       16202.204    
    486800   973.6          398.35995      46.291366      285.94323      15009.237    
    486900   973.8          395.10067      45.912622      284.78458      16065.247    
    487000   974            396.48587      46.07359       284.47599      14233.7      
    487100   974.2          402.71074      46.796949      286.54698      17401.131    
    487200   974.4          402.8945       46.818303      288.68511      16849.719    
    487300   974.6          399.46468      46.419742      288.72839      14058.769    
    487400   974.8          409.96327      47.639729      287.23458      16996.461    
    487500   975            395.55303      45.965189      285.97345      16476.685    
    487600   975.2          396.59288      46.086025      285.79467      15110.536    
    487700   975.4          397.05502      46.139727      285.82841      16040.497    
    487800   975.6          399.47433      46.420862      286.31201      12820.556    
    487900   975.8          394.16631      45.804045      287.03202      16409.182    
    488000   976            408.55039      47.475545      287.80413      16313.822    
    488100   976.2          400.05348      46.488162      286.72671      15935.879    
    488200   976.4          395.95429      46.011817      284.34504      15673.912    
    488300   976.6          376.8576       43.792689      284.26054      15151.62     
    488400   976.8          401.54095      46.661014      286.65927      15329.947    
    488500   977            434.00474      50.433464      288.93707      16121.592    
    488600   977.2          401.28736      46.631545      287.85573      15189.885    
    488700   977.4          394.02609      45.787751      285.98842      14774.015    
    488800   977.6          388.86014      45.187442      284.562        14601.559    
    488900   977.8          397.87504      46.235018      284.61685      15149.584    
    489000   978            402.9429       46.823928      288.0685       14628.848    
    489100   978.2          424.66342      49.347958      289.5609       15497.8      
    489200   978.4          403.27931      46.86302       287.75727      14564.06     
    489300   978.6          403.03184      46.834263      286.01818      15524.376    
    489400   978.8          382.76092      44.478683      285.45666      13894.564    
    489500   979            382.72307      44.474285      285.941        16583.195    
    489600   979.2          420.5307       48.867715      289.49875      12876.658    
    489700   979.4          416.08239      48.3508        290.05076      15393.116    
    489800   979.6          416.03934      48.345797      288.10528      15197.385    
    489900   979.8          404.00884      46.947795      286.39689      14172.155    
    490000   980            385.88057      44.841202      285.63406      15422.554    
    490100   980.2          394.07685      45.793649      285.29984      14823.352    
    490200   980.4          410.13792      47.660023      286.462        15018.03     
    490300   980.6          398.37298      46.29288       288.94692      16197.039    
    490400   980.8          419.76105      48.778279      289.44252      16539.259    
    490500   981            397.28335      46.16626       286.38486      14058.457    
    490600   981.2          401.5026       46.656558      284.76798      16778.656    
    490700   981.4          418.5306       48.635294      285.13933      15031.934    
    490800   981.6          390.7395       45.405832      286.10701      14865.168    
    490900   981.8          405.21273      47.087693      288.26409      15212.465    
    491000   982            423.0772       49.163631      289.70425      16459.223    
    491100   982.2          394.47892      45.840372      287.54103      14786.84     
    491200   982.4          395.90141      46.005672      284.74701      14721.108    
    491300   982.6          387.99428      45.086825      284.29654      15824.482    
    491400   982.8          399.94111      46.475105      285.64808      14746.325    
    491500   983            415.57839      48.292233      287.79931      15372.224    
    491600   983.2          415.62687      48.297867      288.7948       15369.741    
    491700   983.4          398.70449      46.331404      285.96586      14362.661    
    491800   983.6          384.92729      44.730425      283.94122      15716.433    
    491900   983.8          383.70967      44.588933      284.24795      14578.832    
    492000   984            396.58028      46.08456       286.74502      14910.165    
    492100   984.2          413.27021      48.024012      287.97062      14690.42     
    492200   984.4          408.97366      47.524731      287.45851      15650.194    
    492300   984.6          393.33187      45.707079      286.46038      15932.158    
    492400   984.8          390.24454      45.348316      285.9576       15497.397    
    492500   985            406.64919      47.254617      285.70316      16271.388    
    492600   985.2          403.01805      46.832661      285.53787      16458.665    
    492700   985.4          403.50081      46.888759      285.8454       14765.829    
    492800   985.6          402.48858      46.771133      287.29759      16846.487    
    492900   985.8          411.19999      47.783441      288.82475      14302.752    
    493000   986            416.58589      48.40931       288.16843      17106.167    
    493100   986.2          395.14246      45.917479      284.9802       14250.51     
    493200   986.4          391.50702      45.495022      284.45299      15635.513    
    493300   986.6          397.83353      46.230193      285.14653      15272.695    
    493400   986.8          398.83237      46.346264      287.25176      13922.98     
    493500   987            418.0275       48.576831      289.31503      15882.573    
    493600   987.2          416.33874      48.38059       290.53445      15487.163    
    493700   987.4          400.12169      46.496089      287.61305      15741.578    
    493800   987.6          404.62435      47.01932       285.219        15730.965    
    493900   987.8          395.00217      45.901176      283.96615      14931.811    
    494000   988            392.49756      45.610128      284.31918      14620.623    
    494100   988.2          407.8114       47.389671      287.03062      13815.429    
    494200   988.4          415.77408      48.314973      288.23325      16324.87     
    494300   988.6          396.52859      46.078554      287.20204      14887.759    
    494400   988.8          395.5602       45.966022      286.23364      15653.219    
    494500   989            398.67534      46.328016      285.91403      16191.407    
    494600   989.2          402.81227      46.808748      285.763        15305.448    
    494700   989.4          396.69747      46.098178      286.05495      16190.324    
    494800   989.6          405.71437      47.145986      286.99242      16635.256    
    494900   989.8          395.35906      45.942649      287.85054      16609.223    
    495000   990            413.63281      48.066147      287.5554       15319.504    
    495100   990.2          402.09823      46.725773      284.75517      16264.382    
    495200   990.4          385.14848      44.75613       284.09244      16635.88     
    495300   990.6          404.44862      46.9989        285.43308      14906.925    
    495400   990.8          412.90515      47.981589      287.23116      16480.029    
    495500   991            405.44046      47.114156      287.26298      15741.811    
    495600   991.2          410.00987      47.645144      286.36707      14872.972    
    495700   991.4          415.03276      48.228828      285.22828      16757.238    
    495800   991.6          382.58074      44.457745      284.13755      14343.199    
    495900   991.8          390.49752      45.377713      283.42808      15094.721    
    496000   992            385.87956      44.841084      283.86413      15392.335    
    496100   992.2          402.99947      46.830501      286.36676      15079.794    
    496200   992.4          409.41569      47.576097      287.90177      15128.421    
    496300   992.6          401.94631      46.708118      286.78365      17365.933    
    496400   992.8          397.32319      46.17089       284.18405      14491.598    
    496500   993            374.1389       43.476762      283.56749      13711.318    
    496600   993.2          398.13968      46.26577       284.27119      16144.111    
    496700   993.4          388.15339      45.105314      285.64269      14781.339    
    496800   993.6          413.66435      48.069813      287.48661      16026.821    
    496900   993.8          401.53245      46.660027      288.97928      16397.566    
    497000   994            411.30791      47.795982      288.46282      15863.989    
    497100   994.2          412.19668      47.899262      285.15372      15270.428    
    497200   994.4          398.45161      46.302018      283.64975      15095.233    
    497300   994.6          400.51751      46.542085      283.96931      16212.415    
    497400   994.8          411.54398      47.823414      286.42062      15035.304    
    497500   995            415.60776      48.295646      287.80693      16276.908    
    497600   995.2          409.00307      47.528149      286.91915      15622.211    
    497700   995.4          395.67938      45.979871      286.04918      15763.304    
    497800   995.6          399.52893      46.427207      285.59691      16891.098    
    497900   995.8          396.27896      46.049545      285.63725      14637.796    
    498000   996            412.31594      47.913121      287.23563      15576.805    
    498100   996.2          415.56842      48.291074      290.21406      15728.071    
    498200   996.4          414.75556      48.196616      289.46899      15197.523    
    498300   996.6          403.5688       46.89666       286.58958      16951.169    
    498400   996.8          409.68483      47.607372      285.9051       14683.339    
    498500   997            407.7326       47.380514      285.75994      14217.385    
    498600   997.2          402.42198      46.763394      285.30012      14516.895    
    498700   997.4          388.20016      45.110749      284.35486      14707.766    
    498800   997.6          398.06374      46.256945      284.35229      15431.893    
    498900   997.8          401.65649      46.674441      286.02517      16726.492    
    499000   998            412.83554      47.9735        287.59847      16823.194    
    499100   998.2          410.47541      47.699242      287.50971      16965.678    
    499200   998.4          393.19357      45.691008      284.14609      14824.657    
    499300   998.6          393.28048      45.701107      283.08813      14550.342    
    499400   998.8          396.50348      46.075636      284.78619      15206.871    
    499500   999            395.46815      45.955325      286.5473       16280.569    
    499600   999.2          385.37749      44.782741      286.53628      13900.8      
    499700   999.4          398.67203      46.327632      285.92906      17376.086    
    499800   999.6          398.79361      46.34176       285.31078      13711.029    
    499900   999.8          387.97918      45.085071      283.13003      16033.507    
    500000   1000           388.15667      45.105695      282.37246      14842.122    
Loop time of 328.397 on 1 procs for 500000 steps with 900 atoms

Performance: 263.096 ns/day, 0.091 hours/ns, 1522.549 timesteps/s
54.5% CPU use with 1 MPI tasks x no OpenMP threads

MPI task timing breakdown:
Section |  min time  |  avg time  |  max time  |%varavg| %total
---------------------------------------------------------------
Pair    | 209.34     | 209.34     | 209.34     |   0.0 | 63.75
Neigh   | 106.88     | 106.88     | 106.88     |   0.0 | 32.55
Comm    | 3.8895     | 3.8895     | 3.8895     |   0.0 |  1.18
Output  | 2.1465     | 2.1465     | 2.1465     |   0.0 |  0.65
Modify  | 5.4376     | 5.4376     | 5.4376     |   0.0 |  1.66
Other   |            | 0.7055     |            |       |  0.21

Nlocal:            900 ave         900 max         900 min
Histogram: 1 0 0 0 0 0 0 0 0 0
Nghost:           2792 ave        2792 max        2792 min
Histogram: 1 0 0 0 0 0 0 0 0 0
Neighs:              0 ave           0 max           0 min
Histogram: 1 0 0 0 0 0 0 0 0 0
FullNghs:       100438 ave      100438 max      100438 min
Histogram: 1 0 0 0 0 0 0 0 0 0

Total # of neighbors = 100438
Ave neighs/atom = 111.59778
Neighbor list builds = 50000
Dangerous builds not checked

Total wall time: 0:05:47
