ITEM: TIMESTEP
0
ITEM: NUMBER OF ATOMS
56
ITEM: BOX BOUNDS xy xz yz pp pp pp
-1.5126976966857910e+00 1.2156271994113922e+01 8.9406967163085938e-07
-8.2894563674926758e-03 5.5346975326538086e+00 -1.5415264368057251e+00
-4.5665502548217773e-03 1.9024526596069336e+01 -5.9604644775390625e-08
ITEM: ATOMS id type xs ys zs fx fy fz
1 1 0.56845 0.999993 0.132369 0 0.0245171 0.61323
2 1 0.318449 0.166674 0.132369 0 -0.0245171 0.613228
3 1 0.225613 1 0.275226 0 -0.00110054 -0.00251389
4 1 0.975612 0.166667 0.275226 0 0.00109863 -0.00252342
5 1 0.882748 1 0.418084 0 -0.000183105 0.00153732
6 1 0.0684483 0.999993 0.132369 0 0.024519 0.613232
7 1 0.989853 0.500035 0.0609392 0 -0.0793972 0.633224
8 1 0.818448 0.166674 0.132369 0 -0.0245075 0.613235
9 1 0.739852 0.666632 0.0609392 0 0.0794048 0.633215
10 1 0.725612 1 0.275226 0 -0.00109482 -0.00251389
11 1 0.632749 0.166667 0.418084 0 0.00019455 0.00154114
12 1 0.539887 3.67832e-07 0.560938 0 -0.000301361 0.000581741
13 1 0.289887 0.166667 0.560938 0 0.000305176 0.000581741
14 1 0.197015 1 0.703795 0 -0.00056076 0.00233459
15 1 0.947014 0.166667 0.703795 0 0.000572205 0.00233078
16 1 0.854162 0.999999 0.846658 0 -0.00467873 -0.019352
17 1 0.647039 0.499999 0.203795 0 -0.00468445 0.0193596
18 1 0.475613 0.166667 0.275226 0 0.00110626 -0.00251389
19 1 0.397038 0.666668 0.203795 0 0.00467873 0.0193462
20 1 0.382749 1 0.418084 0 -0.000183105 0.00153542
21 1 0.304186 0.5 0.346658 0 -0.00056839 -0.00233841
22 1 0.132748 0.166667 0.418084 0 0.000181198 0.00153732
23 1 0.0541849 0.666667 0.346658 0 0.000572205 -0.00233078
24 1 0.0398861 3.50169e-07 0.560938 0 -0.000295639 0.000579834
25 1 0.961313 0.5 0.489515 0 -0.000305176 -0.000579834
26 1 0.789886 0.166667 0.560938 0 0.000307083 0.000577927
27 1 0.711312 0.666667 0.489515 0 0.000305176 -0.000585556
28 1 0.489854 0.500035 0.0609392 0 -0.0794048 0.633223
29 1 0.239854 0.666632 0.0609392 0 0.0793991 0.633224
30 1 0.147037 0.499999 0.203795 0 -0.00468826 0.0193462
31 1 0.897037 0.666668 0.203795 0 0.00467491 0.0193424
32 1 0.804185 0.5 0.346658 0 -0.000576019 -0.00233269
33 1 0.604163 0.166668 0.846658 0 0.00468063 -0.0193386
34 1 0.511347 3.5121e-05 0.989514 0 -0.0793991 -0.633221
35 1 0.261347 0.166632 0.989514 0 0.0794048 -0.633228
36 1 0.697016 1 0.703795 0 -0.000566483 0.00233459
37 1 0.618453 0.5 0.632369 0 -0.000196457 -0.00153351
38 1 0.447015 0.166667 0.703795 0 0.000570297 0.00233459
39 1 0.368452 0.666668 0.632369 0 0.000177383 -0.00153732
40 1 0.354163 0.999999 0.846658 0 -0.00468063 -0.0193462
41 1 0.275588 0.5 0.775226 0 -0.00110054 0.00251961
42 1 0.104162 0.166668 0.846658 0 0.00468445 -0.0193462
43 1 0.0255868 0.666667 0.775226 0 0.00109291 0.00251389
44 1 0.0113461 3.50854e-05 0.989514 0 -0.0794067 -0.633226
45 1 0.932751 0.499993 0.918084 0 0.0245132 -0.613235
46 1 0.554186 0.666667 0.346658 0 0.000562668 -0.00233269
47 1 0.461314 0.5 0.489515 0 -0.000307083 -0.000585556
48 1 0.211314 0.666667 0.489515 0 0.000305176 -0.000577927
49 1 0.118451 0.5 0.632369 0 -0.00018692 -0.00153923
50 1 0.868451 0.666667 0.632369 0 0.000183105 -0.00153732
51 1 0.775586 0.5 0.775226 0 -0.00109673 0.00250816
52 1 0.761348 0.166632 0.989514 0 0.0794029 -0.633224
53 1 0.682752 0.666674 0.918084 0 -0.0245113 -0.613224
54 1 0.525588 0.666667 0.775226 0 0.00110245 0.00252151
55 1 0.432752 0.499993 0.918084 0 0.0245075 -0.613222
56 1 0.182751 0.666674 0.918084 0 -0.0245247 -0.613235
ITEM: TIMESTEP
1
ITEM: NUMBER OF ATOMS
56
ITEM: BOX BOUNDS xy xz yz pp pp pp
-1.5126976966857910e+00 1.2156271994113922e+01 8.9406967163085938e-07
-8.2894563674926758e-03 5.5346975326538086e+00 -1.5415264368057251e+00
-4.5665502548217773e-03 1.9024526596069336e+01 -5.9604644775390625e-08
ITEM: ATOMS id type xs ys zs fx fy fz
1 1 0.569097 1.00069 0.137458 0 -0.002285 0.0446091
2 1 0.319096 0.165976 0.137458 0 0.00229073 0.0446186
3 1 0.22561 0.999968 0.275206 0 -0.0233078 0.116001
4 1 0.975609 0.166698 0.275206 0 0.0233116 0.116014
5 1 0.882749 0.999994 0.418097 0 -0.000597 0.000959396
6 1 0.0690952 1.00069 0.137458 0 -0.00229645 0.0446091
7 1 0.990521 0.497773 0.0661943 0 -0.0779266 0.0325909
8 1 0.819095 0.165976 0.137458 0 0.00228882 0.044611
9 1 0.74052 0.668894 0.0661942 0 0.0779247 0.0325947
10 1 0.725609 0.999969 0.275206 0 -0.0233059 0.11599
11 1 0.632751 0.166673 0.418097 0 0.000583649 0.00097084
12 1 0.539888 -8.21801e-06 0.560943 0 -0.000286102 0.00103188
13 1 0.289888 0.166675 0.560943 0 0.00028801 0.00102043
14 1 0.197017 0.999984 0.703814 0 -0.00268173 -0.00683975
15 1 0.947017 0.166684 0.703814 0 0.00268555 -0.00683022
16 1 0.854141 0.999866 0.846497 0 -0.00468636 -0.147358
17 1 0.647059 0.499866 0.203956 0 -0.00469017 0.147345
18 1 0.475611 0.166699 0.275206 0 0.0233116 0.116003
19 1 0.397059 0.666801 0.203956 0 0.00468254 0.147354
20 1 0.382751 0.999994 0.418097 0 -0.000589371 0.000965118
21 1 0.304183 0.499984 0.346639 0 -0.00267029 0.00683975
22 1 0.13275 0.166673 0.418097 0 0.000600815 0.000968933
23 1 0.0541824 0.666684 0.346639 0 0.00266838 0.00683022
24 1 0.0398867 -8.07265e-06 0.560943 0 -0.000286102 0.00102615
25 1 0.961312 0.499992 0.48951 0 -0.000291824 -0.00102234
26 1 0.789886 0.166675 0.560943 0 0.00028801 0.0010128
27 1 0.711312 0.666675 0.48951 0 0.000291824 -0.00102234
28 1 0.490522 0.497773 0.0661942 0 -0.0779362 0.0326118
29 1 0.240522 0.668894 0.0661943 0 0.0779285 0.0326004
30 1 0.147058 0.499866 0.203956 0 -0.00467873 0.14735
31 1 0.897057 0.666801 0.203956 0 0.00468636 0.147356
32 1 0.804182 0.499984 0.346639 0 -0.00267601 0.00684166
33 1 0.604143 0.166801 0.846497 0 0.00468636 -0.14735
34 1 0.510679 -0.00222698 0.984259 0 -0.0779247 -0.0326004
35 1 0.260679 0.168894 0.984259 0 0.0779266 -0.0326023
36 1 0.697018 0.999984 0.703814 0 -0.00267982 -0.00683403
37 1 0.618451 0.499994 0.632356 0 -0.000593185 -0.000961304
38 1 0.447018 0.166683 0.703814 0 0.00267601 -0.00683784
39 1 0.368451 0.666673 0.632356 0 0.000597 -0.000967026
40 1 0.354142 0.999866 0.846497 0 -0.0046711 -0.147346
41 1 0.27559 0.499969 0.775247 0 -0.0233078 -0.116005
42 1 0.104142 0.166801 0.846497 0 0.00468254 -0.147364
43 1 0.0255895 0.666699 0.775247 0 0.0233021 -0.115993
44 1 0.0106781 -0.00222723 0.984259 0 -0.0779247 -0.0326061
45 1 0.932104 0.500691 0.912995 0 -0.00228691 -0.0446148
46 1 0.554184 0.666683 0.346639 0 0.00267601 0.00683022
47 1 0.461313 0.499992 0.48951 0 -0.000303268 -0.00101852
48 1 0.211313 0.666675 0.48951 0 0.000291824 -0.00102997
49 1 0.11845 0.499994 0.632356 0 -0.000593185 -0.000967026
50 1 0.868449 0.666673 0.632356 0 0.000591278 -0.000965118
51 1 0.775589 0.499969 0.775247 0 -0.0233173 -0.115995
52 1 0.76068 0.168894 0.984259 0 0.0779285 -0.0325871
53 1 0.682105 0.665976 0.912995 0 0.00228882 -0.044611
54 1 0.525591 0.666699 0.775247 0 0.0233154 -0.116003
55 1 0.432105 0.500691 0.912995 0 -0.00229073 -0.044611
56 1 0.182104 0.665976 0.912995 0 0.00229073 -0.0446129
ITEM: TIMESTEP
2
ITEM: NUMBER OF ATOMS
56
ITEM: BOX BOUNDS xy xz yz pp pp pp
-1.5126976966857910e+00 1.2156271994113922e+01 8.9406967163085938e-07
-8.2894563674926758e-03 5.5346975326538086e+00 -1.5415264368057251e+00
-4.5665502548217773e-03 1.9024526596069336e+01 -5.9604644775390625e-08
ITEM: ATOMS id type xs ys zs fx fy fz
1 1 0.569234 1.0005 0.138541 0 -0.0261612 0.0571613
2 1 0.319234 0.166167 0.138541 0 0.0261517 0.0571537
3 1 0.225968 0.998025 0.278023 0 0.0134125 -0.00336647
4 1 0.975967 0.168642 0.278023 0 -0.0134144 -0.00338364
5 1 0.882752 0.999945 0.41812 0 -0.0111275 0.0589848
6 1 0.0692329 1.0005 0.138541 0 -0.0261383 0.0571613
7 1 0.990621 0.491276 0.0669858 0 -0.0104771 0.0289993
8 1 0.819233 0.166167 0.138541 0 0.0261517 0.0571632
9 1 0.740621 0.675391 0.0669858 0 0.0104733 0.0290012
10 1 0.725967 0.998026 0.278023 0 0.013401 -0.00335693
11 1 0.632754 0.166722 0.418121 0 0.0111275 0.0589676
12 1 0.539891 -3.20715e-05 0.560968 0 -0.00197411 -0.00425339
13 1 0.289891 0.166699 0.560968 0 0.00195885 -0.00424194
14 1 0.196996 0.99976 0.703648 0 -0.0136318 -0.0931644
15 1 0.946995 0.166907 0.703648 0 0.0136185 -0.0931816
16 1 0.853686 0.999475 0.842918 0 -0.0121536 0.0290108
17 1 0.647514 0.499475 0.207534 0 -0.0121346 -0.0289993
18 1 0.475969 0.168642 0.278023 0 -0.0134106 -0.00336456
19 1 0.397514 0.667192 0.207534 0 0.0121593 -0.0290051
20 1 0.382754 0.999945 0.41812 0 -0.0111275 0.0589828
21 1 0.304204 0.499761 0.346805 0 -0.0136395 0.0931587
22 1 0.132753 0.166723 0.418121 0 0.0111237 0.0589733
23 1 0.0542035 0.666906 0.346805 0 0.0136414 0.0931702
24 1 0.0398899 -3.19262e-05 0.560968 0 -0.0019722 -0.00425339
25 1 0.961309 0.499967 0.489485 0 -0.00195122 0.00424004
26 1 0.789889 0.166699 0.560968 0 0.00196075 -0.00422859
27 1 0.711309 0.6667 0.489485 0 0.0019455 0.00424576
28 1 0.490623 0.491275 0.0669862 0 -0.0104656 0.0289783
29 1 0.240622 0.675391 0.066986 0 0.0104656 0.0289974
30 1 0.147513 0.499476 0.207534 0 -0.0121651 -0.0290051
31 1 0.897512 0.667192 0.207534 0 0.0121555 -0.0289993
32 1 0.804203 0.49976 0.346805 0 -0.0136223 0.0931568
33 1 0.603688 0.167192 0.842919 0 0.0121555 0.0289993
34 1 0.510579 -0.00872388 0.983467 0 -0.010479 -0.0289898
35 1 0.260578 0.175391 0.983467 0 0.0104675 -0.0289898
36 1 0.696997 0.99976 0.703648 0 -0.0136261 -0.0931702
37 1 0.618448 0.499945 0.632333 0 -0.0111237 -0.058979
38 1 0.446997 0.166907 0.703648 0 0.0136356 -0.0931549
39 1 0.368448 0.666722 0.632332 0 0.0111179 -0.0589752
40 1 0.353688 0.999476 0.842919 0 -0.0121784 0.0289936
41 1 0.275232 0.498025 0.77243 0 0.0134144 0.00338173
42 1 0.103687 0.167192 0.842918 0 0.0121593 0.0290127
43 1 0.0252314 0.668641 0.77243 0 -0.013401 0.00335884
44 1 0.0105775 -0.00872414 0.983467 0 -0.0104713 -0.0289898
45 1 0.931966 0.500501 0.911911 0 -0.0261555 -0.0571613
46 1 0.554205 0.666906 0.346805 0 0.0136299 0.0931721
47 1 0.46131 0.499966 0.489485 0 -0.00194359 0.00424767
48 1 0.21131 0.6667 0.489485 0 0.00196266 0.00425911
49 1 0.118447 0.499945 0.632332 0 -0.0111179 -0.058979
50 1 0.868446 0.666722 0.632332 0 0.0111275 -0.0589867
51 1 0.775231 0.498025 0.77243 0 0.0134163 0.00336075
52 1 0.760579 0.175391 0.983467 0 0.0104694 -0.029007
53 1 0.681968 0.666167 0.911912 0 0.0261593 -0.0571613
54 1 0.525233 0.668643 0.77243 0 -0.0134106 0.00337601
55 1 0.431967 0.5005 0.911912 0 -0.026144 -0.0571613
56 1 0.181966 0.666167 0.911912 0 0.0261555 -0.0571594
ITEM: TIMESTEP
3
ITEM: NUMBER OF ATOMS
56
ITEM: BOX BOUNDS xy xz yz pp pp pp
-1.5126976966857910e+00 1.2156271994113922e+01 8.9406967163085938e-07
-8.2894563674926758e-03 5.5346975326538086e+00 -1.5415264368057251e+00
-4.5665502548217773e-03 1.9024526596069336e+01 -5.9604644775390625e-08
ITEM: ATOMS id type xs ys zs fx fy fz
1 1 0.569432 0.998579 0.140099 0 -0.014164 -0.0249634
2 1 0.319432 0.168087 0.140099 0 0.0141697 -0.0249615
3 1 0.226084 0.9983 0.278934 0 -0.00443649 0.0198078
4 1 0.976083 0.168367 0.278934 0 0.0044384 0.0198097
5 1 0.882908 0.999138 0.419347 0 -0.00154114 0.0207462
6 1 0.0694309 0.99858 0.140099 0 -0.014183 -0.0249615
7 1 0.990733 0.488272 0.0678603 0 0.00587654 -0.0437927
8 1 0.819431 0.168087 0.140099 0 0.0141792 -0.0249596
9 1 0.740732 0.678395 0.0678604 0 -0.00586891 -0.0438004
10 1 0.726083 0.998299 0.278934 0 -0.00442696 0.0198174
11 1 0.63291 0.167527 0.419347 0 0.00156212 0.0207443
12 1 0.539881 -0.000180352 0.560889 0 -0.0117912 -0.0228596
13 1 0.289881 0.166847 0.560889 0 0.0118103 -0.0228634
14 1 0.196744 0.998716 0.701666 0 -0.000883102 -0.00605011
15 1 0.946743 0.167951 0.701666 0 0.000892639 -0.00605202
16 1 0.853604 0.998477 0.842272 0 0.00601196 -0.0110607
17 1 0.647596 0.498478 0.208181 0 0.00599861 0.0110569
18 1 0.476085 0.168368 0.278934 0 0.00442314 0.0197926
19 1 0.397596 0.66819 0.208181 0 -0.00600624 0.011055
20 1 0.382909 0.999139 0.419347 0 -0.0015583 0.0207367
21 1 0.304456 0.498717 0.348787 0 -0.000896454 0.00605774
22 1 0.132909 0.167529 0.419347 0 0.00155067 0.0207386
23 1 0.0544555 0.667951 0.348787 0 0.000896454 0.00605392
24 1 0.0398798 -0.000180071 0.560889 0 -0.0117931 -0.0228729
25 1 0.961319 0.499821 0.489564 0 -0.0118084 0.0228634
26 1 0.789879 0.166847 0.560889 0 0.0118008 -0.0228729
27 1 0.711319 0.666846 0.489564 0 0.0118065 0.0228653
28 1 0.490734 0.488271 0.0678605 0 0.00587463 -0.0437889
29 1 0.240734 0.678395 0.0678605 0 -0.00586891 -0.0437965
30 1 0.147595 0.498477 0.208181 0 0.00601387 0.0110531
31 1 0.897595 0.66819 0.208181 0 -0.00601578 0.0110378
32 1 0.804455 0.498717 0.348787 0 -0.000904083 0.0060463
33 1 0.603606 0.16819 0.842272 0 -0.00601006 -0.0110416
34 1 0.510468 -0.0117286 0.982592 0 0.00587463 0.0437927
35 1 0.260467 0.178395 0.982592 0 -0.00586891 0.0437927
36 1 0.696745 0.998716 0.701666 0 -0.000894547 -0.0060482
37 1 0.618292 0.499139 0.631106 0 -0.00154877 -0.0207386
38 1 0.446745 0.167951 0.701666 0 0.000886917 -0.00606346
39 1 0.368292 0.667528 0.631106 0 0.00154305 -0.0207329
40 1 0.353605 0.998477 0.842272 0 0.00602341 -0.0110474
41 1 0.275116 0.4983 0.771519 0 -0.00444412 -0.0198174
42 1 0.103604 0.16819 0.842272 0 -0.00600815 -0.0110474
43 1 0.0251156 0.668367 0.771519 0 0.00442696 -0.0198078
44 1 0.0104663 -0.0117283 0.982592 0 0.00587082 0.0437832
45 1 0.931768 0.49858 0.910354 0 -0.0141716 0.0249653
46 1 0.554457 0.667951 0.348787 0 0.000892639 0.00605583
47 1 0.46132 0.49982 0.489564 0 -0.0118065 0.0228596
48 1 0.21132 0.666847 0.489564 0 0.0118008 0.0228634
49 1 0.118291 0.499139 0.631106 0 -0.00156212 -0.0207386
50 1 0.86829 0.667528 0.631106 0 0.00155067 -0.0207386
51 1 0.775115 0.498299 0.771519 0 -0.00442123 -0.0198135
52 1 0.760468 0.178395 0.982592 0 -0.00586891 0.0438023
53 1 0.68177 0.668088 0.910354 0 0.0141659 0.024971
54 1 0.525117 0.668369 0.771519 0 0.00442696 -0.0198174
55 1 0.431769 0.49858 0.910354 0 -0.014183 0.0249748
56 1 0.181768 0.668088 0.910354 0 0.0141659 0.0249653
ITEM: TIMESTEP
4
ITEM: NUMBER OF ATOMS
56
ITEM: BOX BOUNDS xy xz yz pp pp pp
-1.5126976966857910e+00 1.2156271994113922e+01 8.9406967163085938e-07
-8.2894563674926758e-03 5.5346975326538086e+00 -1.5415264368057251e+00
-4.5665502548217773e-03 1.9024526596069336e+01 -5.9604644775390625e-08
ITEM: ATOMS id type xs ys zs fx fy fz
1 1 0.569427 0.997398 0.140055 0 0.00460052 0.00198174
2 1 0.319426 0.16927 0.140055 0 -0.00459862 0.00196838
3 1 0.226149 0.998123 0.279444 0 0.000692368 0.0050602
4 1 0.976148 0.168544 0.279444 0 -0.000688553 0.00506592
5 1 0.882984 0.998878 0.419941 0 -0.00401115 -0.00515556
6 1 0.0694253 0.997397 0.140055 0 0.00460243 0.00197601
7 1 0.990671 0.487921 0.067372 0 0.00508308 -0.00567245
8 1 0.819425 0.16927 0.140055 0 -0.00460815 0.00197601
9 1 0.74067 0.678746 0.067372 0 -0.00508881 -0.00567436
10 1 0.726148 0.998123 0.279444 0 0.000696182 0.00505066
11 1 0.632985 0.167789 0.419941 0 0.00401306 -0.00514793
12 1 0.539834 -0.000843291 0.560516 0 -0.00651932 -0.00101471
13 1 0.289833 0.16751 0.560516 0 0.0065136 -0.00100899
14 1 0.196676 0.998438 0.701133 0 0.0020237 0.00308609
15 1 0.946676 0.16823 0.701133 0 -0.0020237 0.003088
16 1 0.853564 0.998578 0.841957 0 0.00116348 0.000612259
17 1 0.647636 0.498578 0.208496 0 0.00115013 -0.000610352
18 1 0.476149 0.168544 0.279444 0 -0.00069046 0.00506973
19 1 0.397636 0.66809 0.208496 0 -0.00116158 -0.000616074
20 1 0.382985 0.998878 0.419941 0 -0.00401306 -0.00514793
21 1 0.304524 0.498438 0.349319 0 0.00203514 -0.00308037
22 1 0.132984 0.16779 0.419941 0 0.00400925 -0.00515366
23 1 0.0545231 0.66823 0.349319 0 -0.00202942 -0.00309181
24 1 0.0398323 -0.000843082 0.560515 0 -0.00651932 -0.000993729
25 1 0.961366 0.499157 0.489937 0 -0.00652885 0.0010128
26 1 0.789832 0.16751 0.560515 0 0.00653076 -0.00100899
27 1 0.711366 0.66751 0.489937 0 0.00652504 0.00100899
28 1 0.490672 0.487921 0.0673722 0 0.00509834 -0.00567055
29 1 0.240671 0.678746 0.0673722 0 -0.00509262 -0.00568008
30 1 0.147635 0.498578 0.208496 0 0.00115395 -0.000600815
31 1 0.897635 0.668089 0.208496 0 -0.00114822 -0.000612259
32 1 0.804523 0.498438 0.349319 0 0.00202942 -0.00308609
33 1 0.603566 0.168089 0.841957 0 -0.00115395 0.000617981
34 1 0.51053 -0.0120791 0.983081 0 0.0050869 0.00567245
35 1 0.260529 0.178746 0.983081 0 -0.00508308 0.00568008
36 1 0.696678 0.998438 0.701133 0 0.0020237 0.00309563
37 1 0.618217 0.498878 0.630512 0 -0.00401688 0.00515175
38 1 0.446677 0.168229 0.701134 0 -0.00203133 0.00308228
39 1 0.368216 0.667789 0.630512 0 0.00402451 0.00515175
40 1 0.353565 0.998578 0.841957 0 0.00115013 0.000606537
41 1 0.275052 0.498123 0.771009 0 0.000694275 -0.00506592
42 1 0.103564 0.168089 0.841957 0 -0.00115967 0.000608444
43 1 0.0250508 0.668543 0.771009 0 -0.000682831 -0.00507164
44 1 0.0105284 -0.0120789 0.98308 0 0.00509071 0.00568008
45 1 0.931774 0.497398 0.910398 0 0.00459862 -0.00197792
46 1 0.554524 0.668229 0.349319 0 -0.00202751 -0.00308609
47 1 0.461368 0.499156 0.489937 0 -0.00651932 0.00100517
48 1 0.211367 0.667511 0.489937 0 0.00650597 0.00100136
49 1 0.118215 0.498878 0.630512 0 -0.00400925 0.00514984
50 1 0.868215 0.667789 0.630512 0 0.00401115 0.00515556
51 1 0.77505 0.498124 0.771009 0 0.000686646 -0.00506401
52 1 0.76053 0.178746 0.983081 0 -0.00508499 0.00567436
53 1 0.681775 0.66927 0.910398 0 -0.00460815 -0.00197411
54 1 0.525052 0.668544 0.771009 0 -0.000696182 -0.00505638
55 1 0.431775 0.497397 0.910398 0 0.00460243 -0.00198555
56 1 0.181774 0.66927 0.910398 0 -0.00460052 -0.00198174
ITEM: TIMESTEP
5
ITEM: NUMBER OF ATOMS
56
ITEM: BOX BOUNDS xy xz yz pp pp pp
-1.5126976966857910e+00 1.2156271994113922e+01 8.9406967163085938e-07
-8.2894563674926758e-03 5.5346975326538086e+00 -1.5415264368057251e+00
-4.5665502548217773e-03 1.9024526596069336e+01 -5.9604644775390625e-08
ITEM: ATOMS id type xs ys zs fx fy fz
1 1 0.569432 0.997729 0.140096 0 0.00125504 0.00253487
2 1 0.319432 0.168938 0.140096 0 -0.00125504 0.00254822
3 1 0.226162 0.998173 0.27955 0 0.00041008 -0.00234985
4 1 0.976162 0.168494 0.27955 0 -0.000406265 -0.00235558
5 1 0.88297 0.998588 0.419833 0 -0.00120926 0.00294495
6 1 0.0694306 0.997729 0.140096 0 0.00124359 0.00254059
7 1 0.990655 0.488288 0.0672528 0 0.00230408 0.00150299
8 1 0.81943 0.168938 0.140097 0 -0.00124168 0.00252533
9 1 0.740655 0.678379 0.0672527 0 -0.00230598 0.00151062
10 1 0.726161 0.998173 0.27955 0 0.000404358 -0.00233269
11 1 0.632972 0.168079 0.419833 0 0.00120926 0.00294304
12 1 0.539831 -0.00131354 0.560494 0 -0.00145149 -0.000347137
13 1 0.289831 0.16798 0.560494 0 0.00146103 -0.000358582
14 1 0.196684 0.998584 0.701198 0 -0.000360489 -0.00127411
15 1 0.946684 0.168084 0.701198 0 0.000375748 -0.00126266
16 1 0.853566 0.998662 0.841969 0 0.00113869 0.00267601
17 1 0.647635 0.498661 0.208483 0 0.00114059 -0.00267792
18 1 0.476163 0.168494 0.27955 0 -0.000400543 -0.00234604
19 1 0.397634 0.668006 0.208483 0 -0.00115013 -0.00266457
20 1 0.382971 0.998588 0.419833 0 -0.00120354 0.00294113
21 1 0.304516 0.498584 0.349255 0 -0.000375748 0.00126839
22 1 0.13297 0.168079 0.419833 0 0.00120354 0.00294495
23 1 0.0545149 0.668083 0.349254 0 0.000368118 0.00127983
24 1 0.0398296 -0.00131333 0.560494 0 -0.00145531 -0.000371933
25 1 0.961369 0.498686 0.489959 0 -0.00144577 0.000350952
26 1 0.789829 0.167981 0.560494 0 0.00143433 -0.000354767
27 1 0.711369 0.66798 0.489959 0 0.00145912 0.000352859
28 1 0.490657 0.488288 0.067253 0 0.00229263 0.00148582
29 1 0.240656 0.678378 0.0672528 0 -0.00229073 0.0015049
30 1 0.147633 0.498661 0.208483 0 0.00114441 -0.00267601
31 1 0.897633 0.668006 0.208483 0 -0.00114632 -0.0026741
32 1 0.804515 0.498584 0.349254 0 -0.000364304 0.00127602
33 1 0.603567 0.168006 0.84197 0 -0.00114632 0.00265694
34 1 0.510545 -0.0117122 0.9832 0 0.00230598 -0.00148964
35 1 0.260544 0.178379 0.9832 0 -0.00230598 -0.00151443
36 1 0.696686 0.998584 0.701199 0 -0.000352859 -0.00128365
37 1 0.61823 0.498588 0.63062 0 -0.00120544 -0.00294495
38 1 0.446685 0.168083 0.701198 0 0.000368118 -0.00126648
39 1 0.36823 0.668079 0.63062 0 0.00119209 -0.00294685
40 1 0.353567 0.998661 0.841969 0 0.00114822 0.00267601
41 1 0.275038 0.498173 0.770903 0 0.000402451 0.00234222
42 1 0.103566 0.168006 0.841969 0 -0.00114059 0.0026741
43 1 0.0250372 0.668494 0.770903 0 -0.00041008 0.00234985
44 1 0.0105436 -0.0117117 0.9832 0 0.00228882 -0.00148964
45 1 0.931768 0.497729 0.910356 0 0.00126076 -0.00255203
46 1 0.554516 0.668083 0.349254 0 0.000362396 0.00127792
47 1 0.461371 0.498686 0.489959 0 -0.00144958 0.000366211
48 1 0.21137 0.66798 0.489958 0 0.00146103 0.000364304
49 1 0.118229 0.498589 0.63062 0 -0.00121307 -0.00294876
50 1 0.868229 0.668079 0.63062 0 0.00121307 -0.00295639
51 1 0.775037 0.498173 0.770903 0 0.000408173 0.00235367
52 1 0.760545 0.178379 0.9832 0 -0.0023098 -0.00149345
53 1 0.68177 0.668938 0.910357 0 -0.0012455 -0.00254059
54 1 0.525039 0.668494 0.770903 0 -0.00041008 0.00234604
55 1 0.43177 0.497729 0.910356 0 0.0012455 -0.00252914
56 1 0.181769 0.668938 0.910356 0 -0.00124931 -0.00253677
ITEM: TIMESTEP
6
ITEM: NUMBER OF ATOMS
56
ITEM: BOX BOUNDS xy xz yz pp pp pp
-1.5126976966857910e+00 1.2156271994113922e+01 8.9406967163085938e-07
-8.2894563674926758e-03 5.5346975326538086e+00 -1.5415264368057251e+00
-4.5665502548217773e-03 1.9024526596069336e+01 -5.9604644775390625e-08
ITEM: ATOMS id type xs ys zs fx fy fz
1 1 0.569438 0.997843 0.140141 0 0.000295639 -0.00144196
2 1 0.319437 0.168824 0.140141 0 -0.000291824 -0.00144577
3 1 0.22616 0.998202 0.279531 0 7.62939e-06 0.000494003
4 1 0.976159 0.168466 0.279531 0 -3.8147e-06 0.000484467
5 1 0.882973 0.998483 0.419861 0 2.86102e-05 0.000829697
6 1 0.0694363 0.997843 0.140141 0 0.000299454 -0.00144768
7 1 0.990656 0.488461 0.0672577 0 0.000669479 -0.000240326
8 1 0.819436 0.168824 0.140141 0 -0.000297546 -0.00144005
9 1 0.740656 0.678206 0.0672578 0 -0.000667572 -0.000232697
10 1 0.726159 0.998202 0.279531 0 -5.72205e-06 0.000484467
11 1 0.632975 0.168184 0.419861 0 -3.43323e-05 0.000829697
12 1 0.53983 -0.00145821 0.560486 0 -8.39233e-05 0.000324249
13 1 0.289829 0.168125 0.560486 0 7.82013e-05 0.000329971
14 1 0.196683 0.998587 0.701189 0 -0.000640869 -0.000255585
15 1 0.946683 0.168081 0.701189 0 0.000637054 -0.000267029
16 1 0.853571 0.998733 0.842012 0 0.000720978 -0.000246048
17 1 0.647629 0.498733 0.208441 0 0.000730515 0.000259399
18 1 0.47616 0.168466 0.279531 0 -5.72205e-06 0.000486374
19 1 0.397629 0.667934 0.208441 0 -0.00071907 0.000255585
20 1 0.382975 0.998483 0.419861 0 3.43323e-05 0.000833511
21 1 0.304517 0.498587 0.349264 0 -0.000648499 0.00025177
22 1 0.132974 0.168184 0.419861 0 -3.43323e-05 0.000823975
23 1 0.0545161 0.668081 0.349264 0 0.000640869 0.000255585
24 1 0.0398285 -0.0014582 0.560486 0 -7.62939e-05 0.000329971
25 1 0.96137 0.498542 0.489967 0 -8.7738e-05 -0.000326157
26 1 0.789828 0.168125 0.560486 0 9.34601e-05 0.000328064
27 1 0.71137 0.668125 0.489967 0 8.2016e-05 -0.000333786
28 1 0.490657 0.488461 0.0672577 0 0.000671387 -0.00021553
29 1 0.240657 0.678206 0.0672578 0 -0.000669479 -0.000230789
30 1 0.147628 0.498733 0.208441 0 0.000728607 0.00025177
31 1 0.897628 0.667935 0.208441 0 -0.0007267 0.000261307
32 1 0.804516 0.498587 0.349264 0 -0.000642776 0.000257492
33 1 0.603573 0.167934 0.842012 0 -0.000730515 -0.000244141
34 1 0.510544 -0.0115387 0.983195 0 0.000671387 0.000217438
35 1 0.260543 0.178206 0.983195 0 -0.000667572 0.000234604
36 1 0.696685 0.998587 0.701189 0 -0.000650406 -0.000261307
37 1 0.618227 0.498483 0.630592 0 3.43323e-05 -0.000825882
38 1 0.446684 0.16808 0.701189 0 0.000638962 -0.000253677
39 1 0.368226 0.668184 0.630592 0 -2.67029e-05 -0.000837326
40 1 0.353572 0.998733 0.842012 0 0.000724792 -0.00025177
41 1 0.275041 0.498202 0.770922 0 3.8147e-06 -0.000486374
42 1 0.103571 0.167934 0.842012 0 -0.000730515 -0.00025177
43 1 0.0250397 0.668466 0.770922 0 1.90735e-06 -0.000490189
44 1 0.010543 -0.0115391 0.983195 0 0.000675201 0.000219345
45 1 0.931763 0.497844 0.910312 0 0.000293732 0.00146103
46 1 0.554517 0.66808 0.349264 0 0.000644684 0.000246048
47 1 0.461372 0.498542 0.489967 0 -8.96454e-05 -0.000326157
48 1 0.211371 0.668125 0.489967 0 8.96454e-05 -0.000324249
49 1 0.118225 0.498483 0.630592 0 3.05176e-05 -0.000833511
50 1 0.868225 0.668184 0.630592 0 -3.62396e-05 -0.000818253
51 1 0.775039 0.498202 0.770922 0 0 -0.000488281
52 1 0.760545 0.178206 0.983195 0 -0.000667572 0.000219345
53 1 0.681764 0.668824 0.910312 0 -0.000293732 0.00145149
54 1 0.525041 0.668466 0.770922 0 3.8147e-06 -0.000488281
55 1 0.431764 0.497843 0.910312 0 0.000299454 0.00144005
56 1 0.181763 0.668824 0.910312 0 -0.000301361 0.00144386
ITEM: TIMESTEP
7
ITEM: NUMBER OF ATOMS
56
ITEM: BOX BOUNDS xy xz yz pp pp pp
-1.5126976966857910e+00 1.2156271994113922e+01 8.9406967163085938e-07
-8.2894563674926758e-03 5.5346975326538086e+00 -1.5415264368057251e+00
-4.5665502548217773e-03 1.9024526596069336e+01 -5.9604644775390625e-08
ITEM: ATOMS id type xs ys zs fx fy fz
1 1 0.569435 0.997881 0.140118 0 0.000339508 9.15527e-05
2 1 0.319434 0.168786 0.140118 0 -0.00034523 9.34601e-05
3 1 0.226161 0.998207 0.279538 0 0.000141144 2.67029e-05
4 1 0.97616 0.168461 0.279537 0 -0.000150681 3.62396e-05
5 1 0.882976 0.998469 0.419882 0 1.71661e-05 -0.000110626
6 1 0.0694334 0.997881 0.140118 0 0.000352859 9.15527e-05
7 1 0.990656 0.488534 0.0672536 0 0.000242233 0.000391006
8 1 0.819433 0.168786 0.140118 0 -0.000347137 9.72748e-05
9 1 0.740655 0.678132 0.0672538 0 -0.000240326 0.000379562
10 1 0.72616 0.998206 0.279538 0 0.000164032 2.47955e-05
11 1 0.632978 0.168198 0.419882 0 -2.09808e-05 -0.000108719
12 1 0.539831 -0.00148608 0.560491 0 0.000160217 0.000213623
13 1 0.28983 0.168153 0.560491 0 -0.000162125 0.000207901
14 1 0.196682 0.998542 0.701182 0 -3.05176e-05 2.09808e-05
15 1 0.946682 0.168126 0.701182 0 2.67029e-05 3.05176e-05
16 1 0.853571 0.998794 0.842013 0 -0.000169754 -0.000387192
17 1 0.647629 0.498795 0.20844 0 -0.000175476 0.00037384
18 1 0.476161 0.168461 0.279538 0 -0.000156403 3.05176e-05
19 1 0.397629 0.667873 0.20844 0 0.000167847 0.000366211
20 1 0.382978 0.998469 0.419882 0 9.53674e-06 -9.91821e-05
21 1 0.304518 0.498542 0.349271 0 -7.62939e-06 -1.52588e-05
22 1 0.132977 0.168198 0.419882 0 -1.14441e-05 -9.34601e-05
23 1 0.054517 0.668125 0.349271 0 2.28882e-05 -2.47955e-05
24 1 0.0398292 -0.00148556 0.560491 0 0.000148773 0.00019455
25 1 0.96137 0.498514 0.489962 0 0.000164032 -0.000209808
26 1 0.789829 0.168153 0.560491 0 -0.000165939 0.000192642
27 1 0.711369 0.668153 0.489961 0 -0.000160217 -0.000196457
28 1 0.490657 0.488535 0.067254 0 0.000240326 0.000368118
29 1 0.240656 0.678133 0.0672538 0 -0.000246048 0.000379562
30 1 0.147628 0.498794 0.20844 0 -0.000165939 0.000366211
31 1 0.897627 0.667873 0.20844 0 0.000167847 0.000362396
32 1 0.804517 0.498543 0.349271 0 -3.05176e-05 -1.33514e-05
33 1 0.603573 0.167872 0.842013 0 0.000173569 -0.000391006
34 1 0.510545 -0.0114653 0.983199 0 0.000240326 -0.000371933
35 1 0.260544 0.178133 0.983199 0 -0.000246048 -0.000377655
36 1 0.696684 0.998542 0.701182 0 -1.33514e-05 3.24249e-05
37 1 0.618224 0.498469 0.630571 0 2.28882e-05 9.91821e-05
38 1 0.446683 0.168125 0.701182 0 2.47955e-05 2.28882e-05
39 1 0.368224 0.668198 0.630571 0 -7.62939e-06 0.000118256
40 1 0.353572 0.998794 0.842013 0 -0.000154495 -0.000370026
41 1 0.27504 0.498206 0.770915 0 0.000150681 -3.24249e-05
42 1 0.103572 0.167872 0.842013 0 0.000173569 -0.000375748
43 1 0.0250388 0.668461 0.770915 0 -0.00015831 -2.86102e-05
44 1 0.0105434 -0.0114656 0.983199 0 0.000236511 -0.000370026
45 1 0.931766 0.497881 0.910335 0 0.000339508 -0.000106812
46 1 0.554518 0.668125 0.349271 0 2.67029e-05 -9.53674e-06
47 1 0.461371 0.498513 0.489962 0 0.00015831 -0.000205994
48 1 0.21137 0.668153 0.489962 0 -0.000162125 -0.000219345
49 1 0.118223 0.498469 0.630571 0 1.90735e-05 0.000108719
50 1 0.868222 0.668198 0.630571 0 -1.14441e-05 9.15527e-05
51 1 0.775038 0.498206 0.770915 0 0.00015831 -1.33514e-05
52 1 0.760545 0.178132 0.983199 0 -0.000240326 -0.000368118
53 1 0.681767 0.668786 0.910335 0 -0.000349045 -0.000102997
54 1 0.52504 0.668462 0.770915 0 -0.000156403 -3.24249e-05
55 1 0.431767 0.497881 0.910335 0 0.000341415 -8.7738e-05
56 1 0.181766 0.668786 0.910335 0 -0.00034523 -8.96454e-05
ITEM: TIMESTEP
8
ITEM: NUMBER OF ATOMS
56
ITEM: BOX BOUNDS xy xz yz pp pp pp
-1.5126976966857910e+00 1.2156271994113922e+01 8.9406967163085938e-07
-8.2894563674926758e-03 5.5346975326538086e+00 -1.5415264368057251e+00
-4.5665502548217773e-03 1.9024526596069336e+01 -5.9604644775390625e-08
ITEM: ATOMS id type xs ys zs fx fy fz
1 1 0.569435 0.99791 0.140117 0 -4.57764e-05 3.43323e-05
2 1 0.319434 0.168757 0.140117 0 3.8147e-05 3.8147e-05
3 1 0.226161 0.998217 0.279539 0 -7.05719e-05 3.8147e-06
4 1 0.97616 0.16845 0.279539 0 7.82013e-05 5.72205e-06
5 1 0.882976 0.998468 0.419882 0 3.62396e-05 1.90735e-06
6 1 0.0694332 0.99791 0.140117 0 -4.95911e-05 3.8147e-05
7 1 0.990656 0.48856 0.067261 0 0.000183105 8.58307e-05
8 1 0.819433 0.168757 0.140117 0 4.00543e-05 2.09808e-05
9 1 0.740656 0.678107 0.067261 0 -0.000177383 8.96454e-05
10 1 0.72616 0.998218 0.279539 0 -9.72748e-05 1.71661e-05
11 1 0.632978 0.168198 0.419882 0 -3.8147e-05 5.72205e-06
12 1 0.539831 -0.00147837 0.560496 0 5.72205e-05 -0.000114441
13 1 0.289831 0.168145 0.560496 0 -5.34058e-05 -0.000108719
14 1 0.196682 0.998535 0.701182 0 0.000106812 -3.8147e-06
15 1 0.946682 0.168133 0.701182 0 -9.53674e-05 -2.47955e-05
16 1 0.85357 0.99879 0.842005 0 -3.8147e-06 -0.000106812
17 1 0.64763 0.49879 0.208447 0 -1.90735e-06 0.000120163
18 1 0.476162 0.16845 0.279539 0 9.34601e-05 1.33514e-05
19 1 0.39763 0.667877 0.208447 0 7.62939e-06 0.000120163
20 1 0.382978 0.998468 0.419883 0 3.05176e-05 -1.33514e-05
21 1 0.304518 0.498536 0.349271 0 8.39233e-05 5.72205e-06
22 1 0.132977 0.168199 0.419883 0 -3.8147e-05 -7.62939e-06
23 1 0.054517 0.668132 0.349271 0 -9.34601e-05 1.52588e-05
24 1 0.0398298 -0.00147859 0.560496 0 6.10352e-05 -0.000104904
25 1 0.961369 0.498522 0.489957 0 5.91278e-05 0.000112534
26 1 0.789829 0.168145 0.560496 0 -4.95911e-05 -9.72748e-05
27 1 0.711369 0.668145 0.489957 0 -6.10352e-05 0.000110626
28 1 0.490658 0.48856 0.067261 0 0.000171661 9.15527e-05