ITEM: TIMESTEP
0
ITEM: NUMBER OF ATOMS
48
ITEM: BOX BOUNDS xy xz yz pp pp pp
-1.4596591591835022e+00 8.6067802309989929e+00 2.5094206929206848e+00
-9.4973444938659668e-03 9.3236122131347656e+00 -1.4476220607757568e+00
-2.8691649436950684e-02 1.9545819282531738e+01 7.1304261684417725e-02
ITEM: ATOMS id type xs ys zs fx fy fz
1 1 0.929187 0.16703 0.0320218 0 0 0.000350952
2 1 0.470753 0.0738739 0.0528103 0 0 -0.000343323
3 1 0.179379 0.125314 0.657023 0 0 0.000322342
4 1 0.220865 0.948847 0.927808 0 0 -0.000347137
5 1 0.970947 0.157156 0.802805 0 0 -0.000322342
6 1 0.679298 0.0420026 0.90702 0 0 0.00034523
7 1 0.429375 0.250315 0.78202 0 0 0.000335693
8 1 0.679176 0.208712 0.407029 0 0 0.000303268
9 1 0.720955 0.0321465 0.677802 0 0 -0.000307083
10 1 0.470876 0.240498 0.552801 0 0 -0.000293732
11 1 0.720677 0.198895 0.17781 0 0 -0.000341415
12 1 0.429097 0.0837297 0.282028 0 0 0.000307083
13 1 0.179105 0.292053 0.157025 0 0 0.000314713
14 1 0.220755 0.115534 0.427803 0 0 -0.00030899
15 1 0.929187 0.500363 0.0320219 0 0 0.000343323
16 1 0.470754 0.407207 0.0528103 0 0 -0.000341415
17 1 0.179379 0.458648 0.657023 0 0 0.000322342
18 1 0.220864 0.28218 0.927808 0 0 -0.00034523
19 1 0.970947 0.49049 0.802805 0 0 -0.00031662
20 1 0.679298 0.375336 0.90702 0 0 0.00034523
21 1 0.429375 0.583648 0.78202 0 0 0.000331879
22 1 0.929298 0.333676 0.532027 0 0 0.000305176
23 1 0.679177 0.542046 0.407029 0 0 0.000295639
24 1 0.720955 0.36548 0.677802 0 0 -0.000303268
25 1 0.470876 0.573831 0.552801 0 0 -0.000297546
26 1 0.970673 0.323895 0.302807 0 0 -0.000318527
27 1 0.720677 0.532228 0.17781 0 0 -0.000335693
28 1 0.429097 0.417063 0.282028 0 0 0.000310898
29 1 0.179105 0.625387 0.157025 0 0 0.00031662
30 1 0.220754 0.448867 0.427803 0 0 -0.00030899
31 1 0.929187 0.833696 0.0320219 0 0 0.000337601
32 1 0.470753 0.740541 0.0528104 0 0 -0.00034523
33 1 0.179379 0.791981 0.657023 0 0 0.000322342
34 1 0.220864 0.615514 0.927808 0 0 -0.00034523
35 1 0.970947 0.823823 0.802805 0 0 -0.000318527
36 1 0.679298 0.708669 0.90702 0 0 0.000349045
37 1 0.429375 0.916981 0.78202 0 0 0.000337601
38 1 0.929297 0.667009 0.532027 0 0 0.000303268
39 1 0.679176 0.875379 0.407029 0 0 0.000299454
40 1 0.720955 0.698813 0.677802 0 0 -0.00030899
41 1 0.470875 0.907164 0.552801 0 0 -0.000293732
42 1 0.970673 0.657228 0.302807 0 0 -0.000322342
43 1 0.720677 0.865562 0.17781 0 0 -0.000335693
44 1 0.429097 0.750396 0.282028 0 0 0.000307083
45 1 0.179105 0.95872 0.157026 0 0 0.000312805
46 1 0.220755 0.782201 0.427803 0 0 -0.000303268
47 1 0.929297 0.000342385 0.532027 0 0 0.000303268
48 1 0.970673 0.990562 0.302807 0 0 -0.000318527
ITEM: TIMESTEP
1
ITEM: NUMBER OF ATOMS
48
ITEM: BOX BOUNDS xy xz yz pp pp pp
-1.4596591591835022e+00 8.6067802309989929e+00 2.5094206929206848e+00
-9.4973444938659668e-03 9.3236122131347656e+00 -1.4476220607757568e+00
-2.8691649436950684e-02 1.9545819282531738e+01 7.1304261684417725e-02
ITEM: ATOMS id type xs ys zs fx fy fz
1 1 0.929187 0.16703 0.0320218 0 0 0.000350952
2 1 0.470753 0.0738739 0.0528103 0 0 -0.000343323
3 1 0.179379 0.125314 0.657023 0 0 0.000322342
4 1 0.220865 0.948847 0.927808 0 0 -0.000347137
5 1 0.970947 0.157156 0.802805 0 0 -0.000322342
6 1 0.679298 0.0420026 0.90702 0 0 0.00034523
7 1 0.429375 0.250315 0.78202 0 0 0.000335693
8 1 0.679176 0.208712 0.407029 0 0 0.000303268
9 1 0.720955 0.0321465 0.677802 0 0 -0.000307083
10 1 0.470876 0.240498 0.552801 0 0 -0.000293732
11 1 0.720677 0.198895 0.17781 0 0 -0.000341415
12 1 0.429097 0.0837297 0.282028 0 0 0.000307083
13 1 0.179105 0.292053 0.157025 0 0 0.000314713
14 1 0.220755 0.115534 0.427803 0 0 -0.00030899
15 1 0.929187 0.500363 0.0320219 0 0 0.000343323
16 1 0.470754 0.407207 0.0528103 0 0 -0.000341415
17 1 0.179379 0.458648 0.657023 0 0 0.000322342
18 1 0.220864 0.28218 0.927808 0 0 -0.00034523
19 1 0.970947 0.49049 0.802805 0 0 -0.00031662
20 1 0.679298 0.375336 0.90702 0 0 0.00034523
21 1 0.429375 0.583648 0.78202 0 0 0.000331879
22 1 0.929298 0.333676 0.532027 0 0 0.000305176
23 1 0.679177 0.542046 0.407029 0 0 0.000295639
24 1 0.720955 0.36548 0.677802 0 0 -0.000303268
25 1 0.470876 0.573831 0.552801 0 0 -0.000297546
26 1 0.970673 0.323895 0.302807 0 0 -0.000318527
27 1 0.720677 0.532228 0.17781 0 0 -0.000335693
28 1 0.429097 0.417063 0.282028 0 0 0.000310898
29 1 0.179105 0.625387 0.157025 0 0 0.00031662
30 1 0.220754 0.448867 0.427803 0 0 -0.00030899
31 1 0.929187 0.833696 0.0320219 0 0 0.000337601
32 1 0.470753 0.740541 0.0528104 0 0 -0.00034523
33 1 0.179379 0.791981 0.657023 0 0 0.000322342
34 1 0.220864 0.615514 0.927808 0 0 -0.00034523
35 1 0.970947 0.823823 0.802805 0 0 -0.000318527
36 1 0.679298 0.708669 0.90702 0 0 0.000349045
37 1 0.429375 0.916981 0.78202 0 0 0.000337601
38 1 0.929297 0.667009 0.532027 0 0 0.000303268
39 1 0.679176 0.875379 0.407029 0 0 0.000299454
40 1 0.720955 0.698813 0.677802 0 0 -0.00030899
41 1 0.470875 0.907164 0.552801 0 0 -0.000293732
42 1 0.970673 0.657228 0.302807 0 0 -0.000322342
43 1 0.720677 0.865562 0.17781 0 0 -0.000335693
44 1 0.429097 0.750396 0.282028 0 0 0.000307083
45 1 0.179105 0.95872 0.157026 0 0 0.000312805
46 1 0.220755 0.782201 0.427803 0 0 -0.000303268
47 1 0.929297 0.000342385 0.532027 0 0 0.000303268
48 1 0.970673 0.990562 0.302807 0 0 -0.000318527
