ITEM: TIMESTEP
0
ITEM: NUMBER OF ATOMS
56
ITEM: BOX BOUNDS xy xz yz pp pp pp
-5.3681005835533142e+00 1.2203788340091705e+01 0.0000000000000000e+00
-8.4733366966247559e-03 5.5348814725875854e+00 -5.3494120836257935e+00
-2.9168844223022461e-02 1.9049128890037537e+01 0.0000000000000000e+00
ITEM: ATOMS id type xs ys zs fx fy fz
1 1 0.608004 4.41887e-05 0.132366 0 -0.0919361 0.286568
2 1 0.358005 0.166624 0.132366 0 0.091917 0.286585
3 1 0.307938 2.39879e-05 0.275225 0 0.00116348 -0.00660706
4 1 0.0579378 0.166644 0.275225 0 -0.00118828 -0.00660133
5 1 0.00781792 1.9421e-05 0.418082 0 -2.09808e-05 0.000276566
6 1 0.108005 4.41295e-05 0.132366 0 -0.0919399 0.286583
7 1 0.00801098 0.500074 0.0609403 0 1.19908 1.15901
8 1 0.858005 0.166623 0.132366 0 0.0919304 0.286587
9 1 0.758012 0.666593 0.0609403 0 -1.19902 1.15897
10 1 0.807939 2.39872e-05 0.275225 0 0.00116158 -0.00659752
11 1 0.757817 0.166647 0.418082 0 2.67029e-05 0.000268936
12 1 0.707687 2.47556e-05 0.560942 0 -3.8147e-06 6.86646e-05
13 1 0.457688 0.166643 0.560942 0 -5.72205e-06 6.86646e-05
14 1 0.407565 2.39811e-05 0.703801 0 -6.48499e-05 0.000881195
15 1 0.157566 0.166644 0.703801 0 3.43323e-05 0.00087738
16 1 0.107454 2.63435e-05 0.846651 0 -0.0018177 0.00473976
17 1 0.70799 0.500026 0.203802 0 -0.001791 -0.00473022
18 1 0.557938 0.166645 0.275225 0 -0.00120354 -0.00661469
19 1 0.457991 0.66664 0.203802 0 0.00181961 -0.00471497
20 1 0.507818 2.01694e-05 0.418082 0 -3.8147e-05 0.000272751
21 1 0.407878 0.500023 0.346651 0 -3.62396e-05 -0.000871658
22 1 0.257818 0.166648 0.418082 0 2.09808e-05 0.000272751
23 1 0.157878 0.666642 0.346651 0 7.62939e-05 -0.000890732
24 1 0.207688 2.49573e-05 0.560941 0 -7.62939e-06 7.82013e-05
25 1 0.107756 0.500025 0.489511 0 0 -8.2016e-05
26 1 0.957689 0.166643 0.560941 0 -5.72205e-06 8.39233e-05
27 1 0.857757 0.666642 0.489511 0 5.72205e-06 -6.10352e-05
28 1 0.508011 0.500073 0.0609404 0 1.19905 1.15895
29 1 0.258011 0.666593 0.0609403 0 -1.19901 1.15894
30 1 0.207991 0.500026 0.203802 0 -0.001791 -0.00472832
31 1 0.957991 0.666641 0.203802 0 0.00179672 -0.00472069
32 1 0.907879 0.500024 0.346651 0 -6.10352e-05 -0.000888824
33 1 0.857453 0.166641 0.846652 0 0.00180244 0.00470161
34 1 0.807433 7.47473e-05 0.989512 0 1.19902 -1.15895
35 1 0.557433 0.166594 0.989513 0 -1.19904 -1.15896
36 1 0.907564 2.44315e-05 0.703801 0 -6.86646e-05 0.000879288
37 1 0.807624 0.50002 0.632371 0 -2.67029e-05 -0.000289917
38 1 0.657566 0.166643 0.703801 0 4.57764e-05 0.000886917
39 1 0.557626 0.666647 0.632371 0 3.05176e-05 -0.000274658
40 1 0.607453 2.63314e-05 0.846651 0 -0.00180244 0.00472069
41 1 0.507506 0.500023 0.775228 0 0.00117874 0.00660706
42 1 0.357453 0.166641 0.846651 0 0.00180054 0.0047226
43 1 0.257505 0.666644 0.775228 0 -0.00117493 0.0066185
44 1 0.307433 7.37033e-05 0.989512 0 1.19901 -1.15894
45 1 0.20744 0.500043 0.918087 0 -0.0919266 -0.28656
46 1 0.657878 0.666643 0.346651 0 7.43866e-05 -0.000879288
47 1 0.607756 0.500025 0.489511 0 3.8147e-06 -7.82013e-05
48 1 0.357756 0.666642 0.489511 0 9.53674e-06 -7.82013e-05
49 1 0.307626 0.500019 0.632371 0 -1.33514e-05 -0.000270844
50 1 0.0576266 0.666647 0.63237 0 4.57764e-05 -0.000257492
51 1 0.00750669 0.500022 0.775228 0 0.001194 0.00660324
52 1 0.0574313 0.166594 0.989513 0 -1.19907 -1.159
53 1 0.957439 0.666624 0.918087 0 0.0919323 -0.286613
54 1 0.757505 0.666643 0.775228 0 -0.00117302 0.00660896
55 1 0.707439 0.500044 0.918087 0 -0.0919209 -0.286592
56 1 0.457439 0.666624 0.918087 0 0.0919228 -0.286573
ITEM: TIMESTEP
1
ITEM: NUMBER OF ATOMS
56
ITEM: BOX BOUNDS xy xz yz pp pp pp
-5.3681005835533142e+00 1.2203788340091705e+01 0.0000000000000000e+00
-8.4733366966247559e-03 5.5348814725875854e+00 -5.3494120836257935e+00
-2.9168844223022461e-02 1.9049128890037537e+01 0.0000000000000000e+00
ITEM: ATOMS id type xs ys zs fx fy fz
1 1 0.608552 -0.00133895 0.133619 0 0.0800343 0.148396
2 1 0.358553 0.168006 0.133619 0 -0.0800419 0.148407
3 1 0.307926 4.1492e-05 0.275196 0 -0.00261688 0.0178528
4 1 0.0579252 0.166626 0.275196 0 0.00259781 0.0178432
5 1 0.00781845 1.91054e-05 0.418083 0 -0.000455856 -0.0025692
6 1 0.108553 -0.00133907 0.133619 0 0.0800438 0.148397
7 1 0.0102284 0.518114 0.0660067 0 0.350571 0.312433
8 1 0.858554 0.168006 0.133619 0 -0.0800457 0.148407
9 1 0.76023 0.648554 0.0660065 0 -0.350567 0.312441
10 1 0.807927 4.14626e-05 0.275196 0 -0.00260735 0.017849
11 1 0.757817 0.166648 0.418083 0 0.000465393 -0.00257492
12 1 0.707687 2.46982e-05 0.560942 0 0.000154495 0.00107765
13 1 0.457688 0.166643 0.560942 0 -0.00015831 0.00107765
14 1 0.407567 2.30055e-05 0.703805 0 -0.00101662 -0.00357819
15 1 0.157567 0.166645 0.703805 0 0.00100327 -0.00358582
16 1 0.107463 -1.00312e-06 0.846672 0 -0.02281 -0.123726
17 1 0.707981 0.499999 0.203781 0 -0.0228062 0.123737
18 1 0.557925 0.166627 0.275196 0 0.00258064 0.0178547
19 1 0.457982 0.666667 0.203781 0 0.0228271 0.123741
20 1 0.507819 1.95955e-05 0.418083 0 -0.000473022 -0.00257492
21 1 0.407877 0.500023 0.346647 0 -0.00100517 0.00359154
22 1 0.257818 0.166648 0.418083 0 0.000459671 -0.00256729
23 1 0.157877 0.666644 0.346648 0 0.00102425 0.003582
24 1 0.207688 2.48425e-05 0.560942 0 0.000148773 0.00107956
25 1 0.107755 0.500025 0.489511 0 0.000146866 -0.00109482
26 1 0.957689 0.166643 0.560942 0 -0.000160217 0.00109673
27 1 0.857757 0.666642 0.489511 0 -0.000146866 -0.00108337
28 1 0.510228 0.518112 0.0660065 0 0.350586 0.312426
29 1 0.260228 0.648554 0.0660064 0 -0.350574 0.312433
30 1 0.207982 0.499999 0.203781 0 -0.02281 0.123745
31 1 0.957982 0.666668 0.203781 0 0.0228138 0.123753
32 1 0.907878 0.500023 0.346648 0 -0.00102234 0.00358391
33 1 0.857462 0.166668 0.846672 0 0.0228195 -0.123779
34 1 0.805216 0.0181135 0.984446 0 0.350567 -0.312429
35 1 0.555216 0.148555 0.984446 0 -0.35058 -0.312433
36 1 0.907566 2.33985e-05 0.703805 0 -0.00102425 -0.003582
37 1 0.807624 0.500019 0.63237 0 -0.000465393 0.00256348
38 1 0.657567 0.166644 0.703805 0 0.00101089 -0.003582
39 1 0.557625 0.666648 0.63237 0 0.000465393 0.0025692
40 1 0.607462 -7.85657e-07 0.846672 0 -0.0228119 -0.123747
41 1 0.507518 0.500041 0.775257 0 -0.00260162 -0.0178432
42 1 0.357462 0.166668 0.846672 0 0.0228119 -0.123751
43 1 0.257518 0.666626 0.775257 0 0.00260735 -0.0178566
44 1 0.305216 0.0181124 0.984446 0 0.350584 -0.312424
45 1 0.206891 0.49866 0.916834 0 0.08004 -0.148378
46 1 0.657876 0.666644 0.346648 0 0.00102234 0.00358009
47 1 0.607756 0.500025 0.489511 0 0.000165939 -0.00108337
48 1 0.357756 0.666642 0.489511 0 -0.000143051 -0.0010891
49 1 0.307625 0.500019 0.632369 0 -0.000457764 0.00257874
50 1 0.0576261 0.666648 0.632369 0 0.000478745 0.00258446
51 1 0.00751933 0.50004 0.775257 0 -0.00259399 -0.0178432
52 1 0.0552139 0.148554 0.984446 0 -0.350573 -0.312445
53 1 0.95689 0.668007 0.916834 0 -0.0800533 -0.148417
54 1 0.757518 0.666626 0.775257 0 0.00259399 -0.0178452
55 1 0.706891 0.498661 0.916834 0 0.0800438 -0.148399
56 1 0.456891 0.668006 0.916834 0 -0.0800457 -0.148399
ITEM: TIMESTEP
2
ITEM: NUMBER OF ATOMS
56
ITEM: BOX BOUNDS xy xz yz pp pp pp
-5.3681005835533142e+00 1.2203788340091705e+01 0.0000000000000000e+00
-8.4733366966247559e-03 5.5348814725875854e+00 -5.3494120836257935e+00
-2.9168844223022461e-02 1.9049128890037537e+01 0.0000000000000000e+00
ITEM: ATOMS id type xs ys zs fx fy fz
1 1 0.609314 0.00189345 0.13536 0 0.148079 0.0388184
2 1 0.359315 0.164774 0.13536 0 -0.148077 0.0388241
3 1 0.308017 -6.41978e-05 0.275406 0 -0.00864792 0.0565662
4 1 0.0580168 0.166731 0.275406 0 0.00864983 0.0565777
5 1 0.00780525 6.94387e-07 0.418053 0 -0.00161743 0.0012989
6 1 0.109315 0.00189371 0.13536 0 0.148075 0.0388203
7 1 0.0118331 0.532272 0.069673 0 -0.0326729 -0.124504
8 1 0.859316 0.164774 0.13536 0 -0.148071 0.0388203
9 1 0.761834 0.634395 0.069673 0 0.0326691 -0.124491
10 1 0.808018 -6.3842e-05 0.275406 0 -0.00865173 0.0565662
11 1 0.757804 0.166666 0.418053 0 0.00161552 0.001297
12 1 0.707693 3.09379e-05 0.560955 0 -0.000331879 -0.00069809
13 1 0.457693 0.166636 0.560955 0 0.000328064 -0.000699997
14 1 0.407549 -1.80533e-05 0.703763 0 -0.00491142 -0.0291004
15 1 0.157549 0.166685 0.703763 0 0.00490189 -0.0291004
16 1 0.106828 -0.000922245 0.84522 0 -0.011219 -0.161238
17 1 0.708616 0.499078 0.205233 0 -0.0112171 0.16124
18 1 0.558017 0.166731 0.275406 0 0.00864601 0.0565777
19 1 0.458617 0.667589 0.205233 0 0.0112228 0.161247
20 1 0.507806 4.91237e-07 0.418053 0 -0.00161171 0.00130463
21 1 0.407895 0.499982 0.34669 0 -0.00491714 0.029108
22 1 0.257805 0.166667 0.418053 0 0.00161362 0.00129509
23 1 0.157895 0.666685 0.34669 0 0.00491714 0.0291023
24 1 0.207693 3.08511e-05 0.560955 0 -0.000329971 -0.000688553
25 1 0.10775 0.500031 0.489498 0 -0.000324249 0.000696182
26 1 0.957695 0.166636 0.560955 0 0.000331879 -0.000694275
27 1 0.857751 0.666636 0.489498 0 0.000329971 0.000707626
28 1 0.511833 0.532272 0.0696728 0 -0.0326672 -0.124508
29 1 0.261833 0.634395 0.0696728 0 0.0326767 -0.124495
30 1 0.208617 0.499078 0.205233 0 -0.011219 0.161243
31 1 0.958617 0.66759 0.205233 0 0.0112095 0.161255
32 1 0.907896 0.499982 0.34669 0 -0.00490952 0.0291023
33 1 0.856826 0.167589 0.84522 0 0.0112133 -0.161255
34 1 0.803611 0.0322721 0.98078 0 -0.0326748 0.1245
35 1 0.553611 0.134395 0.98078 0 0.0326672 0.124493
36 1 0.907548 -1.79685e-05 0.703763 0 -0.00491524 -0.0290947
37 1 0.807637 0.5 0.6324 0 -0.00160789 -0.00131035
38 1 0.657549 0.166685 0.703763 0 0.00490761 -0.0291042
39 1 0.557639 0.666667 0.6324 0 0.00161552 -0.001297
40 1 0.606827 -0.000922105 0.84522 0 -0.0112209 -0.161243
41 1 0.507427 0.499936 0.775047 0 -0.00864983 -0.0565662
42 1 0.356826 0.167589 0.84522 0 0.0112171 -0.161243
43 1 0.257426 0.666731 0.775047 0 0.00864792 -0.0565662
44 1 0.303611 0.0322716 0.98078 0 -0.0326748 0.12451
45 1 0.206129 0.501893 0.915093 0 0.148081 -0.0388203
46 1 0.657895 0.666685 0.34669 0 0.00490952 0.0290947
47 1 0.60775 0.500031 0.489498 0 -0.000328064 0.000682831
48 1 0.35775 0.666636 0.489498 0 0.000329971 0.00069046
49 1 0.307638 0.5 0.6324 0 -0.00161171 -0.00130463
50 1 0.0576393 0.666667 0.6324 0 0.00161171 -0.00129128
51 1 0.00742768 0.499936 0.775047 0 -0.00864792 -0.0565739
52 1 0.0536092 0.134395 0.98078 0 0.0326748 0.124495
53 1 0.956128 0.664774 0.915093 0 -0.148077 -0.0388279
54 1 0.757426 0.666731 0.775047 0 0.00864792 -0.0565739
55 1 0.706129 0.501893 0.915093 0 0.148083 -0.0388203
56 1 0.456129 0.664774 0.915093 0 -0.148067 -0.0388241
ITEM: TIMESTEP
3
ITEM: NUMBER OF ATOMS
56
ITEM: BOX BOUNDS xy xz yz pp pp pp
-5.3681005835533142e+00 1.2203788340091705e+01 0.0000000000000000e+00
-8.4733366966247559e-03 5.5348814725875854e+00 -5.3494120836257935e+00
-2.9168844223022461e-02 1.9049128890037537e+01 0.0000000000000000e+00
ITEM: ATOMS id type xs ys zs fx fy fz
1 1 0.610012 0.0131031 0.136954 0 -0.00641441 0.00407982
2 1 0.360013 0.153564 0.136954 0 0.00641823 0.00408173
3 1 0.308529 -0.000677725 0.276576 0 -0.00574875 0.0669327
4 1 0.0585291 0.167345 0.276576 0 0.0057621 0.0669308
5 1 0.00780944 -0.000113383 0.418063 0 -0.00425911 0.0227623
6 1 0.110013 0.0131033 0.136954 0 -0.0064106 0.004076
7 1 0.0115998 0.53716 0.0691401 0 -0.00251579 -0.0191536
8 1 0.860014 0.153564 0.136954 0 0.00640488 0.00408363
9 1 0.761601 0.629508 0.0691404 0 0.00251961 -0.0191555
10 1 0.808531 -0.000677426 0.276576 0 -0.00575066 0.0669365
11 1 0.757808 0.166781 0.418063 0 0.00426865 0.0227566
12 1 0.70769 1.24887e-05 0.560948 0 -0.0033226 -0.0104141
13 1 0.45769 0.166654 0.560948 0 0.00333214 -0.010416
14 1 0.4073 -0.000357107 0.703194 0 -0.011692 -0.0771103
15 1 0.1573 0.167024 0.703194 0 0.0116882 -0.077116
16 1 0.105183 -0.00210629 0.841461 0 0.0544147 0.0350208
17 1 0.710261 0.497894 0.208992 0 0.0544071 -0.0350132
18 1 0.558529 0.167344 0.276576 0 0.00576591 0.0669308
19 1 0.460263 0.668774 0.208992 0 -0.0544243 -0.0350227
20 1 0.50781 -0.000113558 0.418063 0 -0.0042572 0.0227509
21 1 0.408144 0.499643 0.347259 0 -0.011692 0.0771046
22 1 0.257809 0.166781 0.418063 0 0.00426674 0.0227604
23 1 0.158144 0.667025 0.347259 0 0.0116863 0.0771141
24 1 0.20769 1.24113e-05 0.560948 0 -0.00331879 -0.0104198
25 1 0.107753 0.500013 0.489505 0 -0.00332069 0.0104218
26 1 0.957692 0.166655 0.560948 0 0.00332069 -0.0104218
27 1 0.857754 0.666655 0.489505 0 0.00333405 0.0104218
28 1 0.511599 0.53716 0.0691398 0 -0.00252151 -0.0191536
29 1 0.2616 0.629508 0.06914 0 0.0025177 -0.0191441
30 1 0.210262 0.497894 0.208992 0 0.0544071 -0.035017
31 1 0.960263 0.668773 0.208993 0 -0.0544205 -0.035038
32 1 0.908145 0.499643 0.347259 0 -0.0116901 0.0771122
33 1 0.855181 0.168773 0.84146 0 -0.0544186 0.0350418
34 1 0.803844 0.0371595 0.981313 0 -0.00251579 0.0191383
35 1 0.553844 0.129507 0.981313 0 0.00252914 0.0191536
36 1 0.907298 -0.000357423 0.703194 0 -0.011694 -0.0771179
37 1 0.807633 0.499887 0.63239 0 -0.00425911 -0.022747
38 1 0.6573 0.167023 0.703194 0 0.011692 -0.0771255
39 1 0.557634 0.666781 0.63239 0 0.00425148 -0.0227642
40 1 0.605182 -0.00210631 0.841461 0 0.0544167 0.0350208
41 1 0.506914 0.499322 0.773877 0 -0.00576019 -0.0669403
42 1 0.355181 0.168773 0.841461 0 -0.054409 0.0350266
43 1 0.256914 0.667345 0.773877 0 0.00574493 -0.066927
44 1 0.303845 0.0371594 0.981313 0 -0.00251198 0.0191441
45 1 0.205432 0.513103 0.913499 0 -0.00640678 -0.0040741
46 1 0.658144 0.667024 0.347259 0 0.0116863 0.077116
47 1 0.607753 0.500013 0.489505 0 -0.00333023 0.0104218
48 1 0.357753 0.666655 0.489505 0 0.00332069 0.0104237
49 1 0.307634 0.499887 0.63239 0 -0.00425911 -0.0227585
50 1 0.0576353 0.666781 0.63239 0 0.00425148 -0.0227661
51 1 0.00691544 0.499323 0.773877 0 -0.00575447 -0.0669384
52 1 0.0538423 0.129508 0.981312 0 0.00251579 0.0191536
53 1 0.95543 0.653564 0.913498 0 0.00640869 -0.00407219
54 1 0.756914 0.667344 0.773877 0 0.00575256 -0.0669403
55 1 0.705431 0.513104 0.913499 0 -0.00641823 -0.00407219
56 1 0.455431 0.653564 0.913499 0 0.00641251 -0.00407791
ITEM: TIMESTEP
4
ITEM: NUMBER OF ATOMS
56
ITEM: BOX BOUNDS xy xz yz pp pp pp
-5.3681005835533142e+00 1.2203788340091705e+01 0.0000000000000000e+00
-8.4733366966247559e-03 5.5348814725875854e+00 -5.3494120836257935e+00
-2.9168844223022461e-02 1.9049128890037537e+01 0.0000000000000000e+00
ITEM: ATOMS id type xs ys zs fx fy fz
1 1 0.610282 0.0159641 0.13757 0 -0.0224762 0.0371628
2 1 0.360283 0.150703 0.137571 0 0.0224724 0.0371571
3 1 0.309539 -0.00144321 0.278883 0 0.0156746 -0.00926208
4 1 0.0595387 0.168111 0.278883 0 -0.0156898 -0.0092659
5 1 0.0080997 -0.000574167 0.418726 0 -0.00713158 0.0438938
6 1 0.110282 0.0159647 0.13757 0 -0.0224857 0.0371609
7 1 0.0112838 0.538435 0.0684181 0 0.0204906 0.0204124
8 1 0.860283 0.150702 0.13757 0 0.02248 0.0371494
9 1 0.761285 0.628232 0.0684184 0 -0.0204887 0.0204086
10 1 0.80954 -0.00144312 0.278883 0 0.0156746 -0.00926208
11 1 0.758099 0.167242 0.418726 0 0.00713348 0.0438995
12 1 0.707557 -0.000324942 0.560643 0 -0.0098114 -0.0275974
13 1 0.457557 0.166993 0.560643 0 0.00980377 -0.0275879
14 1 0.406243 -0.00163013 0.700779 0 0.0053978 0.00919724
15 1 0.156243 0.168296 0.700779 0 -0.00540161 0.00921822
16 1 0.105114 0.00295565 0.841303 0 0.00336838 -0.00239182
17 1 0.710331 0.502955 0.209151 0 0.00337219 0.00237274
18 1 0.559539 0.168111 0.278883 0 -0.0156898 -0.00927162
19 1 0.460332 0.663711 0.209151 0 -0.00336266 0.00237846
20 1 0.5081 -0.000574143 0.418726 0 -0.00714874 0.0438976
21 1 0.409201 0.49837 0.349674 0 0.00541115 -0.00921059
22 1 0.2581 0.167242 0.418726 0 0.00713158 0.0438919
23 1 0.159201 0.668297 0.349674 0 -0.0053997 -0.0092144
24 1 0.207557 -0.000324636 0.560643 0 -0.00981331 -0.027586
25 1 0.107886 0.499676 0.489809 0 -0.00982094 0.0275898
26 1 0.957558 0.166992 0.560644 0 0.00982285 -0.0275841
27 1 0.857887 0.666993 0.48981 0 0.00980568 0.0275707
28 1 0.511283 0.538435 0.0684177 0 0.0204964 0.0204239
29 1 0.261284 0.628232 0.0684184 0 -0.0204754 0.0204086
30 1 0.210332 0.502955 0.209151 0 0.00337029 0.00238419
31 1 0.960332 0.66371 0.209151 0 -0.00335503 0.00238609
32 1 0.909202 0.49837 0.349674 0 0.00540543 -0.00920677
33 1 0.855112 0.163711 0.841302 0 -0.00336838 -0.00239372
34 1 0.80416 0.038435 0.982034 0 0.0204849 -0.0203896
35 1 0.55416 0.128233 0.982035 0 -0.0205002 -0.0204086
36 1 0.906242 -0.00163076 0.700779 0 0.00541115 0.00921249
37 1 0.807343 0.499426 0.631727 0 -0.00715256 -0.0439034
38 1 0.656243 0.168296 0.700779 0 -0.00540543 0.00922394
39 1 0.557344 0.667241 0.631727 0 0.00715446 -0.0438938
40 1 0.605112 0.00295577 0.841302 0 0.00336075 -0.00238419
41 1 0.505905 0.498556 0.77157 0 0.0156841 0.00927734
42 1 0.355112 0.163712 0.841302 0 -0.00337791 -0.00238419
43 1 0.255905 0.66811 0.77157 0 -0.0156727 0.00926208
44 1 0.304161 0.0384354 0.982035 0 0.020483 -0.0203934
45 1 0.205162 0.515965 0.912883 0 -0.0224762 -0.0371666
46 1 0.659201 0.668297 0.349674 0 -0.00539017 -0.00919914
47 1 0.607886 0.499675 0.489809 0 -0.00980949 0.0275898
48 1 0.357886 0.666992 0.489809 0 0.00982285 0.0275784
49 1 0.307344 0.499426 0.631727 0 -0.00714111 -0.0438862
50 1 0.057345 0.667241 0.631727 0 0.00714302 -0.04389
51 1 0.00590571 0.498557 0.77157 0 0.0156708 0.00927734
52 1 0.0541583 0.128232 0.982034 0 -0.0204887 -0.0204067
53 1 0.955161 0.650702 0.912882 0 0.0224781 -0.0371666
54 1 0.755904 0.668109 0.77157 0 -0.0156727 0.00926781
55 1 0.705161 0.515964 0.912883 0 -0.0224762 -0.0371761
56 1 0.455161 0.650703 0.912882 0 0.0224781 -0.0371704
ITEM: TIMESTEP
5
ITEM: NUMBER OF ATOMS
56
ITEM: BOX BOUNDS xy xz yz pp pp pp
-5.3681005835533142e+00 1.2203788340091705e+01 0.0000000000000000e+00
-8.4733366966247559e-03 5.5348814725875854e+00 -5.3494120836257935e+00
-2.9168844223022461e-02 1.9049128890037537e+01 0.0000000000000000e+00
ITEM: ATOMS id type xs ys zs fx fy fz
1 1 0.610629 0.0152863 0.138364 0 0.000268936 0.00490952
2 1 0.36063 0.151381 0.138365 0 -0.000257492 0.00491714
3 1 0.309706 -0.000681072 0.279264 0 0.0105343 0.00669479
4 1 0.0597055 0.167349 0.279264 0 -0.0105457 0.00670242
5 1 0.00850357 -0.00111132 0.419649 0 -0.00558281 0.00538826
6 1 0.11063 0.0152863 0.138364 0 0.000270844 0.00492668
7 1 0.0113655 0.539967 0.0686047 0 -0.00330734 -0.0185814
8 1 0.860631 0.15138 0.138364 0 -0.000261307 0.00491714
9 1 0.761367 0.626701 0.068605 0 0.00330925 -0.0185757
10 1 0.809707 -0.000681031 0.279264 0 0.0105343 0.00670242
11 1 0.758502 0.16778 0.419648 0 0.00557899 0.00538445
12 1 0.707314 -0.000994169 0.56009 0 -0.00611877 0.00370789
13 1 0.457315 0.167662 0.56009 0 0.00612259 0.00370789
14 1 0.406064 -0.00160523 0.700372 0 0.00519943 0.00852966
15 1 0.156065 0.168271 0.700372 0 -0.0051918 0.00852776
16 1 0.105079 0.0043494 0.841224 0 -0.0118942 -0.0168953
17 1 0.710365 0.504349 0.209229 0 -0.0119019 0.0169048
18 1 0.559706 0.167348 0.279264 0 -0.0105381 0.00670433
19 1 0.460366 0.662317 0.209229 0 0.0119019 0.0169067
20 1 0.508504 -0.00111229 0.419648 0 -0.00558281 0.00538635
21 1 0.409379 0.498395 0.350081 0 0.0051918 -0.00852966
22 1 0.258503 0.16778 0.419648 0 0.00558853 0.00538445
23 1 0.159379 0.668272 0.350081 0 -0.00518799 -0.00852585
24 1 0.207315 -0.000993887 0.56009 0 -0.00613022 0.00370407
25 1 0.108128 0.499006 0.490363 0 -0.00611115 -0.0037117
26 1 0.957316 0.167662 0.56009 0 0.00611877 0.00371361
27 1 0.85813 0.667662 0.490363 0 0.00611687 -0.00370216
28 1 0.511365 0.539967 0.0686046 0 -0.00330162 -0.0185719
29 1 0.261366 0.626701 0.068605 0 0.00330162 -0.0185642
30 1 0.210366 0.504349 0.20923 0 -0.0119038 0.0168934
31 1 0.960366 0.662317 0.209229 0 0.011898 0.0169106
32 1 0.90938 0.498396 0.350081 0 0.00519562 -0.00853539
33 1 0.855077 0.162317 0.841223 0 0.0119076 -0.0169067
34 1 0.804079 0.0399666 0.981848 0 -0.00330353 0.0185661
35 1 0.554078 0.126701 0.981848 0 0.00330544 0.0185719
36 1 0.906063 -0.00160513 0.700372 0 0.0051918 0.00852966
37 1 0.806939 0.498888 0.630804 0 -0.00558281 -0.00539207
38 1 0.656065 0.168271 0.700372 0 -0.0051918 0.00853729
39 1 0.55694 0.667779 0.630804 0 0.00557899 -0.00538445
40 1 0.605078 0.00434909 0.841223 0 -0.0119038 -0.0168953
41 1 0.505738 0.499318 0.771189 0 0.0105362 -0.00671005
42 1 0.355077 0.162318 0.841223 0 0.0119076 -0.016901
43 1 0.255738 0.667348 0.771189 0 -0.01054 -0.00670815
44 1 0.304079 0.039967 0.981849 0 -0.00329781 0.0185642
45 1 0.204814 0.515287 0.912089 0 0.000249863 -0.00491714
46 1 0.659379 0.668272 0.350081 0 -0.00519371 -0.00853157
47 1 0.608128 0.499006 0.490363 0 -0.00611877 -0.00371552
48 1 0.358128 0.667662 0.490363 0 0.0061245 -0.00370407
49 1 0.30694 0.498888 0.630804 0 -0.00558662 -0.00538445
50 1 0.0569411 0.667779 0.630804 0 0.0055809 -0.00537872
51 1 0.005739 0.499318 0.771189 0 0.0105343 -0.00671387
52 1 0.0540766 0.1267 0.981848 0 0.00330162 0.0185738
53 1 0.954813 0.65138 0.912088 0 -0.000263214 -0.00491333
54 1 0.755738 0.667347 0.771189 0 -0.01054 -0.00669861
55 1 0.704814 0.515286 0.912088 0 0.000257492 -0.00491333
56 1 0.454814 0.651381 0.912088 0 -0.000268936 -0.0049057
ITEM: TIMESTEP
6
ITEM: NUMBER OF ATOMS
56
ITEM: BOX BOUNDS xy xz yz pp pp pp
-5.3681005835533142e+00 1.2203788340091705e+01 0.0000000000000000e+00
-8.4733366966247559e-03 5.5348814725875854e+00 -5.3494120836257935e+00
-2.9168844223022461e-02 1.9049128890037537e+01 0.0000000000000000e+00
ITEM: ATOMS id type xs ys zs fx fy fz
1 1 0.610727 0.0151875 0.138587 0 -0.00352287 0.00211334
2 1 0.360728 0.151481 0.138588 0 0.00352478 0.00211334
3 1 0.309787 9.68089e-05 0.279448 0 0.000610352 0.00814438
4 1 0.0597863 0.16657 0.279449 0 -0.000612259 0.00813866
5 1 0.00861443 -0.00154624 0.419902 0 -0.00156975 -0.00295067
6 1 0.110728 0.0151876 0.138587 0 -0.0035305 0.0021019
7 1 0.011234 0.540024 0.0683042 0 0.00610352 0.00367546
8 1 0.860728 0.151479 0.138587 0 0.0035305 0.0021019
9 1 0.761235 0.626644 0.0683046 0 -0.00610924 0.00368309
10 1 0.809788 9.68422e-05 0.279449 0 0.000614166 0.00813103
11 1 0.758613 0.168215 0.419902 0 0.00157928 -0.00295448
12 1 0.707302 -0.00148453 0.560062 0 -0.0028801 0.00899696
13 1 0.457303 0.168152 0.560062 0 0.00287628 0.00899506
14 1 0.406101 -0.00128104 0.700455 0 0.00104332 -0.00283432
15 1 0.156101 0.167947 0.700455 0 -0.00104141 -0.00283051
16 1 0.104941 0.00385454 0.840908 0 -0.00190735 0.00383949
17 1 0.710503 0.503854 0.209545 0 -0.0018959 -0.00384521
18 1 0.559787 0.16657 0.279449 0 -0.000606537 0.00813866
19 1 0.460505 0.662813 0.209545 0 0.00190163 -0.00383377
20 1 0.508615 -0.00154737 0.419902 0 -0.00156784 -0.0029583
21 1 0.409343 0.498719 0.349998 0 0.00104332 0.00284386
22 1 0.258614 0.168215 0.419902 0 0.00157547 -0.0029583
23 1 0.159343 0.667949 0.349998 0 -0.00104713 0.00283813
24 1 0.207303 -0.00148496 0.560062 0 -0.00286674 0.00899887
25 1 0.10814 0.498516 0.490391 0 -0.00287819 -0.00900078
26 1 0.957304 0.168152 0.560062 0 0.002882 0.00899124
27 1 0.858142 0.668152 0.490391 0 0.00287437 -0.00899124
28 1 0.511234 0.540025 0.0683043 0 0.00609207 0.00366592
29 1 0.261234 0.626644 0.0683048 0 -0.00610161 0.00365829
30 1 0.210505 0.503853 0.209545 0 -0.00188637 -0.00383377
31 1 0.960505 0.662812 0.209545 0 0.00189209 -0.00384331
32 1 0.909344 0.49872 0.349998 0 0.00103378 0.00284004
33 1 0.854939 0.162813 0.840907 0 0.00188828 0.00383949
34 1 0.80421 0.0400238 0.982148 0 0.00610352 -0.00366592
35 1 0.55421 0.126643 0.982148 0 -0.00609779 -0.00367165
36 1 0.9061 -0.00128129 0.700455 0 0.00104141 -0.00284004
37 1 0.806828 0.498453 0.630551 0 -0.00157547 0.00295448
38 1 0.656101 0.167947 0.700455 0 -0.00104713 -0.00284195
39 1 0.556829 0.668214 0.630551 0 0.00157738 0.00295448
40 1 0.60494 0.00385357 0.840908 0 -0.00188828 0.00383568
41 1 0.505657 0.500096 0.771004 0 0.000608444 -0.00813293
42 1 0.354939 0.162813 0.840908 0 0.0018959 0.00383186
43 1 0.255657 0.666569 0.771004 0 -0.000610352 -0.00813103
44 1 0.30421 0.0400246 0.982149 0 0.00610161 -0.00366974
45 1 0.204717 0.515187 0.911866 0 -0.00352478 -0.00209999
46 1 0.659343 0.667948 0.349998 0 -0.00105095 0.00284004
47 1 0.60814 0.498516 0.49039 0 -0.00288391 -0.00899506
48 1 0.358141 0.668153 0.490391 0 0.00287247 -0.00900078
49 1 0.306829 0.498453 0.630551 0 -0.00157356 0.00294495
50 1 0.0568304 0.668214 0.630551 0 0.00157928 0.00295258
51 1 0.00565811 0.500096 0.771004 0 0.000614166 -0.00813293
52 1 0.0542081 0.126643 0.982148 0 -0.00610924 -0.00367355
53 1 0.954715 0.651479 0.911865 0 0.00353622 -0.00211716
54 1 0.755657 0.666569 0.771004 0 -0.000606537 -0.00813484
55 1 0.704716 0.515187 0.911865 0 -0.0035305 -0.00210953
56 1 0.454716 0.65148 0.911865 0 0.00352669 -0.00211143
ITEM: TIMESTEP
7
ITEM: NUMBER OF ATOMS
56
ITEM: BOX BOUNDS xy xz yz pp pp pp
-5.3681005835533142e+00 1.2203788340091705e+01 0.0000000000000000e+00
-8.4733366966247559e-03 5.5348814725875854e+00 -5.3494120836257935e+00
-2.9168844223022461e-02 1.9049128890037537e+01 0.0000000000000000e+00
ITEM: ATOMS id type xs ys zs fx fy fz
1 1 0.61077 0.0149324 0.138687 0 0.000965118 0.00195122
2 1 0.360771 0.151736 0.138687 0 -0.000972748 0.0019455
3 1 0.309876 0.000344164 0.279651 0 -0.00340652 0.00107002
4 1 0.0598751 0.166322 0.279651 0 0.00341415 0.00107193
5 1 0.00861967 -0.00176431 0.419914 0 0.00097084 0.00249481
6 1 0.110771 0.014932 0.138687 0 0.000968933 0.0019474
7 1 0.0112292 0.540436 0.0682934 0 2.47955e-05 -0.00037384
8 1 0.860772 0.151735 0.138687 0 -0.000974655 0.00195694
9 1 0.761231 0.626232 0.0682939 0 -3.43323e-05 -0.000385284
10 1 0.809877 0.000344443 0.279651 0 -0.00341415 0.00106812
11 1 0.758619 0.168433 0.419914 0 -0.000984192 0.00250435
12 1 0.707373 -0.00180249 0.560224 0 -0.00115967 6.10352e-05
13 1 0.457374 0.16847 0.560224 0 0.00115585 7.05719e-05
14 1 0.406087 -0.00112672 0.700424 0 -0.000986099 0.000276566
15 1 0.156087 0.167793 0.700424 0 0.000982285 0.000259399
16 1 0.104936 0.00359854 0.840896 0 0.00152779 0.0022068
17 1 0.710509 0.503598 0.209557 0 0.00153351 -0.00220871
18 1 0.559875 0.166322 0.279651 0 0.00341988 0.00107193
19 1 0.46051 0.663069 0.209557 0 -0.00152588 -0.00222015
20 1 0.50862 -0.00176536 0.419913 0 0.000984192 0.00250435
21 1 0.409357 0.498874 0.350029 0 -0.000988007 -0.000267029
22 1 0.258619 0.168433 0.419914 0 -0.000980377 0.00250053
23 1 0.159357 0.667794 0.350029 0 0.000980377 -0.000276566
24 1 0.207374 -0.00180224 0.560224 0 -0.00115013 6.29425e-05
25 1 0.108069 0.498198 0.490228 0 -0.00116158 -6.29425e-05
26 1 0.957375 0.16847 0.560225 0 0.00114822 7.24792e-05
27 1 0.858071 0.66847 0.490229 0 0.00116158 -6.67572e-05
28 1 0.511229 0.540436 0.0682932 0 3.05176e-05 -0.000368118
29 1 0.261229 0.626233 0.0682937 0 -2.86102e-05 -0.000370026
30 1 0.21051 0.503599 0.209557 0 0.00152016 -0.00220871
31 1 0.96051 0.663068 0.209557 0 -0.00152016 -0.00220871
32 1 0.909358 0.498873 0.350029 0 -0.000980377 -0.000278473
33 1 0.854934 0.163068 0.840896 0 -0.00151443 0.00222015
34 1 0.804215 0.0404355 0.982159 0 1.90735e-05 0.000368118
35 1 0.554215 0.126232 0.982159 0 -2.67029e-05 0.00037384
36 1 0.906086 -0.00112718 0.700424 0 -0.000988007 0.000274658
37 1 0.806823 0.498234 0.630539 0 0.000984192 -0.00249672
38 1 0.656087 0.167793 0.700424 0 0.000984192 0.000265121
39 1 0.556824 0.668433 0.630539 0 -0.000980377 -0.00249481
40 1 0.604934 0.00359864 0.840896 0 0.00151825 0.0022049
41 1 0.505568 0.500344 0.770801 0 -0.00340462 -0.00107193
42 1 0.354934 0.163069 0.840896 0 -0.00152588 0.00222206
43 1 0.255568 0.666322 0.770802 0 0.00341606 -0.00107574
44 1 0.304215 0.0404362 0.98216 0 3.43323e-05 0.000371933
45 1 0.204673 0.514932 0.911767 0 0.00097847 -0.00195885
46 1 0.659356 0.667793 0.350029 0 0.000989914 -0.000278473
47 1 0.608069 0.498198 0.490228 0 -0.00115204 -6.10352e-05
48 1 0.35807 0.66847 0.490228 0 0.00115585 -6.67572e-05
49 1 0.306824 0.498234 0.630539 0 0.000976562 -0.00249672
50 1 0.0568252 0.668432 0.630539 0 -0.000980377 -0.00249481
51 1 0.00556935 0.500344 0.770801 0 -0.00341034 -0.00107384
52 1 0.0542129 0.126231 0.982159 0 -3.05176e-05 0.000377655
53 1 0.954672 0.651735 0.911766 0 -0.000980377 -0.00195312
54 1 0.755568 0.666322 0.770801 0 0.00340652 -0.00107193
55 1 0.704673 0.514931 0.911766 0 0.000976562 -0.00193977
56 1 0.454673 0.651736 0.911766 0 -0.000967026 -0.0019455
ITEM: TIMESTEP
8
ITEM: NUMBER OF ATOMS
56
ITEM: BOX BOUNDS xy xz yz pp pp pp
-5.3681005835533142e+00 1.2203788340091705e+01 0.0000000000000000e+00
-8.4733366966247559e-03 5.5348814725875854e+00 -5.3494120836257935e+00
-2.9168844223022461e-02 1.9049128890037537e+01 0.0000000000000000e+00
ITEM: ATOMS id type xs ys zs fx fy fz
1 1 0.6108 0.0149809 0.138755 0 0.00082016 -0.000123978
2 1 0.360801 0.151687 0.138756 0 -0.000814438 -0.000135422
3 1 0.309903 6.72041e-05 0.279713 0 0.000190735 0.000329971
4 1 0.0599021 0.1666 0.279713 0 -0.000198364 0.000326157
5 1 0.00865003 -0.00170923 0.419983 0 -0.000549316 0.000598907
6 1 0.110801 0.0149808 0.138755 0 0.000825882 -0.000127792
7 1 0.011224 0.540505 0.0682815 0 8.58307e-05 -0.00224876
8 1 0.860802 0.151686 0.138755 0 -0.000812531 -0.000131607
9 1 0.761225 0.626162 0.0682817 0 -7.24792e-05 -0.00225067
10 1 0.809904 6.68128e-05 0.279713 0 0.000205994 0.000335693
11 1 0.758649 0.168377 0.419983 0 0.000551224 0.000581741
12 1 0.707385 -0.00196178 0.560252 0 0.000411987 -0.000148773
13 1 0.457386 0.168629 0.560253 0 -0.000406265 -0.000160217
14 1 0.406088 -0.00119352 0.700426 0 -0.000822067 0.000549316
15 1 0.156088 0.167859 0.700426 0 0.000823975 0.000572205
16 1 0.104961 0.00369931 0.840954 0 -0.000263214 -0.000972748
17 1 0.710483 0.5037 0.209499 0 -0.000278473 0.000968933
18 1 0.559902 0.166601 0.279713 0 -0.000202179 0.000328064
19 1 0.460484 0.662968 0.209499 0 0.000270844 0.000972748
20 1 0.50865 -0.00170903 0.419983 0 -0.000558853 0.000591278
21 1 0.409356 0.498807 0.350027 0 -0.000808716 -0.00056076
22 1 0.25865 0.168377 0.419983 0 0.000551224 0.000595093
23 1 0.159356 0.66786 0.350027 0 0.000818253 -0.000555038
24 1 0.207386 -0.00196054 0.560252 0 0.000396729 -0.000160217
25 1 0.108057 0.498039 0.4902 0 0.000413895 0.000162125
26 1 0.957387 0.168629 0.560253 0 -0.000404358 -0.000164032
27 1 0.858059 0.668629 0.490201 0 -0.000415802 0.000154495
28 1 0.511224 0.540505 0.0682815 0 7.24792e-05 -0.00225449
29 1 0.261224 0.626163 0.0682819 0 -8.58307e-05 -0.00226021