ITEM: TIMESTEP
0
ITEM: NUMBER OF ATOMS
32
ITEM: BOX BOUNDS xy xz yz pp pp pp
-4.0532350540161133e-03 6.4008854031562805e+00 0.0000000000000000e+00
-9.1640949249267578e-03 8.2943928837776184e+00 0.0000000000000000e+00
-4.7960281372070312e-02 2.0773346722126007e+01 2.7647976279258728e+00
ITEM: ATOMS id type xs ys zs fx fy fz
1 1 0.999986 0.636333 0.0597509 0 0 0.477505
2 1 0.499986 0.636333 0.0597509 0 0 0.477505
3 1 0.249986 0.136333 0.0597519 0 0 0.477383
4 1 0.749986 0.136333 0.0597519 0 0 0.477383
5 1 0.999986 0.511552 0.309753 0 0 0.000331879
6 1 0.249986 0.408291 0.184753 0 0 -0.000837326
7 1 0.749986 0.408291 0.184753 0 0 -0.000837326
8 1 0.499986 0.511552 0.309753 0 0 0.000331879
9 1 0.999986 0.908289 0.184753 0 0 -0.000804901
10 1 0.249986 0.0115519 0.309753 0 0 0.000289917
11 1 0.499986 0.908289 0.184753 0 0 -0.000804901
12 1 0.749986 0.0115519 0.309753 0 0 0.000289917
13 1 0.999986 0.386747 0.559749 0 0 5.53131e-05
14 1 0.499986 0.386747 0.559749 0 0 5.53131e-05
15 1 0.249986 0.886745 0.55975 0 0 4.3869e-05
16 1 0.749986 0.886745 0.55975 0 0 4.3869e-05
17 1 0.249986 0.283498 0.434752 0 0 -5.53131e-05
18 1 0.749986 0.283498 0.434752 0 0 -5.53131e-05
19 1 0.999986 0.783498 0.434752 0 0 -3.24249e-05
20 1 0.499986 0.783498 0.434752 0 0 -3.24249e-05
21 1 0.999986 0.261945 0.809748 0 0 0.000816345
22 1 0.249986 0.158688 0.684748 0 0 -0.000314713
23 1 0.499986 0.261945 0.809748 0 0 0.000816345
24 1 0.749986 0.158688 0.684748 0 0 -0.000314713
25 1 0.999986 0.658688 0.684749 0 0 -0.000337601
26 1 0.249986 0.761946 0.809748 0 0 0.000837326
27 1 0.749986 0.761946 0.809748 0 0 0.000837326
28 1 0.499986 0.658688 0.684749 0 0 -0.000337601
29 1 0.249986 0.0338998 0.934749 0 0 -0.477381
30 1 0.749986 0.0338998 0.934749 0 0 -0.477381
31 1 0.999986 0.5339 0.93475 0 0 -0.477499
32 1 0.499986 0.5339 0.93475 0 0 -0.477499
ITEM: TIMESTEP
1
ITEM: NUMBER OF ATOMS
32
ITEM: BOX BOUNDS xy xz yz pp pp pp
-4.0532350540161133e-03 6.4008854031562805e+00 0.0000000000000000e+00
-9.1640949249267578e-03 8.2943928837776184e+00 0.0000000000000000e+00
-4.7960281372070312e-02 2.0773346722126007e+01 2.7647976279258728e+00
ITEM: ATOMS id type xs ys zs fx fy fz
1 1 0.999986 0.634324 0.0637747 0 0 -0.0104008
2 1 0.499986 0.634324 0.0637747 0 0 -0.0104008
3 1 0.249986 0.134325 0.0637747 0 0 -0.0103912
4 1 0.749986 0.134325 0.0637747 0 0 -0.0103912
5 1 0.999986 0.51155 0.309756 0 0 0.00643349
6 1 0.249986 0.408294 0.184746 0 0 0.120438
7 1 0.749986 0.408294 0.184746 0 0 0.120438
8 1 0.499986 0.51155 0.309756 0 0 0.00643349
9 1 0.999986 0.908292 0.184746 0 0 0.120436
10 1 0.249986 0.0115507 0.309756 0 0 0.00641441
11 1 0.499986 0.908292 0.184746 0 0 0.120436
12 1 0.749986 0.0115507 0.309756 0 0 0.00641441
13 1 0.999986 0.386747 0.55975 0 0 0.000352859
14 1 0.499986 0.386747 0.55975 0 0 0.000352859
15 1 0.249986 0.886745 0.55975 0 0 0.000341415
16 1 0.749986 0.886745 0.55975 0 0 0.000341415
17 1 0.249986 0.283499 0.434752 0 0 -0.000352859
18 1 0.749986 0.283499 0.434752 0 0 -0.000352859
19 1 0.999986 0.783498 0.434751 0 0 -0.000341415
20 1 0.499986 0.783498 0.434751 0 0 -0.000341415
21 1 0.999986 0.261942 0.809755 0 0 -0.120438
22 1 0.249986 0.15869 0.684746 0 0 -0.00641632
23 1 0.499986 0.261942 0.809755 0 0 -0.120438
24 1 0.749986 0.15869 0.684746 0 0 -0.00641632
25 1 0.999986 0.658689 0.684746 0 0 -0.00642776
26 1 0.249986 0.761942 0.809755 0 0 -0.120445
27 1 0.749986 0.761942 0.809755 0 0 -0.120445
28 1 0.499986 0.658689 0.684746 0 0 -0.00642776
29 1 0.249986 0.0359078 0.930727 0 0 0.0103931
30 1 0.749986 0.0359078 0.930727 0 0 0.0103931
31 1 0.999986 0.535909 0.930726 0 0 0.0104046
32 1 0.499986 0.535909 0.930726 0 0 0.0104046
ITEM: TIMESTEP
2
ITEM: NUMBER OF ATOMS
32
ITEM: BOX BOUNDS xy xz yz pp pp pp
-4.0532350540161133e-03 6.4008854031562805e+00 0.0000000000000000e+00
-9.1640949249267578e-03 8.2943928837776184e+00 0.0000000000000000e+00
-4.7960281372070312e-02 2.0773346722126007e+01 2.7647976279258728e+00
ITEM: ATOMS id type xs ys zs fx fy fz
1 1 0.999986 0.634014 0.0643973 0 0 0.000209808
2 1 0.499986 0.634014 0.0643973 0 0 0.000209808
3 1 0.249986 0.134014 0.0643973 0 0 0.00022316
4 1 0.749986 0.134014 0.0643973 0 0 0.00022316
5 1 0.999986 0.511485 0.309886 0 0 0.0621681
6 1 0.249986 0.407084 0.187171 0 0 -0.00131798
7 1 0.749986 0.407084 0.187171 0 0 -0.00131798
8 1 0.499986 0.511485 0.309886 0 0 0.0621681
9 1 0.999986 0.907082 0.187171 0 0 -0.00131989
10 1 0.249986 0.011486 0.309886 0 0 0.06217
11 1 0.499986 0.907082 0.187171 0 0 -0.00131989
12 1 0.749986 0.011486 0.309886 0 0 0.06217
13 1 0.999986 0.386743 0.559757 0 0 -0.00703239
14 1 0.499986 0.386743 0.559757 0 0 -0.00703239
15 1 0.249986 0.886742 0.559757 0 0 -0.00703239
16 1 0.749986 0.886742 0.559757 0 0 -0.00703239
17 1 0.249986 0.283502 0.434745 0 0 0.00702858
18 1 0.749986 0.283502 0.434745 0 0 0.00702858
19 1 0.999986 0.783502 0.434745 0 0 0.00703239
20 1 0.499986 0.783502 0.434745 0 0 0.00703239
21 1 0.999986 0.263152 0.80733 0 0 0.00131607
22 1 0.249986 0.158754 0.684616 0 0 -0.0621719
23 1 0.499986 0.263152 0.80733 0 0 0.00131607
24 1 0.749986 0.158754 0.684616 0 0 -0.0621719
25 1 0.999986 0.658754 0.684616 0 0 -0.0621758
26 1 0.249986 0.763153 0.80733 0 0 0.0013237
27 1 0.749986 0.763153 0.80733 0 0 0.0013237
28 1 0.499986 0.658754 0.684616 0 0 -0.0621758
29 1 0.249986 0.0362185 0.930104 0 0 -0.000207901
30 1 0.749986 0.0362185 0.930104 0 0 -0.000207901
31 1 0.999986 0.536219 0.930104 0 0 -0.000213623
32 1 0.499986 0.536219 0.930104 0 0 -0.000213623
ITEM: TIMESTEP
3
ITEM: NUMBER OF ATOMS
32
ITEM: BOX BOUNDS xy xz yz pp pp pp
-4.0532350540161133e-03 6.4008854031562805e+00 0.0000000000000000e+00
-9.1640949249267578e-03 8.2943928837776184e+00 0.0000000000000000e+00
-4.7960281372070312e-02 2.0773346722126007e+01 2.7647976279258728e+00
ITEM: ATOMS id type xs ys zs fx fy fz
1 1 0.999986 0.633907 0.0646102 0 0 0.00431442
2 1 0.499986 0.633907 0.0646102 0 0 0.00431442
3 1 0.249986 0.133907 0.0646106 0 0 0.0043087
4 1 0.749986 0.133907 0.0646106 0 0 0.0043087
5 1 0.999986 0.510635 0.31159 0 0 -0.00545692
6 1 0.249986 0.406698 0.187944 0 0 0.00463104
7 1 0.749986 0.406698 0.187944 0 0 0.00463104
8 1 0.499986 0.510635 0.31159 0 0 -0.00545692
9 1 0.999986 0.906696 0.187944 0 0 0.00463295
10 1 0.249986 0.0106353 0.31159 0 0 -0.00544739
11 1 0.499986 0.906696 0.187944 0 0 0.00463295
12 1 0.749986 0.0106353 0.31159 0 0 -0.00544739
13 1 0.999986 0.386836 0.559572 0 0 -0.0339279
14 1 0.499986 0.386836 0.559572 0 0 -0.0339279
15 1 0.249986 0.886834 0.559571 0 0 -0.0339279
16 1 0.749986 0.886834 0.559571 0 0 -0.0339279
17 1 0.249986 0.28341 0.43493 0 0 0.0339298
18 1 0.749986 0.28341 0.43493 0 0 0.0339298
19 1 0.999986 0.783409 0.43493 0 0 0.0339088
20 1 0.499986 0.783409 0.43493 0 0 0.0339088
21 1 0.999986 0.263538 0.806558 0 0 -0.00461197
22 1 0.249986 0.159605 0.682912 0 0 0.00544548
23 1 0.499986 0.263538 0.806558 0 0 -0.00461197
24 1 0.749986 0.159605 0.682912 0 0 0.00544548
25 1 0.999986 0.659605 0.682912 0 0 0.00545692
26 1 0.249986 0.763538 0.806558 0 0 -0.00462341
27 1 0.749986 0.763538 0.806558 0 0 -0.00462341
28 1 0.499986 0.659605 0.682912 0 0 0.00545692
29 1 0.249986 0.0363248 0.929891 0 0 -0.00431252
30 1 0.749986 0.0363248 0.929891 0 0 -0.00431252
31 1 0.999986 0.536326 0.929891 0 0 -0.00432014
32 1 0.499986 0.536326 0.929891 0 0 -0.00432014
ITEM: TIMESTEP
4
ITEM: NUMBER OF ATOMS
32
ITEM: BOX BOUNDS xy xz yz pp pp pp
-4.0532350540161133e-03 6.4008854031562805e+00 0.0000000000000000e+00
-9.1640949249267578e-03 8.2943928837776184e+00 0.0000000000000000e+00
-4.7960281372070312e-02 2.0773346722126007e+01 2.7647976279258728e+00
ITEM: ATOMS id type xs ys zs fx fy fz
1 1 0.999986 0.63386 0.0647052 0 0 0.000968933
2 1 0.499986 0.63386 0.0647052 0 0 0.000968933
3 1 0.249986 0.13386 0.0647055 0 0 0.000961304
4 1 0.749986 0.13386 0.0647055 0 0 0.000961304
5 1 0.999986 0.510525 0.311809 0 0 -0.00044632
6 1 0.249986 0.406601 0.188139 0 0 0.00260353
7 1 0.749986 0.406601 0.188139 0 0 0.00260353
8 1 0.499986 0.510525 0.311809 0 0 -0.00044632
9 1 0.999986 0.906599 0.188139 0 0 0.00260162
10 1 0.249986 0.0105261 0.311808 0 0 -0.000431061
11 1 0.499986 0.906599 0.188139 0 0 0.00260162
12 1 0.749986 0.0105261 0.311808 0 0 -0.000431061
13 1 0.999986 0.387081 0.55908 0 0 -0.000930786
14 1 0.499986 0.387081 0.55908 0 0 -0.000930786
15 1 0.249986 0.887079 0.55908 0 0 -0.000923157
16 1 0.749986 0.887079 0.55908 0 0 -0.000923157
17 1 0.249986 0.283164 0.435421 0 0 0.000928879
18 1 0.749986 0.283164 0.435421 0 0 0.000928879
19 1 0.999986 0.783164 0.435421 0 0 0.000926971
20 1 0.499986 0.783164 0.435421 0 0 0.000926971
21 1 0.999986 0.263635 0.806362 0 0 -0.00260735
22 1 0.249986 0.159714 0.682693 0 0 0.000442505
23 1 0.499986 0.263635 0.806362 0 0 -0.00260735
24 1 0.749986 0.159714 0.682693 0 0 0.000442505
25 1 0.999986 0.659714 0.682693 0 0 0.000431061
26 1 0.249986 0.763636 0.806362 0 0 -0.00260353
27 1 0.749986 0.763636 0.806362 0 0 -0.00260353
28 1 0.499986 0.659714 0.682693 0 0 0.000431061
29 1 0.249986 0.0363722 0.929796 0 0 -0.000967026
30 1 0.749986 0.0363722 0.929796 0 0 -0.000967026
31 1 0.999986 0.536373 0.929796 0 0 -0.000955582
32 1 0.499986 0.536373 0.929796 0 0 -0.000955582
ITEM: TIMESTEP
5
ITEM: NUMBER OF ATOMS
32
ITEM: BOX BOUNDS xy xz yz pp pp pp
-4.0532350540161133e-03 6.4008854031562805e+00 0.0000000000000000e+00
-9.1640949249267578e-03 8.2943928837776184e+00 0.0000000000000000e+00
-4.7960281372070312e-02 2.0773346722126007e+01 2.7647976279258728e+00
ITEM: ATOMS id type xs ys zs fx fy fz
1 1 0.999986 0.633851 0.0647228 0 0 0.000600815
2 1 0.499986 0.633851 0.0647228 0 0 0.000600815
3 1 0.249986 0.133851 0.0647229 0 0 0.000597
4 1 0.749986 0.133851 0.0647229 0 0 0.000597
5 1 0.999986 0.510529 0.311801 0 0 0.00165558
6 1 0.249986 0.406577 0.188186 0 0 0.000228882
7 1 0.749986 0.406577 0.188186 0 0 0.000228882
8 1 0.499986 0.510529 0.311801 0 0 0.00165558
9 1 0.999986 0.906575 0.188186 0 0 0.000225067
10 1 0.249986 0.01053 0.311801 0 0 0.00163651
11 1 0.499986 0.906575 0.188186 0 0 0.000225067
12 1 0.749986 0.01053 0.311801 0 0 0.00163651
13 1 0.999986 0.387089 0.559063 0 0 0.000555038
14 1 0.499986 0.387089 0.559063 0 0 0.000555038
15 1 0.249986 0.887088 0.559063 0 0 0.000558853
16 1 0.749986 0.887088 0.559063 0 0 0.000558853
17 1 0.249986 0.283156 0.435438 0 0 -0.00056839
18 1 0.749986 0.283156 0.435438 0 0 -0.00056839
19 1 0.999986 0.783155 0.435438 0 0 -0.000553131
20 1 0.499986 0.783155 0.435438 0 0 -0.000553131
21 1 0.999986 0.263659 0.806315 0 0 -0.000225067
22 1 0.249986 0.15971 0.682701 0 0 -0.00164986
23 1 0.499986 0.263659 0.806315 0 0 -0.000225067
24 1 0.749986 0.15971 0.682701 0 0 -0.00164986
25 1 0.999986 0.65971 0.682701 0 0 -0.00163078
26 1 0.249986 0.763659 0.806315 0 0 -0.000226974
27 1 0.749986 0.763659 0.806315 0 0 -0.000226974
28 1 0.499986 0.65971 0.682701 0 0 -0.00163078
29 1 0.249986 0.0363809 0.929779 0 0 -0.000602722
30 1 0.749986 0.0363809 0.929779 0 0 -0.000602722
31 1 0.999986 0.536382 0.929778 0 0 -0.000600815
32 1 0.499986 0.536382 0.929778 0 0 -0.000600815
ITEM: TIMESTEP
6
ITEM: NUMBER OF ATOMS
32
ITEM: BOX BOUNDS xy xz yz pp pp pp
-4.0532350540161133e-03 6.4008854031562805e+00 0.0000000000000000e+00
-9.1640949249267578e-03 8.2943928837776184e+00 0.0000000000000000e+00
-4.7960281372070312e-02 2.0773346722126007e+01 2.7647976279258728e+00
ITEM: ATOMS id type xs ys zs fx fy fz
1 1 0.999986 0.63384 0.0647451 0 0 -0.000663757
2 1 0.499986 0.63384 0.0647451 0 0 -0.000663757
3 1 0.249986 0.13384 0.0647452 0 0 -0.000671387
4 1 0.749986 0.13384 0.0647452 0 0 -0.000671387
5 1 0.999986 0.510513 0.311834 0 0 0.000488281
6 1 0.249986 0.406563 0.188215 0 0 5.34058e-05
7 1 0.749986 0.406563 0.188215 0 0 5.34058e-05
8 1 0.499986 0.510513 0.311834 0 0 0.000488281
9 1 0.999986 0.906561 0.188215 0 0 6.48499e-05
10 1 0.249986 0.0105134 0.311834 0 0 0.000486374
11 1 0.499986 0.906561 0.188215 0 0 6.48499e-05
12 1 0.749986 0.0105134 0.311834 0 0 0.000486374
13 1 0.999986 0.387087 0.559067 0 0 -0.000648499
14 1 0.499986 0.387087 0.559067 0 0 -0.000648499
15 1 0.249986 0.887086 0.559068 0 0 -0.00066185
16 1 0.749986 0.887086 0.559068 0 0 -0.00066185
17 1 0.249986 0.283158 0.435434 0 0 0.000665665
18 1 0.749986 0.283158 0.435434 0 0 0.000665665
19 1 0.999986 0.783157 0.435434 0 0 0.000652313
20 1 0.499986 0.783157 0.435434 0 0 0.000652313
21 1 0.999986 0.263673 0.806287 0 0 -6.10352e-05
22 1 0.249986 0.159727 0.682667 0 0 -0.000486374
23 1 0.499986 0.263673 0.806287 0 0 -6.10352e-05
24 1 0.749986 0.159727 0.682667 0 0 -0.000486374
25 1 0.999986 0.659727 0.682668 0 0 -0.000492096
26 1 0.249986 0.763674 0.806287 0 0 -5.91278e-05
27 1 0.749986 0.763674 0.806287 0 0 -5.91278e-05
28 1 0.499986 0.659727 0.682668 0 0 -0.000492096
29 1 0.249986 0.0363921 0.929756 0 0 0.000665665
30 1 0.749986 0.0363921 0.929756 0 0 0.000665665
31 1 0.999986 0.536393 0.929756 0 0 0.000667572
32 1 0.499986 0.536393 0.929756 0 0 0.000667572
ITEM: TIMESTEP
7
ITEM: NUMBER OF ATOMS
32
ITEM: BOX BOUNDS xy xz yz pp pp pp
-4.0532350540161133e-03 6.4008854031562805e+00 0.0000000000000000e+00
-9.1640949249267578e-03 8.2943928837776184e+00 0.0000000000000000e+00
-4.7960281372070312e-02 2.0773346722126007e+01 2.7647976279258728e+00
ITEM: ATOMS id type xs ys zs fx fy fz
1 1 0.999986 0.633843 0.0647387 0 0 0.000209808
2 1 0.499986 0.633843 0.0647387 0 0 0.000209808
3 1 0.249986 0.133843 0.0647385 0 0 0.000232697
4 1 0.749986 0.133843 0.0647385 0 0 0.000232697
5 1 0.999986 0.510504 0.311851 0 0 -1.14441e-05
6 1 0.249986 0.406559 0.188223 0 0 -0.000120163
7 1 0.749986 0.406559 0.188223 0 0 -0.000120163
8 1 0.499986 0.510504 0.311851 0 0 -1.14441e-05
9 1 0.999986 0.906557 0.188223 0 0 -0.000131607
10 1 0.249986 0.0105048 0.311851 0 0 1.90735e-06
11 1 0.499986 0.906557 0.188223 0 0 -0.000131607
12 1 0.749986 0.0105048 0.311851 0 0 1.90735e-06
13 1 0.999986 0.387093 0.559057 0 0 -0.000217438
14 1 0.499986 0.387093 0.559057 0 0 -0.000217438
15 1 0.249986 0.887091 0.559057 0 0 -0.00021553
16 1 0.749986 0.887091 0.559057 0 0 -0.00021553
17 1 0.249986 0.283153 0.435445 0 0 0.00022316
18 1 0.749986 0.283153 0.435445 0 0 0.00022316
19 1 0.999986 0.783152 0.435445 0 0 0.000211716
20 1 0.499986 0.783152 0.435445 0 0 0.000211716
21 1 0.999986 0.263677 0.806278 0 0 0.000137329
22 1 0.249986 0.159736 0.68265 0 0 1.90735e-06
23 1 0.499986 0.263677 0.806278 0 0 0.000137329
24 1 0.749986 0.159736 0.68265 0 0 1.90735e-06
25 1 0.999986 0.659736 0.68265 0 0 -7.62939e-06
26 1 0.249986 0.763678 0.806278 0 0 0.000131607
27 1 0.749986 0.763678 0.806278 0 0 0.000131607
28 1 0.499986 0.659736 0.68265 0 0 -7.62939e-06
29 1 0.249986 0.0363889 0.929763 0 0 -0.000225067
30 1 0.749986 0.0363889 0.929763 0 0 -0.000225067
31 1 0.999986 0.53639 0.929763 0 0 -0.000221252
32 1 0.499986 0.53639 0.929763 0 0 -0.000221252
ITEM: TIMESTEP
8
ITEM: NUMBER OF ATOMS
32
ITEM: BOX BOUNDS xy xz yz pp pp pp
-4.0532350540161133e-03 6.4008854031562805e+00 0.0000000000000000e+00
-9.1640949249267578e-03 8.2943928837776184e+00 0.0000000000000000e+00
-4.7960281372070312e-02 2.0773346722126007e+01 2.7647976279258728e+00
ITEM: ATOMS id type xs ys zs fx fy fz
1 1 0.999986 0.633842 0.0647404 0 0 1.14441e-05
2 1 0.499986 0.633842 0.0647404 0 0 1.14441e-05
3 1 0.249986 0.133842 0.0647405 0 0 1.14441e-05
4 1 0.749986 0.133842 0.0647405 0 0 1.14441e-05
5 1 0.999986 0.510504 0.311852 0 0 -1.14441e-05
6 1 0.249986 0.406559 0.188222 0 0 3.8147e-06
7 1 0.749986 0.406559 0.188222 0 0 3.8147e-06
8 1 0.499986 0.510504 0.311852 0 0 -1.14441e-05
9 1 0.999986 0.906557 0.188222 0 0 1.14441e-05
10 1 0.249986 0.0105043 0.311852 0 0 -1.52588e-05
11 1 0.499986 0.906557 0.188222 0 0 1.14441e-05
12 1 0.749986 0.0105043 0.311852 0 0 -1.52588e-05
13 1 0.999986 0.387094 0.559054 0 0 -1.33514e-05
14 1 0.499986 0.387094 0.559054 0 0 -1.33514e-05
15 1 0.249986 0.887093 0.559054 0 0 -1.52588e-05
16 1 0.749986 0.887093 0.559054 0 0 -1.52588e-05
17 1 0.249986 0.283151 0.435448 0 0 1.14441e-05
18 1 0.749986 0.283151 0.435448 0 0 1.14441e-05
19 1 0.999986 0.783151 0.435448 0 0 1.52588e-05
20 1 0.499986 0.783151 0.435448 0 0 1.52588e-05
21 1 0.999986 0.263677 0.806279 0 0 -9.53674e-06
22 1 0.249986 0.159736 0.682649 0 0 1.33514e-05
23 1 0.499986 0.263677 0.806279 0 0 -9.53674e-06
24 1 0.749986 0.159736 0.682649 0 0 1.33514e-05
25 1 0.999986 0.659736 0.682649 0 0 1.52588e-05
26 1 0.249986 0.763677 0.806279 0 0 -7.62939e-06
27 1 0.749986 0.763677 0.806279 0 0 -7.62939e-06
28 1 0.499986 0.659736 0.682649 0 0 1.52588e-05
29 1 0.249986 0.0363898 0.929761 0 0 -5.72205e-06
30 1 0.749986 0.0363898 0.929761 0 0 -5.72205e-06
31 1 0.999986 0.536391 0.929761 0 0 -1.52588e-05
32 1 0.499986 0.536391 0.929761 0 0 -1.52588e-05
ITEM: TIMESTEP
9
ITEM: NUMBER OF ATOMS
32
ITEM: BOX BOUNDS xy xz yz pp pp pp
-4.0532350540161133e-03 6.4008854031562805e+00 0.0000000000000000e+00
-9.1640949249267578e-03 8.2943928837776184e+00 0.0000000000000000e+00
-4.7960281372070312e-02 2.0773346722126007e+01 2.7647976279258728e+00
ITEM: ATOMS id type xs ys zs fx fy fz
1 1 0.999986 0.633842 0.0647404 0 0 1.14441e-05
2 1 0.499986 0.633842 0.0647404 0 0 1.14441e-05
3 1 0.249986 0.133842 0.0647405 0 0 1.14441e-05
4 1 0.749986 0.133842 0.0647405 0 0 1.14441e-05
5 1 0.999986 0.510504 0.311852 0 0 -1.14441e-05
6 1 0.249986 0.406559 0.188222 0 0 3.8147e-06
7 1 0.749986 0.406559 0.188222 0 0 3.8147e-06
8 1 0.499986 0.510504 0.311852 0 0 -1.14441e-05
9 1 0.999986 0.906557 0.188222 0 0 1.14441e-05
10 1 0.249986 0.0105043 0.311852 0 0 -1.52588e-05
11 1 0.499986 0.906557 0.188222 0 0 1.14441e-05
12 1 0.749986 0.0105043 0.311852 0 0 -1.52588e-05
13 1 0.999986 0.387094 0.559054 0 0 -1.33514e-05
14 1 0.499986 0.387094 0.559054 0 0 -1.33514e-05
15 1 0.249986 0.887093 0.559054 0 0 -1.52588e-05
16 1 0.749986 0.887093 0.559054 0 0 -1.52588e-05
17 1 0.249986 0.283151 0.435448 0 0 1.14441e-05
18 1 0.749986 0.283151 0.435448 0 0 1.14441e-05
19 1 0.999986 0.783151 0.435448 0 0 1.52588e-05
20 1 0.499986 0.783151 0.435448 0 0 1.52588e-05
21 1 0.999986 0.263677 0.806279 0 0 -9.53674e-06
22 1 0.249986 0.159736 0.682649 0 0 1.33514e-05
23 1 0.499986 0.263677 0.806279 0 0 -9.53674e-06
24 1 0.749986 0.159736 0.682649 0 0 1.33514e-05
25 1 0.999986 0.659736 0.682649 0 0 1.52588e-05
26 1 0.249986 0.763677 0.806279 0 0 -7.62939e-06
27 1 0.749986 0.763677 0.806279 0 0 -7.62939e-06
28 1 0.499986 0.659736 0.682649 0 0 1.52588e-05
29 1 0.249986 0.0363898 0.929761 0 0 -5.72205e-06
30 1 0.749986 0.0363898 0.929761 0 0 -5.72205e-06
31 1 0.999986 0.536391 0.929761 0 0 -1.52588e-05
32 1 0.499986 0.536391 0.929761 0 0 -1.52588e-05
