LAMMPS (23 Jun 2022 - Update 1)
OMP_NUM_THREADS environment is not set. Defaulting to 1 thread. (src/comm.cpp:98)
  using 1 OpenMP thread(s) per MPI task
Loaded 1 plugins from /software/deepmd-kit/2.1.5/gpu/lib/deepmd_lmp
Loaded 0 plugins from 
Reading data file ...
  orthogonal box = (0 0 0) to (26.38965 26.38965 25.40376)
  1 by 1 by 1 MPI processor grid
  reading atoms ...
  900 atoms
  read_data CPU = 0.164 seconds
Summary of lammps deepmd module ...
  >>> Info of deepmd-kit:
  installed to:       /software/deepmd-kit/2.1.5/gpu
  source:             v2.1.5
  source branch:       HEAD
  source commit:      6e3d4a62
  source commit at:   2022-09-23 16:10:28 +0800
  surpport model ver.:1.1 
  build float prec:   double
  build variant:      cuda
  build with tf inc:  /software/deepmd-kit/2.1.5/gpu/include;/software/deepmd-kit/2.1.5/gpu/include
  build with tf lib:  /software/deepmd-kit/2.1.5/gpu/lib/libtensorflow_cc.so;/software/deepmd-kit/2.1.5/gpu/lib/libtensorflow_framework.so
  set tf intra_op_parallelism_threads: 0
  set tf inter_op_parallelism_threads: 0
  >>> Info of lammps module:
  use deepmd-kit at:  /software/deepmd-kit/2.1.5/gpuDeePMD-kit WARNING: Environmental variable TF_INTRA_OP_PARALLELISM_THREADS is not set. Tune TF_INTRA_OP_PARALLELISM_THREADS for the best performance.
DeePMD-kit WARNING: Environmental variable TF_INTER_OP_PARALLELISM_THREADS is not set. Tune TF_INTER_OP_PARALLELISM_THREADS for the best performance.
DeePMD-kit WARNING: Environmental variable OMP_NUM_THREADS is not set. Tune OMP_NUM_THREADS for the best performance.
2023-03-03 23:17:32.374507: I tensorflow/core/platform/cpu_feature_guard.cc:193] This TensorFlow binary is optimized with oneAPI Deep Neural Network Library (oneDNN) to use the following CPU instructions in performance-critical operations:  SSE4.1 SSE4.2 AVX
To enable them in other operations, rebuild TensorFlow with the appropriate compiler flags.
2023-03-03 23:17:32.962728: I tensorflow/core/common_runtime/gpu/gpu_device.cc:1532] Created device /job:localhost/replica:0/task:0/device:GPU:0 with 10059 MB memory:  -> device: 0, name: GeForce GTX 1080 Ti, pci bus id: 0000:04:00.0, compute capability: 6.1
2023-03-03 23:17:32.963053: I tensorflow/core/common_runtime/process_util.cc:146] Creating new thread pool with default inter op setting: 2. Tune using inter_op_parallelism_threads for best performance.
2023-03-03 23:17:33.009391: I tensorflow/compiler/mlir/mlir_graph_optimization_pass.cc:354] MLIR V1 optimization pass is not enabled
  >>> Info of model(s):
  using   1 model(s): model.pb 
  rcut in model:      6
  ntypes in model:    4

CITE-CITE-CITE-CITE-CITE-CITE-CITE-CITE-CITE-CITE-CITE-CITE-CITE

Your simulation uses code contributions which should be cited:
- USER-DEEPMD package:
The log file lists these citations in BibTeX format.

CITE-CITE-CITE-CITE-CITE-CITE-CITE-CITE-CITE-CITE-CITE-CITE-CITE

Generated 0 of 6 mixed pair_coeff terms from geometric mixing rule
Neighbor list info ...
  update every 10 steps, delay 0 steps, check no
  max neighbors/atom: 2000, page size: 100000
  master list distance cutoff = 7
  ghost atom cutoff = 7
  binsize = 3.5, bins = 8 8 8
  1 neighbor lists, perpetual/occasional/extra = 1 0 0
  (1) pair deepmd, perpetual
      attributes: full, newton on
      pair build: full/bin/atomonly
      stencil: full/bin/3d
      bin: standard
Setting up Verlet run ...
  Unit style    : metal
  Current step  : 0
  Time step     : 0.002
Per MPI rank memory allocation (min/avg/max) = 2.644 | 2.644 | 2.644 Mbytes
   Step          Temp          E_pair         E_mol          TotEng         Press     
         0   666           -3890.2809      0             -3812.8885      9188.3784    
      2000   708.52036     -3816.7995      0             -3734.4659      13711.312    
Loop time of 116.808 on 1 procs for 2000 steps with 900 atoms

Performance: 2.959 ns/day, 8.112 hours/ns, 17.122 timesteps/s
56.0% CPU use with 1 MPI tasks x 1 OpenMP threads

MPI task timing breakdown:
Section |  min time  |  avg time  |  max time  |%varavg| %total
---------------------------------------------------------------
Pair    | 115.84     | 115.84     | 115.84     |   0.0 | 99.17
Neigh   | 0.87262    | 0.87262    | 0.87262    |   0.0 |  0.75
Comm    | 0.039782   | 0.039782   | 0.039782   |   0.0 |  0.03
Output  | 0.00034306 | 0.00034306 | 0.00034306 |   0.0 |  0.00
Modify  | 0.045357   | 0.045357   | 0.045357   |   0.0 |  0.04
Other   |            | 0.01455    |            |       |  0.01

Nlocal:            900 ave         900 max         900 min
Histogram: 1 0 0 0 0 0 0 0 0 0
Nghost:           2392 ave        2392 max        2392 min
Histogram: 1 0 0 0 0 0 0 0 0 0
Neighs:              0 ave           0 max           0 min
Histogram: 1 0 0 0 0 0 0 0 0 0
FullNghs:        64880 ave       64880 max       64880 min
Histogram: 1 0 0 0 0 0 0 0 0 0

Total # of neighbors = 64880
Ave neighs/atom = 72.088889
Neighbor list builds = 200
Dangerous builds not checked
Generated 0 of 6 mixed pair_coeff terms from geometric mixing rule
Setting up Verlet run ...
  Unit style    : metal
  Current step  : 0
  Time step     : 0.002
Per MPI rank memory allocation (min/avg/max) = 3.929 | 3.929 | 3.929 Mbytes
   Step          Time           Temp          KinEng         TotEng         Press     
         0   0              708.52036      82.333517     -3734.4659      13711.312    
       100   0.2            656.89276      76.334138     -3737.2034      13082.246    
       200   0.4            644.24236      74.864099     -3741.3952      11895.965    
       300   0.6            650.05581      75.539651     -3741.4996      14240.546    
       400   0.8            653.72979      75.966586     -3739.7482      13796.69     
       500   1              655.93331      76.222645     -3737.4854      12407.366    
       600   1.2            690.58013      80.248774     -3734.9603      13372.506    
       700   1.4            685.01845      79.602481     -3732.5568      14393.968    
       800   1.6            686.72013      79.800224     -3732.6705      14474.941    
       900   1.8            687.48365      79.888949     -3737.6895      13578.754    
      1000   2              646.33548      75.107331     -3740.2246      15390.555    
      1100   2.2            668.70429      77.706695     -3739.4544      12078.209    
      1200   2.4            665.40159      77.322905     -3736.2362      15752.604    
      1300   2.6            713.23318      82.881169     -3731.9994      14720.348    
      1400   2.8            663.95484      77.154787     -3733.8139      13620.592    
      1500   3              682.8599       79.351646     -3736.098       13848.343    
      1600   3.2            665.20638      77.300221     -3737.2025      14028.309    
      1700   3.4            668.60932      77.695659     -3739.2325      12226.527    
      1800   3.6            675.34236      78.478072     -3741.3505      12536.853    
      1900   3.8            663.71213      77.126582     -3741.964       13965.594    
      2000   4              675.45248      78.490868     -3738.3514      13639.387    
      2100   4.2            684.66515      79.561425     -3734.6894      13890.413    
      2200   4.4            680.24144      79.047369     -3735.9328      14987.729    
      2300   4.6            682.40587      79.298886     -3739.5572      12941.104    
      2400   4.8            665.40136      77.322879     -3741.7317      14800.412    
      2500   5              655.34564      76.154355     -3741.0587      14641.293    
      2600   5.2            667.70614      77.590705     -3739.7144      12860.83     
      2700   5.4            676.09039      78.564996     -3738.1889      14653.71     
      2800   5.6            668.83876      77.722321     -3737.478       15033.311    
      2900   5.8            683.54665      79.43145      -3737.5024      13311.215    
      3000   6              672.05827      78.096444     -3739.4842      14842.008    
      3100   6.2            658.56724      76.528721     -3740.5706      12645.241    
      3200   6.4            675.74561      78.524931     -3739.0266      13854.778    
      3300   6.6            697.40081      81.04137      -3734.5901      14815.978    
      3400   6.8            696.5401       80.941352     -3733.7907      12109.099    
      3500   7              667.341        77.548274     -3736.652       13489.134    
      3600   7.2            634.42901      73.72374      -3740.8703      13249.39     
      3700   7.4            672.35352      78.130754     -3741.0199      14993.5      
      3800   7.6            644.69905      74.91717      -3739.7         15586.316    
      3900   7.8            661.02189      76.813962     -3737.532       14529.187    
      4000   8              668.16835      77.644416     -3736.8345      14286.779    
      4100   8.2            645.96313      75.064062     -3737.6328      13791.519    
      4200   8.4            636.55551      73.970851     -3741.2275      13174.101    
      4300   8.6            644.76705      74.925071     -3743.4969      12240.371    
      4400   8.8            656.05386      76.236654     -3741.5856      12870.28     
      4500   9              694.20847      80.670406     -3735.9634      13369.967    
      4600   9.2            663.41139      77.091634     -3736.1933      13026.2      
      4700   9.4            666.92901      77.500399     -3737.0488      13753.172    
      4800   9.6            646.35984      75.110161     -3740.2038      14164.595    
      4900   9.8            646.06565      75.075975     -3744.1932      13379.715    
      5000   10             670.47314      77.912244     -3744.2861      12250.653    
      5100   10.2           658.74547      76.549432     -3737.2739      12052.454    
      5200   10.4           665.91052      77.382046     -3735.8652      15875.031    
      5300   10.6           665.77328      77.366098     -3736.238       11955.772    
      5400   10.8           669.29293      77.775098     -3739.7933      13375.37     
      5500   11             651.01742      75.651395     -3742.2475      11971.174    
      5600   11.2           638.97026      74.251456     -3740.768       10981.377    
      5700   11.4           679.41838      78.951724     -3736.8124      13511.87     
      5800   11.6           664.7991       77.252893     -3735.0315      13415.282    
      5900   11.8           674.24917      78.351037     -3735.7545      13132.787    
      6000   12             683.29868      79.402634     -3737.8663      12032.137    
      6100   12.2           657.766        76.435613     -3740.5829      13394.518    
      6200   12.4           661.68487      76.891004     -3741.079       12981.677    
      6300   12.6           650.32403      75.570819     -3739.0497      13638.349    
      6400   12.8           696.07838      80.887698     -3734.0027      14106.682    
      6500   13             682.15888      79.270184     -3734.6867      13473.424    
      6600   13.2           683.52486      79.428917     -3737.4411      14303.107    
      6700   13.4           650.75332      75.620705     -3739.4817      12182.979    
      6800   13.6           664.19798      77.183041     -3737.9115      13796.636    
      6900   13.8           670.26935      77.888563     -3730.763       15287.834    
      7000   14             673.62323      78.278301     -3731.8877      13162.76     
      7100   14.2           660.19595      76.717985     -3736.5367      14915.521    
      7200   14.4           628.82148      73.072119     -3739.1787      13233.606    
      7300   14.6           674.05068      78.327972     -3740.1196      12908.718    
      7400   14.8           636.3493       73.946888     -3741.3495      14284.422    
      7500   15             654.45282      76.050605     -3740.7754      12734.582    
      7600   15.2           680.07545      79.02808      -3736.6771      15641.807    
      7700   15.4           689.19747      80.088103     -3734.9391      14966.21     
      7800   15.6           653.02256      75.884402     -3737.9542      14323.613    
      7900   15.8           646.72513      75.15261      -3741.4345      14391.681    
      8000   16             649.39838      75.463255     -3740.8182      13516.025    
      8100   16.2           652.05498      75.771965     -3739.9605      13360.922    
      8200   16.4           661.29262      76.845423     -3738.4854      15712.794    
      8300   16.6           669.90656      77.846404     -3736.292       13700.596    
      8400   16.8           682.17692      79.27228      -3733.1396      12958.093    
      8500   17             706.87664      82.142508     -3729.4507      16643.713    
      8600   17.2           682.98577      79.366272     -3733.2399      14808.642    
      8700   17.4           666.36048      77.434334     -3737.6711      12808.257    
      8800   17.6           680.71448      79.102338     -3739.35        14034.501    
      8900   17.8           661.32564      76.84926      -3740.5402      11564.849    
      9000   18             652.76808      75.854831     -3740.6502      11435.67     
      9100   18.2           652.57853      75.832803     -3737.6027      16531.943    
      9200   18.4           683.98455      79.482336     -3734.143       12193.294    
      9300   18.6           671.26748      78.00455      -3734.8407      15487.832    
      9400   18.8           653.57948      75.949118     -3739.9187      13209.954    
      9500   19             658.53146      76.524563     -3741.2455      13778.677    
      9600   19.2           668.76726      77.714012     -3739.2354      14320.572    
      9700   19.4           682.61725      79.323449     -3736.4877      14090.045    
      9800   19.6           664.79974      77.252967     -3735.9247      15866.876    
      9900   19.8           640.64062      74.44556      -3738.7525      15533.242    
     10000   20             628.85724      73.076274     -3743.7206      13570.869    
     10100   20.2           655.84227      76.212066     -3743.1143      16746.01     
     10200   20.4           686.67609      79.795106     -3738.9402      13618.849    
     10300   20.6           679.78554      78.99439      -3736.5997      13081.082    
     10400   20.8           656.85313      76.329533     -3736.9305      13930.417    
     10500   21             673.7734       78.29575      -3737.05        12597.389    
     10600   21.2           660.77075      76.784779     -3738.9306      11204.56     
     10700   21.4           635.68542      73.869742     -3743.027       12266.067    
     10800   21.6           639.54494      74.318237     -3743.4638      12984.116    
     10900   21.8           659.68924      76.659103     -3738.6909      12191.45     
     11000   22             669.80189      77.834242     -3736.3859      16536.352    
     11100   22.2           654.42115      76.046924     -3736.5517      13859.813    
     11200   22.4           664.51124      77.219443     -3738.0631      12478.763    
     11300   22.6           641.42816      74.537076     -3741.6197      13337.471    
     11400   22.8           651.57927      75.716685     -3744.1299      12071.261    
     11500   23             651.95803      75.760699     -3741.8524      12165.596    
     11600   23.2           696.81838      80.97369      -3736.4306      13425.531    
     11700   23.4           663.78949      77.135572     -3735.2727      15606.583    
     11800   23.6           675.53717      78.50071      -3737.0794      14095.638    
     11900   23.8           661.26189      76.841852     -3741.1848      14205.11     
     12000   24             645.02596      74.955158     -3741.7955      14929.42     
     12100   24.2           642.94451      74.713283     -3740.6363      14224.427    
     12200   24.4           672.60481      78.159954     -3739.3682      13638.105    
     12300   24.6           656.74293      76.316727     -3738.7787      13274.692    
     12400   24.8           677.05711      78.677334     -3737.4322      13084.245    
     12500   25             672.05783      78.096393     -3734.7899      13197.637    
     12600   25.2           690.674        80.259683     -3731.9954      13243.202    
     12700   25.4           673.32864      78.244068     -3734.6461      17303.623    
     12800   25.6           640.0077       74.372012     -3739.3157      11369.926    
     12900   25.8           659.92665      76.686691     -3739.9129      12481.069    
     13000   26             677.38792      78.715775     -3738.6958      12915.728    
     13100   26.2           666.72794      77.477034     -3735.4215      15743.33     
     13200   26.4           699.11075      81.240074     -3730.7162      12151.332    
     13300   26.6           672.83881      78.187147     -3732.6114      13729.307    
     13400   26.8           662.02164      76.930139     -3736.082       17272.967    
     13500   27             653.15467      75.899754     -3738.3437      12473.433    
     13600   27.2           669.99345      77.856502     -3740.2454      13422.209    
     13700   27.4           649.61338      75.488239     -3740.9644      15502.637    
     13800   27.6           676.41718      78.602971     -3738.0179      12743.479    
     13900   27.8           711.55747      82.686444     -3733.9257      15116.196    
     14000   28             659.75548      76.666799     -3735.8702      14131.191    
     14100   28.2           665.72596      77.360599     -3739.5696      13187.948    
     14200   28.4           679.03398      78.907055     -3739.9725      15574.116    
     14300   28.6           673.98928      78.320837     -3739.1885      11521.933    
     14400   28.8           634.53976      73.736611     -3738.0333      14344.203    
     14500   29             672.30022      78.12456      -3736.3513      13502.773    
     14600   29.2           694.6065       80.716658     -3735.8272      11861.766    
     14700   29.4           667.29489      77.542916     -3738.2517      13453.754    
     14800   29.6           660.38995      76.740528     -3741.5978      13240.167    
     14900   29.8           666.955        77.503419     -3742.0752      12166.814    
     15000   30             681.16271      79.154425     -3737.7373      14768.534    
     15100   30.2           674.11357      78.33528      -3733.9919      14924.3      
     15200   30.4           702.32517      81.613606     -3735.1524      13122.379    
     15300   30.6           645.08521      74.962044     -3738.4025      14161.573    
     15400   30.8           655.95071      76.224668     -3739.4243      11065.816    
     15500   31             677.50495      78.729375     -3739.1633      12293.915    
     15600   31.2           666.76306      77.481115     -3738.4488      13002.682    
     15700   31.4           650.00064      75.533241     -3738.3124      12190.55     
     15800   31.6           668.00838      77.625827     -3738.2464      13456.515    
     15900   31.8           663.64685      77.118996     -3737.4208      14725.639    
     16000   32             691.80268      80.39084      -3733.7281      11919.689    
     16100   32.2           677.66985      78.748537     -3734.3448      15603.076    
     16200   32.4           673.55113      78.269921     -3739.3195      14578.031    
     16300   32.6           636.27735      73.938527     -3741.3861      13196.164    
     16400   32.8           653.77452      75.971783     -3741.4187      13829.492    
     16500   33             649.31722      75.453823     -3738.1786      13265.526    
     16600   33.2           682.07727      79.260701     -3734.2401      12252.873    
     16700   33.4           702.02622      81.578865     -3734.7489      15286.198    
     16800   33.6           658.51935      76.523156     -3741.5687      12419.262    
     16900   33.8           630.63595      73.282969     -3743.6912      13564.246    
     17000   34             644.66323      74.913007     -3742.4951      13658.192    
     17100   34.2           681.18222      79.156692     -3738.4394      11912.708    
     17200   34.4           686.29015      79.750258     -3736.3922      13694.999    
     17300   34.6           685.14029      79.616639     -3737.2643      14915.183    
     17400   34.8           662.5518       76.991746     -3741.7419      12261.721    
     17500   35             647.17449      75.204827     -3744.7197      11775.206    
     17600   35.2           652.57863      75.832815     -3743.9046      13792.219    
     17700   35.4           649.90926      75.522622     -3741.1452      13880.002    
     17800   35.6           671.52025      78.033924     -3737.3946      15908.489    
     17900   35.8           698.17454      81.131282     -3735.367       15153.441    
     18000   36             662.70723      77.009808     -3736.8563      14541.105    
     18100   36.2           658.08554      76.472745     -3742.1452      16472.234    
     18200   36.4           660.69248      76.775684     -3742.8968      11166.024    
     18300   36.6           655.71959      76.19781      -3740.537       11828.145    
     18400   36.8           657.95527      76.457607     -3738.1792      13760.609    
     18500   37             662.80299      77.020936     -3737.3091      13083.861    
     18600   37.2           670.82155      77.952731     -3737.9394      15156.504    
     18700   37.4           675.18514      78.459802     -3741.2793      13271.962    
     18800   37.6           650.20922      75.557479     -3745.6242      9359.8157    
     18900   37.8           648.75925      75.388984     -3742.7492      11121.43     
     19000   38             665.58772      77.344534     -3738.6875      12338.273    
     19100   38.2           685.75815      79.688437     -3737.0029      15375.739    
     19200   38.4           668.9919       77.740117     -3737.4797      14722.691    
     19300   38.6           645.41757      75.000665     -3740.9988      14995.341    
     19400   38.8           643.30798      74.75552      -3744.6631      13692.405    
     19500   39             678.63452      78.860636     -3741.8221      15930.071    
     19600   39.2           650.02014      75.535506     -3739.5306      14092.009    
     19700   39.4           664.80031      77.253034     -3738.2753      16226.242    
     19800   39.6           704.26401      81.838908     -3737.8321      14944.111    
     19900   39.8           683.17731      79.388531     -3738.5709      13572.896    
     20000   40             658.55184      76.526931     -3741.9118      14388.052    
     20100   40.2           643.1412       74.736139     -3744.0564      14406.473    
     20200   40.4           621.44327      72.214735     -3742.8157      11890.398    
     20300   40.6           675.16175      78.457084     -3736.969       14194.244    
     20400   40.8           711.6525       82.697486     -3736.3404      13091.445    
     20500   41             671.44307      78.024954     -3738.3834      12287.364    
     20600   41.2           667.43378      77.559056     -3741.1331      12128.974    
     20700   41.4           627.78672      72.951875     -3745.0682      13822.181    
     20800   41.6           611.98906      71.116109     -3746.3526      13785.902    
     20900   41.8           641.62856      74.560364     -3739.8472      12496.171    
     21000   42             652.61914      75.837523     -3737.6564      13542.174    
     21100   42.2           678.31804      78.823859     -3737.4598      12670.161    
     21200   42.4           654.97982      76.111845     -3738.2416      13466.161    
     21300   42.6           670.41673      77.905689     -3741.51        11985.419    
     21400   42.8           645.46898      75.006639     -3744.3134      15536.605    
     21500   43             646.67978      75.14734      -3742.8525      11777.528    
     21600   43.2           673.99855      78.321915     -3736.3817      14444.015    
     21700   43.4           690.86363      80.281718     -3735.8674      12567.814    
     21800   43.6           677.46118      78.724289     -3737.7775      14108.389    
     21900   43.8           646.98903      75.183276     -3740.9684      14156.877    
     22000   44             624.35853      72.553502     -3742.7477      13441.689    
     22100   44.2           678.43508      78.837461     -3741.7501      14384.361    
     22200   44.4           666.46369      77.446327     -3737.1673      15143.209    
     22300   44.6           686.36839      79.75935      -3735.078       12371.139    
     22400   44.8           672.02686      78.092794     -3737.7105      14170.678    
     22500   45             652.10725      75.778039     -3741.6773      14555.246    
     22600   45.2           670.96972      77.969949     -3742.2848      13845.881    
     22700   45.4           652.64697      75.840756     -3741.1907      14121.644    
     22800   45.6           680.9997       79.135481     -3739.7981      15221.212    
     22900   45.8           659.89784      76.683343     -3738.9998      15925.018    
     23000   46             686.94631      79.826507     -3733.9601      13201.723    
     23100   46.2           687.52828      79.894135     -3732.2333      15366.496    
     23200   46.4           676.64839      78.629838     -3735.9131      13523.924    
     23300   46.6           676.87316      78.655958     -3738.2391      14437.161    
     23400   46.8           660.03741      76.699562     -3739.2932      13204.166    
     23500   47             664.25469      77.189631     -3738.2655      11581.481    
     23600   47.2           679.9553       79.014117     -3735.4474      15088.352    
     23700   47.4           700.65754      81.419819     -3731.2936      11669.441    
     23800   47.6           683.89571      79.472012     -3733.6747      14979.119    
     23900   47.8           665.46265      77.330001     -3738.1152      14871.812    
     24000   48             664.63879      77.234264     -3739.3765      13498.133    
     24100   48.2           677.25152      78.699925     -3739.9266      14685.206    
     24200   48.4           666.66646      77.46989      -3740.0502      14197.572    
     24300   48.6           689.79628      80.157687     -3738.365       12752.424    
     24400   48.8           705.55893      81.989384     -3736.251       13080.137    
     24500   49             659.97215      76.691978     -3736.4833      16072.724    
     24600   49.2           635.57852      73.857319     -3740.3468      11580.879    
     24700   49.4           667.40025      77.55516      -3742.8918      14845.64     
     24800   49.6           636.66205      73.983231     -3741.1248      12704.475    
     24900   49.8           670.81967      77.952513     -3737.6141      12185.9      
     25000   50             682.22243      79.277569     -3736.7025      13055.646    
     25100   50.2           662.07348      76.936163     -3737.0853      13809.67     
     25200   50.4           693.53602      80.592263     -3738.0558      14652.056    
     25300   50.6           663.70269      77.125485     -3741.0994      13695.164    
     25400   50.8           628.1491       72.993985     -3744.2723      10363.159    
     25500   51             633.80137      73.650806     -3744.3161      13095.516    
     25600   51.2           656.46626      76.284577     -3737.7966      14432.096    
     25700   51.4           670.97586      77.970663     -3736.0011      13355.496    
     25800   51.6           692.36071      80.455686     -3737.0314      14403.323    
     25900   51.8           644.26498      74.866728     -3740.6956      14838.455    
     26000   52             630.64967      73.284564     -3742.9208      13043.387    
     26100   52.2           631.24332      73.353549     -3739.9657      12386.332    
     26200   52.4           686.25232      79.745862     -3734.339       14745.83     
     26300   52.6           663.92864      77.151742     -3735.0102      11535.445    
     26400   52.8           666.02625      77.395494     -3738.0494      15206.563    
     26500   53             650.99069      75.648288     -3740.1206      13641.794    
     26600   53.2           658.50135      76.521064     -3739.1917      13281.165    
     26700   53.4           675.49624      78.495953     -3733.5935      15953.737    
     26800   53.6           690.78549      80.272639     -3732.3375      13750.653    
     26900   53.8           656.98202      76.344511     -3735.0473      15543.269    
     27000   54             678.17339      78.807051     -3737.2196      13221.117    
     27100   54.2           665.24356      77.304542     -3738.3767      13246.612    
     27200   54.4           651.29471      75.683617     -3738.72        16465.54     
     27300   54.6           656.852        76.329402     -3739.6626      13579.691    
     27400   54.8           664.61166      77.231112     -3741.733       14127.433    
     27500   55             650.4924       75.590386     -3742.6467      14515.205    
     27600   55.2           659.23191      76.605959     -3738.8336      14743.42     
     27700   55.4           675.32845      78.476455     -3735.3888      13900.284    
     27800   55.6           648.52459      75.361716     -3736.3577      13176.433    
     27900   55.8           674.25298      78.35148      -3738.1921      13108.108    
     28000   56             662.52215      76.9883       -3741.5683      13349.741    
     28100   56.2           633.03381      73.561612     -3747.452       12602.556    
     28200   56.4           621.76707      72.252362     -3745.9066      14738.031    
     28300   56.6           655.48254      76.170264     -3742.0845      12956.074    
     28400   56.8           636.48821      73.96303      -3738.6682      15045.769    
     28500   57             675.66864      78.515987     -3735.9518      12619.045    
     28600   57.2           681.06963      79.143608     -3735.286       14765.765    
     28700   57.4           663.97823      77.157504     -3737.9328      15246.525    
     28800   57.6           655.25306      76.143596     -3743.1415      14692.682    
     28900   57.8           648.59422      75.369807     -3743.0658      11820.599    
     29000   58             654.94851      76.108207     -3739.6215      11593.383    
     29100   58.2           658.9659       76.575047     -3737.7461      14480.633    
     29200   58.4           680.95445      79.130223     -3737.6485      13005.112    
     29300   58.6           676.70104      78.635957     -3738.5846      13183.208    
     29400   58.8           657.48029      76.402412     -3742.4304      14644.263    
     29500   59             617.49732      71.756195     -3746.452       13714.441    
     29600   59.2           635.77762      73.880456     -3744.4359      13453.187    
     29700   59.4           634.54999      73.737799     -3741.0512      15421.358    
     29800   59.6           653.81317      75.976274     -3739.1544      12068.192    
     29900   59.8           664.03566      77.164178     -3737.4226      12785.432    
     30000   60             677.67621      78.749277     -3735.8227      14101.815    
     30100   60.2           689.48633      80.12167      -3735.9454      13452.815    
     30200   60.4           663.57981      77.111205     -3740.0903      12966.506    
     30300   60.6           642.72166      74.687387     -3742.5474      12815.168    
     30400   60.8           667.73426      77.593973     -3741.2247      12967.743    
     30500   61             660.55248      76.759415     -3736.672       12862.528    
     30600   61.2           690.81773      80.276385     -3734.3868      12871.049    
     30700   61.4           656.50224      76.288758     -3736.2871      13381.909    
     30800   61.6           697.44409      81.0464       -3738.2183      14178.175    
     30900   61.8           658.50291      76.521245     -3740.3083      13833.982    
     31000   62             675.79286      78.530422     -3742.6914      12234.925    
     31100   62.2           641.20121      74.510704     -3743.3925      13440.728    
     31200   62.4           663.44548      77.095596     -3738.6285      11172.15     
     31300   62.6           676.63769      78.628595     -3736.0593      13633.891    
     31400   62.8           680.45857      79.0726       -3736.1394      15358.176    
     31500   63             670.50975      77.916499     -3739.9924      14307.593    
     31600   63.2           630.47321      73.264058     -3744.0638      14041.68     
     31700   63.4           657.73626      76.432157     -3742.8223      13367.241    
     31800   63.6           640.78379      74.462198     -3739.956       12566.884    
     31900   63.8           666.44325      77.443951     -3737.8431      13265.711    
     32000   64             664.00814      77.16098      -3736.4698      15867.491    
     32100   64.2           694.0791       80.655372     -3736.4865      12762.58     
     32200   64.4           663.88995      77.147245     -3740.4253      14381.993    
     32300   64.6           647.5331       75.2465       -3742.8266      13898.569    
     32400   64.8           646.83341      75.165192     -3740.5696      13289.414    
     32500   65             679.4284       78.952889     -3736.371       15716.977    
     32600   65.2           662.06519      76.9352       -3736.4506      14482.39     
     32700   65.4           688.01252      79.950406     -3737.9845      14111.336    
     32800   65.6           680.34159      79.059006     -3739.7546      14021.005    
     32900   65.8           662.36823      76.970415     -3741.6659      14485.212    
     33000   66             637.16916      74.04216      -3744.6095      12998.216    
     33100   66.2           660.10204      76.707072     -3742.0187      15716.139    
     33200   66.4           666.45217      77.444988     -3737.3747      12640.027    
     33300   66.6           671.02692      77.976596     -3736.2782      14244.478    
     33400   66.8           695.89776      80.866709     -3735.8261      16269.607    
     33500   67             650.57905      75.600454     -3738.1019      14543.441    
     33600   67.2           652.93861      75.874647     -3741.1335      13826.475    
     33700   67.4           658.452        76.51533      -3741.9218      15017.445    
     33800   67.6           686.81575      79.811336     -3738.07        12647.114    
     33900   67.8           680.91608      79.125765     -3734.8439      11936.169    
     34000   68             683.22477      79.394046     -3735.6347      14285.717    
     34100   68.2           658.00769      76.463698     -3740.1199      12946.21     
     34200   68.4           637.32839      74.060663     -3741.9183      14667.152    
     34300   68.6           667.45647      77.561693     -3740.6544      12403.094    
     34400   68.8           676.36922      78.597398     -3739.0499      15067.504    
     34500   69             676.83205      78.65118      -3737.2815      11674.999    
     34600   69.2           684.23611      79.511568     -3736.0116      14491.984    
     34700   69.4           660.79786      76.78793      -3738.2681      13622.038    
     34800   69.6           661.29821      76.846073     -3742.2448      14873.122    
     34900   69.8           630.6176       73.280837     -3743.4556      11730.715    
     35000   70             694.24386      80.674518     -3740.4087      14468.008    
     35100   70.2           695.25375      80.791871     -3735.7408      14225.943    
     35200   70.4           698.61554      81.182528     -3733.3159      14828.075    
     35300   70.6           673.0966       78.217103     -3740.7         11773.393    
     35400   70.8           663.85296      77.142948     -3742.2989      15383.611    
     35500   71             658.06351      76.470185     -3740.1667      12423.531    
     35600   71.2           673.30974      78.241871     -3737.0317      11826.555    
     35700   71.4           680.92595      79.126912     -3735.7267      14961.01     
     35800   71.6           666.45779      77.445641     -3737.1347      14221.165    
     35900   71.8           677.41418      78.718826     -3742.3012      14956.213    
     36000   72             630.4587       73.262372     -3743.5737      13901.689    
     36100   72.2           675.30132      78.473302     -3740.7156      14257.931    
     36200   72.4           674.21038      78.34653      -3738.415       13220.611    
     36300   72.6           662.08251      76.937212     -3738.0034      14873.925    
     36400   72.8           676.95153      78.665065     -3738.5629      13142.212    
     36500   73             660.62898      76.768306     -3739.2544      13850.648    
     36600   73.2           647.57351      75.251196     -3743.2224      12113.09     
     36700   73.4           621.95687      72.274418     -3745.5376      14072.378    
     36800   73.6           654.39307      76.043662     -3741.301       13448.621    
     36900   73.8           673.91962      78.312742     -3738.0743      13303.13     
     37000   74             683.15859      79.386356     -3736.8887      13913.743    
     37100   74.2           664.75738      77.248045     -3737.3952      13485.838    
     37200   74.4           664.47273      77.214968     -3741.2783      13884.854    
     37300   74.6           645.018        74.954233     -3744.7081      12678.615    
     37400   74.8           647.52925      75.246053     -3742.7567      12902.056    
     37500   75             657.22197      76.372394     -3740.0562      14775.429    
     37600   75.2           671.77208      78.063188     -3738.7539      14263.669    
     37700   75.4           687.79641      79.925293     -3737.0451      13496.153    
     37800   75.6           660.74667      76.781982     -3735.8416      11831.378    
     37900   75.8           657.12618      76.361263     -3736.6439      16670.335    
     38000   76             666.9653       77.504617     -3740.0768      12390.202    
     38100   76.2           667.7282       77.593268     -3741.9981      15504.597    
     38200   76.4           662.09885      76.939111     -3741.2003      14320.904    
     38300   76.6           694.82798      80.742395     -3735.6834      12564.525    
     38400   76.8           682.03805      79.256143     -3734.5542      12687.598    
     38500   77             682.42163      79.300717     -3736.9012      15626.416    
     38600   77.2           652.85873      75.865364     -3739.9409      13232.641    
     38700   77.4           640.5513       74.435181     -3739.311       12348.805    
     38800   77.6           653.07845      75.890896     -3737.393       14806.722    
     38900   77.8           671.38161      78.017813     -3736.3785      11487.901    
     39000   78             689.37033      80.108189     -3736.3404      14493.532    
     39100   78.2           661.3733       76.854799     -3740.9725      11588.679    
     39200   78.4           650.10698      75.545597     -3742.7706      11626.13     
     39300   78.6           660.39181      76.740745     -3740.0135      14778.188    
     39400   78.8           657.68145      76.425788     -3736.1524      11517.939    
     39500   79             682.72496      79.335966     -3735.2424      13949.498    
     39600   79.2           674.39509      78.367994     -3736.7057      11857.226    
     39700   79.4           664.33023      77.198408     -3738.4868      14691.986    
     39800   79.6           679.25093      78.932267     -3738.7219      12162.393    
     39900   79.8           657.06017      76.353592     -3739.1503      13759.39     
     40000   80             689.72108      80.148949     -3739.5463      12457.073    
     40100   80.2           685.53332      79.66231      -3739.4518      13916.67     
     40200   80.4           686.04806      79.722126     -3738.0486      14612.143    
     40300   80.6           688.51906      80.009269     -3735.7753      12282.224    
     40400   80.8           691.47543      80.352813     -3734.21        13079.596    
     40500   81             690.89652      80.28554      -3735.4388      15720.841    
     40600   81.2           659.7822       76.669905     -3740.5509      12365.734    
     40700   81.4           641.50336      74.545814     -3741.8875      13351.776    
     40800   81.6           676.72786      78.639074     -3740.6266      15274.527    
     40900   81.8           687.45662      79.885807     -3736.7529      13108.468    
     41000   82             693.87137      80.631232     -3732.6383      14615.355    
     41100   82.2           678.0095       78.788007     -3732.9021      18330.46     
     41200   82.4           659.48684      76.635583     -3734.8918      12734.87     
     41300   82.6           640.16636      74.390449     -3737.482       14718.452    
     41400   82.8           667.8521       77.607667     -3739.9269      13216.05     
     41500   83             642.37842      74.647501     -3741.4854      14846.998    
     41600   83.2           650.73253      75.61829      -3740.2146      15086.721    
     41700   83.4           677.85117      78.769608     -3735.0006      11521.499    
     41800   83.6           667.75046      77.595855     -3734.1182      14208.717    
     41900   83.8           686.28714      79.749909     -3736.6786      12352.761    
     42000   84             642.22287      74.629426     -3741.1688      13681.862    
     42100   84.2           658.07541      76.471568     -3741.0927      10423.525    
     42200   84.4           692.37201      80.457        -3739.6583      14124.199    
     42300   84.6           683.87439      79.469535     -3737.3618      13966.896    
     42400   84.8           678.83216      78.883603     -3732.9101      12001.795    
     42500   85             696.14648      80.895611     -3729.7713      15900.44     
     42600   85.2           694.57549      80.713055     -3736.1711      12997.425    
     42700   85.4           714.35791      83.011868     -3738.749       13989.119    
     42800   85.6           645.38661      74.997067     -3741.4468      15015.996    
     42900   85.8           648.51713      75.360849     -3742.1988      13632.484    
     43000   86             690.22676      80.207711     -3739.5266      14345.991    
     43100   86.2           684.9509       79.594631     -3735.6141      15081.772    
     43200   86.4           670.99817      77.973255     -3734.8331      14546.037    
     43300   86.6           643.60545      74.790088     -3740.3538      14881.054    
     43400   86.8           640.88548      74.474014     -3743.442       13946.303    
     43500   87             675.51056      78.497617     -3741.2598      14370.886    
     43600   87.2           661.25517      76.841071     -3738.0105      13645.859    
     43700   87.4           684.69096      79.564424     -3735.6423      13225.218    
     43800   87.6           690.80615      80.275039     -3735.9408      14694.376    
     43900   87.8           635.86175      73.890233     -3741.9107      13109.941    
     44000   88             635.82442      73.885894     -3744.9161      14762.289    
     44100   88.2           656.18181      76.251522     -3742.4206      13192.567    
     44200   88.4           673.72517      78.290146     -3738.3182      13294.672    
     44300   88.6           704.80077      81.901282     -3736.5893      13953.511    
     44400   88.8           665.00878      77.27726      -3737.2208      13812.613    
     44500   89             631.8989       73.42973      -3741.351       15780.201    
     44600   89.2           650.52791      75.594512     -3744.4247      14236.884    
     44700   89.4           665.81515      77.370964     -3742.0291      11821.378    
     44800   89.6           686.21984      79.742087     -3739.3928      15084.688    
     44900   89.8           659.76532      76.667943     -3738.2552      13271.382    
     45000   90             667.48649      77.565181     -3737.3889      15517.669    
     45100   90.2           657.87722      76.448537     -3738.0595      13798.246    
     45200   90.4           664.59446      77.229113     -3741.1945      13701.81     
     45300   90.6           621.60665      72.23372      -3743.9366      13489.179    
     45400   90.8           636.93248      74.014656     -3741.8095      12858.875    
     45500   91             654.24403      76.026343     -3736.7721      15555.119    
     45600   91.2           655.08569      76.124148     -3736.0667      12280.102    
     45700   91.4           643.18626      74.741376     -3737.6163      13491.275    
     45800   91.6           649.25388      75.446463     -3740.4222      11742.308    
     45900   91.8           630.50749      73.268041     -3743.6579      13581.504    
     46000   92             646.55535      75.132881     -3743.7829      12766.263    
     46100   92.2           668.20316      77.648462     -3737.7709      12208.594    
     46200   92.4           676.29897      78.589234     -3735.8073      16703.263    
     46300   92.6           642.70764      74.685757     -3735.7766      12973.414    
     46400   92.8           685.82271      79.69594      -3738.0167      11640.694    
     46500   93             647.75107      75.271829     -3742.4931      13478.754    
     46600   93.2           653.85892      75.981591     -3741.4397      13644.62     
     46700   93.4           660.12796      76.710084     -3738.7285      13066.293    
     46800   93.6           655.66136      76.191044     -3737.4402      12711.461    
     46900   93.8           668.25651      77.654661     -3737.4913      12895.757    
     47000   94             670.90308      77.962206     -3738.9628      14239.88     
     47100   94.2           645.90627      75.057455     -3740.7272      13397.98     
     47200   94.4           646.89395      75.172228     -3741.9415      12295.03     
     47300   94.6           671.06523      77.981048     -3739.5805      14551.168    
     47400   94.8           666.90508      77.497618     -3735.4776      13600.833    
     47500   95             694.24035      80.67411      -3735.351       12571.158    
     47600   95.2           670.07504      77.865983     -3738.0627      13906.298    
     47700   95.4           653.4398       75.932887     -3743.1077      11368.595    
     47800   95.6           636.29179      73.940205     -3744.2969      14642.215    
     47900   95.8           654.5761       76.06493      -3742.7015      10987.358    
     48000   96             671.30457      78.00886      -3739.7392      11962.345    
     48100   96.2           667.9275       77.616428     -3737.1599      15144.8      
     48200   96.4           667.14069      77.524998     -3735.92        15126.975    
     48300   96.6           690.9699       80.294068     -3734.4216      15208.44     
     48400   96.8           682.93256      79.360089     -3733.5942      13878.088    
     48500   97             681.54947      79.199368     -3737.7936      13217.12     
     48600   97.2           657.72017      76.430287     -3740.7388      14090.783    
     48700   97.4           631.67026      73.403161     -3740.2898      13248.08     
     48800   97.6           693.28615      80.563227     -3736.7788      14087.884    
     48900   97.8           676.43822      78.605416     -3732.9857      15493.515    
     49000   98             692.00774      80.41467      -3734.0323      15714.174    
     49100   98.2           651.18449      75.67081      -3741.2547      11420.872    
     49200   98.4           658.77155      76.552463     -3741.9472      14273.206    
     49300   98.6           666.00314      77.392809     -3739.9396      12641.684    
     49400   98.8           675.38345      78.482846     -3736.0913      15835.332    
     49500   99             700.04789      81.348974     -3735.3017      14362.46     
     49600   99.2           665.00028      77.276271     -3738.6332      12931.665    
     49700   99.4           642.99393      74.719026     -3743.5963      14799.214    
     49800   99.6           658.23446      76.490051     -3743.3946      12865.432    
     49900   99.8           636.97476      74.019569     -3741.2604      13846.921    
     50000   100            662.46735      76.981933     -3737.9706      14786.622    
     50100   100.2          656.56988      76.296618     -3736.7127      13154.142    
     50200   100.4          660.26666      76.726201     -3736.4088      15898.468    
     50300   100.6          636.95266      74.017001     -3740.7706      12170.808    
     50400   100.8          662.88938      77.030975     -3743.8691      13238.453    
     50500   101            648.54511      75.364101     -3741.6947      13486.778    
     50600   101.2          675.13387      78.453844     -3737.7322      11978.12     
     50700   101.4          664.3921       77.205597     -3736.9707      13087.818    
     50800   101.6          660.21354      76.720029     -3737.0981      13087.288    
     50900   101.8          655.85335      76.213353     -3738.9094      12234.425    
     51000   102            653.63514      75.955586     -3744.3913      11801.555    
     51100   102.2          635.04917      73.795807     -3744.2745      13576.393    
     51200   102.4          675.13902      78.454442     -3740.4279      12292.094    
     51300   102.6          663.43977      77.094932     -3738.5774      12875.981    
     51400   102.8          663.85423      77.143095     -3737.5634      14369.809    
     51500   103            668.72942      77.709615     -3736.768       14847.684    
     51600   103.2          684.34026      79.523671     -3735.8431      12646.751    
     51700   103.4          679.93005      79.011184     -3735.2273      14877.215    
     51800   103.6          650.9055       75.638389     -3738.7579      13144.572    
     51900   103.8          638.34199      74.178448     -3741.9539      12225.02     
     52000   104            665.71026      77.358774     -3740.89        12332.002    
     52100   104.2          705.85571      82.023871     -3736.5634      13257.299    
     52200   104.4          671.41034      78.021151     -3735.7126      15312.981    
     52300   104.6          679.18915      78.925087     -3736.4865      12730.954    
     52400   104.8          673.74223      78.292129     -3737.1691      12948.907    
     52500   105            665.05387      77.282499     -3739.5111      12197.821    
     52600   105.2          636.82142      74.00175      -3742.5882      14725.803    
     52700   105.4          667.14239      77.525195     -3743.4942      13220.639    
     52800   105.6          667.00516      77.509249     -3740.3005      15340.676    
     52900   105.8          668.4148       77.673056     -3736.0315      9647.6716    
     53000   106            665.2856       77.309427     -3735.4006      14752.209    
     53100   106.2          687.22341      79.858707     -3737.49        15293.443    
     53200   106.4          631.52376      73.386137     -3742.1629      12110.632    
     53300   106.6          639.34407      74.294895     -3742.0273      14100.437    
     53400   106.8          668.88166      77.727307     -3740.3014      13760.753    
     53500   107            658.80157      76.555952     -3739.2807      13149.033    
     53600   107.2          676.73008      78.639331     -3738.485       12904.477    
     53700   107.4          698.96031      81.222592     -3739.1205      13538.788    
     53800   107.6          639.51         74.314177     -3743.1191      14200.327    
     53900   107.8          663.83195      77.140505     -3746.2322      13906.698    
     54000   108            656.15454      76.248353     -3743.6626      12324.456    
     54100   108.2          670.20065      77.880579     -3740.0581      15069.801    
     54200   108.4          663.09396      77.054748     -3739.5276      13766.6      
     54300   108.6          669.85002      77.839834     -3739.9292      14306.42     
     54400   108.8          632.46037      73.494975     -3740.8787      13194.978    
     54500   109            675.1853       78.45982      -3740.3714      13312.969    
     54600   109.2          679.73374      78.988371     -3738.6679      13024.65     
     54700   109.4          679.09662      78.914335     -3736.9473      12828.371    
     54800   109.6          677.41305      78.718696     -3735.6573      16292.09     
     54900   109.8          691.44128      80.348845     -3738.6589      13387.394    
     55000   110            656.71005      76.312906     -3742.9872      13167.093    
     55100   110.2          643.90035      74.824357     -3742.4765      15986.772    
     55200   110.4          665.42195      77.325271     -3738.6306      14437.416    
     55300   110.6          689.86826      80.166052     -3737.0934      14252.648    
     55400   110.8          692.461        80.467341     -3737.3235      16852.937    
     55500   111            655.07329      76.122707     -3738.4939      12860.476    
     55600   111.2          688.69613      80.029844     -3740.4767      13032.145    
     55700   111.4          628.16942      72.996346     -3746.0801      14429.182    
     55800   111.6          621.60982      72.234089     -3745.5601      13159.025    
     55900   111.8          676.04016      78.559159     -3741.0243      11834.912    
     56000   112            682.33452      79.290595     -3738.8285      14436.291    
     56100   112.2          676.14294      78.571102     -3736.8695      15040.093    
     56200   112.4          670.3297       77.895576     -3735.6447      12991.166    
     56300   112.6          656.88631      76.333388     -3738.4024      11321.349    
     56400   112.8          636.94904      74.01658      -3742.7638      14063.514    
     56500   113            622.16522      72.298629     -3742.2813      13807.554    
     56600   113.2          669.70339      77.822795     -3738.5112      13662.319    
     56700   113.4          680.11251      79.032386     -3737.0179      11888.774    
     56800   113.6          659.85612      76.678494     -3736.8963      13698.254    
     56900   113.8          666.24706      77.421154     -3738.4271      15276.219    
     57000   114            671.31273      78.009809     -3742.0142      13483.022    
     57100   114.2          626.0486       72.749896     -3745.1143      13674.996    
     57200   114.4          643.70303      74.801427     -3742.2576      14888.371    
     57300   114.6          694.05214      80.652239     -3736.4643      14238.555    
     57400   114.8          677.48142      78.72664      -3736.1334      12136.528    
     57500   115            688.81902      80.044125     -3737.8165      14464.035    
     57600   115.2          640.35348      74.412193     -3741.8604      14197.173    
     57700   115.4          641.24506      74.515799     -3741.8872      14164.963    
     57800   115.6          674.9482       78.432268     -3739.136       13958.033    
     57900   115.8          690.10465      80.193521     -3733.0154      15047.102    
     58000   116            693.63351      80.603592     -3732.6448      14742.205    
     58100   116.2          683.41186      79.415786     -3736.0326      13505.842    
     58200   116.4          668.15676      77.643069     -3739.0178      13344.929    
     58300   116.6          672.73228      78.174767     -3740.1759      14443.078    
     58400   116.8          698.06282      81.118299     -3739.6678      14015.396    
     58500   117            668.39988      77.671322     -3734.6308      12433.482    
     58600   117.2          685.79844      79.693118     -3731.9862      15007.92     
     58700   117.4          682.25196      79.281        -3734.7103      12934.453    
     58800   117.6          659.76216      76.667576     -3738.3455      11461.886    
     58900   117.8          673.04314      78.21089      -3739.0929      12761.82     
     59000   118            648.29706      75.335276     -3739.3647      14087.592    
     59100   118.2          676.33829      78.593804     -3738.688       13402.385    
     59200   118.4          687.72531      79.917031     -3736.1187      14524.721    
     59300   118.6          684.94148      79.593536     -3733.1123      13288.385    
     59400   118.8          667.40319      77.555501     -3734.0151      14221.128    
     59500   119            670.58859      77.92566      -3739.4241      14500.837    
     59600   119.2          657.25491      76.376222     -3740.3633      12426.742    
     59700   119.4          670.88529      77.960138     -3740.0268      14456.437    
     59800   119.6          665.15417      77.294155     -3736.9102      13507.669    
     59900   119.8          672.15555      78.107748     -3732.2572      11823.269    
     60000   120            696.93111      80.98679      -3732.8957      14827.293    
     60100   120.2          704.16119      81.826959     -3735.5176      12550.923    
     60200   120.4          673.41935      78.254608     -3738.007       13666.407    
     60300   120.6          664.52004      77.220466     -3740.5089      14260.734    
     60400   120.8          648.06359      75.308146     -3742.1596      13350.192    
     60500   121            645.57768      75.019271     -3740.2959      12617.993    
     60600   121.2          670.35634      77.898672     -3734.7315      14403.86     
     60700   121.4          699.64958      81.302688     -3734.7219      14909.141    
     60800   121.6          647.89088      75.288076     -3738.2805      13709.887    
     60900   121.8          664.92748      77.267812     -3741.2866      13559.334    
     61000   122            641.69411      74.567981     -3740.8985      13491.116    
     61100   122.2          665.42158      77.325229     -3739.5567      11969.002    
     61200   122.4          666.27187      77.424037     -3739.1542      14913.317    
     61300   122.6          676.77115      78.644104     -3738.8955      13692.332    
     61400   122.8          644.78295      74.926919     -3741.1649      10700.584    
     61500   123            632.34926      73.482064     -3743.6074      12925.205    
     61600   123.2          644.22629      74.862233     -3741.5536      13443.751    
     61700   123.4          680.41581      79.067631     -3737.2516      13474.044    
     61800   123.6          692.50587      80.472555     -3736.332       14915.222    
     61900   123.8          693.02724      80.533141     -3738.2229      16436.878    
     62000   124            644.66574      74.913299     -3742.9983      14720.053    
     62100   124.2          630.8672       73.309842     -3744.0162      12926.883    
     62200   124.4          627.29312      72.894515     -3742.14        15927.415    
     62300   124.6          668.17129      77.644758     -3738.4905      13905.557    
     62400   124.8          681.55792      79.20035      -3736.8629      14285.938    
     62500   125            668.4827       77.680945     -3735.9766      17515.762    
     62600   125.2          674.32181      78.359478     -3738.1087      11915.964    
     62700   125.4          663.95083      77.15432      -3742.5554      14792.639    
     62800   125.6          656.3463       76.270637     -3743.6263      15666.016    
     62900   125.8          658.63757      76.536894     -3739.7717      13418.879    
     63000   126            686.15132      79.734125     -3737.3976      14413.244    
     63100   126.2          660.32972      76.73353      -3738.4583      12835.305    
     63200   126.4          691.75663      80.38549      -3739.1233      12080.816    
     63300   126.6          648.31644      75.337527     -3740.7655      15154.557    
     63400   126.8          668.40645      77.672085     -3745.4322      11181.781    
     63500   127            622.48542      72.335837     -3746.2064      11189.973    
     63600   127.2          654.78629      76.089356     -3740.9705      16328.886    
     63700   127.4          673.41678      78.254309     -3739.2178      14196.576    
     63800   127.6          681.22193      79.161306     -3737.6756      13697.046    
     63900   127.8          660.8815       76.797649     -3736.6075      15790.83     
     64000   128            672.08125      78.099115     -3736.3695      13433.16     
     64100   128.2          651.92289      75.756615     -3739.6694      14372.246    
     64200   128.4          638.99042      74.253799     -3742.4218      13692.886    
     64300   128.6          644.55561      74.900501     -3741.6117      14439.688    
     64400   128.8          672.02675      78.092781     -3736.0149      15169.659    
     64500   129            697.75439      81.082459     -3734.7648      14667.515    
     64600   129.2          679.38273      78.947582     -3737.4708      14538.614    
     64700   129.4          650.13248      75.54856      -3739.5366      14536.739    
     64800   129.6          652.67504      75.844018     -3739.8952      14619.89     
     64900   129.8          671.89336      78.077281     -3738.8388      12296.682    
     65000   130            664.28853      77.193562     -3738.405       14426.573    
     65100   130.2          648.19219      75.323089     -3738.0796      12837.032    
     65200   130.4          650.63735      75.607229     -3737.8538      12973.16     
     65300   130.6          664.27247      77.191696     -3736.8189      13938.793    
     65400   130.8          662.82086      77.023012     -3733.3507      14933.565    
     65500   131            688.38084      79.993206     -3732.4354      15229.29     
     65600   131.2          677.37444      78.714209     -3737.7694      13277.193    
     65700   131.4          640.8361       74.468275     -3739.5782      16512.982    
     65800   131.6          689.12231      80.079369     -3738.6186      13661.017    
     65900   131.8          666.61946      77.464428     -3737.47        14905.666    
     66000   132            704.19951      81.831412     -3734.0686      15128.537    
     66100   132.2          689.43906      80.116177     -3732.5071      14439.927    
     66200   132.4          675.33513      78.477231     -3737.5143      15659.419    
     66300   132.6          653.28996      75.915475     -3740.4028      12584.703    
     66400   132.8          662.9766       77.04111      -3740.2499      14292.243    
     66500   133            664.99846      77.27606      -3738.8338      13545.74     
     66600   133.2          673.55958      78.270904     -3734.523       13770.328    
     66700   133.4          679.2061       78.927056     -3732.3736      15627.634    
     66800   133.6          651.12504      75.663901     -3736.012       13140.047    
     66900   133.8          668.11907      77.63869      -3741.1568      10787.909    
     67000   134            661.49352      76.868768     -3741.1983      15106.081    
     67100   134.2          676.48238      78.610547     -3738.9442      12989.362    
     67200   134.4          700.37761      81.387289     -3736.0215      12847.588    
     67300   134.6          683.3502       79.408621     -3735.7343      11661.328    
     67400   134.8          656.02792      76.233639     -3741.5286      14824.406    
     67500   135            648.54895      75.364547     -3743.1494      14437.188    
     67600   135.2          670.54768      77.920906     -3740.8366      13382.12     
     67700   135.4          692.15137      80.431361     -3737.2347      16376.104    
     67800   135.6          659.6348       76.652777     -3736.988       13076.514    
     67900   135.8          652.48251      75.821645     -3741.7668      13423.467    
     68000   136            644.38069      74.880175     -3745.3988      14763.191    
     68100   136.2          651.489        75.706195     -3742.8639      11277.117    
     68200   136.4          627.7058       72.942472     -3739.0119      13700.358    
     68300   136.6          685.63056      79.67361      -3736.5737      12921.896    
     68400   136.8          683.37987      79.412069     -3736.5914      14464.77     
     68500   137            700.6311       81.416746     -3739.5217      13192.767    
     68600   137.2          654.26781      76.029106     -3744.7664      12836.398    
     68700   137.4          650.57595      75.600094     -3743.9284      11792.833    
     68800   137.6          654.25252      76.027329     -3740.8849      12131.298    
     68900   137.8          659.41178      76.626861     -3738.1889      12626.81     
     69000   138            677.28994      78.70439      -3736.1858      13886.887    
     69100   138.2          659.03322      76.58287      -3736.6425      13110.197    
     69200   138.4          634.76969      73.76333      -3742.7769      15091.323    
     69300   138.6          650.05575      75.539644     -3744.145       12632.619    
     69400   138.8          668.28359      77.657808     -3740.9279      11214.003    
     69500   139            670.77992      77.947894     -3737.8198      16021.521    
     69600   139.2          668.23732      77.652431     -3737.1296      10862.761    
     69700   139.4          670.87037      77.958404     -3738.0542      11839.595    
     69800   139.6          662.50996      76.986884     -3740.852       12491.633    
     69900   139.8          668.00004      77.624858     -3744.8839      11503.473    
     70000   140            646.44637      75.120217     -3744.0402      11782.282    
     70100   140.2          669.98673      77.855721     -3739.0367      13125.635    
     70200   140.4          654.93568      76.106715     -3737.086       12871.863    
     70300   140.6          643.05611      74.726252     -3737.6759      12254.389    
     70400   140.8          652.41432      75.813721     -3740.0439      11639.502    
     70500   141            650.88673      75.636208     -3743.7564      12867.204    
     70600   141.2          613.05602      71.240095     -3745.3442      11554.358    
     70700   141.4          666.53006      77.454039     -3738.9237      16240.032    
     70800   141.6          670.43822      77.908186     -3736.5936      14302.853    
     70900   141.8          673.40683      78.253153     -3735.9785      13657.62     
     71000   142            686.68736      79.796416     -3737.0897      14122.953    
     71100   142.2          659.91832      76.685723     -3740.9575      14048.836    
     71200   142.4          644.47479      74.89111      -3743.125       12175.518    
     71300   142.6          637.82337      74.118182     -3741.1055      11962.968    
     71400   142.8          666.76116      77.480894     -3735.0843      15977.561    
     71500   143            683.00103      79.368047     -3735.7339      14549.788    
     71600   143.2          672.59595      78.158926     -3738.7183      10991.441    
     71700   143.4          653.53941      75.944463     -3741.2507      14013.639    
     71800   143.6          658.74492      76.549369     -3740.0567      14617.631    
     71900   143.8          695.38648      80.807296     -3733.2483      12454.982    
     72000   144            699.37127      81.270347     -3732.3941      13775.519    
     72100   144.2          652.2728       75.797276     -3735.8022      13364.59     
     72200   144.4          651.30917      75.685298     -3738.7447      11968.718    
     72300   144.6          643.01031      74.72093      -3739.6301      15671.618    
     72400   144.8          676.21773      78.579794     -3739.9557      13627.394    
     72500   145            651.35432      75.690544     -3739.8829      12653.732    
     72600   145.2          668.60328      77.694957     -3738.5151      15028.603    
     72700   145.4          677.00631      78.67143      -3736.7223      14808.35     
     72800   145.6          684.56053      79.549268     -3735.452       13470.743    
     72900   145.8          664.37731      77.203879     -3739.3709      13594.178    
     73000   146            677.11611      78.68419      -3742.5423      13480.73     
     73100   146.2          644.15482      74.853928     -3741.3726      13118.645    
     73200   146.4          660.52143      76.755807     -3737.98        14288.158    
     73300   146.6          658.98386      76.577134     -3736.1982      12581.628    
     73400   146.8          651.07813      75.65845      -3736.5385      14286.444    
     73500   147            670.14281      77.873859     -3737.7067      15471.998    
     73600   147.2          647.73786      75.270294     -3739.1115      11108.224    
     73700   147.4          659.56838      76.645058     -3740.1867      12037.955    
     73800   147.6          662.16781      76.947125     -3742.3784      12841.884    
     73900   147.8          650.5968       75.602516     -3743.1968      12864.431    
     74000   148            639.5766       74.321916     -3740.3647      14209.42     
     74100   148.2          678.09829      78.798323     -3735.9119      14128.21     
     74200   148.4          675.27808      78.470602     -3736.226       13697.548    
     74300   148.6          652.76921      75.854961     -3738.5031      13048.303    
     74400   148.8          626.05133      72.750214     -3742.2531      11919.686    
     74500   149            643.49051      74.776731     -3746.2424      13138.276    
     74600   149.2          636.50071      73.964482     -3743.499       10984.925    
     74700   149.4          670.38147      77.901592     -3737.6693      14557.03     
     74800   149.6          657.29656      76.381061     -3737.1059      14115.183    
     74900   149.8          667.9402       77.617904     -3738.9881      14056.535    
     75000   150            658.28055      76.495406     -3741.7978      13737.319    
     75100   150.2          654.01813      76.000092     -3743.1836      10770.479    
     75200   150.4          647.95934      75.296031     -3740.6352      12496.999    
     75300   150.6          678.79373      78.879138     -3735.4073      16033.103    
     75400   150.8          674.3706       78.365148     -3735.4642      14736.312    
     75500   151            655.99538      76.229859     -3739.2465      14438.312    
     75600   151.2          658.04663      76.468224     -3741.2848      15421.537    
     75700   151.4          663.91743      77.150439     -3741.4334      12379.963    
     75800   151.6          660.33087      76.733664     -3740.2385      15589.894    
     75900   151.8          670.82031      77.952587     -3738.9798      14420.182    
     76000   152            673.33694      78.245032     -3738.7132      11966.542    
     76100   152.2          673.73137      78.290866     -3738.1488      10974.601    
     76200   152.4          688.6413       80.023473     -3734.6716      15989.115    
     76300   152.6          690.76155      80.269856     -3731.4167      13682.634    
     76400   152.8          683.44151      79.419232     -3735.2744      12506.181    
     76500   153            643.91509      74.82607      -3739.5992      14815.342    
     76600   153.2          663.6846       77.123383     -3739.5824      14699.054    
     76700   153.4          661.35976      76.853225     -3738.3904      12315.249    
     76800   153.6          679.3467       78.943395     -3737.5501      15972.539    
     76900   153.8          660.57706      76.762272     -3738.8751      14420.358    
     77000   154            647.05346      75.190763     -3742.1068      11660.749    
     77100   154.2          650.62006      75.60522      -3744.0059      12847.127    
     77200   154.4          664.80403      77.253466     -3741.379       12406.771    
     77300   154.6          659.16228      76.597867     -3736.648       12646.994    
     77400   154.8          694.61555      80.71771      -3736.9285      13281.008    
     77500   155            665.20325      77.299857     -3739.4438      14913.962    
     77600   155.2          643.69193      74.800138     -3742.4426      12534.733    
     77700   155.4          609.311        70.804906     -3746.2902      11970.744    
     77800   155.6          637.48185      74.078496     -3748.8734      13392.483    
     77900   155.8          644.24318      74.864195     -3743.8838      13369.772    
     78000   156            665.81312      77.370727     -3739.6562      13362.791    
     78100   156.2          660.46896      76.74971      -3737.8107      15767.217    
     78200   156.4          663.29252      77.077821     -3736.2782      14869.711    
     78300   156.6          668.12876      77.639816     -3735.9392      14791.554    
     78400   156.8          657.56705      76.412494     -3738.7796      13307.843    
     78500   157            638.61763      74.210479     -3742.48        11761.491    
     78600   157.2          665.89507      77.38025      -3740.2746      14441.736    
     78700   157.4          666.37451      77.435963     -3736.6036      13130.831    
     78800   157.6          678.4839       78.843134     -3736.0551      13759.836    
     78900   157.8          652.47413      75.820672     -3736.7543      15346.957    
     79000   158            643.82394      74.815478     -3739.5351      12688.143    
     79100   158.2          630.4275       73.258746     -3743.6454      13423.732    
     79200   158.4          658.1784       76.483535     -3742.6547      16207.179    
     79300   158.6          684.48511      79.540504     -3735.8611      12371.019    
     79400   158.8          681.24824      79.164363     -3735.3417      15577.153    
     79500   159            661.24528      76.839922     -3737.9966      14190.891    
     79600   159.2          651.46256      75.703123     -3741.1874      13257.837    
     79700   159.4          654.29807      76.032623     -3742.4907      13636.792    
     79800   159.6          655.90722      76.219614     -3739.7896      13113.187    
     79900   159.8          671.62495      78.046091     -3734.8967      13909.042    
     80000   160            694.64611      80.721261     -3735.6164      14146.049    
     80100   160.2          654.18108      76.019028     -3739.4918      12461.153    
     80200   160.4          656.57978      76.297768     -3741.3503      14179.614    
     80300   160.6          654.58013      76.0654       -3740.4948      15339.834    
     80400   160.8          683.38071      79.412166     -3739.2675      13724.231    
     80500   161            655.56851      76.180254     -3739.0751      13172.677    
     80600   161.2          671.43412      78.023915     -3737.8015      14750.629    
     80700   161.4          677.4134       78.718736     -3737.2156      14168.112    
     80800   161.6          669.21126      77.765608     -3736.1565      13530.698    
     80900   161.8          688.05578      79.955433     -3735.9623      12826.04     
     81000   162            658.7211       76.5466       -3738.5781      13145.459    
     81100   162.2          665.88827      77.379461     -3741.7593      12983.744    
     81200   162.4          652.21745      75.790845     -3742.4279      13453.51     
     81300   162.6          661.65146      76.887123     -3737.4483      13264.301    
     81400   162.8          682.00457      79.252252     -3734.4867      14737.563    
     81500   163            666.81845      77.487551     -3736.4197      14744.997    
     81600   163.2          669.84816      77.839619     -3740.2357      12254.909    
     81700   163.4          639.02976      74.258371     -3741.1055      12903.883    
     81800   163.6          673.50299      78.264328     -3739.971       14956.882    
     81900   163.8          680.114        79.032559     -3738.7922      13578.17     
     82000   164            668.66607      77.702254     -3738.7097      12250.064    
     82100   164.2          695.87135      80.86364      -3739.1053      14158.61     
     82200   164.4          682.65305      79.327609     -3740.1507      11653.618    
     82300   164.6          658.86144      76.562908     -3740.28        15092.471    
     82400   164.8          657.8123       76.440993     -3739.8726      13085.223    
     82500   165            655.13138      76.129457     -3739.5669      14900.253    
     82600   165.2          667.12859      77.523591     -3739.508       12932.31     
     82700   165.4          665.48275      77.332337     -3740.0132      12411.835    
     82800   165.6          692.80133      80.506889     -3739.8358      15441.936    
     82900   165.8          670.65124      77.932941     -3738.6622      14135.762    
     83000   166            688.38795      79.994032     -3736.2702      13773.356    
     83100   166.2          673.79562      78.298333     -3735.1614      13612.901    
     83200   166.4          670.67821      77.936075     -3738.7978      14731.611    
     83300   166.6          634.12108      73.687957     -3742.3131      12425.163    
     83400   166.8          670.18494      77.878754     -3741.1681      15189.358    
     83500   167            661.4007       76.857982     -3739.2842      14564.429    
     83600   167.2          687.77103      79.922343     -3733.6798      13900.667    
     83700   167.4          683.88448      79.470708     -3731.9472      14812.07     
     83800   167.6          695.53781      80.824881     -3734.6555      14298.226    
     83900   167.8          678.72095      78.87068      -3738.1882      13071.409    
     84000   168            673.33011      78.244238     -3739.9481      13783.309    
     84100   168.2          671.08042      77.982813     -3740.3457      13427.429    
     84200   168.4          674.64419      78.39694      -3736.5201      12875.633    
     84300   168.6          696.96964      80.991267     -3732.3653      14337.191    
     84400   168.8          662.92545      77.035165     -3734.8048      16123.356    
     84500   169            648.87805      75.40279      -3737.7266      12984.811    
     84600   169.2          650.55897      75.598121     -3739.3192      14412.518    
     84700   169.4          689.84656      80.16353      -3739.4875      14014.486    
     84800   169.6          667.95511      77.619637     -3738.5032      12041.706    
     84900   169.8          703.19354      81.714514     -3733.8978      15399.187    
     85000   170            656.04197      76.235272     -3732.3633      14585.663    
     85100   170.2          668.64015      77.699242     -3736.6804      13299.452    
     85200   170.4          683.79248      79.460017     -3739.3297      13787.284    
     85300   170.6          657.85124      76.445518     -3740.0437      10662.28     
     85400   170.8          638.74276      74.22502      -3740.3367      14074.797    
     85500   171            660.34889      76.735757     -3738.8019      10740.569    
     85600   171.2          677.94329      78.780312     -3734.919       13615.957    
     85700   171.4          687.08881      79.843066     -3734.2655      14253.422    
[...]
    478600   957.2          660.46807      76.749606     -3741.3394      11875.415    
    478700   957.4          649.93085      75.52513      -3741.7244      12152.328    
    478800   957.6          657.59263      76.415466     -3737.0405      12417.802    
    478900   957.8          670.16486      77.876421     -3734.114       13105.277    
    479000   958            641.18117      74.508374     -3736.3408      12629.912    
    479100   958.2          678.9579       78.898215     -3739.2701      13613.558    
    479200   958.4          676.59394      78.623511     -3740.0958      10842.872    
    479300   958.6          668.14305      77.641477     -3738.5492      14202.572    
    479400   958.8          699.33487      81.266118     -3737.2661      13437.951    
    479500   959            669.05609      77.747576     -3737.8917      12176.661    
    479600   959.2          671.50122      78.031712     -3739.4328      14137.198    
    479700   959.4          665.27339      77.308009     -3740.1585      12317.455    
    479800   959.6          657.74236      76.432866     -3738.4774      13758.685    
    479900   959.8          668.07406      77.63346      -3736.3168      13600.353    
    480000   960            677.92385      78.778053     -3736.2133      15106.495    
    480100   960.2          653.69407      75.962435     -3740.2376      13289.85     
    480200   960.4          648.25408      75.330281     -3743.771       14518.207    
    480300   960.6          646.86684      75.169077     -3742.5948      13980.227    
    480400   960.8          651.04946      75.655118     -3739.7202      13867.113    
    480500   961            674.98037      78.436007     -3738.7807      15858.977    
    480600   961.2          682.9746       79.364975     -3738.509       12792.302    
    480700   961.4          671.64712      78.048667     -3738.8686      12398.96     
    480800   961.6          679.50728      78.962055     -3740.7402      14969.661    
    480900   961.8          632.42504      73.490869     -3744.4828      13624.593    
    481000   962            650.93903      75.642286     -3743.5224      13575.431    
    481100   962.2          692.41148      80.461586     -3738.7135      11998.801    
    481200   962.4          668.16873      77.644461     -3737.0642      13817.367    
    481300   962.6          662.7051       77.00956      -3737.3695      14566.022    
    481400   962.8          668.45753      77.678021     -3739.0131      14020.201    
    481500   963            641.63668      74.561307     -3743.349       12425.625    
    481600   963.2          647.66567      75.261905     -3745.2057      13351.03     
    481700   963.4          655.38823      76.159304     -3741.1655      13120.089    
    481800   963.6          649.38806      75.462056     -3738.6639      14741.707    
    481900   963.8          682.72033      79.335428     -3737.4718      12606.698    
    482000   964            683.23072      79.394737     -3737.6272      12489.096    
    482100   964.2          660.53334      76.757191     -3737.5332      11215.36     
    482200   964.4          690.09617      80.192535     -3736.0836      13718.278    
    482300   964.6          677.47111      78.725443     -3736.4971      12622.82     
    482400   964.8          667.73211      77.593724     -3740.0819      14689.306    
    482500   965            638.53515      74.200895     -3742.5228      13201.503    
    482600   965.2          644.01518      74.8377       -3742.2689      13891.39     
    482700   965.4          684.22442      79.51021      -3736.5944      14919.495    
    482800   965.6          704.15803      81.826592     -3734.4063      12696.394    
    482900   965.8          658.11543      76.476219     -3737.6326      14172.346    
    483000   966            658.90717      76.568222     -3740.3824      13905.581    
    483100   966.2          652.40919      75.813126     -3740.7277      12339.349    
    483200   966.4          675.33562      78.477288     -3737.3013      14974.983    
    483300   966.6          696.50987      80.937839     -3732.6074      14086.815    
    483400   966.8          670.18498      77.878758     -3734.3477      16046.628    
    483500   967            671.36973      78.016433     -3738.1587      13038.968    
    483600   967.2          643.3887       74.7649       -3739.6567      15598.19     
    483700   967.4          652.04785      75.771136     -3740.0773      13319.59     
    483800   967.6          663.32238      77.081291     -3740.2758      12430.266    
    483900   967.8          675.3865       78.483201     -3740.1704      12596.095    
    484000   968            677.09993      78.68231      -3738.4843      14519.856    
    484100   968.2          674.64075      78.396541     -3736.6747      14632.154    
    484200   968.4          666.51187      77.451925     -3736.7466      15826.208    
    484300   968.6          666.60003      77.462169     -3740.8693      13409.093    
    484400   968.8          642.9672       74.71592      -3744.0561      12808.477    
    484500   969            666.06965      77.400538     -3742.4982      12679.339    
    484600   969.2          677.52905      78.732176     -3739.7799      15443.788    
    484700   969.4          665.48486      77.332582     -3738.5054      14437.958    
    484800   969.6          671.00662      77.974237     -3738.1283      11397.52     
    484900   969.8          637.76938      74.111908     -3738.8526      14639.14     
    485000   970            635.96774      73.902549     -3739.7388      13111.274    
    485100   970.2          656.03495      76.234456     -3738.962       12597.312    
    485200   970.4          675.19219      78.460621     -3737.6305      14063.013    
    485300   970.6          701.86159      81.559735     -3736.8115      11217.901    
    485400   970.8          653.79597      75.974276     -3736.6868      13582.656    
    485500   971            669.62217      77.813358     -3737.8024      13025.306    
    485600   971.2          640.46941      74.425664     -3741.4031      13800.365    
    485700   971.4          633.7814       73.648486     -3744.0746      15008.625    
    485800   971.6          640.57811      74.438296     -3742.8819      14409.622    
    485900   971.8          671.50301      78.03192      -3736.5606      13457.498    
    486000   972            666.6888       77.472485     -3736.3027      13155.455    
    486100   972.2          654.4818       76.053973     -3739.1013      13299.449    
    486200   972.4          654.29058      76.031752     -3741.6296      11882.366    
    486300   972.6          665.05116      77.282184     -3740.6077      12832.131    
    486400   972.8          689.28933      80.098777     -3734.2727      11079.909    
    486500   973            700.90953      81.449101     -3733.9193      13844.036    
    486600   973.2          692.33443      80.452632     -3737.2231      14425.493    
    486700   973.4          675.66994      78.516138     -3739.5535      11129.144    
    486800   973.6          645.85036      75.050957     -3740.3434      13533.466    
    486900   973.8          698.28658      81.144301     -3737.0421      12098.01     
    487000   974            691.87126      80.39881      -3731.8415      15644.657    
    487100   974.2          671.67653      78.052084     -3733.8206      10663.21     
    487200   974.4          675.61468      78.509717     -3737.8281      15026.038    
    487300   974.6          649.24117      75.444986     -3739.3579      12352.551    
    487400   974.8          629.73657      73.178457     -3739.0776      12549.48     
    487500   975            672.16646      78.109017     -3735.5551      14557.588    
    487600   975.2          699.1507       81.244716     -3731.6144      14439.621    
    487700   975.4          664.7408       77.246119     -3733.0872      13682.827    
    487800   975.6          664.03387      77.16397      -3739.6885      11357.253    
    487900   975.8          650.05609      75.539684     -3740.4967      14577.865    
    488000   976            672.91704      78.196238     -3738.9047      13520.408    
    488100   976.2          670.29026      77.890993     -3736.5241      13002.215    
    488200   976.4          701.00668      81.460391     -3736.2949      15011.665    
    488300   976.6          644.67061      74.913865     -3740.5669      11856.304    
    488400   976.8          653.22055      75.907409     -3743.4502      14504.535    
    488500   977            658.62196      76.53508      -3741.2229      10175.748    
    488600   977.2          668.75599      77.712703     -3737.1339      12959.042    
    488700   977.4          670.70267      77.938917     -3737.0973      14793.537    
    488800   977.6          661.17672      76.831955     -3737.9326      10964.569    
    488900   977.8          667.2458       77.537211     -3740.3926      15169.937    
    489000   978            669.42216      77.790115     -3742.4634      11787.703    
    489100   978.2          666.55423      77.456847     -3739.3536      14456.669    
    489200   978.4          698.94213      81.22048      -3734.683       14640.936    
    489300   978.6          698.77865      81.201483     -3736.032       15143.882    
    489400   978.8          669.05101      77.746986     -3739.3134      15328.729    
    489500   979            644.21205      74.860578     -3740.3479      12940.039    
    489600   979.2          653.2523       75.911098     -3739.8422      15219.331    
    489700   979.4          668.38995      77.670167     -3738.5342      13543.313    
    489800   979.6          659.07488      76.587711     -3737.6838      12971.141    
    489900   979.8          680.96828      79.131831     -3737.8339      13114.51     
    490000   980            666.90465      77.497568     -3738.5227      12837.865    
    490100   980.2          654.71074      76.080577     -3739.7328      12531.612    
    490200   980.4          652.22642      75.791886     -3741.9394      11129.582    
    490300   980.6          625.94028      72.737309     -3743.7809      13108.891    
    490400   980.8          660.80937      76.789267     -3741.2902      13643.068    
    490500   981            663.79601      77.13633      -3736.6105      13300.329    
    490600   981.2          669.58008      77.808467     -3735.88        13067.857    
    490700   981.4          670.42673      77.906851     -3737.8032      12344.505    
    490800   981.6          656.39119      76.275853     -3742.2696      12053.175    
    490900   981.8          632.27289      73.473189     -3742.491       14891.469    
    491000   982            639.78018      74.345573     -3740.9283      13928.718    
    491100   982.2          678.13404      78.802479     -3739.6562      10534.951    
    491200   982.4          682.79897      79.344566     -3737.8142      12746.995    
    491300   982.6          689.29954      80.099964     -3735.8506      14617.576    
    491400   982.8          677.59203      78.739494     -3732.0698      12866.198    
    491500   983            676.73333      78.639709     -3734.7594      14874.757    
    491600   983.2          688.88854      80.052203     -3738.986       16186.678    
    491700   983.4          661.70513      76.893359     -3740.4967      13265.886    
    491800   983.6          657.79547      76.439037     -3740.2501      14819.964    
    491900   983.8          677.83389      78.7676       -3736.9902      13316.398    
    492000   984            690.09453      80.192346     -3732.7534      16046.215    
    492100   984.2          696.41255      80.92653      -3735.0764      12724.088    
    492200   984.4          654.55865      76.062903     -3739.0432      12995.336    
    492300   984.6          655.83508      76.21123      -3739.588       15353.131    
    492400   984.8          690.10106      80.193104     -3739.8314      13848.565    
    492500   985            674.36443      78.364432     -3739.9624      14228.054    
    492600   985.2          694.4334       80.696543     -3738.1392      15019.75     
    492700   985.4          688.06311      79.956285     -3736.084       14598.688    
    492800   985.6          657.31608      76.383329     -3736.2459      11393.388    
    492900   985.8          671.20871      77.997721     -3738.9505      13231.283    
    493000   986            648.12944      75.315798     -3743.1242      13030.456    
    493100   986.2          672.67162      78.167718     -3743.057       13135.778    
    493200   986.4          655.18075      76.135195     -3739.1921      14340.361    
    493300   986.6          687.33637      79.871834     -3736.9924      14666.473    
    493400   986.8          694.0322       80.649921     -3737.7823      12533.488    
    493500   987            653.64575      75.95682      -3740.182       11382.694    
    493600   987.2          660.35823      76.736842     -3741.0716      14105.457    
    493700   987.4          657.05248      76.352698     -3738.4692      13945.808    
    493800   987.6          686.78593      79.80787      -3733.8069      12987.818    
    493900   987.8          684.14148      79.500572     -3735.5083      14758.231    
    494000   988            649.12617      75.431622     -3739.5771      14842.277    
    494100   988.2          642.41531      74.651788     -3740.3208      12412.986    
    494200   988.4          686.8437       79.814583     -3738.9498      14375.518    
    494300   988.6          669.8691       77.842052     -3736.746       15416.579    
    494400   988.8          701.1663       81.478938     -3732.6414      14400.718    
    494500   989            690.50464      80.240002     -3730.2326      12715.991    
    494600   989.2          666.48101      77.448339     -3734.8062      16001.391    
    494700   989.4          657.41895      76.395284     -3738.0577      14170.182    
    494800   989.6          657.16156      76.365374     -3739.333       12319.82     
    494900   989.8          659.48915      76.635851     -3737.9043      14664.743    
    495000   990            678.50869      78.846014     -3733.9747      15370.156    
    495100   990.2          671.35509      78.014731     -3731.324       13040.267    
    495200   990.4          671.39131      78.01894      -3733.8828      11074.524    
    495300   990.6          671.90728      78.078898     -3738.6071      14125.398    
    495400   990.8          673.40179      78.252568     -3739.1989      12800.074    
    495500   991            657.18526      76.368128     -3738.565       13690.962    
    495600   991.2          676.59015      78.623071     -3737.5295      12353.314    
    495700   991.4          677.52429      78.731623     -3737.3753      13737.755    
    495800   991.6          672.46441      78.14364      -3739.5796      13059.446    
    495900   991.8          626.70597      72.826286     -3742.8314      13033.429    
    496000   992            673.66688      78.283372     -3742.2972      12024.352    
    496100   992.2          679.29807      78.937744     -3736.4777      15834.888    
    496200   992.4          677.17076      78.69054      -3735.5728      12060.462    
    496300   992.6          672.40087      78.136256     -3737.5868      13742.725    
    496400   992.8          651.06906      75.657395     -3740.7444      15489.357    
    496500   993            640.97442      74.48435      -3743.2222      12723.104    
    496600   993.2          660.35942      76.736981     -3741.4812      15636.274    
    496700   993.4          678.5339       78.848944     -3735.7974      14565.361    
    496800   993.6          660.74051      76.781265     -3735.5464      12665.791    
    496900   993.8          673.73908      78.291762     -3737.9052      13880.177    
    497000   994            644.6964       74.916862     -3741.0324      13053.998    
    497100   994.2          649.2706       75.448405     -3740.8653      14916.852    
    497200   994.4          660.90667      76.800574     -3735.0112      13565.591    
    497300   994.6          654.24019      76.025897     -3733.1569      13678.483    
    497400   994.8          666.91933      77.499274     -3735.388       11899.296    
    497500   995            653.33827      75.921088     -3738.7425      11774.533    
    497600   995.2          631.63422      73.398973     -3740.5372      13452.577    
    497700   995.4          660.65597      76.771441     -3738.958       13332.321    
    497800   995.6          682.5039       79.310277     -3731.5834      14795.984    
    497900   995.8          697.49143      81.051901     -3731.262       14193.05     
    498000   996            690.85719      80.280971     -3735.534       11632.967    
    498100   996.2          665.08398      77.285998     -3738.6605      14346.515    
    498200   996.4          664.13123      77.175283     -3739.3015      11776.266    
    498300   996.6          678.13493      78.802581     -3738.886       12766.398    
    498400   996.8          674.9263       78.429723     -3736.9602      14346.172    
    498500   997            651.75258      75.736824     -3735.4326      12883.866    
    498600   997.2          682.14774      79.26889      -3737.0714      13063.773    
    498700   997.4          671.56871      78.039555     -3740.8475      17022.556    
    498800   997.6          660.43416      76.745665     -3741.7014      12775.249    
    498900   997.8          676.90299      78.659424     -3738.7348      14765.64     
    499000   998            690.31253      80.217678     -3733.9112      15891.595    
    499100   998.2          685.21841      79.625716     -3735.5789      12115.376    
    499200   998.4          664.87245      77.261417     -3739.4349      13231.602    
    499300   998.6          650.81106      75.627415     -3740.8114      13844.572    
    499400   998.8          666.48741      77.449083     -3739.9929      14658.445    
    499500   999            689.04819      80.070756     -3736.1523      13128.542    
    499600   999.2          675.55235      78.502473     -3731.49        14180.785    
    499700   999.4          687.47475      79.887914     -3734.7118      13814.599    
    499800   999.6          666.29948      77.427245     -3739.3226      12429.099    
    499900   999.8          650.87055      75.634328     -3739.6717      12404.139    
    500000   1000           661.1806       76.832406     -3738.7659      13968.255    
Loop time of 29268 on 1 procs for 500000 steps with 900 atoms

Performance: 2.952 ns/day, 8.130 hours/ns, 17.084 timesteps/s
58.1% CPU use with 1 MPI tasks x 1 OpenMP threads

MPI task timing breakdown:
Section |  min time  |  avg time  |  max time  |%varavg| %total
---------------------------------------------------------------
Pair    | 28982      | 28982      | 28982      |   0.0 | 99.02
Neigh   | 242.03     | 242.03     | 242.03     |   0.0 |  0.83
Comm    | 10.627     | 10.627     | 10.627     |   0.0 |  0.04
Output  | 10.781     | 10.781     | 10.781     |   0.0 |  0.04
Modify  | 19.139     | 19.139     | 19.139     |   0.0 |  0.07
Other   |            | 3.883      |            |       |  0.01

Nlocal:            900 ave         900 max         900 min
Histogram: 1 0 0 0 0 0 0 0 0 0
Nghost:           2427 ave        2427 max        2427 min
Histogram: 1 0 0 0 0 0 0 0 0 0
Neighs:              0 ave           0 max           0 min
Histogram: 1 0 0 0 0 0 0 0 0 0
FullNghs:        64664 ave       64664 max       64664 min
Histogram: 1 0 0 0 0 0 0 0 0 0

Total # of neighbors = 64664
Ave neighs/atom = 71.848889
Neighbor list builds = 50000
Dangerous builds not checked
Total wall time: 8:09:47
