ITEM: TIMESTEP
0
ITEM: NUMBER OF ATOMS
48
ITEM: BOX BOUNDS xy xz yz pp pp pp
-6.3375467658042908e+00 8.6067802309989929e+00 2.5094206929206848e+00
-9.4973444938659668e-03 9.3236122131347656e+00 -6.3255096673965454e+00
-2.8691649436950684e-02 1.9545819282531738e+01 7.1304261684417725e-02
ITEM: ATOMS id type xs ys zs fx fy fz
1 1 0.954754 0.16703 0.0320218 0 0 1.54041
2 1 0.512918 0.0738739 0.0528103 0 0 0.237692
3 1 0.703962 0.125314 0.657023 0 0 0.0018158
4 1 0.961649 0.948847 0.927808 0 0 -1.54039
5 1 0.611925 0.157156 0.802805 0 0 0.0036335
6 1 0.403484 0.0420026 0.90702 0 0 -0.237688
7 1 0.0537589 0.250315 0.78202 0 0 0.00712776
8 1 0.00415813 0.208712 0.407029 0 0 0.000324249
9 1 0.262128 0.0321465 0.677802 0 0 -0.00113869
10 1 0.912245 0.240498 0.552801 0 0 -0.00031662
11 1 0.862644 0.198895 0.17781 0 0 -0.00714111
12 1 0.654275 0.0837297 0.282028 0 0 0.00113869
13 1 0.304478 0.292053 0.157025 0 0 -0.00362778
14 1 0.562323 0.115534 0.427803 0 0 -0.000144958
15 1 0.954755 0.500363 0.0320219 0 0 1.54039
16 1 0.512919 0.407207 0.0528103 0 0 0.23769
17 1 0.703962 0.458648 0.657023 0 0 0.0018158
18 1 0.961649 0.28218 0.927808 0 0 -1.54041
19 1 0.611925 0.49049 0.802805 0 0 0.00363159
20 1 0.403484 0.375336 0.90702 0 0 -0.237686
21 1 0.0537589 0.583648 0.78202 0 0 0.00713539
22 1 0.354081 0.333676 0.532027 0 0 0.000141144
23 1 0.00415848 0.542046 0.407029 0 0 0.000318527
24 1 0.262128 0.36548 0.677802 0 0 -0.00113297
25 1 0.912245 0.573831 0.552801 0 0 -0.000320435
26 1 0.212441 0.323895 0.302807 0 0 -0.00181389
27 1 0.862644 0.532228 0.17781 0 0 -0.0071373
28 1 0.654275 0.417063 0.282028 0 0 0.0011425
29 1 0.304478 0.625387 0.157025 0 0 -0.0036335
30 1 0.562323 0.448867 0.427803 0 0 -0.000144958
31 1 0.954754 0.833696 0.0320219 0 0 1.54039
32 1 0.512919 0.740541 0.0528104 0 0 0.237684
33 1 0.703962 0.791981 0.657023 0 0 0.0018177
34 1 0.961649 0.615514 0.927808 0 0 -1.54039
35 1 0.611925 0.823823 0.802805 0 0 0.00363541
36 1 0.403484 0.708669 0.90702 0 0 -0.237686
37 1 0.0537589 0.916981 0.78202 0 0 0.00712776
38 1 0.35408 0.667009 0.532027 0 0 0.000139236
39 1 0.00415828 0.875379 0.407029 0 0 0.000318527
40 1 0.262128 0.698813 0.677802 0 0 -0.00113869
41 1 0.912245 0.907164 0.552801 0 0 -0.000314713
42 1 0.212441 0.657228 0.302807 0 0 -0.00181389
43 1 0.862644 0.865562 0.17781 0 0 -0.00713539
44 1 0.654276 0.750396 0.282028 0 0 0.00113869
45 1 0.304478 0.95872 0.157026 0 0 -0.00363731
46 1 0.562323 0.782201 0.427803 0 0 -0.000139236
47 1 0.35408 0.000342385 0.532027 0 0 0.000139236
48 1 0.212442 0.990562 0.302807 0 0 -0.00181198
ITEM: TIMESTEP
1
ITEM: NUMBER OF ATOMS
48
ITEM: BOX BOUNDS xy xz yz pp pp pp
-6.3375467658042908e+00 8.6067802309989929e+00 2.5094206929206848e+00
-9.4973444938659668e-03 9.3236122131347656e+00 -6.3255096673965454e+00
-2.8691649436950684e-02 1.9545819282531738e+01 7.1304261684417725e-02
ITEM: ATOMS id type xs ys zs fx fy fz
1 1 0.96006 0.16699 0.0371305 0 0 0.658009
2 1 0.513737 0.0738679 0.0535986 0 0 0.156229
3 1 0.703968 0.125314 0.657029 0 0 -0.000518799
4 1 0.956343 0.948886 0.9227 0 0 -0.658009
5 1 0.611938 0.157156 0.802817 0 0 -0.0864964
6 1 0.402666 0.0420087 0.906232 0 0 -0.156229
7 1 0.0537834 0.250315 0.782044 0 0 -0.0624294
8 1 0.00415925 0.208712 0.40703 0 0 -0.00119591
9 1 0.262124 0.0321465 0.677798 0 0 -0.00496674
10 1 0.912244 0.240498 0.5528 0 0 0.00120354
11 1 0.86262 0.198895 0.177786 0 0 0.0624294
12 1 0.654279 0.0837296 0.282032 0 0 0.00496483
13 1 0.304466 0.292053 0.157013 0 0 0.0864944
14 1 0.562323 0.115534 0.427803 0 0 -0.00143242
15 1 0.96006 0.500324 0.0371305 0 0 0.658009
16 1 0.513737 0.407201 0.0535986 0 0 0.156229
17 1 0.703968 0.458648 0.657029 0 0 -0.000516891
18 1 0.956343 0.28222 0.9227 0 0 -0.658009
19 1 0.611938 0.49049 0.802817 0 0 -0.0864964
20 1 0.402666 0.375342 0.906232 0 0 -0.156225
21 1 0.0537834 0.583648 0.782044 0 0 -0.0624313
22 1 0.354081 0.333676 0.532027 0 0 0.0014267
23 1 0.00415957 0.542046 0.40703 0 0 -0.00119972
24 1 0.262124 0.36548 0.677798 0 0 -0.00496674
25 1 0.912244 0.573831 0.5528 0 0 0.00119781
26 1 0.212435 0.323895 0.302801 0 0 0.000511169
27 1 0.86262 0.532228 0.177786 0 0 0.0624332
28 1 0.654279 0.417063 0.282032 0 0 0.00496864
29 1 0.304466 0.625387 0.157013 0 0 0.0864964
30 1 0.562322 0.448867 0.427803 0 0 -0.00143051
31 1 0.96006 0.833657 0.0371306 0 0 0.658007
32 1 0.513737 0.740535 0.0535987 0 0 0.156227
33 1 0.703968 0.791981 0.657029 0 0 -0.000511169
34 1 0.956343 0.615553 0.9227 0 0 -0.658012
35 1 0.611938 0.823823 0.802817 0 0 -0.0864906
36 1 0.402666 0.708675 0.906232 0 0 -0.156229
37 1 0.0537835 0.916981 0.782044 0 0 -0.0624313
38 1 0.354081 0.667009 0.532027 0 0 0.00143051
39 1 0.00415938 0.875379 0.40703 0 0 -0.00120354
40 1 0.262124 0.698813 0.677798 0 0 -0.00496483
41 1 0.912244 0.907164 0.5528 0 0 0.00120735
42 1 0.212435 0.657229 0.302801 0 0 0.000511169
43 1 0.86262 0.865562 0.177786 0 0 0.0624313
44 1 0.654279 0.750396 0.282032 0 0 0.00496864
45 1 0.304466 0.95872 0.157013 0 0 0.0864964
46 1 0.562322 0.782201 0.427803 0 0 -0.0014286
47 1 0.354081 0.000342382 0.532027 0 0 0.00143051
48 1 0.212435 0.990562 0.302801 0 0 0.000513077
ITEM: TIMESTEP
2
ITEM: NUMBER OF ATOMS
48
ITEM: BOX BOUNDS xy xz yz pp pp pp
-6.3375467658042908e+00 8.6067802309989929e+00 2.5094206929206848e+00
-9.4973444938659668e-03 9.3236122131347656e+00 -6.3255096673965454e+00
-2.8691649436950684e-02 1.9545819282531738e+01 7.1304261684417725e-02
ITEM: ATOMS id type xs ys zs fx fy fz
1 1 0.965365 0.166951 0.0422392 0 0 -0.0174141
2 1 0.514997 0.0738585 0.0548115 0 0 0.0492229
3 1 0.703964 0.125314 0.657025 0 0 -0.0156155
4 1 0.951038 0.948926 0.917591 0 0 0.0174122
5 1 0.61124 0.157162 0.802145 0 0 -0.165886
6 1 0.401406 0.042018 0.905019 0 0 -0.0492268
7 1 0.0532801 0.250318 0.781559 0 0 -0.132141
8 1 0.00414961 0.208712 0.407021 0 0 -0.000993729
9 1 0.262084 0.0321468 0.67776 0 0 -0.0192757
10 1 0.912254 0.240498 0.552809 0 0 0.000995636
11 1 0.863123 0.198891 0.178271 0 0 0.132141
12 1 0.654319 0.0837293 0.282071 0 0 0.0192719
13 1 0.305163 0.292048 0.157685 0 0 0.165882
14 1 0.562311 0.115534 0.427792 0 0 -0.000747681
15 1 0.965366 0.500284 0.0422392 0 0 -0.0174122
16 1 0.514997 0.407192 0.0548116 0 0 0.0492287
17 1 0.703964 0.458648 0.657025 0 0 -0.0156078
18 1 0.951037 0.282259 0.917591 0 0 0.0174084
19 1 0.61124 0.490495 0.802145 0 0 -0.165886
20 1 0.401406 0.375351 0.905019 0 0 -0.0492249
21 1 0.05328 0.583652 0.781559 0 0 -0.132145
22 1 0.354093 0.333676 0.532039 0 0 0.000749588
23 1 0.0041499 0.542046 0.407021 0 0 -0.000993729
24 1 0.262084 0.36548 0.67776 0 0 -0.0192699
25 1 0.912254 0.57383 0.552809 0 0 0.000993729
26 1 0.212439 0.323895 0.302805 0 0 0.0156174
27 1 0.863123 0.532225 0.178271 0 0 0.132141
28 1 0.654319 0.417063 0.282071 0 0 0.0192738
29 1 0.305163 0.625381 0.157685 0 0 0.165882
30 1 0.562311 0.448868 0.427792 0 0 -0.000753403
31 1 0.965365 0.833618 0.0422392 0 0 -0.0174103
32 1 0.514997 0.740525 0.0548116 0 0 0.0492268
33 1 0.703964 0.791981 0.657025 0 0 -0.0156078
34 1 0.951037 0.615592 0.917591 0 0 0.0174122
35 1 0.61124 0.823828 0.802145 0 0 -0.165878
36 1 0.401406 0.708685 0.905019 0 0 -0.0492268
37 1 0.0532801 0.916985 0.781559 0 0 -0.132135
38 1 0.354092 0.667009 0.532039 0 0 0.000749588
39 1 0.00414967 0.875379 0.407021 0 0 -0.000991821
40 1 0.262084 0.698814 0.677759 0 0 -0.0192699
41 1 0.912253 0.907164 0.552809 0 0 0.000989914
42 1 0.212439 0.657228 0.302805 0 0 0.0156116
43 1 0.863123 0.865558 0.178271 0 0 0.132141
44 1 0.654319 0.750396 0.282071 0 0 0.0192719
45 1 0.305163 0.958715 0.157685 0 0 0.16588
46 1 0.562311 0.782201 0.427792 0 0 -0.000757217
47 1 0.354092 0.000342296 0.532039 0 0 0.000749588
48 1 0.212439 0.990562 0.302805 0 0 0.0156174
ITEM: TIMESTEP
3
ITEM: NUMBER OF ATOMS
48
ITEM: BOX BOUNDS xy xz yz pp pp pp
-6.3375467658042908e+00 8.6067802309989929e+00 2.5094206929206848e+00
-9.4973444938659668e-03 9.3236122131347656e+00 -6.3255096673965454e+00
-2.8691649436950684e-02 1.9545819282531738e+01 7.1304261684417725e-02
ITEM: ATOMS id type xs ys zs fx fy fz
1 1 0.965941 0.166947 0.0427933 0 0 0.0481758
2 1 0.516422 0.073848 0.0561839 0 0 0.0131321
3 1 0.703586 0.125317 0.656661 0 0 -0.0836544
4 1 0.950462 0.94893 0.917037 0 0 -0.048172
5 1 0.607103 0.157192 0.798162 0 0 0.0272236
6 1 0.399981 0.0420286 0.903646 0 0 -0.0131302
7 1 0.0499943 0.250343 0.778395 0 0 0.00250053
8 1 0.0041238 0.208712 0.406996 0 0 0.0101414
9 1 0.261611 0.0321503 0.677304 0 0 -0.0833359
10 1 0.91228 0.240497 0.552834 0 0 -0.0101395
11 1 0.866409 0.198867 0.181435 0 0 -0.00250435
12 1 0.654792 0.0837258 0.282526 0 0 0.0833435
13 1 0.3093 0.292017 0.161668 0 0 -0.0272255
14 1 0.562291 0.115534 0.427772 0 0 0.0114861
15 1 0.965941 0.50028 0.0427934 0 0 0.0481777
16 1 0.516422 0.407181 0.0561841 0 0 0.0131283
17 1 0.703586 0.458651 0.656661 0 0 -0.0836525
18 1 0.950462 0.282263 0.917037 0 0 -0.048172
19 1 0.607103 0.490526 0.798162 0 0 0.0272274
20 1 0.399981 0.375362 0.903646 0 0 -0.0131302
21 1 0.0499942 0.583676 0.778395 0 0 0.00250053
22 1 0.354113 0.333675 0.532058 0 0 -0.0114841
23 1 0.00412408 0.542046 0.406996 0 0 0.0101337
24 1 0.261611 0.365484 0.677304 0 0 -0.0833435
25 1 0.912279 0.57383 0.552834 0 0 -0.0101357
26 1 0.212817 0.323892 0.303169 0 0 0.0836525
27 1 0.866409 0.5322 0.181435 0 0 -0.00250435
28 1 0.654792 0.417059 0.282526 0 0 0.0833416
29 1 0.3093 0.625351 0.161669 0 0 -0.0272274
30 1 0.56229 0.448868 0.427772 0 0 0.0114899
31 1 0.965941 0.833613 0.0427934 0 0 0.0481701
32 1 0.516422 0.740515 0.056184 0 0 0.0131264
33 1 0.703586 0.791984 0.656661 0 0 -0.0836525
34 1 0.950462 0.615597 0.917037 0 0 -0.0481758
35 1 0.607103 0.823859 0.798162 0 0 0.0272236
36 1 0.399981 0.708695 0.903646 0 0 -0.0131264
37 1 0.0499945 0.917009 0.778395 0 0 0.00249481
38 1 0.354113 0.667009 0.532058 0 0 -0.0114899
39 1 0.0041239 0.875379 0.406996 0 0 0.0101337
40 1 0.261611 0.698817 0.677304 0 0 -0.0833435
41 1 0.912279 0.907164 0.552834 0 0 -0.0101318
42 1 0.212817 0.657226 0.303169 0 0 0.0836563
43 1 0.866409 0.865534 0.181435 0 0 -0.00250244
44 1 0.654792 0.750393 0.282526 0 0 0.0833435
45 1 0.3093 0.958684 0.161669 0 0 -0.0272236
46 1 0.562291 0.782201 0.427772 0 0 0.0114918
47 1 0.354112 0.000342146 0.532058 0 0 -0.011488
48 1 0.212817 0.990559 0.303169 0 0 0.0836506
ITEM: TIMESTEP
4
ITEM: NUMBER OF ATOMS
48
ITEM: BOX BOUNDS xy xz yz pp pp pp
-6.3375467658042908e+00 8.6067802309989929e+00 2.5094206929206848e+00
-9.4973444938659668e-03 9.3236122131347656e+00 -6.3255096673965454e+00
-2.8691649436950684e-02 1.9545819282531738e+01 7.1304261684417725e-02
ITEM: ATOMS id type xs ys zs fx fy fz
1 1 0.967373 0.166936 0.0441728 0 0 -0.0597591
2 1 0.517339 0.0738412 0.0570672 0 0 -0.0272598
3 1 0.701357 0.125334 0.654514 0 0 -0.0146027
4 1 0.94903 0.948941 0.915657 0 0 0.059761
5 1 0.606059 0.1572 0.797156 0 0 -0.00658226
6 1 0.399063 0.0420354 0.902763 0 0 0.0272655
7 1 0.0486915 0.250352 0.777141 0 0 -0.0146446
8 1 0.00436433 0.208711 0.407228 0 0 0.0406246
9 1 0.25935 0.0321671 0.675127 0 0 -0.0105534
10 1 0.912039 0.240499 0.552603 0 0 -0.0406246
11 1 0.867712 0.198857 0.182689 0 0 0.0146599
12 1 0.657054 0.0837091 0.284703 0 0 0.0105515
13 1 0.310344 0.29201 0.162674 0 0 0.00658607
14 1 0.562567 0.115532 0.428038 0 0 0.0440216
15 1 0.967374 0.500269 0.0441729 0 0 -0.0597782
16 1 0.51734 0.407174 0.0570673 0 0 -0.0272636
17 1 0.701357 0.458667 0.654514 0 0 -0.0146027
18 1 0.949029 0.282274 0.915657 0 0 0.0597649
19 1 0.606059 0.490533 0.797156 0 0 -0.00658417
20 1 0.399064 0.375369 0.902763 0 0 0.0272617
21 1 0.0486913 0.583686 0.777141 0 0 -0.0146427
22 1 0.353837 0.333677 0.531792 0 0 -0.0440159
23 1 0.00436443 0.542044 0.407228 0 0 0.0406246
24 1 0.25935 0.3655 0.675127 0 0 -0.0105572
25 1 0.912039 0.573832 0.552603 0 0 -0.0406265
26 1 0.215047 0.323876 0.305316 0 0 0.0145931
27 1 0.867712 0.532191 0.182689 0 0 0.0146599
28 1 0.657054 0.417043 0.284703 0 0 0.0105495
29 1 0.310344 0.625343 0.162674 0 0 0.00658607
30 1 0.562567 0.448866 0.428038 0 0 0.0440254
31 1 0.967374 0.833603 0.0441728 0 0 -0.0597553
32 1 0.517339 0.740508 0.0570672 0 0 -0.0272579
33 1 0.701357 0.792 0.654515 0 0 -0.0146046
34 1 0.949029 0.615607 0.915657 0 0 0.0597725
35 1 0.606059 0.823867 0.797157 0 0 -0.0065918
36 1 0.399064 0.708702 0.902763 0 0 0.027256
37 1 0.0486915 0.917019 0.777141 0 0 -0.0146465
38 1 0.353836 0.667011 0.531792 0 0 -0.0440197
39 1 0.00436426 0.875377 0.407228 0 0 0.0406246
40 1 0.25935 0.698834 0.675127 0 0 -0.0105553
41 1 0.912039 0.907166 0.552603 0 0 -0.0406265
42 1 0.215047 0.657209 0.305316 0 0 0.014595
43 1 0.867712 0.865524 0.182689 0 0 0.0146446
44 1 0.657054 0.750376 0.284703 0 0 0.0105476
45 1 0.310344 0.958676 0.162674 0 0 0.00658417
46 1 0.562567 0.782199 0.428038 0 0 0.0440254
47 1 0.353836 0.000344194 0.531792 0 0 -0.0440235
48 1 0.215047 0.990542 0.305316 0 0 0.0145931
ITEM: TIMESTEP
5
ITEM: NUMBER OF ATOMS
48
ITEM: BOX BOUNDS xy xz yz pp pp pp
-6.3375467658042908e+00 8.6067802309989929e+00 2.5094206929206848e+00
-9.4973444938659668e-03 9.3236122131347656e+00 -6.3255096673965454e+00
-2.8691649436950684e-02 1.9545819282531738e+01 7.1304261684417725e-02
ITEM: ATOMS id type xs ys zs fx fy fz
1 1 0.966869 0.16694 0.0436872 0 0 0.0103054
2 1 0.517201 0.0738422 0.0569335 0 0 -0.0040493
3 1 0.700341 0.125341 0.653537 0 0 0.00131416
4 1 0.949534 0.948937 0.916143 0 0 -0.0103092
5 1 0.605588 0.157203 0.796703 0 0 0.00338173
6 1 0.399202 0.0420343 0.902897 0 0 0.00404739
7 1 0.047996 0.250358 0.776471 0 0 0.00609589
8 1 0.00512703 0.208705 0.407962 0 0 0.0107937
9 1 0.258392 0.0321742 0.674204 0 0 0.00431061
10 1 0.911276 0.240505 0.551868 0 0 -0.0107956
11 1 0.868407 0.198852 0.183359 0 0 -0.00610352
12 1 0.658012 0.083702 0.285626 0 0 -0.00431442
13 1 0.310815 0.292006 0.163127 0 0 -0.0033741
14 1 0.563399 0.115526 0.428839 0 0 0.013813
15 1 0.966869 0.500273 0.0436871 0 0 0.010313
16 1 0.517201 0.407175 0.0569336 0 0 -0.0040493
17 1 0.700342 0.458675 0.653537 0 0 0.0012989
18 1 0.949534 0.28227 0.916143 0 0 -0.0103054
19 1 0.605588 0.490537 0.796703 0 0 0.00338364
20 1 0.399202 0.375368 0.902897 0 0 0.00404739
21 1 0.0479959 0.583691 0.776471 0 0 0.00610352
22 1 0.353005 0.333684 0.530991 0 0 -0.0138245
23 1 0.00512706 0.542038 0.407962 0 0 0.0108032
24 1 0.258391 0.365507 0.674204 0 0 0.00431442
25 1 0.911276 0.573838 0.551868 0 0 -0.0107975
26 1 0.216062 0.323868 0.306293 0 0 -0.00130272
27 1 0.868407 0.532185 0.183359 0 0 -0.00610542
28 1 0.658012 0.417035 0.285626 0 0 -0.00431061
29 1 0.310815 0.62534 0.163127 0 0 -0.00338173
30 1 0.563398 0.448859 0.428839 0 0 0.0138149
31 1 0.966869 0.833606 0.0436873 0 0 0.0103054
32 1 0.517201 0.740509 0.0569336 0 0 -0.00404549
33 1 0.700342 0.792008 0.653537 0 0 0.00129318
34 1 0.949534 0.615603 0.916143 0 0 -0.0103168
35 1 0.605588 0.82387 0.796703 0 0 0.00338554
36 1 0.399202 0.708701 0.902897 0 0 0.00404739
37 1 0.0479961 0.917024 0.776471 0 0 0.00610161
38 1 0.353005 0.667017 0.530991 0 0 -0.013813
39 1 0.0051269 0.875372 0.407962 0 0 0.0108013
40 1 0.258391 0.698841 0.674204 0 0 0.00431252
41 1 0.911276 0.907171 0.551868 0 0 -0.0108013
42 1 0.216062 0.657202 0.306293 0 0 -0.00130272
43 1 0.868407 0.865519 0.183359 0 0 -0.00609398
44 1 0.658012 0.750369 0.285626 0 0 -0.00431633
45 1 0.310815 0.958673 0.163127 0 0 -0.00337982
46 1 0.563399 0.782193 0.428839 0 0 0.0138168
47 1 0.353004 0.00035036 0.530991 0 0 -0.0138149
48 1 0.216062 0.990535 0.306293 0 0 -0.001297
ITEM: TIMESTEP
6
ITEM: NUMBER OF ATOMS
48
ITEM: BOX BOUNDS xy xz yz pp pp pp
-6.3375467658042908e+00 8.6067802309989929e+00 2.5094206929206848e+00
-9.4973444938659668e-03 9.3236122131347656e+00 -6.3255096673965454e+00
-2.8691649436950684e-02 1.9545819282531738e+01 7.1304261684417725e-02
ITEM: ATOMS id type xs ys zs fx fy fz
1 1 0.966991 0.166939 0.0438049 0 0 -0.00354958
2 1 0.517149 0.0738426 0.0568835 0 0 -0.00181007
3 1 0.700346 0.125341 0.653541 0 0 -0.00142097
4 1 0.949412 0.948938 0.916025 0 0 0.00355339
5 1 0.605625 0.157203 0.796738 0 0 0.000425339
6 1 0.399254 0.0420339 0.902947 0 0 0.00180817
7 1 0.0480637 0.250357 0.776536 0 0 0.00214767
8 1 0.00527022 0.208704 0.4081 0 0 -0.000169754
9 1 0.258434 0.0321739 0.674245 0 0 -0.000411987
10 1 0.911133 0.240506 0.55173 0 0 0.000162125
11 1 0.86834 0.198853 0.183294 0 0 -0.00215149
12 1 0.65797 0.0837023 0.285585 0 0 0.000408173
13 1 0.310779 0.292007 0.163092 0 0 -0.000432968
14 1 0.56358 0.115525 0.429014 0 0 0.00147247
15 1 0.966992 0.500272 0.0438049 0 0 -0.00354958
16 1 0.517149 0.407176 0.0568835 0 0 -0.00181007
17 1 0.700346 0.458675 0.653541 0 0 -0.00141716
18 1 0.949411 0.282271 0.916025 0 0 0.00355148
19 1 0.605625 0.490537 0.796738 0 0 0.000425339
20 1 0.399254 0.375367 0.902947 0 0 0.00181198
21 1 0.0480636 0.58369 0.776536 0 0 0.00214958
22 1 0.352823 0.333685 0.530816 0 0 -0.00147438
23 1 0.00527037 0.542037 0.4081 0 0 -0.000160217
24 1 0.258434 0.365507 0.674245 0 0 -0.000402451
25 1 0.911133 0.573839 0.55173 0 0 0.000162125
26 1 0.216057 0.323868 0.306289 0 0 0.0014286
27 1 0.86834 0.532186 0.183294 0 0 -0.00214958
28 1 0.65797 0.417036 0.285585 0 0 0.00041008
29 1 0.310778 0.62534 0.163092 0 0 -0.000425339
30 1 0.56358 0.448858 0.429014 0 0 0.00147247
31 1 0.966992 0.833606 0.043805 0 0 -0.00355148
32 1 0.517149 0.740509 0.0568836 0 0 -0.00181007
33 1 0.700346 0.792008 0.653541 0 0 -0.00141716
34 1 0.949411 0.615604 0.916025 0 0 0.00355339
35 1 0.605625 0.82387 0.796738 0 0 0.000421524
36 1 0.399254 0.708701 0.902947 0 0 0.0018158
37 1 0.0480638 0.917024 0.776536 0 0 0.00214386
38 1 0.352823 0.667018 0.530816 0 0 -0.00147438
39 1 0.00527018 0.875371 0.4081 0 0 -0.000165939
40 1 0.258433 0.698841 0.674245 0 0 -0.000408173
41 1 0.911133 0.907172 0.55173 0 0 0.000164032
42 1 0.216057 0.657202 0.306289 0 0 0.00142288
43 1 0.86834 0.865519 0.183294 0 0 -0.00214767
44 1 0.65797 0.750369 0.285585 0 0 0.000404358
45 1 0.310779 0.958673 0.163092 0 0 -0.000427246
46 1 0.56358 0.782191 0.429014 0 0 0.00147057
47 1 0.352823 0.000351706 0.530816 0 0 -0.00146675
48 1 0.216058 0.990535 0.306289 0 0 0.00141907
ITEM: TIMESTEP
7
ITEM: NUMBER OF ATOMS
48
ITEM: BOX BOUNDS xy xz yz pp pp pp
-6.3375467658042908e+00 8.6067802309989929e+00 2.5094206929206848e+00
-9.4973444938659668e-03 9.3236122131347656e+00 -6.3255096673965454e+00
-2.8691649436950684e-02 1.9545819282531738e+01 7.1304261684417725e-02
ITEM: ATOMS id type xs ys zs fx fy fz
1 1 0.966942 0.166939 0.043757 0 0 0.000795364
2 1 0.517116 0.0738428 0.0568519 0 0 -2.86102e-05
3 1 0.700323 0.125341 0.653519 0 0 -0.000236511
4 1 0.949461 0.948937 0.916073 0 0 -0.000799179
5 1 0.605634 0.157203 0.796747 0 0 0.000810623
6 1 0.399287 0.0420337 0.902978 0 0 2.67029e-05
7 1 0.048103 0.250357 0.776574 0 0 0.000991821
8 1 0.00527677 0.208704 0.408106 0 0 -0.00071907
9 1 0.25843 0.0321739 0.674241 0 0 -0.000150681
10 1 0.911127 0.240506 0.551724 0 0 0.000722885
11 1 0.8683 0.198853 0.183256 0 0 -0.000986099
12 1 0.657973 0.0837023 0.285589 0 0 0.000152588
13 1 0.310769 0.292007 0.163083 0 0 -0.000797272
14 1 0.563616 0.115524 0.429048 0 0 -0.000238419
15 1 0.966942 0.500273 0.043757 0 0 0.000799179
16 1 0.517116 0.407176 0.0568519 0 0 -3.05176e-05
17 1 0.700323 0.458675 0.653519 0 0 -0.000242233
18 1 0.949461 0.282271 0.916073 0 0 -0.000795364
19 1 0.605634 0.490537 0.796747 0 0 0.000808716
20 1 0.399287 0.375367 0.902978 0 0 2.47955e-05
21 1 0.048103 0.58369 0.776574 0 0 0.000991821
22 1 0.352788 0.333685 0.530782 0 0 0.000244141
23 1 0.00527709 0.542037 0.408106 0 0 -0.0007267
24 1 0.25843 0.365507 0.674241 0 0 -0.000154495
25 1 0.911126 0.573839 0.551724 0 0 0.000724792
26 1 0.21608 0.323868 0.306311 0 0 0.000230789
27 1 0.8683 0.532186 0.183256 0 0 -0.000989914
28 1 0.657973 0.417036 0.285589 0 0 0.000150681
29 1 0.310769 0.62534 0.163083 0 0 -0.000806808
30 1 0.563616 0.448858 0.429048 0 0 -0.000244141
31 1 0.966942 0.833606 0.043757 0 0 0.000799179
32 1 0.517116 0.740509 0.056852 0 0 -2.86102e-05
33 1 0.700323 0.792008 0.653519 0 0 -0.000242233
34 1 0.949461 0.615604 0.916073 0 0 -0.000801086
35 1 0.605634 0.82387 0.796747 0 0 0.000802994
36 1 0.399287 0.7087 0.902978 0 0 3.05176e-05
37 1 0.048103 0.917023 0.776574 0 0 0.000995636
38 1 0.352787 0.667019 0.530782 0 0 0.000247955
39 1 0.0052768 0.87537 0.408106 0 0 -0.0007267
40 1 0.25843 0.698841 0.674241 0 0 -0.000152588
41 1 0.911126 0.907172 0.551724 0 0 0.000722885
42 1 0.21608 0.657201 0.306311 0 0 0.000240326
43 1 0.8683 0.86552 0.183256 0 0 -0.000989914
44 1 0.657973 0.750369 0.285589 0 0 0.000150681
45 1 0.310769 0.958673 0.163083 0 0 -0.000810623
46 1 0.563616 0.782191 0.429048 0 0 -0.000242233
47 1 0.352787 0.000351971 0.530782 0 0 0.000240326
48 1 0.21608 0.990535 0.306311 0 0 0.000234604
ITEM: TIMESTEP
8
ITEM: NUMBER OF ATOMS
48
ITEM: BOX BOUNDS xy xz yz pp pp pp
-6.3375467658042908e+00 8.6067802309989929e+00 2.5094206929206848e+00
-9.4973444938659668e-03 9.3236122131347656e+00 -6.3255096673965454e+00
-2.8691649436950684e-02 1.9545819282531738e+01 7.1304261684417725e-02
ITEM: ATOMS id type xs ys zs fx fy fz
1 1 0.966947 0.166939 0.0437622 0 0 -0.000162125
2 1 0.517112 0.0738428 0.0568485 0 0 -7.24792e-05
3 1 0.700318 0.125341 0.653514 0 0 0.000398636
4 1 0.949456 0.948937 0.916068 0 0 0.000167847
5 1 0.605645 0.157203 0.796758 0 0 9.72748e-05
6 1 0.399291 0.0420337 0.902982 0 0 7.24792e-05
7 1 0.0481196 0.250357 0.77659 0 0 8.39233e-05
8 1 0.00526817 0.208704 0.408098 0 0 -0.000167847
9 1 0.258428 0.0321739 0.674239 0 0 0.000350952
10 1 0.911135 0.240506 0.551732 0 0 0.000173569
11 1 0.868284 0.198853 0.18324 0 0 -8.7738e-05
12 1 0.657976 0.0837022 0.285591 0 0 -0.000352859
13 1 0.310758 0.292007 0.163072 0 0 -9.91821e-05
14 1 0.563617 0.115524 0.429049 0 0 -6.48499e-05
15 1 0.966947 0.500273 0.0437622 0 0 -0.000165939
16 1 0.517112 0.407176 0.0568485 0 0 -7.43866e-05
17 1 0.700318 0.458675 0.653514 0 0 0.000400543
18 1 0.949456 0.282271 0.916068 0 0 0.000162125
19 1 0.605645 0.490537 0.796758 0 0 9.53674e-05
20 1 0.399291 0.375367 0.902982 0 0 7.43866e-05
21 1 0.0481196 0.58369 0.77659 0 0 8.58307e-05
22 1 0.352787 0.333685 0.530782 0 0 5.91278e-05
23 1 0.0052684 0.542037 0.408098 0 0 -0.000169754
24 1 0.258428 0.365507 0.674239 0 0 0.000354767
25 1 0.911135 0.573839 0.551732 0 0 0.000169754
26 1 0.216086 0.323868 0.306316 0 0 -0.000398636
27 1 0.868284 0.532186 0.18324 0 0 -8.58307e-05
28 1 0.657976 0.417036 0.285591 0 0 -0.000354767
29 1 0.310758 0.62534 0.163072 0 0 -9.34601e-05
30 1 0.563616 0.448858 0.429049 0 0 -6.29425e-05
31 1 0.966947 0.833606 0.0437623 0 0 -0.000173569
32 1 0.517112 0.740509 0.0568485 0 0 -7.43866e-05
33 1 0.700318 0.792008 0.653514 0 0 0.000394821
34 1 0.949456 0.615604 0.916068 0 0 0.000171661
35 1 0.605645 0.82387 0.796758 0 0 9.72748e-05
36 1 0.399291 0.7087 0.902982 0 0 6.86646e-05
37 1 0.0481196 0.917023 0.77659 0 0 8.39233e-05
38 1 0.352787 0.667019 0.530782 0 0 6.67572e-05
39 1 0.0052681 0.875371 0.408098 0 0 -0.000165939
40 1 0.258427 0.698841 0.674239 0 0 0.000350952
41 1 0.911135 0.907172 0.551732 0 0 0.000169754
42 1 0.216085 0.657201 0.306316 0 0 -0.000400543
43 1 0.868284 0.86552 0.18324 0 0 -8.39233e-05
44 1 0.657976 0.750369 0.285591 0 0 -0.000350952
45 1 0.310758 0.958673 0.163072 0 0 -9.34601e-05
46 1 0.563616 0.782191 0.429049 0 0 -6.29425e-05
47 1 0.352787 0.000351973 0.530782 0 0 6.29425e-05
48 1 0.216086 0.990535 0.306316 0 0 -0.000394821
ITEM: TIMESTEP
9
ITEM: NUMBER OF ATOMS
48
ITEM: BOX BOUNDS xy xz yz pp pp pp
-6.3375467658042908e+00 8.6067802309989929e+00 2.5094206929206848e+00
-9.4973444938659668e-03 9.3236122131347656e+00 -6.3255096673965454e+00
-2.8691649436950684e-02 1.9545819282531738e+01 7.1304261684417725e-02
ITEM: ATOMS id type xs ys zs fx fy fz
1 1 0.966942 0.166939 0.043757 0 0 4.00543e-05
2 1 0.517107 0.0738429 0.0568436 0 0 4.95911e-05
3 1 0.700335 0.125341 0.65353 0 0 7.62939e-06
4 1 0.949462 0.948937 0.916073 0 0 -7.05719e-05
5 1 0.605655 0.157203 0.796767 0 0 0.000123978
6 1 0.399296 0.0420336 0.902986 0 0 -4.3869e-05
7 1 0.0481308 0.250357 0.776601 0 0 2.86102e-05
8 1 0.00525636 0.208704 0.408087 0 0 0.000179291
9 1 0.258443 0.0321738 0.674254 0 0 4.00543e-05
10 1 0.911147 0.240506 0.551744 0 0 -0.000188828
11 1 0.868272 0.198853 0.183229 0 0 -2.47955e-05
12 1 0.65796 0.0837024 0.285576 0 0 -3.05176e-05
13 1 0.310748 0.292007 0.163063 0 0 -0.000125885
14 1 0.563614 0.115524 0.429046 0 0 -0.000146866
15 1 0.966942 0.500273 0.0437568 0 0 6.10352e-05
16 1 0.517107 0.407176 0.0568436 0 0 5.53131e-05
17 1 0.700335 0.458675 0.65353 0 0 5.72205e-06
18 1 0.949461 0.282271 0.916073 0 0 -4.00543e-05
19 1 0.605655 0.490536 0.796767 0 0 0.000135422
20 1 0.399296 0.375367 0.902987 0 0 -5.72205e-05
21 1 0.0481309 0.58369 0.776601 0 0 2.86102e-05
22 1 0.35279 0.333685 0.530784 0 0 0.000160217
23 1 0.00525646 0.542037 0.408087 0 0 0.000185013
24 1 0.258444 0.365507 0.674254 0 0 2.86102e-05
25 1 0.911147 0.573839 0.551744 0 0 -0.000185013
26 1 0.216069 0.323868 0.3063 0 0 -7.62939e-06
27 1 0.868272 0.532186 0.183229 0 0 -3.24249e-05
28 1 0.65796 0.417036 0.285576 0 0 -2.86102e-05
29 1 0.310749 0.62534 0.163063 0 0 -0.000135422
30 1 0.563613 0.448858 0.429046 0 0 -0.000156403
31 1 0.966941 0.833606 0.0437566 0 0 7.82013e-05
32 1 0.517107 0.74051 0.0568436 0 0 5.34058e-05
33 1 0.700334 0.792008 0.65353 0 0 1.14441e-05
34 1 0.949462 0.615604 0.916074 0 0 -7.24792e-05
35 1 0.605655 0.82387 0.796767 0 0 0.000133514
36 1 0.399296 0.7087 0.902986 0 0 -4.57764e-05
37 1 0.0481309 0.917023 0.776601 0 0 3.05176e-05
38 1 0.35279 0.667019 0.530785 0 0 0.000144958
39 1 0.00525634 0.875371 0.408087 0 0 0.000179291
40 1 0.258443 0.698841 0.674254 0 0 4.00543e-05
41 1 0.911147 0.907172 0.551744 0 0 -0.000183105
42 1 0.216069 0.657202 0.3063 0 0 -7.62939e-06
43 1 0.868273 0.86552 0.183229 0 0 -3.62396e-05
44 1 0.65796 0.750369 0.285576 0 0 -3.43323e-05
45 1 0.310749 0.958673 0.163063 0 0 -0.000133514
46 1 0.563613 0.782191 0.429046 0 0 -0.000150681
47 1 0.35279 0.000351952 0.530784 0 0 0.000146866
48 1 0.216069 0.990535 0.3063 0 0 -9.53674e-06
ITEM: TIMESTEP
10
ITEM: NUMBER OF ATOMS
48
ITEM: BOX BOUNDS xy xz yz pp pp pp
-6.3375467658042908e+00 8.6067802309989929e+00 2.5094206929206848e+00
-9.4973444938659668e-03 9.3236122131347656e+00 -6.3255096673965454e+00
-2.8691649436950684e-02 1.9545819282531738e+01 7.1304261684417725e-02
ITEM: ATOMS id type xs ys zs fx fy fz
1 1 0.966942 0.166939 0.043757 0 0 4.00543e-05
2 1 0.517107 0.0738429 0.0568436 0 0 4.95911e-05
3 1 0.700335 0.125341 0.65353 0 0 7.62939e-06
4 1 0.949462 0.948937 0.916073 0 0 -7.05719e-05
5 1 0.605655 0.157203 0.796767 0 0 0.000123978
6 1 0.399296 0.0420336 0.902986 0 0 -4.3869e-05
7 1 0.0481308 0.250357 0.776601 0 0 2.86102e-05
8 1 0.00525636 0.208704 0.408087 0 0 0.000179291
9 1 0.258443 0.0321738 0.674254 0 0 4.00543e-05
10 1 0.911147 0.240506 0.551744 0 0 -0.000188828
11 1 0.868272 0.198853 0.183229 0 0 -2.47955e-05
12 1 0.65796 0.0837024 0.285576 0 0 -3.05176e-05
13 1 0.310748 0.292007 0.163063 0 0 -0.000125885
14 1 0.563614 0.115524 0.429046 0 0 -0.000146866
15 1 0.966942 0.500273 0.0437568 0 0 6.10352e-05
16 1 0.517107 0.407176 0.0568436 0 0 5.53131e-05
17 1 0.700335 0.458675 0.65353 0 0 5.72205e-06
18 1 0.949461 0.282271 0.916073 0 0 -4.00543e-05
19 1 0.605655 0.490536 0.796767 0 0 0.000135422
20 1 0.399296 0.375367 0.902987 0 0 -5.72205e-05
21 1 0.0481309 0.58369 0.776601 0 0 2.86102e-05
22 1 0.35279 0.333685 0.530784 0 0 0.000160217
23 1 0.00525646 0.542037 0.408087 0 0 0.000185013
24 1 0.258444 0.365507 0.674254 0 0 2.86102e-05
25 1 0.911147 0.573839 0.551744 0 0 -0.000185013
26 1 0.216069 0.323868 0.3063 0 0 -7.62939e-06
27 1 0.868272 0.532186 0.183229 0 0 -3.24249e-05
28 1 0.65796 0.417036 0.285576 0 0 -2.86102e-05
29 1 0.310749 0.62534 0.163063 0 0 -0.000135422
30 1 0.563613 0.448858 0.429046 0 0 -0.000156403
31 1 0.966941 0.833606 0.0437566 0 0 7.82013e-05
32 1 0.517107 0.74051 0.0568436 0 0 5.34058e-05
33 1 0.700334 0.792008 0.65353 0 0 1.14441e-05
34 1 0.949462 0.615604 0.916074 0 0 -7.24792e-05
35 1 0.605655 0.82387 0.796767 0 0 0.000133514
36 1 0.399296 0.7087 0.902986 0 0 -4.57764e-05
37 1 0.0481309 0.917023 0.776601 0 0 3.05176e-05
38 1 0.35279 0.667019 0.530785 0 0 0.000144958
39 1 0.00525634 0.875371 0.408087 0 0 0.000179291
40 1 0.258443 0.698841 0.674254 0 0 4.00543e-05
41 1 0.911147 0.907172 0.551744 0 0 -0.000183105
42 1 0.216069 0.657202 0.3063 0 0 -7.62939e-06
43 1 0.868273 0.86552 0.183229 0 0 -3.62396e-05
44 1 0.65796 0.750369 0.285576 0 0 -3.43323e-05
45 1 0.310749 0.958673 0.163063 0 0 -0.000133514
46 1 0.563613 0.782191 0.429046 0 0 -0.000150681
47 1 0.35279 0.000351952 0.530784 0 0 0.000146866
48 1 0.216069 0.990535 0.3063 0 0 -9.53674e-06
