ITEM: TIMESTEP
0
ITEM: NUMBER OF ATOMS
48
ITEM: BOX BOUNDS xy xz yz pp pp pp
-3.8986029624938965e+00 8.6067802309989929e+00 2.5094206929206848e+00
-9.4973444938659668e-03 9.3236122131347656e+00 -3.8865658640861511e+00
-2.8691649436950684e-02 1.9545819282531738e+01 7.1304261684417725e-02
ITEM: ATOMS id type xs ys zs fx fy fz
6 1 0.0413913 0.0420026 0.90702 0 0 -0.24876
13 1 0.241792 0.292053 0.157025 0 0 -0.00467873
20 1 0.0413914 0.375336 0.90702 0 0 -0.248753
22 1 0.141689 0.333676 0.532027 0 0 0.000209808
26 1 0.0915572 0.323895 0.302807 0 0 -0.00124931
29 1 0.241792 0.625387 0.157025 0 0 -0.00467491
36 1 0.0413913 0.708669 0.90702 0 0 -0.248758
38 1 0.141689 0.667009 0.532027 0 0 0.000207901
42 1 0.0915571 0.657228 0.302807 0 0 -0.00125504
45 1 0.241792 0.95872 0.157026 0 0 -0.00467873
47 1 0.141689 0.000342385 0.532027 0 0 0.000207901
48 1 0.0915573 0.990562 0.302807 0 0 -0.00125122
1 1 0.941971 0.16703 0.0320218 0 0 0.956858
2 1 0.491836 0.0738739 0.0528103 0 0 0.248758
3 1 0.441671 0.125314 0.657023 0 0 0.00125122
4 1 0.591257 0.948847 0.927808 0 0 -0.95685
5 1 0.291436 0.157156 0.802805 0 0 0.00466919
7 1 0.741567 0.250315 0.78202 0 0 -0.00750923
8 1 0.841667 0.208712 0.407029 0 0 0.00128365
9 1 0.991541 0.0321465 0.677802 0 0 -0.00127029
10 1 0.69156 0.240498 0.552801 0 0 -0.00127602
11 1 0.79166 0.198895 0.17781 0 0 0.00750732
12 1 0.541686 0.0837297 0.282028 0 0 0.00126839
14 1 0.391539 0.115534 0.427803 0 0 -0.000213623
15 1 0.941971 0.500363 0.0320219 0 0 0.956844
16 1 0.491836 0.407207 0.0528103 0 0 0.248762
17 1 0.44167 0.458648 0.657023 0 0 0.00125504
18 1 0.591256 0.28218 0.927808 0 0 -0.95686
19 1 0.291436 0.49049 0.802805 0 0 0.00467682
21 1 0.741567 0.583648 0.78202 0 0 -0.00750923
23 1 0.841668 0.542046 0.407029 0 0 0.00127792
24 1 0.991541 0.36548 0.677802 0 0 -0.00126457
25 1 0.69156 0.573831 0.552801 0 0 -0.00127983
27 1 0.79166 0.532228 0.17781 0 0 0.00751305
28 1 0.541686 0.417063 0.282028 0 0 0.0012722
30 1 0.391539 0.448867 0.427803 0 0 -0.000213623
31 1 0.941971 0.833696 0.0320219 0 0 0.956854
32 1 0.491836 0.740541 0.0528104 0 0 0.248756
33 1 0.44167 0.791981 0.657023 0 0 0.00125122
34 1 0.591256 0.615514 0.927808 0 0 -0.95685
35 1 0.291436 0.823823 0.802805 0 0 0.00467873
37 1 0.741567 0.916981 0.78202 0 0 -0.00751114
39 1 0.841667 0.875379 0.407029 0 0 0.00127792
40 1 0.991541 0.698813 0.677802 0 0 -0.00127029
41 1 0.69156 0.907164 0.552801 0 0 -0.00127411
43 1 0.791661 0.865562 0.17781 0 0 0.00750923
44 1 0.541686 0.750396 0.282028 0 0 0.00126839
46 1 0.391539 0.782201 0.427803 0 0 -0.000207901
ITEM: TIMESTEP
1
ITEM: NUMBER OF ATOMS
48
ITEM: BOX BOUNDS xy xz yz pp pp pp
-3.8986029624938965e+00 8.6067802309989929e+00 2.5094206929206848e+00
-9.4973444938659668e-03 9.3236122131347656e+00 -3.8865658640861511e+00
-2.8691649436950684e-02 1.9545819282531738e+01 7.1304261684417725e-02
ITEM: ATOMS id type xs ys zs fx fy fz
6 1 0.0405422 0.0420128 0.905692 0 0 -0.0218201
13 1 0.241776 0.292053 0.157 0 0 0.0909214
20 1 0.0405423 0.375346 0.905692 0 0 -0.0218277
22 1 0.14169 0.333676 0.532028 0 0 0.00143051
26 1 0.0915529 0.323895 0.302801 0 0 0.00170326
29 1 0.241776 0.625387 0.157001 0 0 0.0909176
36 1 0.0405422 0.708679 0.905692 0 0 -0.0218182
38 1 0.14169 0.667009 0.532028 0 0 0.00143051
42 1 0.0915528 0.657229 0.302801 0 0 0.00170135
45 1 0.241776 0.95872 0.157001 0 0 0.0909138
47 1 0.141689 0.000342377 0.532028 0 0 0.00143433
48 1 0.091553 0.990562 0.302801 0 0 0.00169945
1 1 0.945237 0.16699 0.0371305 0 0 0.333548
2 1 0.492685 0.0738637 0.0541384 0 0 0.0218239
3 1 0.441675 0.125314 0.65703 0 0 -0.00170135
4 1 0.587991 0.948886 0.9227 0 0 -0.333546
5 1 0.291452 0.157156 0.80283 0 0 -0.0909233
7 1 0.741541 0.250315 0.78198 0 0 -0.0786381
8 1 0.841672 0.208712 0.407036 0 0 -0.000705719
9 1 0.991537 0.0321465 0.677795 0 0 -0.0053196
10 1 0.691556 0.240498 0.552794 0 0 0.000703812
11 1 0.791686 0.198895 0.17785 0 0 0.0786381
12 1 0.541691 0.0837296 0.282035 0 0 0.0053215
14 1 0.391538 0.115534 0.427802 0 0 -0.00143433
15 1 0.945237 0.500324 0.0371305 0 0 0.333549
16 1 0.492685 0.407197 0.0541385 0 0 0.0218277
17 1 0.441675 0.458648 0.65703 0 0 -0.00169563
18 1 0.58799 0.28222 0.9227 0 0 -0.333549
19 1 0.291452 0.49049 0.80283 0 0 -0.0909176
21 1 0.741541 0.583649 0.78198 0 0 -0.0786476
23 1 0.841672 0.542045 0.407036 0 0 -0.000705719
24 1 0.991537 0.36548 0.677795 0 0 -0.00531769
25 1 0.691556 0.573831 0.552794 0 0 0.000705719
27 1 0.791686 0.532228 0.17785 0 0 0.0786381
28 1 0.541691 0.417063 0.282035 0 0 0.0053215
30 1 0.391538 0.448867 0.427802 0 0 -0.00143242
31 1 0.945237 0.833657 0.0371306 0 0 0.33354
32 1 0.492685 0.74053 0.0541385 0 0 0.0218296
33 1 0.441675 0.791981 0.657029 0 0 -0.00169754
34 1 0.58799 0.615553 0.9227 0 0 -0.333548
35 1 0.291452 0.823823 0.80283 0 0 -0.0909176
37 1 0.741542 0.916982 0.78198 0 0 -0.0786457
39 1 0.841672 0.875379 0.407036 0 0 -0.000705719
40 1 0.991537 0.698813 0.677795 0 0 -0.00531578
41 1 0.691556 0.907164 0.552794 0 0 0.000705719
43 1 0.791686 0.865561 0.17785 0 0 0.07864
44 1 0.541691 0.750396 0.282035 0 0 0.00531769
46 1 0.391538 0.782201 0.427802 0 0 -0.00143242
ITEM: TIMESTEP
2
ITEM: NUMBER OF ATOMS
48
ITEM: BOX BOUNDS xy xz yz pp pp pp
-3.8986029624938965e+00 8.6067802309989929e+00 2.5094206929206848e+00
-9.4973444938659668e-03 9.3236122131347656e+00 -3.8865658640861511e+00
-2.8691649436950684e-02 1.9545819282531738e+01 7.1304261684417725e-02
ITEM: ATOMS id type xs ys zs fx fy fz
6 1 0.0403673 0.0420149 0.905418 0 0 0.0678482
13 1 0.242505 0.292045 0.15814 0 0 0.113201
20 1 0.0403674 0.375348 0.905418 0 0 0.0678539
22 1 0.141701 0.333675 0.532046 0 0 -0.000944138
26 1 0.0915666 0.323895 0.302822 0 0 0.0251904
29 1 0.242505 0.625378 0.15814 0 0 0.113199
36 1 0.0403673 0.708682 0.905418 0 0 0.0678482
38 1 0.141701 0.667009 0.532046 0 0 -0.000940323
42 1 0.0915664 0.657228 0.302822 0 0 0.0251923
45 1 0.242505 0.958711 0.15814 0 0 0.113197
47 1 0.141701 0.000342238 0.532046 0 0 -0.000946045
48 1 0.0915666 0.990562 0.302822 0 0 0.0251942
1 1 0.94791 0.166958 0.0413124 0 0 -0.0538483
2 1 0.49286 0.0738616 0.054412 0 0 -0.0678482
3 1 0.441661 0.125315 0.657008 0 0 -0.0251904
4 1 0.585317 0.948918 0.918518 0 0 0.0538502
5 1 0.290723 0.157165 0.80169 0 0 -0.113199
7 1 0.740911 0.250323 0.780994 0 0 -0.0889397
8 1 0.841666 0.208712 0.407027 0 0 0.000724792
9 1 0.991494 0.0321471 0.677728 0 0 -0.0287266
10 1 0.691562 0.240498 0.552803 0 0 -0.000713348
11 1 0.792316 0.198887 0.178836 0 0 0.0889397
12 1 0.541733 0.0837291 0.282102 0 0 0.0287228
14 1 0.391527 0.115534 0.427784 0 0 0.000944138
15 1 0.947911 0.500291 0.0413124 0 0 -0.0538559
16 1 0.49286 0.407195 0.0544121 0 0 -0.0678558
17 1 0.441661 0.458648 0.657008 0 0 -0.0251923
18 1 0.585317 0.282252 0.918518 0 0 0.0538521
19 1 0.290723 0.490499 0.80169 0 0 -0.113195
21 1 0.740911 0.583656 0.780994 0 0 -0.0889339
23 1 0.841666 0.542046 0.407027 0 0 0.000715256
24 1 0.991495 0.36548 0.677728 0 0 -0.0287228
25 1 0.691562 0.573831 0.552803 0 0 -0.000720978
27 1 0.792316 0.53222 0.178836 0 0 0.0889378
28 1 0.541733 0.417063 0.282102 0 0 0.0287228
30 1 0.391526 0.448868 0.427784 0 0 0.000944138
31 1 0.947911 0.833625 0.0413124 0 0 -0.0538502
32 1 0.49286 0.740528 0.0544122 0 0 -0.0678558
33 1 0.441661 0.791981 0.657008 0 0 -0.0251884
34 1 0.585317 0.615585 0.918518 0 0 0.0538483
35 1 0.290723 0.823832 0.80169 0 0 -0.113199
37 1 0.740911 0.916989 0.780994 0 0 -0.088932
39 1 0.841666 0.875379 0.407027 0 0 0.000717163
40 1 0.991494 0.698814 0.677728 0 0 -0.0287285
41 1 0.691561 0.907164 0.552803 0 0 -0.000717163
43 1 0.792317 0.865554 0.178836 0 0 0.0889359
44 1 0.541733 0.750396 0.282102 0 0 0.0287266
46 1 0.391527 0.782201 0.427784 0 0 0.000938416
ITEM: TIMESTEP
3
ITEM: NUMBER OF ATOMS
48
ITEM: BOX BOUNDS xy xz yz pp pp pp
-3.8986029624938965e+00 8.6067802309989929e+00 2.5094206929206848e+00
-9.4973444938659668e-03 9.3236122131347656e+00 -3.8865658640861511e+00
-2.8691649436950684e-02 1.9545819282531738e+01 7.1304261684417725e-02
ITEM: ATOMS id type xs ys zs fx fy fz
6 1 0.0410946 0.0420062 0.906556 0 0 -0.0174828
13 1 0.24409 0.292026 0.160621 0 0 -0.0108185
20 1 0.0410947 0.375339 0.906556 0 0 -0.0174847
22 1 0.141694 0.333676 0.532035 0 0 -0.0126896
26 1 0.0918653 0.323891 0.303289 0 0 0.0549812
29 1 0.24409 0.625359 0.160621 0 0 -0.0108147
36 1 0.0410946 0.708673 0.906556 0 0 -0.0174866
38 1 0.141694 0.667009 0.532035 0 0 -0.0126896
42 1 0.0918651 0.657225 0.303289 0 0 0.0549812
45 1 0.24409 0.958692 0.160621 0 0 -0.0108089
47 1 0.141694 0.000342321 0.532035 0 0 -0.0126896
48 1 0.0918654 0.990558 0.303289 0 0 0.0549793
1 1 0.948258 0.166954 0.0418558 0 0 -0.00192642
2 1 0.492133 0.0738703 0.0532744 0 0 0.0174828
3 1 0.441362 0.125318 0.656541 0 0 -0.054985
4 1 0.58497 0.948923 0.917974 0 0 0.00192642
5 1 0.289137 0.157184 0.799209 0 0 0.0108185
7 1 0.739644 0.250338 0.779012 0 0 0.0104961
8 1 0.841672 0.208712 0.407037 0 0 0.011713
9 1 0.991144 0.0321513 0.67718 0 0 -0.0563374
10 1 0.691555 0.240498 0.552793 0 0 -0.0117092
11 1 0.793583 0.198872 0.180818 0 0 -0.0104942
12 1 0.542084 0.0837249 0.28265 0 0 0.0563393
14 1 0.391534 0.115534 0.427795 0 0 0.0126896
15 1 0.948258 0.500287 0.0418558 0 0 -0.00192451
16 1 0.492133 0.407204 0.0532744 0 0 0.0174809
17 1 0.441362 0.458651 0.656541 0 0 -0.0549812
18 1 0.584969 0.282256 0.917974 0 0 0.00192642
19 1 0.289137 0.490518 0.799209 0 0 0.0108147
21 1 0.739644 0.583671 0.779012 0 0 0.0104904
23 1 0.841673 0.542045 0.407037 0 0 0.0117149
24 1 0.991144 0.365485 0.67718 0 0 -0.0563393
25 1 0.691555 0.573831 0.552793 0 0 -0.0117111
27 1 0.793583 0.532205 0.180818 0 0 -0.0104961
28 1 0.542084 0.417058 0.28265 0 0 0.0563354
30 1 0.391533 0.448868 0.427795 0 0 0.0126934
31 1 0.948258 0.833621 0.0418558 0 0 -0.00192451
32 1 0.492133 0.740537 0.0532745 0 0 0.0174828
33 1 0.441362 0.791985 0.656541 0 0 -0.0549831
34 1 0.584969 0.615589 0.917974 0 0 0.00192642
35 1 0.289137 0.823851 0.799209 0 0 0.0108204
37 1 0.739644 0.917005 0.779012 0 0 0.0104904
39 1 0.841672 0.875379 0.407037 0 0 0.0117149
40 1 0.991144 0.698818 0.67718 0 0 -0.0563297
41 1 0.691555 0.907164 0.552793 0 0 -0.0117188
43 1 0.793584 0.865538 0.180818 0 0 -0.0105
44 1 0.542084 0.750392 0.28265 0 0 0.0563354
46 1 0.391533 0.782201 0.427795 0 0 0.0126915
ITEM: TIMESTEP
4
ITEM: NUMBER OF ATOMS
48
ITEM: BOX BOUNDS xy xz yz pp pp pp
-3.8986029624938965e+00 8.6067802309989929e+00 2.5094206929206848e+00
-9.4973444938659668e-03 9.3236122131347656e+00 -3.8865658640861511e+00
-2.8691649436950684e-02 1.9545819282531738e+01 7.1304261684417725e-02
ITEM: ATOMS id type xs ys zs fx fy fz
6 1 0.0410538 0.0420066 0.906492 0 0 -0.0235271
13 1 0.244495 0.292021 0.161254 0 0 0.00202179
20 1 0.0410539 0.37534 0.906492 0 0 -0.0235252
22 1 0.141462 0.333678 0.531672 0 0 -0.0288258
26 1 0.0929725 0.323878 0.305021 0 0 -0.00658226
29 1 0.244495 0.625354 0.161254 0 0 0.00201225
36 1 0.0410538 0.708673 0.906492 0 0 -0.0235233
38 1 0.141462 0.667012 0.531673 0 0 -0.0288258
42 1 0.0929724 0.657211 0.305021 0 0 -0.00658417
45 1 0.244495 0.958687 0.161254 0 0 0.00201035
47 1 0.141462 0.000345115 0.531672 0 0 -0.0288296
48 1 0.0929726 0.990545 0.305021 0 0 -0.00658607
1 1 0.948355 0.166953 0.0420071 0 0 0.00324821
2 1 0.492173 0.0738699 0.0533382 0 0 0.0235214
3 1 0.440255 0.125331 0.654809 0 0 0.00658226
4 1 0.584873 0.948924 0.917823 0 0 -0.00324821
5 1 0.288733 0.157189 0.798576 0 0 -0.00201416
7 1 0.739354 0.250342 0.778559 0 0 -0.00914955
8 1 0.841887 0.20871 0.407372 0 0 0.0270805
9 1 0.989993 0.0321651 0.675379 0 0 0.00871277
10 1 0.691341 0.2405 0.552458 0 0 -0.0270901
11 1 0.793873 0.198868 0.181271 0 0 0.00914764
12 1 0.543235 0.083711 0.284451 0 0 -0.00871277
14 1 0.391766 0.115531 0.428158 0 0 0.0288258
15 1 0.948355 0.500286 0.042007 0 0 0.00324631
16 1 0.492173 0.407203 0.0533381 0 0 0.0235291
17 1 0.440255 0.458665 0.654809 0 0 0.00658417
18 1 0.584873 0.282257 0.917823 0 0 -0.00325012
19 1 0.288733 0.490523 0.798576 0 0 -0.00201416
21 1 0.739354 0.583675 0.778559 0 0 -0.00914001
23 1 0.841887 0.542043 0.407372 0 0 0.0270824
24 1 0.989993 0.365498 0.675379 0 0 0.00871658
25 1 0.691341 0.573833 0.552458 0 0 -0.0270863
27 1 0.793873 0.532201 0.181271 0 0 0.00914764
28 1 0.543235 0.417044 0.284451 0 0 -0.00870514
30 1 0.391765 0.448865 0.428158 0 0 0.0288239
31 1 0.948355 0.833619 0.0420071 0 0 0.00325203
32 1 0.492173 0.740537 0.0533382 0 0 0.0235233
33 1 0.440255 0.791998 0.654809 0 0 0.00658035
34 1 0.584873 0.615591 0.917823 0 0 -0.00325012
35 1 0.288733 0.823856 0.798576 0 0 -0.00201988
37 1 0.739354 0.917008 0.778559 0 0 -0.0091362
39 1 0.841887 0.875376 0.407372 0 0 0.0270824
40 1 0.989992 0.698832 0.675379 0 0 0.00870323
41 1 0.691341 0.907167 0.552458 0 0 -0.0270786
43 1 0.793873 0.865535 0.181271 0 0 0.00915718
44 1 0.543235 0.750378 0.284451 0 0 -0.00871849
46 1 0.391765 0.782198 0.428158 0 0 0.0288315
ITEM: TIMESTEP
5
ITEM: NUMBER OF ATOMS
48
ITEM: BOX BOUNDS xy xz yz pp pp pp
-3.8986029624938965e+00 8.6067802309989929e+00 2.5094206929206848e+00
-9.4973444938659668e-03 9.3236122131347656e+00 -3.8865658640861511e+00
-2.8691649436950684e-02 1.9545819282531738e+01 7.1304261684417725e-02
ITEM: ATOMS id type xs ys zs fx fy fz
6 1 0.0407954 0.0420098 0.906088 0 0 -0.00841522
13 1 0.244592 0.29202 0.161405 0 0 0.00364876
20 1 0.0407956 0.375343 0.906088 0 0 -0.00841141
22 1 0.141112 0.333683 0.531124 0 0 0.00307083
26 1 0.0931082 0.323876 0.305233 0 0 0.000543594
29 1 0.244592 0.625353 0.161405 0 0 0.00364876
36 1 0.0407955 0.708676 0.906088 0 0 -0.00840759
38 1 0.141112 0.667016 0.531124 0 0 0.00305939
42 1 0.0931081 0.65721 0.305233 0 0 0.000545502
45 1 0.244592 0.958686 0.161405 0 0 0.00365067
47 1 0.141111 0.000349335 0.531124 0 0 0.00306702
48 1 0.0931083 0.990543 0.305233 0 0 0.000547409
1 1 0.948407 0.166952 0.0420894 0 0 -0.00716972
2 1 0.492432 0.0738667 0.0537422 0 0 0.00841331
3 1 0.440119 0.125333 0.654597 0 0 -0.000537872
4 1 0.58482 0.948924 0.917741 0 0 0.00716591
5 1 0.288636 0.15719 0.798425 0 0 -0.00365829
7 1 0.739203 0.250343 0.778322 0 0 -0.00819397
8 1 0.842215 0.208706 0.407886 0 0 -0.00425148
9 1 0.989871 0.0321666 0.67519 0 0 0.00119781
10 1 0.691013 0.240504 0.551944 0 0 0.00425339
11 1 0.794025 0.198866 0.181508 0 0 0.00819206
12 1 0.543356 0.0837096 0.284641 0 0 -0.00119209
14 1 0.392116 0.115527 0.428706 0 0 -0.00306129
15 1 0.948407 0.500285 0.0420893 0 0 -0.00716591
16 1 0.492432 0.4072 0.0537422 0 0 0.0084095
17 1 0.44012 0.458666 0.654597 0 0 -0.000541687
18 1 0.58482 0.282258 0.917741 0 0 0.00717354
19 1 0.288636 0.490524 0.798425 0 0 -0.00366211
21 1 0.739203 0.583677 0.778322 0 0 -0.00819206
23 1 0.842215 0.542039 0.407886 0 0 -0.00425148
24 1 0.989872 0.3655 0.67519 0 0 0.001194
25 1 0.691013 0.573837 0.551944 0 0 0.00425529
27 1 0.794025 0.5322 0.181508 0 0 0.00819016
28 1 0.543356 0.417043 0.284641 0 0 -0.001194
30 1 0.392116 0.44886 0.428706 0 0 -0.00306892
31 1 0.948407 0.833619 0.0420894 0 0 -0.00716591
32 1 0.492432 0.740533 0.0537422 0 0 0.00840759
33 1 0.440119 0.792 0.654597 0 0 -0.000541687
34 1 0.58482 0.615591 0.917741 0 0 0.00716972
35 1 0.288636 0.823857 0.798425 0 0 -0.00365448
37 1 0.739203 0.91701 0.778322 0 0 -0.00819778
39 1 0.842215 0.875372 0.407886 0 0 -0.00425529
40 1 0.989871 0.698833 0.67519 0 0 0.00119591
41 1 0.691012 0.907171 0.551944 0 0 0.00425339
43 1 0.794025 0.865533 0.181508 0 0 0.00819016
44 1 0.543356 0.750376 0.28464 0 0 -0.00118446
46 1 0.392116 0.782194 0.428706 0 0 -0.00306892
ITEM: TIMESTEP
6
ITEM: NUMBER OF ATOMS
48
ITEM: BOX BOUNDS xy xz yz pp pp pp
-3.8986029624938965e+00 8.6067802309989929e+00 2.5094206929206848e+00
-9.4973444938659668e-03 9.3236122131347656e+00 -3.8865658640861511e+00
-2.8691649436950684e-02 1.9545819282531738e+01 7.1304261684417725e-02
ITEM: ATOMS id type xs ys zs fx fy fz
6 1 0.040644 0.0420116 0.905851 0 0 -0.00527573
13 1 0.244656 0.292019 0.161506 0 0 -0.00232315
20 1 0.0406442 0.375345 0.905851 0 0 -0.00527954
22 1 0.141122 0.333682 0.53114 0 0 0.00104904
26 1 0.0931302 0.323876 0.305268 0 0 0.00230598
29 1 0.244656 0.625352 0.161506 0 0 -0.00231552
36 1 0.0406441 0.708678 0.905851 0 0 -0.00527191
38 1 0.141121 0.667016 0.531139 0 0 0.00105095
42 1 0.0931301 0.65721 0.305268 0 0 0.00230408
45 1 0.244656 0.958685 0.161506 0 0 -0.00232124
47 1 0.141121 0.000349219 0.531139 0 0 0.00105286
48 1 0.0931303 0.990543 0.305268 0 0 0.00230598
1 1 0.948306 0.166953 0.0419312 0 0 0.00599098
2 1 0.492583 0.0738649 0.0539791 0 0 0.00527763
3 1 0.440098 0.125333 0.654562 0 0 -0.00230789
4 1 0.584921 0.948923 0.917899 0 0 -0.00598335
5 1 0.288572 0.157191 0.798324 0 0 0.00232697
7 1 0.739066 0.250345 0.778107 0 0 0.00113678
8 1 0.842186 0.208706 0.40784 0 0 -0.00131989
9 1 0.989877 0.0321665 0.675198 0 0 -0.00161934
10 1 0.691042 0.240504 0.55199 0 0 0.00132561
11 1 0.794162 0.198865 0.181723 0 0 -0.00113106
12 1 0.543351 0.0837096 0.284632 0 0 0.00161171
14 1 0.392106 0.115527 0.428691 0 0 -0.00105476
15 1 0.948306 0.500287 0.0419312 0 0 0.00598526
16 1 0.492583 0.407198 0.053979 0 0 0.00528336
17 1 0.440098 0.458667 0.654563 0 0 -0.0023098
18 1 0.584921 0.282257 0.917899 0 0 -0.00600433
19 1 0.288571 0.490524 0.798324 0 0 0.00232887
21 1 0.739066 0.583678 0.778107 0 0 0.00113487
23 1 0.842186 0.542039 0.40784 0 0 -0.00132561
24 1 0.989877 0.3655 0.675198 0 0 -0.00161934
25 1 0.691042 0.573837 0.55199 0 0 0.00132751
27 1 0.794162 0.532198 0.181723 0 0 -0.00112152
28 1 0.543351 0.417043 0.284632 0 0 0.00161362
30 1 0.392106 0.448861 0.428691 0 0 -0.00105286
31 1 0.948306 0.83362 0.0419313 0 0 0.00598145
32 1 0.492583 0.740532 0.053979 0 0 0.00527573
33 1 0.440097 0.792 0.654562 0 0 -0.00231171
34 1 0.584921 0.61559 0.917899 0 0 -0.00599098
35 1 0.288572 0.823858 0.798325 0 0 0.00232506
37 1 0.739066 0.917012 0.778107 0 0 0.00113106
39 1 0.842186 0.875373 0.40784 0 0 -0.0013237
40 1 0.989876 0.698833 0.675198 0 0 -0.00161934
41 1 0.691042 0.90717 0.55199 0 0 0.00133133
43 1 0.794162 0.865531 0.181723 0 0 -0.00112724
44 1 0.543351 0.750376 0.284632 0 0 0.00160599
46 1 0.392106 0.782194 0.428691 0 0 -0.00105286
ITEM: TIMESTEP
7
ITEM: NUMBER OF ATOMS
48
ITEM: BOX BOUNDS xy xz yz pp pp pp
-3.8986029624938965e+00 8.6067802309989929e+00 2.5094206929206848e+00
-9.4973444938659668e-03 9.3236122131347656e+00 -3.8865658640861511e+00
-2.8691649436950684e-02 1.9545819282531738e+01 7.1304261684417725e-02
ITEM: ATOMS id type xs ys zs fx fy fz
6 1 0.0405715 0.0420125 0.905738 0 0 7.43866e-05
13 1 0.244651 0.292019 0.161498 0 0 0.000284195
20 1 0.0405717 0.375346 0.905738 0 0 7.05719e-05
22 1 0.141132 0.333682 0.531156 0 0 -0.000835419
26 1 0.0931529 0.323876 0.305303 0 0 0.000627518
29 1 0.244651 0.625352 0.161498 0 0 0.000284195
36 1 0.0405717 0.708679 0.905738 0 0 6.67572e-05
38 1 0.141132 0.667016 0.531155 0 0 -0.000833511
42 1 0.0931527 0.657209 0.305303 0 0 0.000621796
45 1 0.244651 0.958685 0.161498 0 0 0.00028038
47 1 0.141131 0.000349095 0.531155 0 0 -0.000831604
48 1 0.093153 0.990543 0.305303 0 0 0.000621796
1 1 0.948333 0.166953 0.0419727 0 0 0.000183105
2 1 0.492656 0.0738641 0.0540924 0 0 -7.05719e-05
3 1 0.440075 0.125334 0.654527 0 0 -0.00063324
4 1 0.584895 0.948924 0.917858 0 0 -0.000188828
5 1 0.288577 0.157191 0.798333 0 0 -0.000278473
7 1 0.739047 0.250345 0.778078 0 0 6.29425e-05
8 1 0.842169 0.208706 0.407814 0 0 0.000831604
9 1 0.989865 0.0321667 0.67518 0 0 -0.00050354
10 1 0.691059 0.240504 0.552016 0 0 -0.000837326
11 1 0.794181 0.198864 0.181753 0 0 -6.10352e-05
12 1 0.543363 0.0837095 0.28465 0 0 0.000505447
14 1 0.392096 0.115527 0.428675 0 0 0.000844955
15 1 0.948333 0.500286 0.0419726 0 0 0.000183105
16 1 0.492656 0.407197 0.0540924 0 0 -7.62939e-05
17 1 0.440075 0.458667 0.654527 0 0 -0.000631332
18 1 0.584895 0.282257 0.917857 0 0 -0.000181198
19 1 0.288577 0.490524 0.798333 0 0 -0.000270844
21 1 0.739046 0.583679 0.778078 0 0 5.91278e-05
23 1 0.842169 0.542039 0.407814 0 0 0.000833511
24 1 0.989865 0.3655 0.67518 0 0 -0.000509262
25 1 0.691059 0.573837 0.552016 0 0 -0.000839233
27 1 0.794181 0.532198 0.181753 0 0 -6.29425e-05
28 1 0.543363 0.417043 0.28465 0 0 0.000509262
30 1 0.392096 0.448861 0.428675 0 0 0.000841141
31 1 0.948333 0.83362 0.0419727 0 0 0.000183105
32 1 0.492656 0.740531 0.0540923 0 0 -6.86646e-05
33 1 0.440075 0.792 0.654527 0 0 -0.000629425
34 1 0.584895 0.61559 0.917857 0 0 -0.000185013
35 1 0.288577 0.823858 0.798333 0 0 -0.000284195
37 1 0.739047 0.917012 0.778078 0 0 7.05719e-05
39 1 0.842169 0.875373 0.407814 0 0 0.000831604
40 1 0.989865 0.698833 0.67518 0 0 -0.000509262
41 1 0.691058 0.90717 0.552016 0 0 -0.000837326
43 1 0.794181 0.865531 0.181753 0 0 -5.91278e-05
44 1 0.543363 0.750376 0.28465 0 0 0.000505447
46 1 0.392096 0.782194 0.428675 0 0 0.000841141
ITEM: TIMESTEP
8
ITEM: NUMBER OF ATOMS
48
ITEM: BOX BOUNDS xy xz yz pp pp pp
-3.8986029624938965e+00 8.6067802309989929e+00 2.5094206929206848e+00
-9.4973444938659668e-03 9.3236122131347656e+00 -3.8865658640861511e+00
-2.8691649436950684e-02 1.9545819282531738e+01 7.1304261684417725e-02
ITEM: ATOMS id type xs ys zs fx fy fz
6 1 0.0405691 0.0420125 0.905734 0 0 0.000324249
13 1 0.244656 0.292019 0.161506 0 0 0.000453949
20 1 0.0405692 0.375346 0.905734 0 0 0.000322342
22 1 0.141116 0.333682 0.531131 0 0 0.000387192
26 1 0.0931662 0.323876 0.305324 0 0 0.000297546
29 1 0.244656 0.625352 0.161506 0 0 0.000450134
36 1 0.0405692 0.708679 0.905734 0 0 0.000324249
38 1 0.141116 0.667016 0.531131 0 0 0.000391006
42 1 0.0931659 0.657209 0.305324 0 0 0.000299454
45 1 0.244656 0.958685 0.161506 0 0 0.000457764
47 1 0.141116 0.000349282 0.531131 0 0 0.000377655
48 1 0.0931662 0.990542 0.305324 0 0 0.000299454
1 1 0.948337 0.166953 0.0419804 0 0 -0.000419617
2 1 0.492658 0.073864 0.0540963 0 0 -0.00031662
3 1 0.440061 0.125334 0.654506 0 0 -0.000278473
4 1 0.58489 0.948924 0.91785 0 0 0.000425339
5 1 0.288572 0.157191 0.798325 0 0 -0.000463486
7 1 0.739047 0.250345 0.778078 0 0 -0.000518799
8 1 0.842184 0.208706 0.407838 0 0 -0.000431061
9 1 0.989855 0.0321668 0.675164 0 0 -0.000415802
10 1 0.691043 0.240504 0.551992 0 0 0.000431061
11 1 0.794181 0.198864 0.181752 0 0 0.000507355
12 1 0.543373 0.0837094 0.284667 0 0 0.000415802
14 1 0.392112 0.115527 0.428699 0 0 -0.000402451
15 1 0.948338 0.500286 0.0419803 0 0 -0.000408173
16 1 0.492658 0.407197 0.0540961 0 0 -0.000307083
17 1 0.440062 0.458667 0.654506 0 0 -0.000286102
18 1 0.58489 0.282257 0.91785 0 0 0.000411987
19 1 0.288572 0.490524 0.798325 0 0 -0.000469208
21 1 0.739047 0.583679 0.778078 0 0 -0.000518799
23 1 0.842185 0.542039 0.407838 0 0 -0.000431061
24 1 0.989855 0.3655 0.675163 0 0 -0.000406265
25 1 0.691043 0.573837 0.551992 0 0 0.000432968
27 1 0.794181 0.532198 0.181752 0 0 0.000513077
28 1 0.543373 0.417043 0.284667 0 0 0.000408173
30 1 0.392111 0.448861 0.428699 0 0 -0.000392914
31 1 0.948338 0.83362 0.0419804 0 0 -0.000417709
32 1 0.492658 0.740531 0.0540962 0 0 -0.00031662
33 1 0.440061 0.792 0.654506 0 0 -0.00028801
34 1 0.58489 0.61559 0.91785 0 0 0.000419617
35 1 0.288572 0.823858 0.798325 0 0 -0.000455856
37 1 0.739047 0.917012 0.778078 0 0 -0.00053215
39 1 0.842184 0.875373 0.407838 0 0 -0.000427246
40 1 0.989854 0.698834 0.675163 0 0 -0.00041008
41 1 0.691043 0.90717 0.551992 0 0 0.000432968
43 1 0.794181 0.865531 0.181752 0 0 0.000513077
44 1 0.543373 0.750376 0.284667 0 0 0.000408173
46 1 0.392112 0.782194 0.428699 0 0 -0.000391006
ITEM: TIMESTEP
9
ITEM: NUMBER OF ATOMS
48
ITEM: BOX BOUNDS xy xz yz pp pp pp
-3.8986029624938965e+00 8.6067802309989929e+00 2.5094206929206848e+00
-9.4973444938659668e-03 9.3236122131347656e+00 -3.8865658640861511e+00
-2.8691649436950684e-02 1.9545819282531738e+01 7.1304261684417725e-02
ITEM: ATOMS id type xs ys zs fx fy fz
6 1 0.0405717 0.0420125 0.905738 0 0 -0.000143051
13 1 0.244663 0.292019 0.161517 0 0 9.34601e-05
20 1 0.0405717 0.375346 0.905738 0 0 -0.000137329
22 1 0.141114 0.333683 0.531128 0 0 0.000284195
26 1 0.093175 0.323876 0.305338 0 0 -4.95911e-05
29 1 0.244663 0.625352 0.161517 0 0 9.91821e-05
36 1 0.0405717 0.708679 0.905738 0 0 -0.000137329
38 1 0.141114 0.667016 0.531128 0 0 0.000289917
42 1 0.0931747 0.657209 0.305338 0 0 -4.3869e-05
45 1 0.244663 0.958685 0.161517 0 0 9.91821e-05
47 1 0.141114 0.000349311 0.531127 0 0 0.000291824
48 1 0.093175 0.990542 0.305338 0 0 -4.19617e-05
1 1 0.948335 0.166953 0.0419764 0 0 0.000337601
2 1 0.492656 0.0738641 0.0540925 0 0 0.000133514
3 1 0.440053 0.125334 0.654493 0 0 4.95911e-05
4 1 0.584892 0.948924 0.917854 0 0 -0.000331879
5 1 0.288564 0.157191 0.798313 0 0 -9.15527e-05
7 1 0.739041 0.250345 0.778069 0 0 -0.000293732
8 1 0.842186 0.208706 0.407841 0 0 -0.000318527
9 1 0.989846 0.0321669 0.67515 0 0 -5.72205e-05
10 1 0.691042 0.240504 0.55199 0 0 0.000320435
11 1 0.794186 0.198864 0.181761 0 0 0.000297546
12 1 0.543382 0.0837093 0.284681 0 0 4.76837e-05
14 1 0.392114 0.115527 0.428703 0 0 -0.000299454
15 1 0.948335 0.500286 0.0419765 0 0 0.000322342
16 1 0.492656 0.407197 0.0540924 0 0 0.000143051
17 1 0.440053 0.458667 0.654492 0 0 5.34058e-05
18 1 0.584892 0.282257 0.917854 0 0 -0.000331879
19 1 0.288564 0.490525 0.798313 0 0 -0.000108719
21 1 0.739041 0.583679 0.778069 0 0 -0.00028801
23 1 0.842186 0.542039 0.407841 0 0 -0.000318527
24 1 0.989846 0.3655 0.67515 0 0 -4.57764e-05
25 1 0.691042 0.573837 0.551989 0 0 0.000320435
27 1 0.794186 0.532198 0.181761 0 0 0.000303268
28 1 0.543382 0.417043 0.284681 0 0 4.19617e-05
30 1 0.392114 0.448861 0.428703 0 0 -0.000297546
31 1 0.948335 0.83362 0.0419765 0 0 0.000328064
32 1 0.492656 0.740531 0.0540924 0 0 0.000137329
33 1 0.440053 0.792001 0.654492 0 0 4.95911e-05
34 1 0.584892 0.61559 0.917854 0 0 -0.000329971
35 1 0.288564 0.823858 0.798313 0 0 -9.15527e-05
37 1 0.739041 0.917012 0.778069 0 0 -0.000295639
39 1 0.842186 0.875373 0.40784 0 0 -0.000312805
40 1 0.989845 0.698834 0.67515 0 0 -4.3869e-05
41 1 0.691041 0.90717 0.55199 0 0 0.000322342
43 1 0.794187 0.865531 0.181761 0 0 0.000291824
44 1 0.543382 0.750376 0.28468 0 0 4.95911e-05
46 1 0.392114 0.782194 0.428703 0 0 -0.000297546
ITEM: TIMESTEP
10
ITEM: NUMBER OF ATOMS
48
ITEM: BOX BOUNDS xy xz yz pp pp pp
-3.8986029624938965e+00 8.6067802309989929e+00 2.5094206929206848e+00
-9.4973444938659668e-03 9.3236122131347656e+00 -3.8865658640861511e+00
-2.8691649436950684e-02 1.9545819282531738e+01 7.1304261684417725e-02
ITEM: ATOMS id type xs ys zs fx fy fz
6 1 0.0405704 0.0420125 0.905736 0 0 -4.3869e-05
13 1 0.244665 0.292019 0.16152 0 0 9.53674e-05
20 1 0.0405705 0.375346 0.905736 0 0 -3.8147e-05
22 1 0.141117 0.333682 0.531132 0 0 -6.10352e-05
26 1 0.0931754 0.323876 0.305338 0 0 -8.2016e-05
29 1 0.244665 0.625352 0.16152 0 0 9.53674e-05
36 1 0.0405705 0.708679 0.905736 0 0 -4.76837e-05
38 1 0.141117 0.667016 0.531132 0 0 -6.48499e-05
42 1 0.0931752 0.657209 0.305338 0 0 -8.2016e-05
45 1 0.244665 0.958685 0.16152 0 0 9.15527e-05
47 1 0.141116 0.000349276 0.531132 0 0 -6.29425e-05
48 1 0.0931755 0.990542 0.305338 0 0 -8.2016e-05
1 1 0.948338 0.166953 0.0419817 0 0 -3.62396e-05
2 1 0.492657 0.073864 0.0540943 0 0 4.00543e-05
3 1 0.440052 0.125334 0.654492 0 0 7.24792e-05
4 1 0.584889 0.948924 0.917849 0 0 3.43323e-05
5 1 0.288563 0.157191 0.798311 0 0 -9.53674e-05
7 1 0.739037 0.250345 0.778063 0 0 -0.00012207
8 1 0.842183 0.208706 0.407836 0 0 7.05719e-05
9 1 0.989844 0.0321669 0.675147 0 0 7.24792e-05
10 1 0.691045 0.240504 0.551995 0 0 -6.86646e-05
11 1 0.79419 0.198864 0.181767 0 0 0.000133514
12 1 0.543384 0.0837092 0.284683 0 0 -6.67572e-05
14 1 0.392111 0.115527 0.428698 0 0 6.10352e-05
15 1 0.948338 0.500286 0.0419815 0 0 -2.86102e-05
16 1 0.492657 0.407197 0.0540944 0 0 3.43323e-05
17 1 0.440052 0.458667 0.654492 0 0 7.62939e-05
18 1 0.584889 0.282257 0.917848 0 0 4.00543e-05
19 1 0.288563 0.490525 0.79831 0 0 -8.7738e-05
21 1 0.739037 0.583679 0.778063 0 0 -0.00012207
23 1 0.842183 0.542039 0.407835 0 0 7.24792e-05
24 1 0.989844 0.3655 0.675147 0 0 6.29425e-05
25 1 0.691045 0.573837 0.551995 0 0 -6.48499e-05
27 1 0.79419 0.532198 0.181767 0 0 0.000116348
28 1 0.543383 0.417043 0.284683 0 0 -6.86646e-05
30 1 0.392111 0.448861 0.428698 0 0 6.10352e-05
31 1 0.948338 0.83362 0.0419816 0 0 -2.86102e-05
32 1 0.492657 0.740531 0.0540943 0 0 4.19617e-05
33 1 0.440052 0.792001 0.654492 0 0 7.62939e-05
34 1 0.584889 0.61559 0.917849 0 0 3.24249e-05
35 1 0.288563 0.823858 0.798311 0 0 -9.53674e-05
37 1 0.739037 0.917012 0.778063 0 0 -0.000120163
39 1 0.842183 0.875373 0.407836 0 0 6.86646e-05
40 1 0.989844 0.698834 0.675147 0 0 7.24792e-05
41 1 0.691045 0.90717 0.551995 0 0 -6.67572e-05
43 1 0.79419 0.865531 0.181767 0 0 0.000118256
44 1 0.543383 0.750376 0.284683 0 0 -6.67572e-05
46 1 0.392111 0.782194 0.428698 0 0 6.29425e-05
ITEM: TIMESTEP
11
ITEM: NUMBER OF ATOMS
48
ITEM: BOX BOUNDS xy xz yz pp pp pp
-3.8986029624938965e+00 8.6067802309989929e+00 2.5094206929206848e+00
-9.4973444938659668e-03 9.3236122131347656e+00 -3.8865658640861511e+00
-2.8691649436950684e-02 1.9545819282531738e+01 7.1304261684417725e-02
ITEM: ATOMS id type xs ys zs fx fy fz
6 1 0.0405704 0.0420125 0.905736 0 0 -4.3869e-05
13 1 0.244665 0.292019 0.16152 0 0 9.53674e-05
20 1 0.0405705 0.375346 0.905736 0 0 -3.8147e-05
22 1 0.141117 0.333682 0.531132 0 0 -6.10352e-05
26 1 0.0931754 0.323876 0.305338 0 0 -8.2016e-05
29 1 0.244665 0.625352 0.16152 0 0 9.53674e-05
36 1 0.0405705 0.708679 0.905736 0 0 -4.76837e-05
38 1 0.141117 0.667016 0.531132 0 0 -6.48499e-05
42 1 0.0931752 0.657209 0.305338 0 0 -8.2016e-05
45 1 0.244665 0.958685 0.16152 0 0 9.15527e-05
47 1 0.141116 0.000349276 0.531132 0 0 -6.29425e-05
48 1 0.0931755 0.990542 0.305338 0 0 -8.2016e-05
1 1 0.948338 0.166953 0.0419817 0 0 -3.62396e-05
2 1 0.492657 0.073864 0.0540943 0 0 4.00543e-05
3 1 0.440052 0.125334 0.654492 0 0 7.24792e-05
4 1 0.584889 0.948924 0.917849 0 0 3.43323e-05
5 1 0.288563 0.157191 0.798311 0 0 -9.53674e-05
7 1 0.739037 0.250345 0.778063 0 0 -0.00012207
8 1 0.842183 0.208706 0.407836 0 0 7.05719e-05
9 1 0.989844 0.0321669 0.675147 0 0 7.24792e-05
10 1 0.691045 0.240504 0.551995 0 0 -6.86646e-05