ITEM: TIMESTEP
0
ITEM: NUMBER OF ATOMS
48
ITEM: BOX BOUNDS xy xz yz pp pp pp
-1.9169611334800720e+00 8.6067802309989929e+00 2.5094206929206848e+00
-9.4973444938659668e-03 9.3236122131347656e+00 -1.9049240350723267e+00
-2.8691649436950684e-02 1.9545819282531738e+01 7.1304261684417725e-02
ITEM: ATOMS id type xs ys zs fx fy fz
1 1 0.931584 0.16703 0.0320218 0 0 0.0955372
2 1 0.474706 0.0738739 0.0528103 0 0 0.167305
3 1 0.228559 0.125314 0.657023 0 0 0.00022316
4 1 0.290313 0.948847 0.927808 0 0 -0.0955353
5 1 0.0310385 0.157156 0.802805 0 0 0.00208664
6 1 0.747191 0.0420026 0.90702 0 0 -0.167299
7 1 0.487911 0.250315 0.78202 0 0 -0.00191307
8 1 0.709643 0.208712 0.407029 0 0 0.000545502
9 1 0.77169 0.0321465 0.677802 0 0 0.00056076
10 1 0.512254 0.240498 0.552801 0 0 -0.000537872
11 1 0.733986 0.198895 0.17781 0 0 0.00190735
12 1 0.450208 0.0837297 0.282028 0 0 -0.000558853
13 1 0.190859 0.292053 0.157025 0 0 -0.00208855
14 1 0.252777 0.115534 0.427803 0 0 -0.000268936
15 1 0.931584 0.500363 0.0320219 0 0 0.0955353
16 1 0.474706 0.407207 0.0528103 0 0 0.167309
17 1 0.228559 0.458648 0.657023 0 0 0.000225067
18 1 0.290313 0.28218 0.927808 0 0 -0.0955391
19 1 0.0310384 0.49049 0.802805 0 0 0.00208855
20 1 0.747191 0.375336 0.90702 0 0 -0.167297
21 1 0.487911 0.583648 0.78202 0 0 -0.00191879
22 1 0.969121 0.333676 0.532027 0 0 0.000265121
23 1 0.709644 0.542046 0.407029 0 0 0.000541687
24 1 0.77169 0.36548 0.677802 0 0 0.000562668
25 1 0.512254 0.573831 0.552801 0 0 -0.000541687
26 1 0.993339 0.323895 0.302807 0 0 -0.00022316
27 1 0.733986 0.532228 0.17781 0 0 0.00191689
28 1 0.450208 0.417063 0.282028 0 0 -0.000555038
29 1 0.190859 0.625387 0.157025 0 0 -0.00209045
30 1 0.252777 0.448867 0.427803 0 0 -0.000268936
31 1 0.931584 0.833696 0.0320219 0 0 0.0955334
32 1 0.474706 0.740541 0.0528104 0 0 0.167303
33 1 0.228559 0.791981 0.657023 0 0 0.00022316
34 1 0.290313 0.615514 0.927808 0 0 -0.095541
35 1 0.0310385 0.823823 0.802805 0 0 0.00209236
36 1 0.747191 0.708669 0.90702 0 0 -0.167299
37 1 0.487911 0.916981 0.78202 0 0 -0.00191689
38 1 0.969121 0.667009 0.532027 0 0 0.000263214
39 1 0.709643 0.875379 0.407029 0 0 0.00053978
40 1 0.77169 0.698813 0.677802 0 0 0.000555038
41 1 0.512254 0.907164 0.552801 0 0 -0.000535965
42 1 0.993339 0.657228 0.302807 0 0 -0.00022316
43 1 0.733986 0.865562 0.17781 0 0 0.00191116
44 1 0.450208 0.750396 0.282028 0 0 -0.000558853
45 1 0.190859 0.95872 0.157026 0 0 -0.00209808
46 1 0.252777 0.782201 0.427803 0 0 -0.000263214
47 1 0.969121 0.000342385 0.532027 0 0 0.000263214
48 1 0.993339 0.990562 0.302807 0 0 -0.000221252
ITEM: TIMESTEP
1
ITEM: NUMBER OF ATOMS
48
ITEM: BOX BOUNDS xy xz yz pp pp pp
-1.9169611334800720e+00 8.6067802309989929e+00 2.5094206929206848e+00
-9.4973444938659668e-03 9.3236122131347656e+00 -1.9049240350723267e+00
-2.8691649436950684e-02 1.9545819282531738e+01 7.1304261684417725e-02
ITEM: ATOMS id type xs ys zs fx fy fz
1 1 0.931985 0.16702 0.0332961 0 0 -0.034935
2 1 0.475409 0.0738567 0.0550418 0 0 0.00859451
3 1 0.22856 0.125314 0.657026 0 0 -0.00232315
4 1 0.289912 0.948857 0.926534 0 0 0.034935
5 1 0.0310473 0.157156 0.802833 0 0 -0.0353432
6 1 0.746488 0.0420198 0.904788 0 0 -0.00859833
7 1 0.487903 0.250315 0.781995 0 0 -0.0417957
8 1 0.709646 0.208712 0.407036 0 0 -0.000997543
9 1 0.771692 0.0321464 0.677809 0 0 -0.00056076
10 1 0.512252 0.240498 0.552794 0 0 0.000999451
11 1 0.733994 0.198895 0.177835 0 0 0.0418015
12 1 0.450205 0.0837297 0.282021 0 0 0.000564575
13 1 0.19085 0.292053 0.156998 0 0 0.0353413
14 1 0.252776 0.115534 0.4278 0 0 -0.000905991
15 1 0.931986 0.500353 0.0332962 0 0 -0.0349388
16 1 0.475409 0.40719 0.0550419 0 0 0.00858688
17 1 0.22856 0.458648 0.657026 0 0 -0.00231361
18 1 0.289911 0.28219 0.926534 0 0 0.0349369
19 1 0.0310472 0.49049 0.802833 0 0 -0.0353432
20 1 0.746488 0.375353 0.904788 0 0 -0.0085907
21 1 0.487903 0.583648 0.781995 0 0 -0.0417995
22 1 0.969122 0.333676 0.532031 0 0 0.000905991
23 1 0.709646 0.542045 0.407037 0 0 -0.000999451
24 1 0.771692 0.36548 0.677809 0 0 -0.000562668
25 1 0.512252 0.573831 0.552794 0 0 0.00100136
26 1 0.993338 0.323895 0.302804 0 0 0.00232124
27 1 0.733994 0.532228 0.177836 0 0 0.0417957
28 1 0.450205 0.417063 0.282021 0 0 0.000562668
29 1 0.19085 0.625387 0.156998 0 0 0.035347
30 1 0.252775 0.448867 0.4278 0 0 -0.000905991
31 1 0.931986 0.833686 0.0332962 0 0 -0.0349407
32 1 0.475409 0.740523 0.0550419 0 0 0.00858879
33 1 0.22856 0.791981 0.657026 0 0 -0.00231743
34 1 0.289911 0.615523 0.926534 0 0 0.0349388
35 1 0.0310473 0.823823 0.802833 0 0 -0.0353413
36 1 0.746488 0.708686 0.904788 0 0 -0.00859261
37 1 0.487903 0.916982 0.781995 0 0 -0.0417957
38 1 0.969122 0.667009 0.532031 0 0 0.000905991
39 1 0.709646 0.875379 0.407037 0 0 -0.000999451
40 1 0.771692 0.698813 0.677809 0 0 -0.00056076
41 1 0.512251 0.907164 0.552794 0 0 0.000999451
42 1 0.993338 0.657228 0.302804 0 0 0.00232506
43 1 0.733994 0.865561 0.177836 0 0 0.0417919
44 1 0.450205 0.750396 0.282021 0 0 0.000558853
45 1 0.19085 0.95872 0.156998 0 0 0.0353432
46 1 0.252776 0.782201 0.4278 0 0 -0.000907898
47 1 0.969122 0.000342358 0.532031 0 0 0.000905991
48 1 0.993338 0.990562 0.302804 0 0 0.00231743
ITEM: TIMESTEP
2
ITEM: NUMBER OF ATOMS
48
ITEM: BOX BOUNDS xy xz yz pp pp pp
-1.9169611334800720e+00 8.6067802309989929e+00 2.5094206929206848e+00
-9.4973444938659668e-03 9.3236122131347656e+00 -1.9049240350723267e+00
-2.8691649436950684e-02 1.9545819282531738e+01 7.1304261684417725e-02
ITEM: ATOMS id type xs ys zs fx fy fz
1 1 0.931834 0.167023 0.0328166 0 0 -0.00993919
2 1 0.475699 0.0738496 0.0559632 0 0 -0.00646591
3 1 0.228542 0.125315 0.656968 0 0 -0.0208626
4 1 0.290063 0.948853 0.927014 0 0 0.00993919
5 1 0.0307691 0.157163 0.801949 0 0 0.00291443
6 1 0.746198 0.0420269 0.903867 0 0 0.0064621
7 1 0.487568 0.250323 0.780932 0 0 -0.000680923
8 1 0.709638 0.208712 0.407014 0 0 0.00160027
9 1 0.771688 0.0321465 0.677798 0 0 -0.0187931
10 1 0.512259 0.240497 0.552817 0 0 -0.00160789
11 1 0.734329 0.198886 0.178899 0 0 0.000682831
12 1 0.450209 0.0837296 0.282033 0 0 0.0187931
13 1 0.191128 0.292047 0.157881 0 0 -0.00291252
14 1 0.252768 0.115534 0.427776 0 0 0.00280952
15 1 0.931835 0.500357 0.0328166 0 0 -0.00992203
16 1 0.4757 0.407183 0.0559631 0 0 -0.00645638
17 1 0.228542 0.458648 0.656968 0 0 -0.020874
18 1 0.290063 0.282186 0.927014 0 0 0.00993538
19 1 0.030769 0.490497 0.801949 0 0 0.00292015
20 1 0.746198 0.37536 0.903867 0 0 0.00645447
21 1 0.487568 0.583657 0.780931 0 0 -0.000673294
22 1 0.96913 0.333675 0.532055 0 0 -0.00280762
23 1 0.709639 0.542046 0.407014 0 0 0.00160599
24 1 0.771689 0.36548 0.677798 0 0 -0.0187969
25 1 0.512259 0.57383 0.552817 0 0 -0.00160408
26 1 0.993356 0.323895 0.302862 0 0 0.0208683
27 1 0.734329 0.53222 0.178899 0 0 0.000679016
28 1 0.450209 0.417063 0.282033 0 0 0.0187912
29 1 0.191128 0.62538 0.157881 0 0 -0.00292397
30 1 0.252768 0.448868 0.427776 0 0 0.00281334
31 1 0.931835 0.83369 0.0328165 0 0 -0.00992966
32 1 0.475699 0.740516 0.0559631 0 0 -0.0064621
33 1 0.228541 0.791981 0.656968 0 0 -0.0208702
34 1 0.290062 0.61552 0.927014 0 0 0.00992966
35 1 0.0307691 0.82383 0.801949 0 0 0.00291443
36 1 0.746198 0.708694 0.903867 0 0 0.00645065
37 1 0.487569 0.91699 0.780932 0 0 -0.000686646
38 1 0.969129 0.667009 0.532054 0 0 -0.00280762
39 1 0.709638 0.875379 0.407014 0 0 0.00160599
40 1 0.771688 0.698813 0.677797 0 0 -0.0187874
41 1 0.512259 0.907164 0.552817 0 0 -0.00160789
42 1 0.993356 0.657228 0.302862 0 0 0.0208549
43 1 0.734329 0.865553 0.178898 0 0 0.000692368
44 1 0.450209 0.750396 0.282033 0 0 0.0187931
45 1 0.191129 0.958713 0.157881 0 0 -0.00290871
46 1 0.252768 0.782201 0.427776 0 0 0.00280762
47 1 0.969129 0.000342174 0.532054 0 0 -0.00280571
48 1 0.993356 0.990561 0.302862 0 0 0.0208683
ITEM: TIMESTEP
3
ITEM: NUMBER OF ATOMS
48
ITEM: BOX BOUNDS xy xz yz pp pp pp
-1.9169611334800720e+00 8.6067802309989929e+00 2.5094206929206848e+00
-9.4973444938659668e-03 9.3236122131347656e+00 -1.9049240350723267e+00
-2.8691649436950684e-02 1.9545819282531738e+01 7.1304261684417725e-02
ITEM: ATOMS id type xs ys zs fx fy fz
1 1 0.931739 0.167026 0.0325132 0 0 0.00937653
2 1 0.475694 0.0738498 0.0559463 0 0 0.0044136
3 1 0.228385 0.125319 0.65647 0 0 -0.00223923
4 1 0.290158 0.948851 0.927317 0 0 -0.00938416
5 1 0.0307499 0.157164 0.801888 0 0 -0.000562668
6 1 0.746203 0.0420267 0.903884 0 0 -0.00440598
7 1 0.487514 0.250325 0.78076 0 0 -8.7738e-05
8 1 0.709649 0.208712 0.407048 0 0 0.00835419
9 1 0.771549 0.0321499 0.677355 0 0 -0.00208092
10 1 0.512248 0.240498 0.552782 0 0 -0.00834656
11 1 0.734383 0.198885 0.17907 0 0 8.96454e-05
12 1 0.450349 0.0837262 0.282476 0 0 0.00207138
13 1 0.191148 0.292046 0.157942 0 0 0.000566483
14 1 0.252788 0.115534 0.427838 0 0 0.00925255
15 1 0.931739 0.500359 0.0325135 0 0 0.00935936
16 1 0.475694 0.407183 0.0559464 0 0 0.00440598
17 1 0.228385 0.458652 0.65647 0 0 -0.00223351
18 1 0.290158 0.282184 0.927317 0 0 -0.00937271
19 1 0.0307498 0.490497 0.801889 0 0 -0.000574112
20 1 0.746203 0.37536 0.903884 0 0 -0.00440407
21 1 0.487514 0.583658 0.78076 0 0 -9.34601e-05
22 1 0.96911 0.333676 0.531992 0 0 -0.00925064
23 1 0.709649 0.542045 0.407048 0 0 0.00834656
24 1 0.771549 0.365483 0.677355 0 0 -0.00206947
25 1 0.512248 0.573831 0.552782 0 0 -0.00834846
26 1 0.993513 0.323891 0.30336 0 0 0.00223732
27 1 0.734383 0.532218 0.17907 0 0 9.34601e-05
28 1 0.450349 0.41706 0.282475 0 0 0.0020771
29 1 0.191148 0.62538 0.157942 0 0 0.000570297
30 1 0.252788 0.448867 0.427838 0 0 0.00923538
31 1 0.931739 0.833692 0.0325133 0 0 0.00936317
32 1 0.475694 0.740516 0.0559463 0 0 0.0044136
33 1 0.228384 0.791985 0.65647 0 0 -0.00223541
34 1 0.290158 0.615517 0.927317 0 0 -0.00937271
35 1 0.0307499 0.82383 0.801888 0 0 -0.000566483
36 1 0.746203 0.708693 0.903884 0 0 -0.00440025
37 1 0.487514 0.916991 0.78076 0 0 -8.2016e-05
38 1 0.96911 0.667009 0.531992 0 0 -0.00923729
39 1 0.709649 0.875379 0.407048 0 0 0.00834656
40 1 0.771549 0.698817 0.677355 0 0 -0.00207901
41 1 0.512248 0.907164 0.552782 0 0 -0.00834846
42 1 0.993513 0.657224 0.30336 0 0 0.00224495
43 1 0.734383 0.865552 0.17907 0 0 8.96454e-05
44 1 0.450349 0.750393 0.282475 0 0 0.0020771
45 1 0.191148 0.958713 0.157942 0 0 0.00056076
46 1 0.252788 0.782201 0.427838 0 0 0.0092411
47 1 0.96911 0.000342654 0.531992 0 0 -0.00924683
48 1 0.993513 0.990558 0.30336 0 0 0.00223541
ITEM: TIMESTEP
4
ITEM: NUMBER OF ATOMS
48
ITEM: BOX BOUNDS xy xz yz pp pp pp
-1.9169611334800720e+00 8.6067802309989929e+00 2.5094206929206848e+00
-9.4973444938659668e-03 9.3236122131347656e+00 -1.9049240350723267e+00
-2.8691649436950684e-02 1.9545819282531738e+01 7.1304261684417725e-02
ITEM: ATOMS id type xs ys zs fx fy fz
1 1 0.931776 0.167025 0.0326325 0 0 0.00198174
2 1 0.475722 0.0738491 0.0560345 0 0 -0.00216675
3 1 0.22833 0.12532 0.656297 0 0 0.000408173
4 1 0.290121 0.948852 0.927197 0 0 -0.00197029
5 1 0.0307413 0.157164 0.801861 0 0 -0.00533295
6 1 0.746175 0.0420274 0.903796 0 0 0.00216484
7 1 0.4875 0.250325 0.780715 0 0 -0.0038414
8 1 0.709707 0.208711 0.407232 0 0 -0.000801086
9 1 0.7715 0.0321511 0.677199 0 0 2.47955e-05
10 1 0.51219 0.240499 0.552599 0 0 0.000799179
11 1 0.734397 0.198885 0.179116 0 0 0.00383377
12 1 0.450398 0.083725 0.282632 0 0 -2.09808e-05
13 1 0.191156 0.292046 0.157969 0 0 0.00532722
14 1 0.252854 0.115532 0.428048 0 0 -0.000658035
15 1 0.931777 0.500358 0.0326326 0 0 0.00197601
16 1 0.475722 0.407182 0.0560345 0 0 -0.00217056
17 1 0.22833 0.458653 0.656297 0 0 0.00041008
18 1 0.29012 0.282185 0.927198 0 0 -0.00197983
19 1 0.0307412 0.490497 0.801861 0 0 -0.00532913
20 1 0.746175 0.375361 0.903796 0 0 0.00216866
21 1 0.4875 0.583658 0.780715 0 0 -0.00383949
22 1 0.969044 0.333677 0.531782 0 0 0.000656128
23 1 0.709707 0.542044 0.407232 0 0 -0.000799179
24 1 0.7715 0.365484 0.677199 0 0 2.28882e-05
25 1 0.51219 0.573832 0.552599 0 0 0.00079155
26 1 0.993568 0.32389 0.303534 0 0 -0.000411987
27 1 0.734397 0.532218 0.179116 0 0 0.00383759
28 1 0.450398 0.417058 0.282632 0 0 -2.47955e-05
29 1 0.191156 0.625379 0.157969 0 0 0.00533104
30 1 0.252853 0.448866 0.428048 0 0 -0.000648499
31 1 0.931777 0.833692 0.0326324 0 0 0.00198936
32 1 0.475722 0.740516 0.0560345 0 0 -0.00217247
33 1 0.22833 0.791987 0.656296 0 0 0.000417709
34 1 0.29012 0.615518 0.927197 0 0 -0.0019722
35 1 0.0307413 0.82383 0.801861 0 0 -0.00533485
36 1 0.746175 0.708694 0.903796 0 0 0.00216866
37 1 0.4875 0.916991 0.780714 0 0 -0.00384521
38 1 0.969044 0.667011 0.531783 0 0 0.000648499
39 1 0.709707 0.875377 0.407232 0 0 -0.000801086
40 1 0.7715 0.698818 0.677199 0 0 2.67029e-05
41 1 0.51219 0.907166 0.552599 0 0 0.000801086
42 1 0.993567 0.657223 0.303534 0 0 -0.000404358
43 1 0.734397 0.865551 0.179116 0 0 0.00382805
44 1 0.450398 0.750392 0.282632 0 0 -2.86102e-05
45 1 0.191156 0.958713 0.157969 0 0 0.00533485
46 1 0.252854 0.782199 0.428048 0 0 -0.000646591
47 1 0.969044 0.000344268 0.531782 0 0 0.000656128
48 1 0.993568 0.990556 0.303534 0 0 -0.000404358
ITEM: TIMESTEP
5
ITEM: NUMBER OF ATOMS
48
ITEM: BOX BOUNDS xy xz yz pp pp pp
-1.9169611334800720e+00 8.6067802309989929e+00 2.5094206929206848e+00
-9.4973444938659668e-03 9.3236122131347656e+00 -1.9049240350723267e+00
-2.8691649436950684e-02 1.9545819282531738e+01 7.1304261684417725e-02
ITEM: ATOMS id type xs ys zs fx fy fz
1 1 0.931803 0.167024 0.0327179 0 0 0.00123215
2 1 0.47571 0.0738494 0.0559982 0 0 0.000736237
3 1 0.228319 0.12532 0.656262 0 0 -0.00164413
4 1 0.290094 0.948852 0.927112 0 0 -0.00124168
5 1 0.030693 0.157165 0.801708 0 0 0.00015831
6 1 0.746187 0.0420271 0.903832 0 0 -0.000734329
7 1 0.487463 0.250326 0.780597 0 0 0.000562668
8 1 0.709715 0.20871 0.407258 0 0 -0.00177956
9 1 0.771487 0.0321514 0.677158 0 0 -0.00185204
10 1 0.512182 0.240499 0.552573 0 0 0.00178337
11 1 0.734434 0.198884 0.179233 0 0 -0.00056076
12 1 0.45041 0.0837247 0.282672 0 0 0.00185204
13 1 0.191204 0.292045 0.158122 0 0 -0.000152588
14 1 0.252866 0.115532 0.428085 0 0 -0.00201988
15 1 0.931804 0.500358 0.0327178 0 0 0.00123978
16 1 0.475711 0.407183 0.055998 0 0 0.000741959
17 1 0.228319 0.458654 0.656262 0 0 -0.00164795
18 1 0.290094 0.282186 0.927112 0 0 -0.00123405
19 1 0.0306929 0.490498 0.801708 0 0 0.000160217
20 1 0.746187 0.37536 0.903832 0 0 -0.000745773
21 1 0.487463 0.583659 0.780597 0 0 0.000564575
22 1 0.969032 0.333678 0.531746 0 0 0.00201988
23 1 0.709716 0.542044 0.407258 0 0 -0.00178146
24 1 0.771487 0.365485 0.677159 0 0 -0.00185585
25 1 0.512182 0.573832 0.552572 0 0 0.001791
26 1 0.993578 0.323889 0.303568 0 0 0.00164223
27 1 0.734434 0.532217 0.179233 0 0 -0.00056839
28 1 0.45041 0.417058 0.282672 0 0 0.00185585
29 1 0.191204 0.625378 0.158122 0 0 -0.000152588
30 1 0.252865 0.448865 0.428084 0 0 -0.00201607
31 1 0.931804 0.833691 0.032718 0 0 0.00122643
32 1 0.47571 0.740516 0.055998 0 0 0.000745773
33 1 0.228319 0.791987 0.656263 0 0 -0.00165749
34 1 0.290094 0.615519 0.927112 0 0 -0.00123596
35 1 0.030693 0.823832 0.801708 0 0 0.000162125
36 1 0.746187 0.708694 0.903832 0 0 -0.000740051
37 1 0.487463 0.916992 0.780597 0 0 0.00056839
38 1 0.969032 0.667011 0.531746 0 0 0.00201416
39 1 0.709715 0.875377 0.407258 0 0 -0.00177956
40 1 0.771487 0.698818 0.677159 0 0 -0.00185966
41 1 0.512182 0.907166 0.552573 0 0 0.00178337
42 1 0.993578 0.657223 0.303568 0 0 0.00163651
43 1 0.734434 0.865551 0.179233 0 0 -0.000553131
44 1 0.45041 0.750391 0.282672 0 0 0.00185776
45 1 0.191205 0.958711 0.158122 0 0 -0.000156403
46 1 0.252865 0.782199 0.428085 0 0 -0.00201797
47 1 0.969032 0.000344551 0.531746 0 0 0.00201225
48 1 0.993578 0.990556 0.303568 0 0 0.00164032
ITEM: TIMESTEP
6
ITEM: NUMBER OF ATOMS
48
ITEM: BOX BOUNDS xy xz yz pp pp pp
-1.9169611334800720e+00 8.6067802309989929e+00 2.5094206929206848e+00
-9.4973444938659668e-03 9.3236122131347656e+00 -1.9049240350723267e+00
-2.8691649436950684e-02 1.9545819282531738e+01 7.1304261684417725e-02
ITEM: ATOMS id type xs ys zs fx fy fz
1 1 0.931813 0.167024 0.0327493 0 0 -0.000104904
2 1 0.475712 0.0738493 0.0560031 0 0 0.00012207
3 1 0.22831 0.125321 0.656233 0 0 -0.000219345
4 1 0.290084 0.948853 0.927081 0 0 0.000106812
5 1 0.0306861 0.157165 0.801686 0 0 8.58307e-05
6 1 0.746185 0.0420272 0.903827 0 0 -0.00012207
7 1 0.48746 0.250326 0.780587 0 0 8.96454e-05
8 1 0.709709 0.208711 0.407236 0 0 0.000331879
9 1 0.771477 0.0321517 0.677125 0 0 -0.000335693
10 1 0.512189 0.240499 0.552594 0 0 -0.000328064
11 1 0.734437 0.198884 0.179243 0 0 -9.34601e-05
12 1 0.450421 0.0837245 0.282705 0 0 0.000337601
13 1 0.191211 0.292045 0.158144 0 0 -8.39233e-05
14 1 0.252858 0.115532 0.428061 0 0 0.000169754
15 1 0.931813 0.500357 0.0327493 0 0 -0.000102997
16 1 0.475712 0.407183 0.056003 0 0 0.000131607
17 1 0.22831 0.458654 0.656233 0 0 -0.000225067
18 1 0.290084 0.282186 0.927081 0 0 0.000101089
19 1 0.030686 0.490499 0.801686 0 0 8.96454e-05
20 1 0.746185 0.375361 0.903827 0 0 -0.000123978
21 1 0.48746 0.583659 0.780587 0 0 8.96454e-05
22 1 0.96904 0.333678 0.531769 0 0 -0.000171661
23 1 0.709709 0.542044 0.407236 0 0 0.000326157
24 1 0.771477 0.365485 0.677125 0 0 -0.000343323
25 1 0.512189 0.573832 0.552594 0 0 -0.000326157
26 1 0.993587 0.323889 0.303597 0 0 0.000225067
27 1 0.734437 0.532217 0.179243 0 0 -9.15527e-05
28 1 0.450421 0.417058 0.282705 0 0 0.000339508
29 1 0.191211 0.625378 0.158144 0 0 -9.15527e-05
30 1 0.252858 0.448865 0.428061 0 0 0.000169754
31 1 0.931813 0.833691 0.0327493 0 0 -0.000101089
32 1 0.475712 0.740516 0.056003 0 0 0.0001297
33 1 0.22831 0.791987 0.656233 0 0 -0.00022316
34 1 0.290084 0.615519 0.927081 0 0 9.72748e-05
35 1 0.0306861 0.823832 0.801686 0 0 8.96454e-05
36 1 0.746185 0.708694 0.903827 0 0 -0.000127792
37 1 0.48746 0.916992 0.780587 0 0 9.15527e-05
38 1 0.96904 0.667011 0.531769 0 0 -0.000171661
39 1 0.709709 0.875377 0.407236 0 0 0.000337601
40 1 0.771476 0.698818 0.677125 0 0 -0.000337601
41 1 0.512189 0.907166 0.552594 0 0 -0.000335693
42 1 0.993587 0.657222 0.303597 0 0 0.00022316
43 1 0.734438 0.86555 0.179243 0 0 -9.34601e-05
44 1 0.450421 0.750391 0.282705 0 0 0.000349045
45 1 0.191212 0.958711 0.158144 0 0 -9.34601e-05
46 1 0.252858 0.782199 0.428061 0 0 0.000165939
47 1 0.969039 0.000344372 0.531769 0 0 -0.000171661
48 1 0.993588 0.990556 0.303597 0 0 0.000219345
ITEM: TIMESTEP
7
ITEM: NUMBER OF ATOMS
48
ITEM: BOX BOUNDS xy xz yz pp pp pp
-1.9169611334800720e+00 8.6067802309989929e+00 2.5094206929206848e+00
-9.4973444938659668e-03 9.3236122131347656e+00 -1.9049240350723267e+00
-2.8691649436950684e-02 1.9545819282531738e+01 7.1304261684417725e-02
ITEM: ATOMS id type xs ys zs fx fy fz
1 1 0.931813 0.167024 0.0327476 0 0 -0.000106812
2 1 0.475713 0.0738493 0.0560062 0 0 -4.00543e-05
3 1 0.228308 0.125321 0.656227 0 0 -1.14441e-05
4 1 0.290084 0.948853 0.927083 0 0 0.000110626
5 1 0.0306866 0.157165 0.801687 0 0 -0.000173569
6 1 0.746184 0.0420272 0.903824 0 0 3.8147e-05
7 1 0.487461 0.250326 0.780589 0 0 -0.000204086
8 1 0.709711 0.208711 0.407244 0 0 2.47955e-05
9 1 0.771474 0.0321518 0.677116 0 0 -9.53674e-06
10 1 0.512187 0.240499 0.552587 0 0 -2.67029e-05
11 1 0.734437 0.198884 0.179241 0 0 0.000213623
12 1 0.450424 0.0837244 0.282714 0 0 9.53674e-06
13 1 0.191211 0.292045 0.158143 0 0 0.000171661
14 1 0.252859 0.115532 0.428065 0 0 4.76837e-05
15 1 0.931813 0.500357 0.0327476 0 0 -0.000110626
16 1 0.475713 0.407183 0.0560063 0 0 -4.95911e-05
17 1 0.228308 0.458654 0.656227 0 0 -3.8147e-06
18 1 0.290084 0.282186 0.927082 0 0 0.000116348
19 1 0.0306865 0.490499 0.801687 0 0 -0.000183105
20 1 0.746184 0.375361 0.903824 0 0 3.8147e-05
21 1 0.48746 0.583659 0.780589 0 0 -0.000204086
22 1 0.969039 0.333678 0.531765 0 0 -4.19617e-05
23 1 0.709711 0.542044 0.407243 0 0 3.62396e-05
24 1 0.771474 0.365485 0.677116 0 0 3.8147e-06
25 1 0.512187 0.573832 0.552587 0 0 -2.86102e-05
26 1 0.993589 0.323889 0.303603 0 0 1.90735e-06
27 1 0.734437 0.532217 0.179241 0 0 0.000211716
28 1 0.450424 0.417058 0.282714 0 0 -1.90735e-06
29 1 0.191211 0.625378 0.158143 0 0 0.000177383
30 1 0.252859 0.448865 0.428065 0 0 4.57764e-05
31 1 0.931813 0.833691 0.0327477 0 0 -0.000114441
32 1 0.475713 0.740516 0.0560063 0 0 -5.14984e-05
33 1 0.228308 0.791987 0.656227 0 0 -1.33514e-05
34 1 0.290084 0.615519 0.927082 0 0 0.000118256
35 1 0.0306866 0.823832 0.801687 0 0 -0.000173569
36 1 0.746184 0.708694 0.903824 0 0 4.57764e-05
37 1 0.487461 0.916992 0.780589 0 0 -0.000205994
38 1 0.969038 0.667011 0.531765 0 0 -4.76837e-05
39 1 0.709711 0.875377 0.407244 0 0 2.28882e-05
40 1 0.771474 0.698819 0.677116 0 0 -1.14441e-05
41 1 0.512186 0.907166 0.552587 0 0 -2.47955e-05
42 1 0.993589 0.657222 0.303603 0 0 7.62939e-06
43 1 0.734437 0.86555 0.179241 0 0 0.000213623
44 1 0.450424 0.750391 0.282714 0 0 -1.90735e-06
45 1 0.191211 0.958711 0.158143 0 0 0.000173569
46 1 0.252859 0.782199 0.428065 0 0 4.19617e-05
47 1 0.969038 0.000344399 0.531765 0 0 -3.8147e-05
48 1 0.993589 0.990556 0.303603 0 0 7.62939e-06
ITEM: TIMESTEP
8
ITEM: NUMBER OF ATOMS
48
ITEM: BOX BOUNDS xy xz yz pp pp pp
-1.9169611334800720e+00 8.6067802309989929e+00 2.5094206929206848e+00
-9.4973444938659668e-03 9.3236122131347656e+00 -1.9049240350723267e+00
-2.8691649436950684e-02 1.9545819282531738e+01 7.1304261684417725e-02
ITEM: ATOMS id type xs ys zs fx fy fz
1 1 0.931813 0.167024 0.0327476 0 0 -0.000106812
2 1 0.475713 0.0738493 0.0560062 0 0 -4.00543e-05
3 1 0.228308 0.125321 0.656227 0 0 -1.14441e-05
4 1 0.290084 0.948853 0.927083 0 0 0.000110626
5 1 0.0306866 0.157165 0.801687 0 0 -0.000173569
6 1 0.746184 0.0420272 0.903824 0 0 3.8147e-05
7 1 0.487461 0.250326 0.780589 0 0 -0.000204086
8 1 0.709711 0.208711 0.407244 0 0 2.47955e-05
9 1 0.771474 0.0321518 0.677116 0 0 -9.53674e-06
10 1 0.512187 0.240499 0.552587 0 0 -2.67029e-05
11 1 0.734437 0.198884 0.179241 0 0 0.000213623
12 1 0.450424 0.0837244 0.282714 0 0 9.53674e-06
13 1 0.191211 0.292045 0.158143 0 0 0.000171661
14 1 0.252859 0.115532 0.428065 0 0 4.76837e-05
15 1 0.931813 0.500357 0.0327476 0 0 -0.000110626
16 1 0.475713 0.407183 0.0560063 0 0 -4.95911e-05
17 1 0.228308 0.458654 0.656227 0 0 -3.8147e-06
18 1 0.290084 0.282186 0.927082 0 0 0.000116348
19 1 0.0306865 0.490499 0.801687 0 0 -0.000183105
20 1 0.746184 0.375361 0.903824 0 0 3.8147e-05
21 1 0.48746 0.583659 0.780589 0 0 -0.000204086
22 1 0.969039 0.333678 0.531765 0 0 -4.19617e-05
23 1 0.709711 0.542044 0.407243 0 0 3.62396e-05
24 1 0.771474 0.365485 0.677116 0 0 3.8147e-06
25 1 0.512187 0.573832 0.552587 0 0 -2.86102e-05
26 1 0.993589 0.323889 0.303603 0 0 1.90735e-06
27 1 0.734437 0.532217 0.179241 0 0 0.000211716
28 1 0.450424 0.417058 0.282714 0 0 -1.90735e-06
29 1 0.191211 0.625378 0.158143 0 0 0.000177383
30 1 0.252859 0.448865 0.428065 0 0 4.57764e-05
31 1 0.931813 0.833691 0.0327477 0 0 -0.000114441
32 1 0.475713 0.740516 0.0560063 0 0 -5.14984e-05
33 1 0.228308 0.791987 0.656227 0 0 -1.33514e-05
34 1 0.290084 0.615519 0.927082 0 0 0.000118256
35 1 0.0306866 0.823832 0.801687 0 0 -0.000173569
36 1 0.746184 0.708694 0.903824 0 0 4.57764e-05
37 1 0.487461 0.916992 0.780589 0 0 -0.000205994
38 1 0.969038 0.667011 0.531765 0 0 -4.76837e-05
39 1 0.709711 0.875377 0.407244 0 0 2.28882e-05
40 1 0.771474 0.698819 0.677116 0 0 -1.14441e-05
41 1 0.512186 0.907166 0.552587 0 0 -2.47955e-05
42 1 0.993589 0.657222 0.303603 0 0 7.62939e-06
43 1 0.734437 0.86555 0.179241 0 0 0.000213623
44 1 0.450424 0.750391 0.282714 0 0 -1.90735e-06
45 1 0.191211 0.958711 0.158143 0 0 0.000173569
46 1 0.252859 0.782199 0.428065 0 0 4.19617e-05
47 1 0.969038 0.000344399 0.531765 0 0 -3.8147e-05
48 1 0.993589 0.990556 0.303603 0 0 7.62939e-06
