# LAMMPS data file written by OVITO Basic 3.5.4
900 atoms
4 atom types
0.0 26.08221 xlo xhi
0.0 26.08221 ylo yhi
0.0 25.1988 zlo zhi

Masses

1 6.941  # Li
2 72.64  # Ge
3 30.973761  # P
4 32.065  # S

Atoms  # atomic

1 1 1.8947943099 7.0909182683 9.5057181252
2 1 1.8947943099 7.0909182683 22.1050929264
3 1 1.8947943099 15.7850056564 9.5057181252
4 1 1.8947943099 15.7850056564 22.1050929264
5 1 1.8947943099 24.4789887157 9.5057181252
6 1 1.8947943099 24.4789887157 22.1050929264
7 1 10.5889077802 7.0909182683 9.5057181252
8 1 10.5889077802 7.0909182683 22.1050929264
9 1 10.5889077802 15.7850056564 9.5057181252
10 1 10.5889077802 15.7850056564 22.1050929264
11 1 10.5889077802 24.4789887157 9.5057181252
12 1 10.5889077802 24.4789887157 22.1050929264
13 1 19.2828908395 7.0909182683 9.5057181252
14 1 19.2828908395 7.0909182683 22.1050929264
15 1 19.2828908395 15.7850056564 9.5057181252
16 1 19.2828908395 15.7850056564 22.1050929264
17 1 19.2828908395 24.4789887157 9.5057181252
18 1 19.2828908395 24.4789887157 22.1050929264
19 1 1.9280491276 2.2595540167 11.587794174
20 1 1.9280491276 2.2595540167 24.187194174
21 1 1.9280491276 10.9535892404 11.587794174
22 1 1.9280491276 10.9535892404 24.187194174
23 1 1.9280491276 19.6477027108 11.587794174
24 1 1.9280491276 19.6477027108 24.187194174
25 1 10.6221104335 2.2595540167 11.587794174
26 1 10.6221104335 2.2595540167 24.187194174
27 1 10.6221104335 10.9535892404 11.587794174
28 1 10.6221104335 10.9535892404 24.187194174
29 1 10.6221104335 19.6477027108 11.587794174
30 1 10.6221104335 19.6477027108 24.187194174
31 1 19.3161978217 2.2595540167 11.587794174
32 1 19.3161978217 2.2595540167 24.187194174
33 1 19.3161978217 10.9535892404 11.587794174
34 1 19.3161978217 10.9535892404 24.187194174
35 1 19.3161978217 19.6477027108 11.587794174
36 1 19.3161978217 19.6477027108 24.187194174
37 1 1.9909594181 6.583775777 3.1678419432
38 1 1.9909594181 6.583775777 15.7671915456
39 1 1.9909594181 15.2778892474 3.1678419432
40 1 1.9909594181 15.2778892474 15.7671915456
41 1 1.9909594181 23.9718983889 3.1678419432
42 1 1.9909594181 23.9718983889 15.7671915456
43 1 10.6849946419 6.583775777 3.1678419432
44 1 10.6849946419 6.583775777 15.7671915456
45 1 10.6849946419 15.2778892474 3.1678419432
46 1 10.6849946419 15.2778892474 15.7671915456
47 1 10.6849946419 23.9718983889 3.1678419432
48 1 10.6849946419 23.9718983889 15.7671915456
49 1 19.3791081122 6.583775777 3.1678419432
50 1 19.3791081122 6.583775777 15.7671915456
51 1 19.3791081122 15.2778892474 3.1678419432
52 1 19.3791081122 15.2778892474 15.7671915456
53 1 19.3791081122 23.9718983889 3.1678419432
54 1 19.3791081122 23.9718983889 15.7671915456
55 1 2.0021486862 1.9573133672 4.6317158316
56 1 2.0021486862 1.9573133672 17.2310906328
57 1 2.0021486862 10.6514007554 4.6317158316
58 1 2.0021486862 10.6514007554 17.2310906328
59 1 2.0021486862 19.3454881435 4.6317158316
60 1 2.0021486862 19.3454881435 17.2310906328
61 1 10.6962099922 1.9573133672 4.6317158316
62 1 10.6962099922 1.9573133672 17.2310906328
63 1 10.6962099922 10.6514007554 4.6317158316
64 1 10.6962099922 10.6514007554 17.2310906328
65 1 10.6962099922 19.3454881435 4.6317158316
66 1 10.6962099922 19.3454881435 17.2310906328
67 1 19.3902973803 1.9573133672 4.6317158316
68 1 19.3902973803 1.9573133672 17.2310906328
69 1 19.3902973803 10.6514007554 4.6317158316
70 1 19.3902973803 10.6514007554 17.2310906328
71 1 19.3902973803 19.3454881435 4.6317158316
72 1 19.3902973803 19.3454881435 17.2310906328
73 1 2.0962272177 1.8350399668 8.1887784396
74 1 2.0962272177 1.8350399668 20.7882036384
75 1 2.0962272177 10.5291012727 8.1887784396
76 1 2.0962272177 10.5291012727 20.7882036384
77 1 2.0962272177 19.2231886608 8.1887784396
78 1 2.0962272177 19.2231886608 20.7882036384
79 1 10.7902885236 1.8350399668 8.1887784396
80 1 10.7902885236 1.8350399668 20.7882036384
81 1 10.7902885236 10.5291012727 8.1887784396
82 1 10.7902885236 10.5291012727 20.7882036384
83 1 10.7902885236 19.2231886608 8.1887784396
84 1 10.7902885236 19.2231886608 20.7882036384
85 1 19.484401994 1.8350399668 8.1887784396
86 1 19.484401994 1.8350399668 20.7882036384
87 1 19.484401994 10.5291012727 8.1887784396
88 1 19.484401994 10.5291012727 20.7882036384
89 1 19.484401994 19.2231886608 8.1887784396
90 1 19.484401994 19.2231886608 20.7882036384
91 1 2.1263000058 6.260356373 6.1069795776
92 1 2.1263000058 6.260356373 18.7064047764
93 1 2.1263000058 14.9543915968 6.1069795776
94 1 2.1263000058 14.9543915968 18.7064047764
95 1 2.1263000058 23.6485050671 6.1069795776
96 1 2.1263000058 23.6485050671 18.7064047764
97 1 10.820387394 6.260356373 6.1069795776
98 1 10.820387394 6.260356373 18.7064047764
99 1 10.820387394 14.9543915968 6.1069795776
100 1 10.820387394 14.9543915968 18.7064047764
101 1 10.820387394 23.6485050671 6.1069795776
102 1 10.820387394 23.6485050671 18.7064047764
103 1 19.5143965355 6.260356373 6.1069795776
104 1 19.5143965355 6.260356373 18.7064047764
105 1 19.5143965355 14.9543915968 6.1069795776
106 1 19.5143965355 14.9543915968 18.7064047764
107 1 19.5143965355 23.6485050671 6.1069795776
108 1 19.5143965355 23.6485050671 18.7064047764
109 1 2.1315686123 6.6004683914 0.091471644
110 1 2.1315686123 6.6004683914 12.6908968428
111 1 2.1315686123 15.2945036152 0.091471644
112 1 2.1315686123 15.2945036152 12.6908968428
113 1 2.1315686123 23.9885910033 0.091471644
114 1 2.1315686123 23.9885910033 12.6908968428
115 1 10.8257081648 6.6004683914 0.091471644
116 1 10.8257081648 6.6004683914 12.6908968428
117 1 10.8257081648 15.2945036152 0.091471644
118 1 10.8257081648 15.2945036152 12.6908968428
119 1 10.8257081648 23.9885910033 0.091471644
120 1 10.8257081648 23.9885910033 12.6908968428
121 1 19.5196912241 6.6004683914 0.091471644
122 1 19.5196912241 6.6004683914 12.6908968428
123 1 19.5196912241 15.2945036152 0.091471644
124 1 19.5196912241 15.2945036152 12.6908968428
125 1 19.5196912241 23.9885910033 0.091471644
126 1 19.5196912241 23.9885910033 12.6908968428
127 1 2.2512598739 2.5306525075 1.9726124616
128 1 2.2512598739 2.5306525075 14.5720124616
129 1 2.2512598739 11.2246877312 1.9726124616
130 1 2.2512598739 11.2246877312 14.5720124616
131 1 2.2512598739 19.9188012015 1.9726124616
132 1 2.2512598739 19.9188012015 14.5720124616
133 1 10.9452950977 2.5306525075 1.9726124616
134 1 10.9452950977 2.5306525075 14.5720124616
135 1 10.9452950977 11.2246877312 1.9726124616
136 1 10.9452950977 11.2246877312 14.5720124616
137 1 10.9452950977 19.9188012015 1.9726124616
138 1 10.9452950977 19.9188012015 14.5720124616
139 1 19.639408568 2.5306525075 1.9726124616
140 1 19.639408568 2.5306525075 14.5720124616
141 1 19.639408568 11.2246877312 1.9726124616
142 1 19.639408568 11.2246877312 14.5720124616
143 1 19.639408568 19.9188012015 1.9726124616
144 1 19.639408568 19.9188012015 14.5720124616
145 1 4.0283973345 4.4748726053 9.4417635708
146 1 4.0283973345 4.4748726053 22.0411887696
147 1 4.0283973345 13.168907829 9.4417635708
148 1 4.0283973345 13.168907829 22.0411887696
149 1 4.0283973345 21.8629952171 9.4417635708
150 1 4.0283973345 21.8629952171 22.0411887696
151 1 12.7225108048 4.4748726053 9.4417635708
152 1 12.7225108048 4.4748726053 22.0411887696
153 1 12.7225108048 13.168907829 9.4417635708
154 1 12.7225108048 13.168907829 22.0411887696
155 1 12.7225108048 21.8629952171 9.4417635708
156 1 12.7225108048 21.8629952171 22.0411887696
157 1 21.4164938641 4.4748726053 9.4417635708
158 1 21.4164938641 4.4748726053 22.0411887696
159 1 21.4164938641 13.168907829 9.4417635708
160 1 21.4164938641 13.168907829 22.0411887696
161 1 21.4164938641 21.8629952171 9.4417635708
162 1 21.4164938641 21.8629952171 22.0411887696
163 1 4.309902627 8.6584330071 0.6391927608
164 1 4.309902627 8.6584330071 13.2385927608
165 1 4.309902627 17.352494313 0.6391927608
166 1 4.309902627 17.352494313 13.2385927608
167 1 4.309902627 26.0466077833 0.6391927608
168 1 4.309902627 26.0466077833 13.2385927608
169 1 13.0039900152 8.6584330071 0.6391927608
170 1 13.0039900152 8.6584330071 13.2385927608
171 1 13.0039900152 17.352494313 0.6391927608
172 1 13.0039900152 17.352494313 13.2385927608
173 1 13.0039900152 26.0466077833 0.6391927608
174 1 13.0039900152 26.0466077833 13.2385927608
175 1 21.6979991567 8.6584330071 0.6391927608
176 1 21.6979991567 8.6584330071 13.2385927608
177 1 21.6979991567 17.352494313 0.6391927608
178 1 21.6979991567 17.352494313 13.2385927608
179 1 21.6979991567 26.0466077833 0.6391927608
180 1 21.6979991567 26.0466077833 13.2385927608
181 1 4.4474341204 8.3778666741 6.9175997748
182 1 4.4474341204 8.3778666741 19.5169997748
183 1 4.4474341204 17.0719018978 6.9175997748
184 1 4.4474341204 17.0719018978 19.5169997748
185 1 4.4474341204 25.765989286 6.9175997748
186 1 4.4474341204 25.765989286 19.5169997748
187 1 13.1414954263 8.3778666741 6.9175997748
188 1 13.1414954263 8.3778666741 19.5169997748
189 1 13.1414954263 17.0719018978 6.9175997748
190 1 13.1414954263 17.0719018978 19.5169997748
191 1 13.1414954263 25.765989286 6.9175997748
192 1 13.1414954263 25.765989286 19.5169997748
193 1 21.8356088966 8.3778666741 6.9175997748
194 1 21.8356088966 8.3778666741 19.5169997748
195 1 21.8356088966 17.0719018978 6.9175997748
196 1 21.8356088966 17.0719018978 19.5169997748
197 1 21.8356088966 25.765989286 6.9175997748
198 1 21.8356088966 25.765989286 19.5169997748
199 1 6.3713100944 2.2461999252 10.7915876904
200 1 6.3713100944 2.2461999252 23.3909876904
201 1 6.3713100944 10.9402873133 10.7915876904
202 1 6.3713100944 10.9402873133 23.3909876904
203 1 6.3713100944 19.6344007837 10.7915876904
204 1 6.3713100944 19.6344007837 23.3909876904
205 1 15.0653974825 2.2461999252 10.7915876904
206 1 15.0653974825 2.2461999252 23.3909876904
207 1 15.0653974825 10.9402873133 10.7915876904
208 1 15.0653974825 10.9402873133 23.3909876904
209 1 15.0653974825 19.6344007837 10.7915876904
210 1 15.0653974825 19.6344007837 23.3909876904
211 1 23.7595109529 2.2461999252 10.7915876904
212 1 23.7595109529 2.2461999252 23.3909876904
213 1 23.7595109529 10.9402873133 10.7915876904
214 1 23.7595109529 10.9402873133 23.3909876904
215 1 23.7595109529 19.6344007837 10.7915876904
216 1 23.7595109529 19.6344007837 23.3909876904
217 1 6.4405322797 2.3073627077 1.6480267188
218 1 6.4405322797 2.3073627077 14.24740152
219 1 6.4405322797 11.0013979314 1.6480267188
220 1 6.4405322797 11.0013979314 14.24740152
221 1 6.4405322797 19.6955114017 1.6480267188
222 1 6.4405322797 19.6955114017 14.24740152
223 1 15.1345935856 2.3073627077 1.6480267188
224 1 15.1345935856 2.3073627077 14.24740152
225 1 15.1345935856 11.0013979314 1.6480267188
226 1 15.1345935856 11.0013979314 14.24740152
227 1 15.1345935856 19.6955114017 1.6480267188
228 1 15.1345935856 19.6955114017 14.24740152
229 1 23.828707056 2.3073627077 1.6480267188
230 1 23.828707056 2.3073627077 14.24740152
231 1 23.828707056 11.0013979314 1.6480267188
232 1 23.828707056 11.0013979314 14.24740152
233 1 23.828707056 19.6955114017 1.6480267188
234 1 23.828707056 19.6955114017 14.24740152
235 1 6.4764996473 6.5030774193 3.5751805452
236 1 6.4764996473 6.5030774193 16.174605744
237 1 6.4764996473 15.1971908897 3.5751805452
238 1 6.4764996473 15.1971908897 16.174605744
239 1 6.4764996473 23.8912000312 3.5751805452
240 1 6.4764996473 23.8912000312 16.174605744
241 1 15.1705870355 6.5030774193 3.5751805452
242 1 15.1705870355 6.5030774193 16.174605744
243 1 15.1705870355 15.1971908897 3.5751805452
244 1 15.1705870355 15.1971908897 16.174605744
245 1 15.1705870355 23.8912000312 3.5751805452
246 1 15.1705870355 23.8912000312 16.174605744
247 1 23.864596177 6.5030774193 3.5751805452
248 1 23.864596177 6.5030774193 16.174605744
249 1 23.864596177 15.1971908897 3.5751805452
250 1 23.864596177 15.1971908897 16.174605744
251 1 23.864596177 23.8912000312 3.5751805452
252 1 23.864596177 23.8912000312 16.174605744
253 1 6.5062594489 6.5931653726 0.1206266556
254 1 6.5062594489 6.5931653726 12.7200014568
255 1 6.5062594489 15.2872005964 0.1206266556
256 1 6.5062594489 15.2872005964 12.7200014568
257 1 6.5062594489 23.9812879845 0.1206266556
258 1 6.5062594489 23.9812879845 12.7200014568
259 1 15.2002946726 6.5931653726 0.1206266556
260 1 15.2002946726 6.5931653726 12.7200014568
261 1 15.2002946726 15.2872005964 0.1206266556
262 1 15.2002946726 15.2872005964 12.7200014568
263 1 15.2002946726 23.9812879845 0.1206266556
264 1 15.2002946726 23.9812879845 12.7200014568
265 1 23.894408143 6.5931653726 0.1206266556
266 1 23.894408143 6.5931653726 12.7200014568
267 1 23.894408143 15.2872005964 0.1206266556
268 1 23.894408143 15.2872005964 12.7200014568
269 1 23.894408143 23.9812879845 0.1206266556
270 1 23.894408143 23.9812879845 12.7200014568
271 1 6.5573805805 1.8887432372 4.4436571872
272 1 6.5573805805 1.8887432372 17.0431075848
273 1 6.5573805805 10.5828045431 4.4436571872
274 1 6.5573805805 10.5828045431 17.0431075848
275 1 6.5573805805 19.2768919312 4.4436571872
276 1 6.5573805805 19.2768919312 17.0431075848
277 1 15.2514940509 1.8887432372 4.4436571872
278 1 15.2514940509 1.8887432372 17.0431075848
279 1 15.2514940509 10.5828045431 4.4436571872
280 1 15.2514940509 10.5828045431 17.0431075848
281 1 15.2514940509 19.2768919312 4.4436571872
282 1 15.2514940509 19.2768919312 17.0431075848
283 1 23.9455031924 1.8887432372 4.4436571872
284 1 23.9455031924 1.8887432372 17.0431075848
285 1 23.9455031924 10.5828045431 4.4436571872
286 1 23.9455031924 10.5828045431 17.0431075848
287 1 23.9455031924 19.2768919312 4.4436571872
288 1 23.9455031924 19.2768919312 17.0431075848
289 1 6.6245161891 6.3082433106 8.7182052276
290 1 6.6245161891 6.3082433106 21.3176052276
291 1 6.6245161891 15.0023046165 8.7182052276
292 1 6.6245161891 15.0023046165 21.3176052276
293 1 6.6245161891 23.6963920047 8.7182052276
294 1 6.6245161891 23.6963920047 21.3176052276
295 1 15.3186035772 6.3082433106 8.7182052276
296 1 15.3186035772 6.3082433106 21.3176052276
297 1 15.3186035772 15.0023046165 8.7182052276
298 1 15.3186035772 15.0023046165 21.3176052276
299 1 15.3186035772 23.6963920047 8.7182052276
300 1 15.3186035772 23.6963920047 21.3176052276
301 1 24.0126127187 6.3082433106 8.7182052276
302 1 24.0126127187 6.3082433106 21.3176052276
303 1 24.0126127187 15.0023046165 8.7182052276
304 1 24.0126127187 15.0023046165 21.3176052276
305 1 24.0126127187 23.6963920047 8.7182052276
306 1 24.0126127187 23.6963920047 21.3176052276
307 1 6.8135339649 1.8677209759 7.8825878208
308 1 6.8135339649 1.8677209759 20.4819878208
309 1 6.8135339649 10.561808364 7.8825878208
310 1 6.8135339649 10.561808364 20.4819878208
311 1 6.8135339649 19.2558957522 7.8825878208
312 1 6.8135339649 19.2558957522 20.4819878208
313 1 15.5075952709 1.8677209759 7.8825878208
314 1 15.5075952709 1.8677209759 20.4819878208
315 1 15.5075952709 10.561808364 7.8825878208
316 1 15.5075952709 10.561808364 20.4819878208
317 1 15.5075952709 19.2558957522 7.8825878208
318 1 15.5075952709 19.2558957522 20.4819878208
319 1 24.2017087412 1.8677209759 7.8825878208
320 1 24.2017087412 1.8677209759 20.4819878208
321 1 24.2017087412 10.561808364 7.8825878208
322 1 24.2017087412 10.561808364 20.4819878208
323 1 24.2017087412 19.2558957522 7.8825878208
324 1 24.2017087412 19.2558957522 20.4819878208
325 1 8.390020984 4.4764375379 5.368100364
326 1 8.390020984 4.4764375379 17.967500364
327 1 8.390020984 13.1704988438 5.368100364
328 1 8.390020984 13.1704988438 17.967500364
329 1 8.390020984 21.8646123142 5.368100364
330 1 8.390020984 21.8646123142 17.967500364
331 1 17.0841083721 4.4764375379 5.368100364
332 1 17.0841083721 4.4764375379 17.967500364
333 1 17.0841083721 13.1704988438 5.368100364
334 1 17.0841083721 13.1704988438 17.967500364
335 1 17.0841083721 21.8646123142 5.368100364
336 1 17.0841083721 21.8646123142 17.967500364
337 1 25.7780914314 4.4764375379 5.368100364
338 1 25.7780914314 4.4764375379 17.967500364
339 1 25.7780914314 13.1704988438 5.368100364
340 1 25.7780914314 13.1704988438 17.967500364
341 1 25.7780914314 21.8646123142 5.368100364
342 1 25.7780914314 21.8646123142 17.967500364
343 1 8.5924189336 4.5080491764 11.991604944
344 1 8.5924189336 4.5080491764 24.591004944
345 1 8.5924189336 13.2021104823 11.991604944
346 1 8.5924189336 13.2021104823 24.591004944
347 1 8.5924189336 21.8961978705 11.991604944
348 1 8.5924189336 21.8961978705 24.591004944
349 1 17.2865063217 4.5080491764 11.991604944
350 1 17.2865063217 4.5080491764 24.591004944
351 1 17.2865063217 13.2021104823 11.991604944
352 1 17.2865063217 13.2021104823 24.591004944
353 1 17.2865063217 21.8961978705 11.991604944
354 1 17.2865063217 21.8961978705 24.591004944
355 1 25.9805937098 4.5080491764 11.991604944
356 1 25.9805937098 4.5080491764 24.591004944
357 1 25.9805937098 13.2021104823 11.991604944
358 1 25.9805937098 13.2021104823 24.591004944
359 1 25.9805937098 21.8961978705 11.991604944
360 1 25.9805937098 21.8961978705 24.591004944
361 2 4.4261249548 8.6046254078 10.2733995672
362 2 4.4261249548 8.6046254078 22.8727995672
363 2 4.4261249548 17.298712796 10.2733995672
364 2 4.4261249548 17.298712796 22.8727995672
365 2 4.4261249548 25.9928001841 10.2733995672
366 2 4.4261249548 25.9928001841 22.8727995672
367 2 13.1202123429 8.6046254078 10.2733995672
368 2 13.1202123429 8.6046254078 22.8727995672
369 2 13.1202123429 17.298712796 10.2733995672
370 2 13.1202123429 17.298712796 22.8727995672
371 2 13.1202123429 25.9928001841 10.2733995672
372 2 13.1202123429 25.9928001841 22.8727995672
373 2 21.8142997311 8.6046254078 10.2733995672
374 2 21.8142997311 8.6046254078 22.8727995672
375 2 21.8142997311 17.298712796 10.2733995672
376 2 21.8142997311 17.298712796 22.8727995672
377 2 21.8142997311 25.9928001841 10.2733995672
378 2 21.8142997311 25.9928001841 22.8727995672
379 2 8.6664141633 4.2388807692 2.3070005376
380 2 8.6664141633 4.2388807692 14.9064005376
381 2 8.6664141633 12.9328899107 2.3070005376
382 2 8.6664141633 12.9328899107 14.9064005376
383 2 8.6664141633 21.6270033811 2.3070005376
384 2 8.6664141633 21.6270033811 14.9064005376
385 2 17.3605015515 4.2388807692 2.3070005376
386 2 17.3605015515 4.2388807692 14.9064005376
387 2 17.3605015515 12.9328899107 2.3070005376
388 2 17.3605015515 12.9328899107 14.9064005376
389 2 17.3605015515 21.6270033811 2.3070005376
390 2 17.3605015515 21.6270033811 14.9064005376
391 2 26.054510693 4.2388807692 2.3070005376
392 2 26.054510693 4.2388807692 14.9064005376
393 2 26.054510693 12.9328899107 2.3070005376
394 2 26.054510693 12.9328899107 14.9064005376
395 2 26.054510693 21.6270033811 2.3070005376
396 2 26.054510693 21.6270033811 14.9064005376
397 3 0.0712565977 4.2077125283 8.610177972
398 3 0.0712565977 4.2077125283 21.2096031708
399 3 0.0712565977 12.9017999164 8.610177972
400 3 0.0712565977 12.9017999164 21.2096031708
401 3 0.0712565977 21.5958090579 8.610177972
402 3 0.0712565977 21.5958090579 21.2096031708
403 3 8.7653179037 4.2077125283 8.610177972
404 3 8.7653179037 4.2077125283 21.2096031708
405 3 8.7653179037 12.9017999164 8.610177972
406 3 8.7653179037 12.9017999164 21.2096031708
407 3 8.7653179037 21.5958090579 8.610177972
408 3 8.7653179037 21.5958090579 21.2096031708
409 3 17.4594052918 4.2077125283 8.610177972
410 3 17.4594052918 4.2077125283 21.2096031708
411 3 17.4594052918 12.9017999164 8.610177972
412 3 17.4594052918 12.9017999164 21.2096031708
413 3 17.4594052918 21.5958090579 8.610177972
414 3 17.4594052918 21.5958090579 21.2096031708
415 3 4.2390894269 0.0749081071 3.9168006768
416 3 4.2390894269 0.0749081071 16.5162006768
417 3 4.2390894269 8.768969413 3.9168006768
418 3 4.2390894269 8.768969413 16.5162006768
419 3 4.2390894269 17.4630046368 3.9168006768
420 3 4.2390894269 17.4630046368 16.5162006768
421 3 12.9332028972 0.0749081071 3.9168006768
422 3 12.9332028972 0.0749081071 16.5162006768
423 3 12.9332028972 8.768969413 3.9168006768
424 3 12.9332028972 8.768969413 16.5162006768
425 3 12.9332028972 17.4630046368 3.9168006768
426 3 12.9332028972 17.4630046368 16.5162006768
427 3 21.6272120387 0.0749081071 3.9168006768
428 3 21.6272120387 0.0749081071 16.5162006768
429 3 21.6272120387 8.768969413 3.9168006768
430 3 21.6272120387 8.768969413 16.5162006768
431 3 21.6272120387 17.4630046368 3.9168006768
432 3 21.6272120387 17.4630046368 16.5162006768
433 3 4.2791777837 4.4959209487 12.5147068332
434 3 4.2791777837 4.4959209487 25.1141068332
435 3 4.2791777837 13.1900083369 12.5147068332
436 3 4.2791777837 13.1900083369 25.1141068332
437 3 4.2791777837 21.884095725 12.5147068332
438 3 4.2791777837 21.884095725 25.1141068332
439 3 12.9732130074 4.4959209487 12.5147068332
440 3 12.9732130074 4.4959209487 25.1141068332
441 3 12.9732130074 13.1900083369 12.5147068332
442 3 12.9732130074 13.1900083369 25.1141068332
443 3 12.9732130074 21.884095725 12.5147068332
444 3 12.9732130074 21.884095725 25.1141068332
445 3 21.6673003955 4.4959209487 12.5147068332
446 3 21.6673003955 4.4959209487 25.1141068332
447 3 21.6673003955 13.1900083369 12.5147068332
448 3 21.6673003955 13.1900083369 25.1141068332
449 3 21.6673003955 21.884095725 12.5147068332
450 3 21.6673003955 21.884095725 25.1141068332
451 3 8.6392886649 8.3834221848 6.3184227084
452 3 8.6392886649 8.3834221848 18.9177975096
453 3 8.6392886649 17.077509573 6.3184227084
454 3 8.6392886649 17.077509573 18.9177975096
455 3 8.6392886649 25.7715969611 6.3184227084
456 3 8.6392886649 25.7715969611 18.9177975096
457 3 17.3334021353 8.3834221848 6.3184227084
458 3 17.3334021353 8.3834221848 18.9177975096
459 3 17.3334021353 17.077509573 6.3184227084
460 3 17.3334021353 17.077509573 18.9177975096
461 3 17.3334021353 25.7715969611 6.3184227084
462 3 17.3334021353 25.7715969611 18.9177975096
463 3 26.0274112768 8.3834221848 6.3184227084
464 3 26.0274112768 8.3834221848 18.9177975096
465 3 26.0274112768 17.077509573 6.3184227084
466 3 26.0274112768 17.077509573 18.9177975096
467 3 26.0274112768 25.7715969611 6.3184227084
468 3 26.0274112768 25.7715969611 18.9177975096
469 4 0.0050599487 6.2165643424 1.26371982
470 4 0.0050599487 6.2165643424 13.8630946212
471 4 0.0050599487 14.9105995662 1.26371982
472 4 0.0050599487 14.9105995662 13.8630946212
473 4 0.0050599487 23.6047130365 1.26371982
474 4 0.0050599487 23.6047130365 13.8630946212
475 4 8.6991212547 6.2165643424 1.26371982
476 4 8.6991212547 6.2165643424 13.8630946212
477 4 8.6991212547 14.9105995662 1.26371982
478 4 8.6991212547 14.9105995662 13.8630946212
479 4 8.6991212547 23.6047130365 1.26371982
480 4 8.6991212547 23.6047130365 13.8630946212
481 4 17.3932086428 6.2165643424 1.26371982
482 4 17.3932086428 6.2165643424 13.8630946212
483 4 17.3932086428 14.9105995662 1.26371982
484 4 17.3932086428 14.9105995662 13.8630946212
485 4 17.3932086428 23.6047130365 1.26371982
486 4 17.3932086428 23.6047130365 13.8630946212
487 4 0.0236304823 2.4042320356 9.6274787268
488 4 0.0236304823 2.4042320356 22.2269039256
489 4 0.0236304823 11.0982933415 9.6274787268
490 4 0.0236304823 11.0982933415 22.2269039256
491 4 0.0236304823 19.7924068119 9.6274787268
492 4 0.0236304823 19.7924068119 22.2269039256
493 4 8.7176917882 2.4042320356 9.6274787268
494 4 8.7176917882 2.4042320356 22.2269039256
495 4 8.7176917882 11.0982933415 9.6274787268
496 4 8.7176917882 11.0982933415 22.2269039256
497 4 8.7176917882 19.7924068119 9.6274787268
498 4 8.7176917882 19.7924068119 22.2269039256
499 4 17.4118052585 2.4042320356 9.6274787268
500 4 17.4118052585 2.4042320356 22.2269039256
501 4 17.4118052585 11.0982933415 9.6274787268
502 4 17.4118052585 11.0982933415 22.2269039256
503 4 17.4118052585 19.7924068119 9.6274787268
504 4 17.4118052585 19.7924068119 22.2269039256
505 4 0.0470783891 6.906699619 4.8945897132
506 4 0.0470783891 6.906699619 17.4939897132
507 4 0.0470783891 15.6007870072 4.8945897132
508 4 0.0470783891 15.6007870072 17.4939897132
509 4 0.0470783891 24.2949004775 4.8945897132
510 4 0.0470783891 24.2949004775 17.4939897132
511 4 8.7411657772 6.906699619 4.8945897132
512 4 8.7411657772 6.906699619 17.4939897132
513 4 8.7411657772 15.6007870072 4.8945897132
514 4 8.7411657772 15.6007870072 17.4939897132
515 4 8.7411657772 24.2949004775 4.8945897132
516 4 8.7411657772 24.2949004775 17.4939897132
517 4 17.4352010009 6.906699619 4.8945897132
518 4 17.4352010009 6.906699619 17.4939897132
519 4 17.4352010009 15.6007870072 4.8945897132
520 4 17.4352010009 15.6007870072 17.4939897132
521 4 17.4352010009 24.2949004775 4.8945897132
522 4 17.4352010009 24.2949004775 17.4939897132
523 4 0.0703437204 2.5387119104 0.8412115404
524 4 0.0703437204 2.5387119104 13.4406115404
525 4 0.0703437204 11.2327992985 0.8412115404
526 4 0.0703437204 11.2327992985 13.4406115404
527 4 0.0703437204 19.9269127688 0.8412115404
528 4 0.0703437204 19.9269127688 13.4406115404
529 4 8.7644311085 2.5387119104 0.8412115404
530 4 8.7644311085 2.5387119104 13.4406115404
531 4 8.7644311085 11.2327992985 0.8412115404
532 4 8.7644311085 11.2327992985 13.4406115404
533 4 8.7644311085 19.9269127688 0.8412115404
534 4 8.7644311085 19.9269127688 13.4406115404
535 4 17.4584924144 2.5387119104 0.8412115404
536 4 17.4584924144 2.5387119104 13.4406115404
537 4 17.4584924144 11.2327992985 0.8412115404
538 4 17.4584924144 11.2327992985 13.4406115404
539 4 17.4584924144 19.9269127688 0.8412115404
540 4 17.4584924144 19.9269127688 13.4406115404
541 4 1.692239867 8.2472730486 7.407691236
542 4 1.692239867 8.2472730486 20.007091236
543 4 1.692239867 16.9414126012 7.407691236
544 4 1.692239867 16.9414126012 20.007091236
545 4 1.692239867 25.6353956605 7.407691236
546 4 1.692239867 25.6353956605 20.007091236
547 4 10.3863011729 8.2472730486 7.407691236
548 4 10.3863011729 8.2472730486 20.007091236
549 4 10.3863011729 16.9414126012 7.407691236
550 4 10.3863011729 16.9414126012 20.007091236
551 4 10.3863011729 25.6353956605 7.407691236
552 4 10.3863011729 25.6353956605 20.007091236
553 4 19.0803885611 8.2472730486 7.407691236
554 4 19.0803885611 8.2472730486 20.007091236
555 4 19.0803885611 16.9414126012 7.407691236
556 4 19.0803885611 16.9414126012 20.007091236
557 4 19.0803885611 25.6353956605 7.407691236
558 4 19.0803885611 25.6353956605 20.007091236
559 4 1.7413526684 4.156878301 3.6706084008
560 4 1.7413526684 4.156878301 16.2700084008
561 4 1.7413526684 12.8509917713 3.6706084008
562 4 1.7413526684 12.8509917713 16.2700084008
563 4 1.7413526684 21.5450009128 3.6706084008
564 4 1.7413526684 21.5450009128 16.2700084008
565 4 10.4353878922 4.156878301 3.6706084008
566 4 10.4353878922 4.156878301 16.2700084008
567 4 10.4353878922 12.8509917713 3.6706084008
568 4 10.4353878922 12.8509917713 16.2700084008
569 4 10.4353878922 21.5450009128 3.6706084008
570 4 10.4353878922 21.5450009128 16.2700084008
571 4 19.1295013625 4.156878301 3.6706084008
572 4 19.1295013625 4.156878301 16.2700084008
573 4 19.1295013625 12.8509917713 3.6706084008
574 4 19.1295013625 12.8509917713 16.2700084008
575 4 19.1295013625 21.5450009128 3.6706084008
576 4 19.1295013625 21.5450009128 16.2700084008
577 4 1.8448468777 4.2411499215 7.553844276
578 4 1.8448468777 4.2411499215 20.1531938784
579 4 1.8448468777 12.9352112274 7.553844276
580 4 1.8448468777 12.9352112274 20.1531938784
581 4 1.8448468777 21.6292986155 7.553844276
582 4 1.8448468777 21.6292986155 20.1531938784
583 4 10.5389081836 4.2411499215 7.553844276
584 4 10.5389081836 4.2411499215 20.1531938784
585 4 10.5389081836 12.9352112274 7.553844276
586 4 10.5389081836 12.9352112274 20.1531938784
587 4 10.5389081836 21.6292986155 7.553844276
588 4 10.5389081836 21.6292986155 20.1531938784
589 4 19.2329955718 4.2411499215 7.553844276
590 4 19.2329955718 4.2411499215 20.1531938784
591 4 19.2329955718 12.9352112274 7.553844276
592 4 19.2329955718 12.9352112274 20.1531938784
593 4 19.2329955718 21.6292986155 7.553844276
594 4 19.2329955718 21.6292986155 20.1531938784
595 4 2.4750974002 8.5970876491 11.411402574
596 4 2.4750974002 8.5970876491 24.010802574
597 4 2.4750974002 17.2912011195 11.411402574
598 4 2.4750974002 17.2912011195 24.010802574
599 4 2.4750974002 25.985210261 11.411402574
600 4 2.4750974002 25.985210261 24.010802574
601 4 11.1692108705 8.5970876491 11.411402574
602 4 11.1692108705 8.5970876491 24.010802574
603 4 11.1692108705 17.2912011195 11.411402574
604 4 11.1692108705 17.2912011195 24.010802574
605 4 11.1692108705 25.985210261 11.411402574
606 4 11.1692108705 25.985210261 24.010802574
607 4 19.8631939298 8.5970876491 11.411402574
608 4 19.8631939298 8.5970876491 24.010802574
609 4 19.8631939298 17.2912011195 11.411402574
610 4 19.8631939298 17.2912011195 24.010802574
611 4 19.8631939298 25.985210261 11.411402574
612 4 19.8631939298 25.985210261 24.010802574
613 4 2.5497446852 0.2728981632 2.7590418108
614 4 2.5497446852 0.2728981632 15.3583914132
615 4 2.5497446852 8.9669594692 2.7590418108
616 4 2.5497446852 8.9669594692 15.3583914132
617 4 2.5497446852 17.6609946929 2.7590418108
618 4 2.5497446852 17.6609946929 15.3583914132
619 4 11.2438059911 0.2728981632 2.7590418108
620 4 11.2438059911 0.2728981632 15.3583914132
621 4 11.2438059911 8.9669594692 2.7590418108
622 4 11.2438059911 8.9669594692 15.3583914132
623 4 11.2438059911 17.6609946929 2.7590418108
624 4 11.2438059911 17.6609946929 15.3583914132
625 4 19.9378933792 0.2728981632 2.7590418108
626 4 19.9378933792 0.2728981632 15.3583914132
627 4 19.9378933792 8.9669594692 2.7590418108
628 4 19.9378933792 8.9669594692 15.3583914132
629 4 19.9378933792 17.6609946929 2.7590418108
630 4 19.9378933792 17.6609946929 15.3583914132
631 4 2.5836776404 4.6316006052 11.3441973744
632 4 2.5836776404 4.6316006052 23.9435973744
633 4 2.5836776404 13.3256879933 11.3441973744
634 4 2.5836776404 13.3256879933 23.9435973744
635 4 2.5836776404 22.0196971348 11.3441973744
636 4 2.5836776404 22.0196971348 23.9435973744
637 4 11.2777911107 4.6316006052 11.3441973744
638 4 11.2777911107 4.6316006052 23.9435973744
639 4 11.2777911107 13.3256879933 11.3441973744
640 4 11.2777911107 13.3256879933 23.9435973744
641 4 11.2777911107 22.0196971348 11.3441973744
642 4 11.2777911107 22.0196971348 23.9435973744
643 4 19.9718002523 4.6316006052 11.3441973744
644 4 19.9718002523 4.6316006052 23.9435973744