ITEM: TIMESTEP
0
ITEM: NUMBER OF ATOMS
32
ITEM: BOX BOUNDS xy xz yz pp pp pp
3.0272657245757604e-03 6.3938049081754240e+00 0.0000000000000000e+00
-3.1320509042145829e-03 9.9424138073475845e+00 0.0000000000000000e+00
2.7435269680358088e-02 2.0697951192719628e+01 4.4188505810433707e+00
ITEM: ATOMS id type xs ys zs fx fy fz
1 1 0.999986 0.618508 0.0597554 3.64118e-07 0 0.116125
2 1 0.499986 0.618508 0.0597554 -3.61954e-08 0 0.116125
3 1 0.249986 0.11851 0.0597529 -3.88405e-07 0 0.116191
4 1 0.749986 0.11851 0.0597529 5.98488e-07 0 0.116191
5 1 0.999986 0.41863 0.309761 2.11644e-07 0 0.00156314
6 1 0.249986 0.352665 0.18476 -3.83932e-07 0 0.012398
7 1 0.749986 0.352665 0.18476 2.35415e-07 0 0.0123984
8 1 0.499986 0.41863 0.309761 -2.17995e-10 0 0.00156292
9 1 0.999986 0.852667 0.184758 1.29803e-07 0 0.0124554
10 1 0.249986 0.91863 0.309759 -3.70702e-07 0 0.00164147
11 1 0.499986 0.852667 0.184758 -2.96693e-07 0 0.0124555
12 1 0.749986 0.91863 0.309759 3.93824e-07 0 0.00164133
13 1 0.999986 0.218735 0.559747 1.53756e-07 0 0.000636194
14 1 0.499986 0.218735 0.559747 -3.48035e-07 0 0.000636297
15 1 0.249986 0.718736 0.559747 -4.7531e-07 0 0.000623788
16 1 0.749986 0.718736 0.559747 3.32162e-07 0 0.000623369
17 1 0.249986 0.152786 0.434755 -4.54164e-07 0 -0.000631724
18 1 0.749986 0.152786 0.434755 5.17813e-07 0 -0.00063203
19 1 0.999986 0.652788 0.434755 1.49565e-07 0 -0.000647759
20 1 0.499986 0.652788 0.434755 -1.97673e-07 0 -0.000647511
21 1 0.999986 0.0188458 0.809742 1.28814e-07 0 -0.0124403
22 1 0.249986 0.952888 0.684743 -4.61027e-07 0 -0.00164049
23 1 0.499986 0.0188458 0.809742 -1.45847e-07 0 -0.0124402
24 1 0.749986 0.952888 0.684743 3.84937e-07 0 -0.00164037
25 1 0.999986 0.452888 0.684741 2.79369e-07 0 -0.00157987
26 1 0.249986 0.518847 0.809741 -4.12918e-07 0 -0.0124106
27 1 0.749986 0.518847 0.809741 3.61177e-07 0 -0.0124108
28 1 0.499986 0.452888 0.684741 -1.56347e-07 0 -0.00157948
29 1 0.249986 0.753002 0.934748 -5.28162e-07 0 -0.116147
30 1 0.749986 0.753002 0.934748 3.48476e-07 0 -0.116147
31 1 0.999986 0.253002 0.934746 3.1793e-07 0 -0.116136
32 1 0.499986 0.253002 0.934746 -1.69402e-07 0 -0.116136
ITEM: TIMESTEP
7
ITEM: NUMBER OF ATOMS
32
ITEM: BOX BOUNDS xy xz yz pp pp pp
3.0272657245757604e-03 6.3938049081754240e+00 0.0000000000000000e+00
-3.1320509042145829e-03 9.9424138073475845e+00 0.0000000000000000e+00
2.7435269680358088e-02 2.0697951192719628e+01 4.4188505810433707e+00
ITEM: ATOMS id type xs ys zs fx fy fz
1 1 0.999986 0.617157 0.061445 -4.01429e-07 0 -0.000208063
2 1 0.499986 0.617157 0.061445 4.89974e-07 0 -0.000208038
3 1 0.249986 0.117157 0.0614449 -1.39946e-07 0 -0.00020949
4 1 0.749986 0.117157 0.0614449 -5.31892e-07 0 -0.000208888
5 1 0.999986 0.417936 0.310628 1.81033e-07 0 0.000600394
6 1 0.249986 0.351537 0.186171 4.65673e-07 0 -8.72128e-05
7 1 0.749986 0.351537 0.186171 2.0474e-07 0 -8.73094e-05
8 1 0.499986 0.417936 0.310628 -2.68338e-07 0 0.000599725
9 1 0.999986 0.851538 0.186171 -5.47501e-07 0 -8.60003e-05
10 1 0.249986 0.917935 0.310628 -8.38231e-07 0 0.000599158
11 1 0.499986 0.851538 0.186171 2.40815e-07 0 -8.65181e-05
12 1 0.749986 0.917935 0.310628 8.06799e-07 0 0.000600505
13 1 0.999986 0.218954 0.559473 4.0725e-07 0 -0.00091539
14 1 0.499986 0.218954 0.559473 -3.78659e-07 0 -0.000912859
15 1 0.249986 0.718955 0.559473 3.6617e-07 0 -0.000911125
16 1 0.749986 0.718955 0.559473 -4.86908e-07 0 -0.00091176
17 1 0.249986 0.152567 0.435028 -6.84378e-07 0 0.000914393
18 1 0.749986 0.152567 0.435028 1.01512e-06 0 0.000914498
19 1 0.999986 0.652569 0.435028 -1.00271e-06 0 0.000913057
20 1 0.499986 0.652569 0.435028 7.1188e-07 0 0.00091346
21 1 0.999986 0.0199747 0.80833 -7.88801e-07 0 8.89732e-05
22 1 0.249986 0.953583 0.683874 -5.08706e-07 0 -0.000603717
23 1 0.499986 0.0199747 0.80833 4.29501e-07 0 8.83689e-05
24 1 0.749986 0.953583 0.683874 3.5819e-07 0 -0.000600417
25 1 0.999986 0.453582 0.683874 4.59753e-07 0 -0.000605405
26 1 0.249986 0.519975 0.80833 7.31525e-07 0 8.93209e-05
27 1 0.749986 0.519975 0.80833 -3.34721e-07 0 8.85499e-05
28 1 0.499986 0.453582 0.683874 -9.6975e-08 0 -0.000603458
29 1 0.249986 0.754354 0.933056 -1.98575e-07 0 0.000208669
30 1 0.749986 0.754354 0.933056 -1.74158e-07 0 0.000208556
31 1 0.999986 0.254353 0.933056 5.56494e-07 0 0.000208896
32 1 0.499986 0.254353 0.933056 -7.98809e-08 0 0.000209156
