ITEM: TIMESTEP
0
ITEM: NUMBER OF ATOMS
56
ITEM: BOX BOUNDS xy xz yz pp pp pp
-3.0798903107643127e+00 1.2203788340091705e+01 0.0000000000000000e+00
-8.4733366966247559e-03 5.5348814725875854e+00 -3.0612018108367920e+00
-2.9168844223022461e-02 1.9049128890037537e+01 0.0000000000000000e+00
ITEM: ATOMS id type xs ys zs fx fy fz
1 1 0.583223 4.41887e-05 0.132366 0 0.0394478 0.293518
2 1 0.333224 0.166624 0.132366 0 -0.0394611 0.293566
3 1 0.256412 2.39879e-05 0.275225 0 0.000980377 -0.00192451
4 1 0.006412 0.166644 0.275225 0 -0.000999451 -0.00191879
5 1 0.929547 1.9421e-05 0.418082 0 -6.67572e-05 0.000703812
6 1 0.083224 4.41295e-05 0.132366 0 0.0394478 0.293537
7 1 0.996602 0.500074 0.0609403 0 0.812555 0.767235
8 1 0.833225 0.166623 0.132366 0 -0.0394535 0.293587
9 1 0.746603 0.666593 0.0609403 0 -0.812531 0.767277
10 1 0.756413 2.39872e-05 0.275225 0 0.000976562 -0.00191116
11 1 0.679546 0.166647 0.418082 0 7.24792e-05 0.00069809
12 1 0.602671 2.47556e-05 0.560942 0 -8.01086e-05 -0.000335693
13 1 0.352672 0.166643 0.560942 0 7.05719e-05 -0.000337601
14 1 0.275804 2.39811e-05 0.703801 0 -0.000457764 8.39233e-05
15 1 0.0258046 0.166644 0.703801 0 0.000427246 7.62939e-05
16 1 0.94895 2.63435e-05 0.846651 0 0.00732422 -0.00549507
17 1 0.669835 0.500026 0.203802 0 0.00732231 0.0055027
18 1 0.506412 0.166645 0.275225 0 -0.00101471 -0.00191689
19 1 0.419836 0.66664 0.203802 0 -0.00730896 0.00550461
20 1 0.429548 2.01694e-05 0.418082 0 -8.39233e-05 0.000703812
21 1 0.342981 0.500023 0.346651 0 -0.000427246 -6.48499e-05
22 1 0.179547 0.166648 0.418082 0 6.67572e-05 0.000701904
23 1 0.0929807 0.666642 0.346651 0 0.000469208 -8.7738e-05
24 1 0.102672 2.49573e-05 0.560941 0 -8.39233e-05 -0.000328064
25 1 0.0161125 0.500025 0.489511 0 -7.62939e-05 0.000322342
26 1 0.852673 0.166643 0.560941 0 7.05719e-05 -0.000322342
27 1 0.766114 0.666642 0.489511 0 8.2016e-05 0.00034523
28 1 0.496602 0.500073 0.0609404 0 0.812605 0.767271
29 1 0.246602 0.666593 0.0609403 0 -0.812571 0.767262
30 1 0.169836 0.500026 0.203802 0 0.00732231 0.00550079
31 1 0.919836 0.666641 0.203802 0 -0.00732994 0.00551224
32 1 0.842981 0.500024 0.346651 0 -0.000457764 -8.58307e-05
33 1 0.698949 0.166641 0.846652 0 -0.00731659 -0.00553131
34 1 0.622183 7.47473e-05 0.989512 0 0.812534 -0.767212
35 1 0.372183 0.166594 0.989513 0 -0.812603 -0.767282
36 1 0.775803 2.44315e-05 0.703801 0 -0.0004673 8.2016e-05
37 1 0.689236 0.50002 0.632371 0 -7.24792e-05 -0.000717163
38 1 0.525805 0.166643 0.703801 0 0.000440598 8.7738e-05
39 1 0.439238 0.666647 0.632371 0 7.82013e-05 -0.000701904
40 1 0.448949 2.63314e-05 0.846651 0 0.00732422 -0.00550842
41 1 0.362373 0.500023 0.775228 0 0.000989914 0.0019207
42 1 0.198949 0.166641 0.846651 0 -0.00732231 -0.00550652
43 1 0.112373 0.666644 0.775228 0 -0.000984192 0.00190735
44 1 0.122183 7.37033e-05 0.989512 0 0.81258 -0.767246
45 1 0.0355615 0.500043 0.918087 0 0.0394516 -0.293524
46 1 0.59298 0.666643 0.346651 0 0.000469208 -7.82013e-05
47 1 0.516113 0.500025 0.489511 0 -7.24792e-05 0.000326157
48 1 0.266113 0.666642 0.489511 0 8.58307e-05 0.000326157
49 1 0.189238 0.500019 0.632371 0 -5.91278e-05 -0.000696182
50 1 0.939238 0.666647 0.63237 0 8.7738e-05 -0.000680923
51 1 0.862374 0.500022 0.775228 0 0.00100517 0.00191307
52 1 0.872181 0.166594 0.989513 0 -0.812548 -0.767277
53 1 0.78556 0.666624 0.918087 0 -0.0394592 -0.293592
54 1 0.612372 0.666643 0.775228 0 -0.000988007 0.00191879
55 1 0.535561 0.500044 0.918087 0 0.039463 -0.293558
56 1 0.285561 0.666624 0.918087 0 -0.0394554 -0.293549
ITEM: TIMESTEP
1
ITEM: NUMBER OF ATOMS
56
ITEM: BOX BOUNDS xy xz yz pp pp pp
-3.0798903107643127e+00 1.2203788340091705e+01 0.0000000000000000e+00
-8.4733366966247559e-03 5.5348814725875854e+00 -3.0612018108367920e+00
-2.9168844223022461e-02 1.9049128890037537e+01 0.0000000000000000e+00
ITEM: ATOMS id type xs ys zs fx fy fz
1 1 0.583698 0.000919919 0.134259 0 0.116385 0.0667934
2 1 0.333698 0.165748 0.134259 0 -0.116377 0.0667801
3 1 0.256409 4.5752e-05 0.275213 0 -0.00413704 0.0344429
4 1 0.0064089 0.166622 0.275213 0 0.00412369 0.0344372
5 1 0.929549 1.7939e-05 0.418086 0 -0.00062561 -0.00152016
6 1 0.0836982 0.00091986 0.134259 0 0.116371 0.0667934
7 1 0.997842 0.518112 0.0658892 0 0.217165 0.0763454
8 1 0.833699 0.165747 0.13426 0 -0.116375 0.0667953
9 1 0.747843 0.648555 0.0658895 0 -0.217155 0.0763645
10 1 0.75641 4.56666e-05 0.275213 0 -0.00413895 0.0344391
11 1 0.679548 0.166649 0.418087 0 0.000638962 -0.00152969
12 1 0.602671 2.29772e-05 0.560939 0 3.8147e-05 0.0011158
13 1 0.352672 0.166644 0.56094 0 -4.19617e-05 0.00111771
14 1 0.275805 1.38189e-05 0.703802 0 -0.00114822 -0.0050106
15 1 0.0258047 0.166654 0.703802 0 0.00113106 -0.0050106
16 1 0.948941 0.000188939 0.846616 0 -0.00779533 -0.126507
17 1 0.669844 0.500189 0.203837 0 -0.0077858 0.126524
18 1 0.506409 0.166622 0.275213 0 0.00412178 0.0344486
19 1 0.419845 0.666478 0.203837 0 0.00780106 0.126528
20 1 0.429549 1.83063e-05 0.418087 0 -0.000646591 -0.00152397
21 1 0.342981 0.500014 0.346651 0 -0.0011425 0.00501251
22 1 0.179548 0.166649 0.418087 0 0.000629425 -0.00152779
23 1 0.0929805 0.666653 0.346651 0 0.00114822 0.00501823
24 1 0.102671 2.30942e-05 0.560939 0 3.43323e-05 0.00111961
25 1 0.0161131 0.500023 0.489513 0 3.62396e-05 -0.00112724
26 1 0.852673 0.166645 0.560939 0 -4.19617e-05 0.00112724
27 1 0.766114 0.666644 0.489513 0 -2.67029e-05 -0.00111008
28 1 0.497841 0.518113 0.0658895 0 0.217159 0.0763302
29 1 0.247842 0.648554 0.0658894 0 -0.21715 0.0763321
30 1 0.169845 0.500189 0.203837 0 -0.00778961 0.126528
31 1 0.919845 0.666478 0.203837 0 0.0077858 0.126524
32 1 0.842981 0.500014 0.346651 0 -0.00115204 0.00501442
33 1 0.69894 0.166478 0.846616 0 0.0077858 -0.126549
34 1 0.620944 0.0181128 0.984564 0 0.217152 -0.0763416
35 1 0.370944 0.148554 0.984563 0 -0.217154 -0.0763359
36 1 0.775804 1.40575e-05 0.703802 0 -0.00115585 -0.00500679
37 1 0.689235 0.500018 0.632366 0 -0.000637054 0.00151062
38 1 0.525805 0.166653 0.703802 0 0.0011425 -0.0050106
39 1 0.439237 0.666649 0.632366 0 0.00063324 0.00152206
40 1 0.44894 0.000188927 0.846616 0 -0.00779152 -0.12652
41 1 0.362376 0.500045 0.77524 0 -0.00412941 -0.0344391
42 1 0.19894 0.166478 0.846616 0 0.0077877 -0.126537
43 1 0.112376 0.666622 0.77524 0 0.00413513 -0.0344448
44 1 0.120944 0.0181128 0.984563 0 0.217155 -0.0763264
45 1 0.0350873 0.500919 0.916193 0 0.11639 -0.0667782
46 1 0.59298 0.666653 0.346651 0 0.00114822 0.00501442
47 1 0.516113 0.500023 0.489513 0 4.57764e-05 -0.00112724
48 1 0.266113 0.666644 0.489514 0 -3.24249e-05 -0.00112915
49 1 0.189236 0.500018 0.632366 0 -0.000629425 0.00152588
50 1 0.939237 0.666649 0.632366 0 0.000642776 0.00153542
51 1 0.862377 0.500045 0.77524 0 -0.00412178 -0.0344505
52 1 0.870942 0.148555 0.984563 0 -0.217159 -0.0763664
53 1 0.785086 0.665748 0.916193 0 -0.116377 -0.066803
54 1 0.612376 0.666622 0.77524 0 0.00413322 -0.0344372
55 1 0.535087 0.50092 0.916193 0 0.116383 -0.066782
56 1 0.285087 0.665748 0.916193 0 -0.116386 -0.0667877
ITEM: TIMESTEP
2
ITEM: NUMBER OF ATOMS
56
ITEM: BOX BOUNDS xy xz yz pp pp pp
-3.0798903107643127e+00 1.2203788340091705e+01 0.0000000000000000e+00
-8.4733366966247559e-03 5.5348814725875854e+00 -3.0612018108367920e+00
-2.9168844223022461e-02 1.9049128890037537e+01 0.0000000000000000e+00
ITEM: ATOMS id type xs ys zs fx fy fz
1 1 0.584066 0.00974972 0.135732 0 0.0725021 -0.0172386
2 1 0.334067 0.156918 0.135732 0 -0.0725193 -0.0172215
3 1 0.256599 -0.000268115 0.275972 0 -0.00204849 0.0514336
4 1 0.00659903 0.166935 0.275972 0 0.00205231 0.0514374
5 1 0.92954 -2.95245e-05 0.418053 0 -0.00282097 0.0123329
6 1 0.084067 0.00974864 0.135732 0 0.0725155 -0.0172272
7 1 0.998263 0.534588 0.0675721 0 -0.0223045 -0.134506
8 1 0.834068 0.156918 0.135732 0 -0.0725155 -0.0172501
9 1 0.748265 0.63208 0.0675728 0 0.0222988 -0.134533
10 1 0.756601 -0.000268345 0.275972 0 -0.00205231 0.0514412
11 1 0.679539 0.166697 0.418053 0 0.00282097 0.012331
12 1 0.602677 2.58713e-05 0.560964 0 -0.00123024 -0.00327682
13 1 0.352678 0.166641 0.560964 0 0.00123215 -0.0032711
14 1 0.275777 -7.32939e-05 0.703691 0 -0.00712204 -0.0519962
15 1 0.0257771 0.16674 0.703691 0 0.00712967 -0.052002
16 1 0.948243 -0.000402473 0.843827 0 0.0268021 -0.0379295
17 1 0.670543 0.499598 0.206626 0 0.0267963 0.0379295
18 1 0.506599 0.166935 0.275972 0 0.0020504 0.0514336
19 1 0.420544 0.667069 0.206626 0 -0.0268021 0.0379124
20 1 0.42954 -3.07489e-05 0.418053 0 -0.00280952 0.0123291
21 1 0.343008 0.499927 0.346761 0 -0.00712395 0.0519962
22 1 0.17954 0.166697 0.418053 0 0.00282288 0.0123348
23 1 0.0930082 0.66674 0.346762 0 0.00712395 0.0519829
24 1 0.102678 2.56989e-05 0.560964 0 -0.00122643 -0.00326538
25 1 0.0161068 0.500026 0.489489 0 -0.00122643 0.00327873
26 1 0.852679 0.166641 0.560964 0 0.00123596 -0.00327301
27 1 0.766108 0.666642 0.489489 0 0.00122261 0.00327873
28 1 0.498263 0.534588 0.0675721 0 -0.0222778 -0.134499
29 1 0.248263 0.632079 0.067572 0 0.0222874 -0.134495
30 1 0.170544 0.499598 0.206626 0 0.0267887 0.0379181
31 1 0.920544 0.667069 0.206626 0 -0.0267963 0.0379257
32 1 0.843009 0.499927 0.346761 0 -0.00712395 0.0519867
33 1 0.698241 0.167069 0.843826 0 -0.0267849 -0.0379105
34 1 0.620522 0.0345875 0.982881 0 -0.0222855 0.134502
35 1 0.370522 0.132079 0.982881 0 0.0222912 0.134502
36 1 0.775776 -7.36341e-05 0.703691 0 -0.00711823 -0.0519886
37 1 0.689243 0.49997 0.6324 0 -0.00282288 -0.012331
38 1 0.525777 0.16674 0.703692 0 0.00711823 -0.0519943
39 1 0.439245 0.666697 0.6324 0 0.00281906 -0.012331
40 1 0.448242 -0.000402196 0.843827 0 0.0267982 -0.0379257
41 1 0.362186 0.499732 0.774481 0 -0.00205231 -0.0514355
42 1 0.198241 0.167069 0.843826 0 -0.0267906 -0.0379066
43 1 0.112185 0.666936 0.774481 0 0.00203323 -0.0514278
44 1 0.120522 0.0345878 0.982881 0 -0.022274 0.134491
45 1 0.0347187 0.509749 0.914721 0 0.072506 0.017231
46 1 0.593008 0.66674 0.346761 0 0.00712395 0.0519886
47 1 0.516107 0.500026 0.489489 0 -0.00122261 0.00327682
48 1 0.266107 0.666641 0.489489 0 0.00123024 0.0032711
49 1 0.189245 0.49997 0.6324 0 -0.00282097 -0.012331
50 1 0.939246 0.666698 0.6324 0 0.00281525 -0.012331
51 1 0.862187 0.499732 0.774481 0 -0.00205803 -0.0514221
52 1 0.87052 0.13208 0.98288 0 0.0223026 0.134527
53 1 0.784717 0.656919 0.914721 0 -0.0725231 0.0172348
54 1 0.612185 0.666935 0.774481 0 0.00204277 -0.051445
55 1 0.534718 0.509749 0.914721 0 0.0724983 0.0172291
56 1 0.284718 0.656918 0.914721 0 -0.0725079 0.0172272
ITEM: TIMESTEP
3
ITEM: NUMBER OF ATOMS
56
ITEM: BOX BOUNDS xy xz yz pp pp pp
-3.0798903107643127e+00 1.2203788340091705e+01 0.0000000000000000e+00
-8.4733366966247559e-03 5.5348814725875854e+00 -3.0612018108367920e+00
-2.9168844223022461e-02 1.9049128890037537e+01 0.0000000000000000e+00
ITEM: ATOMS id type xs ys zs fx fy fz
1 1 0.584105 0.0176551 0.135886 0 -0.0176487 0.0267792
2 1 0.334106 0.149012 0.135886 0 0.017662 0.0267677
3 1 0.256918 -0.000513126 0.277245 0 0.00772476 0.0161705
4 1 0.00691783 0.16718 0.277245 0 -0.00772476 0.0161762
5 1 0.929598 -0.000237558 0.418286 0 -0.00402641 0.0291672
6 1 0.0841056 0.0176546 0.135886 0 -0.017662 0.0267677
7 1 0.997738 0.538609 0.065477 0 0.0265274 0.0115776
8 1 0.834106 0.149012 0.135886 0 0.0176563 0.0267792
9 1 0.74774 0.628059 0.0654773 0 -0.0265274 0.0115719
10 1 0.756919 -0.000513664 0.277245 0 0.00772858 0.0161629
11 1 0.679597 0.166906 0.418286 0 0.00401497 0.0291653
12 1 0.602663 -5.69202e-05 0.560907 0 -0.00510216 -0.0154648
13 1 0.352664 0.166724 0.560908 0 0.0051136 -0.01548
14 1 0.27551 -0.00058751 0.702626 0 -0.00371361 -0.042181
15 1 0.0255101 0.167254 0.702626 0 0.00371361 -0.0421791
16 1 0.94782 0.00122357 0.842139 0 0.0418491 0.0612774
17 1 0.670966 0.501224 0.208314 0 0.0418472 -0.0612907
18 1 0.506918 0.16718 0.277245 0 -0.00772858 0.0161591
19 1 0.420967 0.665444 0.208314 0 -0.041853 -0.0612698
20 1 0.429599 -0.000238538 0.418286 0 -0.00400925 0.0291557
21 1 0.343275 0.499413 0.347827 0 -0.00371361 0.0421886
22 1 0.179598 0.166905 0.418286 0 0.00401497 0.0291595
23 1 0.0932751 0.667254 0.347827 0 0.00371933 0.0421867
24 1 0.102663 -5.69302e-05 0.560908 0 -0.00511169 -0.0154781
25 1 0.016121 0.499943 0.489545 0 -0.00510216 0.0154705
26 1 0.852665 0.166724 0.560908 0 0.00510216 -0.0154648
27 1 0.766122 0.666724 0.489546 0 0.00511551 0.0154572
28 1 0.497738 0.538611 0.065477 0 0.026516 0.0115623
29 1 0.247738 0.628057 0.065477 0 -0.0265198 0.0115681
30 1 0.170967 0.501223 0.208314 0 0.041853 -0.0612812
31 1 0.920967 0.665443 0.208314 0 -0.0418587 -0.0612888
32 1 0.843276 0.499412 0.347827 0 -0.00370407 0.0421944
33 1 0.697818 0.165444 0.842138 0 -0.0418606 0.0612907
34 1 0.621047 0.0386096 0.984976 0 0.0265236 -0.0115738
35 1 0.371047 0.128057 0.984976 0 -0.0265179 -0.0115719
36 1 0.775509 -0.000587785 0.702626 0 -0.00371361 -0.0421963
37 1 0.689185 0.499761 0.632167 0 -0.00402069 -0.0291462
38 1 0.52551 0.167254 0.702626 0 0.00372314 -0.0421963
39 1 0.439187 0.666905 0.632167 0 0.00401497 -0.0291615
40 1 0.447819 0.00122369 0.842139 0 0.0418472 0.0612793
41 1 0.361867 0.499487 0.773208 0 0.00772285 -0.0161724
42 1 0.197818 0.165444 0.842139 0 -0.0418549 0.0612793
43 1 0.111867 0.667179 0.773208 0 -0.00772095 -0.0161648
44 1 0.121047 0.0386107 0.984976 0 0.0265179 -0.0115528
45 1 0.0346801 0.517655 0.914567 0 -0.0176506 -0.0267792
46 1 0.593275 0.667254 0.347827 0 0.0037117 0.0421886
47 1 0.516121 0.499944 0.489545 0 -0.00512505 0.0154724
48 1 0.266121 0.666724 0.489545 0 0.00510597 0.0154781
49 1 0.189187 0.499762 0.632167 0 -0.00401688 -0.0291538
50 1 0.939188 0.666906 0.632167 0 0.00401497 -0.029171
51 1 0.861868 0.499487 0.773208 0 0.00772858 -0.0161724
52 1 0.871045 0.128059 0.984975 0 -0.0265331 -0.0115719
53 1 0.784679 0.649012 0.914567 0 0.0176659 -0.0267715
54 1 0.611867 0.66718 0.773208 0 -0.00772476 -0.0161705
55 1 0.534679 0.517654 0.914567 0 -0.0176525 -0.026783
56 1 0.284679 0.649012 0.914567 0 0.017662 -0.0267658
ITEM: TIMESTEP
4
ITEM: NUMBER OF ATOMS
56
ITEM: BOX BOUNDS xy xz yz pp pp pp
-3.0798903107643127e+00 1.2203788340091705e+01 0.0000000000000000e+00
-8.4733366966247559e-03 5.5348814725875854e+00 -3.0612018108367920e+00
-2.9168844223022461e-02 1.9049128890037537e+01 0.0000000000000000e+00
ITEM: ATOMS id type xs ys zs fx fy fz
1 1 0.584297 0.0200411 0.136651 0 -0.0180912 0.0176582
2 1 0.334297 0.146627 0.136651 0 0.0180893 0.0176659
3 1 0.257182 4.80761e-05 0.278296 0 0.0103989 -0.000177383
4 1 0.00718119 0.166619 0.278296 0 -0.010397 -0.000183105
5 1 0.929815 -0.00069773 0.419152 0 -0.00336456 0.0142021
6 1 0.0842973 0.0200397 0.136651 0 -0.0180988 0.0176716
7 1 0.997551 0.542965 0.0647284 0 0.00504112 0.00025177
8 1 0.834298 0.146627 0.136651 0 0.018095 0.0176735
9 1 0.747552 0.623703 0.0647284 0 -0.00505257 0.000263214
10 1 0.757183 4.77211e-05 0.278296 0 0.0104027 -0.000171661
11 1 0.679814 0.167365 0.419152 0 0.00338554 0.0142193
12 1 0.602556 -0.000549743 0.560482 0 -0.00686264 -0.0109711
13 1 0.352557 0.167218 0.560482 0 0.00684357 -0.0109653
14 1 0.275105 -0.0011729 0.701009 0 0.00775337 0.0242615
15 1 0.0251052 0.167839 0.701009 0 -0.00776672 0.0242748
16 1 0.948003 0.0057387 0.842871 0 0.00527573 0.000232697
17 1 0.670782 0.505739 0.207581 0 0.0052681 -0.000232697
18 1 0.507181 0.166618 0.278296 0 -0.0103893 -0.000167847
19 1 0.420783 0.660928 0.207582 0 -0.00527573 -0.000236511
20 1 0.429816 -0.000697069 0.419151 0 -0.00338936 0.014225
21 1 0.34368 0.498827 0.349444 0 0.00775909 -0.0242748
22 1 0.179815 0.167365 0.419152 0 0.00338936 0.0142136
23 1 0.09368 0.66784 0.349444 0 -0.00776672 -0.0242577
24 1 0.102557 -0.000550515 0.560482 0 -0.00683784 -0.0109692
25 1 0.0162277 0.499451 0.489971 0 -0.00686264 0.010973
26 1 0.852558 0.167217 0.560482 0 0.00685501 -0.0109711
27 1 0.766229 0.667218 0.489971 0 0.00684357 0.0109749
28 1 0.497551 0.542966 0.0647281 0 0.00505066 0.000263214
29 1 0.247551 0.623702 0.0647283 0 -0.00505066 0.000267029
30 1 0.170783 0.505738 0.207581 0 0.0052681 -0.000232697
31 1 0.920783 0.660927 0.207581 0 -0.00525284 -0.00022316
32 1 0.843681 0.498828 0.349444 0 0.00774765 -0.0242691
33 1 0.698002 0.160928 0.842871 0 -0.00526428 0.000225067
34 1 0.621235 0.042965 0.985725 0 0.00503922 -0.000257492
35 1 0.371234 0.123703 0.985724 0 -0.00505066 -0.000257492
36 1 0.775104 -0.00117314 0.701009 0 0.00775719 0.0242634
37 1 0.688968 0.499301 0.631301 0 -0.00337029 -0.0142326
38 1 0.525105 0.16784 0.701009 0 -0.00776863 0.0242767
39 1 0.43897 0.667364 0.631301 0 0.00339127 -0.0142212
40 1 0.448002 0.00573856 0.842871 0 0.00527 0.000232697
41 1 0.361603 0.500048 0.772157 0 0.010397 0.000185013
42 1 0.198002 0.160928 0.842871 0 -0.00527763 0.000234604
43 1 0.111603 0.666618 0.772157 0 -0.0103855 0.000171661
44 1 0.121235 0.0429661 0.985725 0 0.00505447 -0.000270844
45 1 0.0344884 0.520041 0.913802 0 -0.0180912 -0.017662
46 1 0.59368 0.66784 0.349444 0 -0.00776291 -0.024271
47 1 0.516228 0.49945 0.489971 0 -0.00683594 0.0109634
48 1 0.266228 0.667218 0.489971 0 0.00684547 0.0109673
49 1 0.18897 0.499302 0.631301 0 -0.00338173 -0.0142269
50 1 0.938971 0.667365 0.631301 0 0.00337982 -0.0142021
51 1 0.861605 0.500048 0.772157 0 0.0103931 0.000173569
52 1 0.871233 0.123703 0.985724 0 -0.00504494 -0.000267029
53 1 0.784487 0.646627 0.913801 0 0.0180931 -0.017664
54 1 0.611603 0.666618 0.772157 0 -0.010397 0.00018692
55 1 0.534488 0.52004 0.913802 0 -0.0180893 -0.0176716
56 1 0.284488 0.646627 0.913802 0 0.0180912 -0.017664
ITEM: TIMESTEP
5
ITEM: NUMBER OF ATOMS
56
ITEM: BOX BOUNDS xy xz yz pp pp pp
-3.0798903107643127e+00 1.2203788340091705e+01 0.0000000000000000e+00
-8.4733366966247559e-03 5.5348814725875854e+00 -3.0612018108367920e+00
-2.9168844223022461e-02 1.9049128890037537e+01 0.0000000000000000e+00
ITEM: ATOMS id type xs ys zs fx fy fz
1 1 0.584394 0.0190225 0.137042 0 -0.002882 0.000989914
2 1 0.334395 0.147645 0.137042 0 0.00288391 0.000984192
3 1 0.257199 0.000769652 0.278367 0 0.00527763 0.00694466
4 1 0.00719886 0.165897 0.278367 0 -0.00527954 0.00694084
5 1 0.929898 -0.000950819 0.419483 0 -0.00231934 -0.00352859
6 1 0.0843951 0.0190206 0.137042 0 -0.002882 0.000980377
7 1 0.997539 0.543602 0.0646805 0 -0.00464439 -0.0119724
8 1 0.834396 0.147646 0.137042 0 0.00288963 0.000980377
9 1 0.74754 0.623065 0.0646807 0 0.00463104 -0.0119743
10 1 0.7572 0.00076956 0.278367 0 0.00527382 0.00694084
11 1 0.679897 0.167619 0.419484 0 0.00230026 -0.00353622
12 1 0.602496 -0.00103457 0.560243 0 -0.0016613 0.0105953
13 1 0.352497 0.167701 0.560243 0 0.00165939 0.0105953
14 1 0.275192 -0.000705596 0.701357 0 0.00318527 0.00283623
15 1 0.0251925 0.167371 0.701358 0 -0.00316429 0.00283813
16 1 0.948017 0.00640275 0.842927 0 -0.00411797 0.0019455
17 1 0.670768 0.506402 0.207525 0 -0.00410461 -0.00194931
18 1 0.507199 0.165897 0.278367 0 -0.00528526 0.00694275
19 1 0.420769 0.660264 0.207526 0 0.0041275 -0.0019474
20 1 0.429899 -0.00095167 0.419484 0 -0.00230408 -0.00354958
21 1 0.343593 0.499295 0.349095 0 0.00317192 -0.00284004
22 1 0.179898 0.167619 0.419483 0 0.00230026 -0.00353241
23 1 0.0935928 0.667372 0.349096 0 -0.00317192 -0.00283813
24 1 0.102497 -0.00103377 0.560243 0 -0.00167084 0.0105896
25 1 0.0162876 0.498966 0.49021 0 -0.00164604 -0.0105972
26 1 0.852498 0.167702 0.560243 0 0.00165367 0.0105934
27 1 0.766289 0.667702 0.49021 0 0.00166702 -0.0105934
28 1 0.497539 0.543604 0.0646804 0 -0.00464249 -0.0119801
29 1 0.247539 0.623064 0.0646807 0 0.00463867 -0.0119762
30 1 0.170769 0.506402 0.207525 0 -0.00411606 -0.0019455
31 1 0.920769 0.660265 0.207526 0 0.00410843 -0.00195122
32 1 0.843594 0.499295 0.349095 0 0.00318718 -0.00283623
33 1 0.698016 0.160265 0.842927 0 0.00411415 0.00194931
34 1 0.621247 0.0436023 0.985772 0 -0.00463486 0.0119705
35 1 0.371246 0.123065 0.985772 0 0.00463295 0.0119781
36 1 0.775191 -0.000705586 0.701357 0 0.00317764 0.00284195
37 1 0.688885 0.499048 0.630969 0 -0.00230026 0.00354004
38 1 0.525193 0.167371 0.701357 0 -0.00317001 0.00283432
39 1 0.438887 0.667619 0.630969 0 0.00229836 0.00354385
40 1 0.448016 0.00640222 0.842927 0 -0.00411797 0.00194168
41 1 0.361586 0.500769 0.772086 0 0.00527763 -0.00694466
42 1 0.198016 0.160264 0.842927 0 0.0041256 0.0019474
43 1 0.111586 0.665897 0.772086 0 -0.00528908 -0.00694847
44 1 0.121247 0.0436044 0.985773 0 -0.00464439 0.0119801
45 1 0.0343906 0.519023 0.913411 0 -0.002882 -0.00097847
46 1 0.593592 0.667372 0.349095 0 -0.00316429 -0.0028286
47 1 0.516288 0.498967 0.49021 0 -0.00167274 -0.0105877
48 1 0.266288 0.667701 0.49021 0 0.00166893 -0.0105896
49 1 0.188887 0.499048 0.630969 0 -0.00230598 0.00353622
50 1 0.938888 0.667619 0.63097 0 0.00230598 0.00353241
51 1 0.861587 0.500769 0.772086 0 0.00527954 -0.00694656
52 1 0.871244 0.123065 0.985772 0 0.00463676 0.0119724
53 1 0.784389 0.647646 0.913411 0 0.00288391 -0.000982285
54 1 0.611586 0.665897 0.772086 0 -0.00527763 -0.00695419
55 1 0.53439 0.519021 0.913411 0 -0.00288773 -0.000972748
56 1 0.28439 0.647645 0.913411 0 0.002882 -0.000984192
ITEM: TIMESTEP
6
ITEM: NUMBER OF ATOMS
56
ITEM: BOX BOUNDS xy xz yz pp pp pp
-3.0798903107643127e+00 1.2203788340091705e+01 0.0000000000000000e+00
-8.4733366966247559e-03 5.5348814725875854e+00 -3.0612018108367920e+00
-2.9168844223022461e-02 1.9049128890037537e+01 0.0000000000000000e+00
ITEM: ATOMS id type xs ys zs fx fy fz
1 1 0.584425 0.0185328 0.137166 0 -0.000831604 0.00212669
2 1 0.334426 0.148135 0.137166 0 0.000829697 0.00213623
3 1 0.257243 0.00136902 0.278542 0 -0.00204086 -0.000133514
4 1 0.00724286 0.165298 0.278542 0 0.00204468 -0.000131607
5 1 0.9299 -0.00119757 0.41949 0 0.00129318 0.000963211
6 1 0.0844261 0.0185307 0.137166 0 -0.000835419 0.00212479
7 1 0.997468 0.543405 0.0643967 0 0.00274277 0.00246048
8 1 0.834427 0.148136 0.137166 0 0.000822067 0.00213051
9 1 0.747469 0.62326 0.0643969 0 -0.00273323 0.00244331
10 1 0.757244 0.0013687 0.278542 0 -0.00203133 -0.000131607
11 1 0.679899 0.167865 0.41949 0 -0.00127602 0.000957489
12 1 0.602541 -0.00129026 0.56042 0 5.91278e-05 0.00390816
13 1 0.352542 0.167957 0.560421 0 -4.57764e-05 0.00390816
14 1 0.275231 -0.00033558 0.701512 0 -0.000326157 -0.000627518
15 1 0.0252314 0.167003 0.701513 0 0.000312805 -0.000640869
16 1 0.948032 0.00625426 0.842986 0 -0.00112724 0.00530243
17 1 0.670753 0.506255 0.207467 0 -0.00112915 -0.00530052
18 1 0.507243 0.165297 0.278543 0 0.00205231 -0.000131607
19 1 0.420754 0.660413 0.207467 0 0.00111961 -0.00529861
20 1 0.4299 -0.00119762 0.419489 0 0.00127602 0.000963211
21 1 0.343554 0.499664 0.34894 0 -0.000318527 0.000640869
22 1 0.1799 0.167865 0.41949 0 -0.00128555 0.000955582
23 1 0.093554 0.667003 0.348941 0 0.000322342 0.000619888
24 1 0.102541 -0.0012898 0.56042 0 5.72205e-05 0.00391197
25 1 0.016243 0.498711 0.490032 0 3.05176e-05 -0.00390434
26 1 0.852543 0.167957 0.560421 0 -3.05176e-05 0.00390434
27 1 0.766244 0.667958 0.490032 0 -5.91278e-05 -0.00390816
28 1 0.497467 0.543408 0.0643964 0 0.0027523 0.00245285
29 1 0.247468 0.62326 0.0643968 0 -0.00274849 0.00244331
30 1 0.170754 0.506253 0.207467 0 -0.00112152 -0.00530052
31 1 0.920754 0.660413 0.207467 0 0.00112724 -0.0052948
32 1 0.843555 0.499665 0.348941 0 -0.000329971 0.000629425
33 1 0.69803 0.160413 0.842986 0 0.0011158 0.00529861
34 1 0.621318 0.0434065 0.986056 0 0.00273895 -0.00244522
35 1 0.371317 0.12326 0.986056 0 -0.0027523 -0.00245667
36 1 0.77523 -0.0003361 0.701512 0 -0.000318527 -0.000631332
37 1 0.688883 0.498803 0.630963 0 0.00126648 -0.000957489
38 1 0.525231 0.167002 0.701512 0 0.000322342 -0.000635147
39 1 0.438885 0.667865 0.630963 0 -0.00128937 -0.000965118
40 1 0.448031 0.00625363 0.842986 0 -0.00112534 0.00530243
41 1 0.361542 0.501369 0.77191 0 -0.00202942 0.000131607
42 1 0.198031 0.160413 0.842986 0 0.00111961 0.00529861
43 1 0.111542 0.665297 0.77191 0 0.0020504 0.000141144
44 1 0.121318 0.0434081 0.986056 0 0.0027504 -0.00244141
45 1 0.0343596 0.518533 0.913287 0 -0.000831604 -0.00213432
46 1 0.593554 0.667003 0.348941 0 0.00030899 0.00063324
47 1 0.516243 0.498711 0.490032 0 5.14984e-05 -0.00391006
48 1 0.266243 0.667957 0.490032 0 -4.95911e-05 -0.00390816
49 1 0.188885 0.498802 0.630963 0 0.00128746 -0.000959396
50 1 0.938886 0.667865 0.630963 0 -0.00128365 -0.000967026
51 1 0.861543 0.501369 0.77191 0 -0.00203896 0.000135422
52 1 0.871316 0.123261 0.986056 0 -0.00273895 -0.00244331
53 1 0.784358 0.648136 0.913287 0 0.000831604 -0.00213623
54 1 0.611542 0.665297 0.77191 0 0.00204468 0.000131607
55 1 0.534359 0.518531 0.913287 0 -0.000833511 -0.00213242
56 1 0.284359 0.648135 0.913287 0 0.000831604 -0.0021286
ITEM: TIMESTEP
7
ITEM: NUMBER OF ATOMS
56
ITEM: BOX BOUNDS xy xz yz pp pp pp
-3.0798903107643127e+00 1.2203788340091705e+01 0.0000000000000000e+00
-8.4733366966247559e-03 5.5348814725875854e+00 -3.0612018108367920e+00
-2.9168844223022461e-02 1.9049128890037537e+01 0.0000000000000000e+00
ITEM: ATOMS id type xs ys zs fx fy fz
1 1 0.584439 0.0184145 0.137221 0 0.000480652 -0.000654221
2 1 0.33444 0.148253 0.137221 0 -0.000471115 -0.000648499
3 1 0.257249 0.00132484 0.278564 0 -0.00207901 -0.000427246
4 1 0.00724828 0.165342 0.278564 0 0.0020771 -0.000427246
5 1 0.929905 -0.00115139 0.419508 0 0.00107956 0.00146294
6 1 0.0844399 0.0184121 0.137221 0 0.000486374 -0.000642776
7 1 0.997469 0.543548 0.0644021 0 0.000431061 -0.0017662
8 1 0.834441 0.148254 0.137221 0 -0.000484467 -0.000654221
9 1 0.74747 0.623118 0.064402 0 -0.000427246 -0.00177002
10 1 0.75725 0.00132507 0.278564 0 -0.00207138 -0.000425339
11 1 0.679903 0.16782 0.419508 0 -0.00107574 0.00147057
12 1 0.602564 -0.00132156 0.560515 0 0.000297546 -0.000339508
13 1 0.352565 0.167989 0.560515 0 -0.000301361 -0.000329971
14 1 0.275234 -0.000305159 0.701522 0 -0.000684738 0.00199127
15 1 0.0252338 0.166971 0.701522 0 0.000686646 0.00199699
16 1 0.948058 0.00616431 0.843089 0 -0.000234604 7.62939e-06
17 1 0.670727 0.506165 0.207363 0 -0.000230789 1.90735e-06
18 1 0.507249 0.165342 0.278564 0 0.00207138 -0.000432968
19 1 0.420729 0.660503 0.207364 0 0.000225067 1.90735e-06
20 1 0.429905 -0.00115239 0.419508 0 0.00108147 0.00147247
21 1 0.343551 0.499695 0.348931 0 -0.000686646 -0.00199318
22 1 0.179904 0.167819 0.419508 0 -0.00107574 0.00147247
23 1 0.0935515 0.666972 0.348931 0 0.000684738 -0.00198555
24 1 0.102565 -0.00132126 0.560515 0 0.000303268 -0.000331879
25 1 0.0162193 0.498678 0.489938 0 0.000303268 0.000329971
26 1 0.852566 0.16799 0.560515 0 -0.000310898 -0.000335693
27 1 0.766221 0.667989 0.489938 0 -0.000299454 0.000337601
28 1 0.497469 0.543551 0.0644017 0 0.000415802 -0.00176239
29 1 0.247469 0.623117 0.0644019 0 -0.000429153 -0.00177193
30 1 0.170728 0.506164 0.207364 0 -0.000234604 0
31 1 0.920728 0.660503 0.207364 0 0.000228882 -3.8147e-06
32 1 0.843552 0.499695 0.348931 0 -0.000686646 -0.00199509
33 1 0.698056 0.160502 0.843089 0 0.000232697 0
34 1 0.621316 0.043549 0.986051 0 0.000427246 0.0017662
35 1 0.371316 0.123117 0.986051 0 -0.000417709 0.00177574
36 1 0.775233 -0.000305279 0.701522 0 -0.000688553 0.00199318
37 1 0.688879 0.498847 0.630945 0 0.00108528 -0.00146866
38 1 0.525234 0.166972 0.701522 0 0.000680923 0.00199699
39 1 0.438881 0.667819 0.630945 0 -0.00107574 -0.00146675
40 1 0.448057 0.00616378 0.843089 0 -0.000228882 1.90735e-06
41 1 0.361536 0.501325 0.771889 0 -0.00208092 0.000431061
42 1 0.198056 0.160503 0.843089 0 0.000236511 5.72205e-06
43 1 0.111536 0.665342 0.771889 0 0.00206757 0.000429153
44 1 0.121317 0.0435512 0.986051 0 0.000427246 0.00175476
45 1 0.0343457 0.518415 0.913232 0 0.000473022 0.000650406
46 1 0.593551 0.666972 0.348931 0 0.000688553 -0.00199699
47 1 0.516219 0.498679 0.489938 0 0.000299454 0.000331879
48 1 0.26622 0.667989 0.489938 0 -0.000305176 0.000329971
49 1 0.18888 0.498848 0.630945 0 0.00108147 -0.00146866
50 1 0.938881 0.667819 0.630945 0 -0.00107384 -0.00147057
51 1 0.861537 0.501325 0.771889 0 -0.00206947 0.000423431
52 1 0.871314 0.123119 0.986051 0 -0.000427246 0.00177383
53 1 0.784344 0.648254 0.913232 0 -0.000482559 0.000640869
54 1 0.611536 0.665342 0.771889 0 0.00207138 0.000434875
55 1 0.534345 0.518413 0.913232 0 0.000488281 0.000638962
56 1 0.284345 0.648254 0.913232 0 -0.000478745 0.000644684
ITEM: TIMESTEP
8
ITEM: NUMBER OF ATOMS
56
ITEM: BOX BOUNDS xy xz yz pp pp pp
-3.0798903107643127e+00 1.2203788340091705e+01 0.0000000000000000e+00
-8.4733366966247559e-03 5.5348814725875854e+00 -3.0612018108367920e+00
-2.9168844223022461e-02 1.9049128890037537e+01 0.0000000000000000e+00
ITEM: ATOMS id type xs ys zs fx fy fz
1 1 0.58444 0.0184177 0.137222 0 0.000278473 -4.19617e-05
2 1 0.33444 0.148251 0.137222 0 -0.000291824 -3.8147e-05
3 1 0.257248 0.00112853 0.27856 0 0.000234604 -2.47955e-05
4 1 0.00724734 0.165538 0.27856 0 -0.000242233 -2.09808e-05
5 1 0.929915 -0.00104183 0.419551 0 -0.000436783 -0.000707626
6 1 0.0844404 0.0184157 0.137223 0 0.00028038 -4.00543e-05
7 1 0.997458 0.543633 0.064359 0 0.000434875 -0.000391006
8 1 0.834441 0.14825 0.137222 0 -0.000274658 -3.24249e-05
9 1 0.74746 0.623034 0.0643586 0 -0.00044632 -0.000377655
10 1 0.757249 0.00112962 0.27856 0 0.000225067 -3.05176e-05
11 1 0.679914 0.167711 0.419551 0 0.000411987 -0.000696182
12 1 0.60257 -0.0013058 0.560537 0 0.000606537 0.000171661
13 1 0.352571 0.167973 0.560538 0 -0.00060463 0.000164032
14 1 0.275247 -0.00035506 0.701576 0 -0.00037384 0.000232697
15 1 0.0252473 0.167021 0.701576 0 0.000377655 0.000238419
16 1 0.948067 0.00611428 0.843123 0 -0.000137329 7.43866e-05
17 1 0.670719 0.506115 0.20733 0 -0.000135422 -8.2016e-05
18 1 0.507248 0.165538 0.27856 0 -0.000234604 -1.90735e-05
19 1 0.42072 0.660552 0.20733 0 0.000152588 -9.34601e-05
20 1 0.429916 -0.00104298 0.419551 0 -0.000423431 -0.00069809
21 1 0.343538 0.499645 0.348877 0 -0.000377655 -0.000232697
22 1 0.179915 0.16771 0.419551 0 0.000425339 -0.000705719
23 1 0.093538 0.667022 0.348877 0 0.000371933 -0.000238419
24 1 0.102571 -0.00130506 0.560538 0 0.00060463 0.000169754
25 1 0.0162137 0.498694 0.489915 0 0.000623703 -0.000169754
26 1 0.852572 0.167973 0.560538 0 -0.000608444 0.000165939