ITEM: TIMESTEP
0
ITEM: NUMBER OF ATOMS
48
ITEM: BOX BOUNDS xy xz yz pp pp pp
-6.2418807744979858e+00 8.6109705567359924e+00 2.5110912919044495e+00
-1.0506033897399902e-02 9.6185076832771301e+00 -6.2273239493370056e+00
-2.6944518089294434e-02 1.9544072151184082e+01 3.6519104242324829e-01
ITEM: ATOMS id type xs ys zs fx fy fz
1 1 0.954731 0.165578 0.0319985 0 0 1.57456
2 1 0.513024 0.0752984 0.0528317 0 0 0.220108
3 1 0.70354 0.123911 0.656998 0 0 -0.00131798
4 1 0.961357 0.950298 0.927832 0 0 -1.57456
5 1 0.611596 0.158632 0.802832 0 0 0.00814188
6 1 0.403064 0.040578 0.906998 0 0 -0.220108
7 1 0.0533019 0.248911 0.781998 0 0 0.0156999
8 1 0.00401618 0.207245 0.406998 0 0 7.60555e-05
9 1 0.261834 0.0336318 0.677832 0 0 -0.00447452
10 1 0.912072 0.241965 0.552832 0 0 -7.56979e-05
11 1 0.862786 0.200298 0.177832 0 0 -0.0157
12 1 0.654254 0.0822446 0.281998 0 0 0.00447464
13 1 0.304492 0.290578 0.156998 0 0 -0.00814211
14 1 0.56231 0.116965 0.427832 0 0 0.000139952
15 1 0.954731 0.498911 0.0319984 0 0 1.57457
16 1 0.513024 0.408632 0.0528317 0 0 0.220107
17 1 0.70354 0.457245 0.656998 0 0 -0.00131834
18 1 0.961357 0.283632 0.927832 0 0 -1.57456
19 1 0.611596 0.491965 0.802832 0 0 0.00814176
20 1 0.403064 0.373911 0.906998 0 0 -0.220107
21 1 0.053302 0.582245 0.781998 0 0 0.0156997
22 1 0.353778 0.332245 0.531998 0 0 -0.000138879
23 1 0.00401616 0.540578 0.406998 0 0 7.60555e-05
24 1 0.261834 0.366965 0.677832 0 0 -0.0044744
25 1 0.912072 0.575298 0.552832 0 0 -7.61747e-05
26 1 0.212548 0.325298 0.302832 0 0 0.00131786
27 1 0.862786 0.533632 0.177832 0 0 -0.0157005
28 1 0.654254 0.415578 0.281998 0 0 0.00447452
29 1 0.304492 0.623911 0.156998 0 0 -0.00814235
30 1 0.56231 0.450298 0.427832 0 0 0.000139356
31 1 0.954731 0.832245 0.0319985 0 0 1.57456
32 1 0.513024 0.741965 0.0528317 0 0 0.220108
33 1 0.70354 0.790578 0.656998 0 0 -0.00131822
34 1 0.961357 0.616965 0.927832 0 0 -1.57456
35 1 0.611596 0.825298 0.802832 0 0 0.00814199
36 1 0.403064 0.707245 0.906998 0 0 -0.220108
37 1 0.0533019 0.915578 0.781998 0 0 0.0156997
38 1 0.353778 0.665578 0.531998 0 0 -0.000140071
39 1 0.00401615 0.873911 0.406998 0 0 7.62939e-05
40 1 0.261834 0.700298 0.677832 0 0 -0.00447381
41 1 0.912072 0.908632 0.552832 0 0 -7.70092e-05
42 1 0.212548 0.658632 0.302832 0 0 0.00131834
43 1 0.862786 0.866965 0.177832 0 0 -0.0157
44 1 0.654254 0.748911 0.281998 0 0 0.00447452
45 1 0.304492 0.957245 0.156998 0 0 -0.00814235
46 1 0.56231 0.783632 0.427832 0 0 0.000139952
47 1 0.353778 0.998911 0.531998 0 0 -0.000139594
48 1 0.212548 0.991965 0.302832 0 0 0.00131834
ITEM: TIMESTEP
1
ITEM: NUMBER OF ATOMS
48
ITEM: BOX BOUNDS xy xz yz pp pp pp
-6.2418807744979858e+00 8.6109705567359924e+00 2.5110912919044495e+00
-1.0506033897399902e-02 9.6185076832771301e+00 -6.2273239493370056e+00
-2.6944518089294434e-02 1.9544072151184082e+01 3.6519104242324829e-01
ITEM: ATOMS id type xs ys zs fx fy fz
1 1 0.960017 0.165377 0.037108 0 0 0.670473
2 1 0.513763 0.0752703 0.053546 0 0 0.145087
3 1 0.703536 0.123912 0.656994 0 0 -0.00674164
4 1 0.956071 0.9505 0.922722 0 0 -0.670472
5 1 0.611623 0.158631 0.802858 0 0 -0.0833311
6 1 0.402325 0.0406061 0.906284 0 0 -0.145087
7 1 0.0533546 0.248909 0.782049 0 0 -0.0574137
8 1 0.00401643 0.207245 0.406999 0 0 -0.0010426
9 1 0.261819 0.0336323 0.677817 0 0 -0.00947917
10 1 0.912071 0.241965 0.552831 0 0 0.00104237
11 1 0.862733 0.2003 0.177781 0 0 0.0574143
12 1 0.654269 0.082244 0.282013 0 0 0.00947881
13 1 0.304465 0.290579 0.156972 0 0 0.0833309
14 1 0.56231 0.116965 0.427832 0 0 -0.000944018
15 1 0.960017 0.49871 0.037108 0 0 0.670474
16 1 0.513763 0.408604 0.053546 0 0 0.145087
17 1 0.703536 0.457245 0.656994 0 0 -0.00674152
18 1 0.956071 0.283833 0.922722 0 0 -0.670473
19 1 0.611623 0.491964 0.802858 0 0 -0.0833309
20 1 0.402325 0.373939 0.906284 0 0 -0.145087
21 1 0.0533547 0.582243 0.782049 0 0 -0.0574148
22 1 0.353778 0.332245 0.531998 0 0 0.000944495
23 1 0.00401642 0.540578 0.406999 0 0 -0.00104296
24 1 0.261819 0.366966 0.677817 0 0 -0.00947869
25 1 0.912071 0.575298 0.552831 0 0 0.00104237
26 1 0.212552 0.325298 0.302836 0 0 0.00674152
27 1 0.862733 0.533634 0.177781 0 0 0.0574133
28 1 0.654269 0.415577 0.282013 0 0 0.00947881
29 1 0.304465 0.623912 0.156972 0 0 0.0833308
30 1 0.56231 0.450298 0.427832 0 0 -0.000944257
31 1 0.960017 0.832043 0.037108 0 0 0.670473
32 1 0.513763 0.741937 0.053546 0 0 0.145087
33 1 0.703536 0.790578 0.656994 0 0 -0.00674152
34 1 0.956071 0.617167 0.922722 0 0 -0.670473
35 1 0.611623 0.825297 0.802858 0 0 -0.0833308
36 1 0.402325 0.707273 0.906284 0 0 -0.145087
37 1 0.0533547 0.915576 0.782049 0 0 -0.0574144
38 1 0.353778 0.665578 0.531998 0 0 0.000944376
39 1 0.00401641 0.873911 0.406999 0 0 -0.00104189
40 1 0.261819 0.700299 0.677817 0 0 -0.00947845
41 1 0.912071 0.908632 0.552831 0 0 0.00104201
42 1 0.212552 0.658632 0.302836 0 0 0.00674188
43 1 0.862733 0.866967 0.177781 0 0 0.0574139
44 1 0.654269 0.748911 0.282013 0 0 0.00947952
45 1 0.304465 0.957246 0.156972 0 0 0.0833306
46 1 0.56231 0.783632 0.427832 0 0 -0.000944376
47 1 0.353778 0.998911 0.531998 0 0 0.000944376
48 1 0.212552 0.991965 0.302836 0 0 0.00674164
ITEM: TIMESTEP
2
ITEM: NUMBER OF ATOMS
48
ITEM: BOX BOUNDS xy xz yz pp pp pp
-6.2418807744979858e+00 8.6109705567359924e+00 2.5110912919044495e+00
-1.0506033897399902e-02 9.6185076832771301e+00 -6.2273239493370056e+00
-2.6944518089294434e-02 1.9544072151184082e+01 3.6519104242324829e-01
ITEM: ATOMS id type xs ys zs fx fy fz
1 1 0.965304 0.165175 0.0422176 0 0 -0.010867
2 1 0.514907 0.0752267 0.0546517 0 0 0.047372
3 1 0.703482 0.123914 0.656943 0 0 -0.0186112
4 1 0.950784 0.950701 0.917613 0 0 0.0108672
5 1 0.610966 0.158656 0.802223 0 0 -0.160589
6 1 0.401181 0.0406497 0.905178 0 0 -0.0473721
7 1 0.0529019 0.248927 0.781612 0 0 -0.132122
8 1 0.00400821 0.207245 0.406991 0 0 0.00047946
9 1 0.261744 0.0336352 0.677745 0 0 -0.0227604
10 1 0.91208 0.241965 0.552839 0 0 -0.00047946
11 1 0.863186 0.200283 0.178218 0 0 0.132122
12 1 0.654344 0.0822412 0.282085 0 0 0.0227605
13 1 0.305122 0.290554 0.157607 0 0 0.160589
14 1 0.562303 0.116965 0.427825 0 0 0.0010525
15 1 0.965304 0.498508 0.0422176 0 0 -0.0108674
16 1 0.514907 0.40856 0.0546517 0 0 0.0473722
17 1 0.703482 0.457247 0.656943 0 0 -0.0186113
18 1 0.950784 0.284035 0.917613 0 0 0.0108675
19 1 0.610966 0.491989 0.802223 0 0 -0.160589
20 1 0.401181 0.373983 0.905178 0 0 -0.0473722
21 1 0.052902 0.58226 0.781612 0 0 -0.132122
22 1 0.353785 0.332244 0.532005 0 0 -0.00105202
23 1 0.00400819 0.540578 0.406991 0 0 0.000479579
24 1 0.261744 0.366969 0.677745 0 0 -0.0227603
25 1 0.91208 0.575298 0.552839 0 0 -0.000479341
26 1 0.212605 0.325296 0.302887 0 0 0.0186111
27 1 0.863186 0.533616 0.178218 0 0 0.132122
28 1 0.654344 0.415575 0.282085 0 0 0.0227602
29 1 0.305122 0.623887 0.157607 0 0 0.160588
30 1 0.562303 0.450299 0.427825 0 0 0.00105214
31 1 0.965304 0.831842 0.0422176 0 0 -0.010867
32 1 0.514907 0.741893 0.0546517 0 0 0.047372
33 1 0.703482 0.79058 0.656943 0 0 -0.0186113
34 1 0.950784 0.617368 0.917613 0 0 0.0108675
35 1 0.610966 0.825322 0.802223 0 0 -0.160589
36 1 0.401181 0.707316 0.905178 0 0 -0.047372
37 1 0.0529019 0.915593 0.781612 0 0 -0.132122
38 1 0.353785 0.665578 0.532005 0 0 -0.00105226
39 1 0.0040082 0.873912 0.406991 0 0 0.000479817
40 1 0.261744 0.700302 0.677745 0 0 -0.0227598
41 1 0.91208 0.908631 0.552839 0 0 -0.000480056
42 1 0.212605 0.65863 0.302887 0 0 0.0186112
43 1 0.863186 0.86695 0.178218 0 0 0.132122
44 1 0.654344 0.748908 0.282085 0 0 0.0227605
45 1 0.305122 0.957221 0.157607 0 0 0.160589
46 1 0.562303 0.783632 0.427825 0 0 0.00105226
47 1 0.353785 0.998911 0.532005 0 0 -0.00105238
48 1 0.212605 0.991963 0.302887 0 0 0.0186114
ITEM: TIMESTEP
3
ITEM: NUMBER OF ATOMS
48
ITEM: BOX BOUNDS xy xz yz pp pp pp
-6.2418807744979858e+00 8.6109705567359924e+00 2.5110912919044495e+00
-1.0506033897399902e-02 9.6185076832771301e+00 -6.2273239493370056e+00
-2.6944518089294434e-02 1.9544072151184082e+01 3.6519104242324829e-01
ITEM: ATOMS id type xs ys zs fx fy fz
1 1 0.96591 0.165152 0.0428035 0 0 0.0519389
2 1 0.516254 0.0751753 0.0559536 0 0 0.0154368
3 1 0.703019 0.123931 0.656494 0 0 -0.0853617
4 1 0.950178 0.950724 0.917027 0 0 -0.051939
5 1 0.606931 0.158809 0.798323 0 0 0.029428
6 1 0.399834 0.040701 0.903877 0 0 -0.015437
7 1 0.0495966 0.249053 0.778417 0 0 0.00853908
8 1 0.00401858 0.207245 0.407001 0 0 0.0152283
9 1 0.261175 0.0336568 0.677195 0 0 -0.0832978
10 1 0.912069 0.241965 0.552829 0 0 -0.0152282
11 1 0.866491 0.200157 0.181413 0 0 -0.00853872
12 1 0.654913 0.0822195 0.282635 0 0 0.0832974
13 1 0.309157 0.2904 0.161507 0 0 -0.029428
14 1 0.562327 0.116964 0.427849 0 0 0.0183389
15 1 0.96591 0.498485 0.0428035 0 0 0.0519395
16 1 0.516254 0.408509 0.0559536 0 0 0.0154366
17 1 0.703019 0.457265 0.656494 0 0 -0.0853622
18 1 0.950178 0.284058 0.917027 0 0 -0.0519391
19 1 0.606931 0.492143 0.798323 0 0 0.0294282
20 1 0.399834 0.374034 0.903877 0 0 -0.0154371
21 1 0.0495966 0.582386 0.778417 0 0 0.00853944
22 1 0.353761 0.332245 0.531982 0 0 -0.0183392
23 1 0.00401857 0.540578 0.407001 0 0 0.0152278
24 1 0.261175 0.36699 0.677195 0 0 -0.0832974
25 1 0.912069 0.575299 0.552829 0 0 -0.0152282
26 1 0.213069 0.325279 0.303336 0 0 0.0853621
27 1 0.866491 0.533491 0.181413 0 0 -0.00853896
28 1 0.654913 0.415553 0.282635 0 0 0.0832977
29 1 0.309157 0.623734 0.161507 0 0 -0.0294276
30 1 0.562327 0.450298 0.427849 0 0 0.0183392
31 1 0.96591 0.831819 0.0428035 0 0 0.0519387
32 1 0.516254 0.741842 0.0559536 0 0 0.0154369
33 1 0.703019 0.790598 0.656494 0 0 -0.0853622
34 1 0.950178 0.617391 0.917027 0 0 -0.0519395
35 1 0.606931 0.825476 0.798323 0 0 0.0294281
36 1 0.399834 0.707368 0.903877 0 0 -0.0154374
37 1 0.0495966 0.915719 0.778417 0 0 0.0085392
38 1 0.353761 0.665579 0.531982 0 0 -0.0183389
39 1 0.00401857 0.873911 0.407001 0 0 0.0152278
40 1 0.261175 0.700324 0.677195 0 0 -0.083298
41 1 0.912069 0.908632 0.552829 0 0 -0.0152273
42 1 0.213069 0.658612 0.303336 0 0 0.0853617
43 1 0.866491 0.866824 0.181413 0 0 -0.00853825
44 1 0.654913 0.748886 0.282635 0 0 0.0832975
45 1 0.309157 0.957067 0.161507 0 0 -0.0294278
46 1 0.562327 0.783631 0.427849 0 0 0.0183393
47 1 0.353761 0.998912 0.531982 0 0 -0.0183393
48 1 0.213069 0.991945 0.303336 0 0 0.0853617
ITEM: TIMESTEP
4
ITEM: NUMBER OF ATOMS
48
ITEM: BOX BOUNDS xy xz yz pp pp pp
-6.2418807744979858e+00 8.6109705567359924e+00 2.5110912919044495e+00
-1.0506033897399902e-02 9.6185076832771301e+00 -6.2273239493370056e+00
-2.6944518089294434e-02 1.9544072151184082e+01 3.6519104242324829e-01
ITEM: ATOMS id type xs ys zs fx fy fz
1 1 0.967379 0.165096 0.0442237 0 0 -0.0645822
2 1 0.517189 0.0751397 0.0568578 0 0 -0.0254806
3 1 0.700831 0.124015 0.65438 0 0 -0.0151092
4 1 0.948709 0.95078 0.915606 0 0 0.0645822
5 1 0.605892 0.158849 0.797319 0 0 -0.00471044
6 1 0.398898 0.0407367 0.902972 0 0 0.0254809
7 1 0.0483827 0.249099 0.777244 0 0 -0.0136549
8 1 0.00437787 0.207231 0.407348 0 0 0.0344446
9 1 0.258991 0.0337401 0.675084 0 0 -0.00970495
10 1 0.91171 0.241979 0.552482 0 0 -0.0344445
11 1 0.867705 0.200111 0.182586 0 0 0.0136547
12 1 0.657097 0.0821363 0.284746 0 0 0.00970531
13 1 0.310196 0.290361 0.162511 0 0 0.00471067
14 1 0.562765 0.116948 0.428272 0 0 0.0388448
15 1 0.967379 0.498429 0.0442237 0 0 -0.0645834
16 1 0.517189 0.408473 0.0568578 0 0 -0.0254812
17 1 0.700831 0.457348 0.65438 0 0 -0.0151087
18 1 0.948708 0.284114 0.915606 0 0 0.0645825
19 1 0.605892 0.492182 0.797319 0 0 -0.0047102
20 1 0.398898 0.37407 0.902972 0 0 0.0254811
21 1 0.0483828 0.582432 0.777244 0 0 -0.0136551
22 1 0.353323 0.332262 0.531558 0 0 -0.0388452
23 1 0.00437784 0.540564 0.407348 0 0 0.0344449
24 1 0.258991 0.367073 0.675084 0 0 -0.00970542
25 1 0.91171 0.575312 0.552482 0 0 -0.0344449
26 1 0.215257 0.325195 0.30545 0 0 0.0151089
27 1 0.867705 0.533444 0.182586 0 0 0.0136548
28 1 0.657097 0.41547 0.284746 0 0 0.00970531
29 1 0.310196 0.623694 0.162511 0 0 0.00471056
30 1 0.562765 0.450281 0.428272 0 0 0.0388453
31 1 0.967379 0.831763 0.0442237 0 0 -0.064582
32 1 0.517189 0.741806 0.0568578 0 0 -0.0254815
33 1 0.700831 0.790681 0.65438 0 0 -0.0151087
34 1 0.948708 0.617447 0.915606 0 0 0.0645835
35 1 0.605892 0.825516 0.797319 0 0 -0.00471056
36 1 0.398898 0.707403 0.902972 0 0 0.025481
37 1 0.0483827 0.915765 0.777244 0 0 -0.0136548
38 1 0.353323 0.665595 0.531558 0 0 -0.0388452
39 1 0.00437786 0.873897 0.407348 0 0 0.0344447
40 1 0.258991 0.700407 0.675084 0 0 -0.00970542
41 1 0.91171 0.908646 0.552482 0 0 -0.034445
42 1 0.215257 0.658528 0.30545 0 0 0.0151089
43 1 0.867705 0.866778 0.182586 0 0 0.0136546
44 1 0.657097 0.748803 0.284746 0 0 0.00970519
45 1 0.310196 0.957027 0.162511 0 0 0.00471032
46 1 0.562765 0.783614 0.428272 0 0 0.0388451
47 1 0.353323 0.998929 0.531558 0 0 -0.0388448
48 1 0.215257 0.991862 0.30545 0 0 0.0151091
ITEM: TIMESTEP
5
ITEM: NUMBER OF ATOMS
48
ITEM: BOX BOUNDS xy xz yz pp pp pp
-6.2418807744979858e+00 8.6109705567359924e+00 2.5110912919044495e+00
-1.0506033897399902e-02 9.6185076832771301e+00 -6.2273239493370056e+00
-2.6944518089294434e-02 1.9544072151184082e+01 3.6519104242324829e-01
ITEM: ATOMS id type xs ys zs fx fy fz
1 1 0.966857 0.165116 0.0437188 0 0 0.00418127
2 1 0.517089 0.0751435 0.0567609 0 0 -0.0063318
3 1 0.699955 0.124048 0.653534 0 0 0.00147831
4 1 0.949231 0.95076 0.916111 0 0 -0.00418115
5 1 0.605512 0.158864 0.796952 0 0 0.0039016
6 1 0.398999 0.0407329 0.903069 0 0 0.00633216
7 1 0.0478183 0.24912 0.776698 0 0 0.00445199
8 1 0.00499689 0.207207 0.407946 0 0 0.00680757
9 1 0.258196 0.0337703 0.674316 0 0 0.00525773
10 1 0.911091 0.242002 0.551884 0 0 -0.00680768
11 1 0.86827 0.200089 0.183132 0 0 -0.00445199
12 1 0.657892 0.082106 0.285514 0 0 -0.00525725
13 1 0.310576 0.290346 0.162878 0 0 -0.00390172
14 1 0.563473 0.116921 0.428956 0 0 0.00998175
15 1 0.966857 0.498449 0.0437188 0 0 0.0041821
16 1 0.517089 0.408477 0.0567609 0 0 -0.00633156
17 1 0.699955 0.457381 0.653534 0 0 0.00147855
18 1 0.949231 0.284094 0.916111 0 0 -0.00418198
19 1 0.605512 0.492197 0.796952 0 0 0.0039016
20 1 0.398999 0.374066 0.903069 0 0 0.00633228
21 1 0.0478183 0.582454 0.776698 0 0 0.00445199
22 1 0.352615 0.332289 0.530874 0 0 -0.00998199
23 1 0.00499687 0.540541 0.407946 0 0 0.0068078
24 1 0.258196 0.367104 0.674316 0 0 0.00525749
25 1 0.911091 0.575336 0.551884 0 0 -0.00680768
26 1 0.216133 0.325162 0.306296 0 0 -0.0014782
27 1 0.86827 0.533423 0.183132 0 0 -0.00445247
28 1 0.657892 0.415439 0.285514 0 0 -0.00525749
29 1 0.310576 0.623679 0.162878 0 0 -0.0039022
30 1 0.563473 0.450254 0.428956 0 0 0.00998199
31 1 0.966857 0.831783 0.0437188 0 0 0.00418139
32 1 0.517089 0.74181 0.0567609 0 0 -0.00633156
33 1 0.699955 0.790715 0.653534 0 0 0.00147843
34 1 0.949231 0.617427 0.916111 0 0 -0.0041821
35 1 0.605512 0.82553 0.796952 0 0 0.00390148
36 1 0.398999 0.7074 0.903069 0 0 0.00633216
37 1 0.0478183 0.915787 0.776698 0 0 0.00445211
38 1 0.352615 0.665622 0.530874 0 0 -0.00998223
39 1 0.00499687 0.873874 0.407946 0 0 0.0068078
40 1 0.258196 0.700437 0.674316 0 0 0.00525749
41 1 0.911091 0.908669 0.551884 0 0 -0.00680768
42 1 0.216133 0.658495 0.306296 0 0 -0.00147843
43 1 0.86827 0.866756 0.183132 0 0 -0.00445235
44 1 0.657892 0.748773 0.285514 0 0 -0.00525761
45 1 0.310576 0.957013 0.162878 0 0 -0.00390184
46 1 0.563473 0.783587 0.428956 0 0 0.00998211
47 1 0.352615 0.998956 0.530874 0 0 -0.00998175
48 1 0.216133 0.991828 0.306296 0 0 -0.00147843
ITEM: TIMESTEP
6
ITEM: NUMBER OF ATOMS
48
ITEM: BOX BOUNDS xy xz yz pp pp pp
-6.2418807744979858e+00 8.6109705567359924e+00 2.5110912919044495e+00
-1.0506033897399902e-02 9.6185076832771301e+00 -6.2273239493370056e+00
-2.6944518089294434e-02 1.9544072151184082e+01 3.6519104242324829e-01
ITEM: ATOMS id type xs ys zs fx fy fz
1 1 0.966913 0.165114 0.0437732 0 0 -0.00338602
2 1 0.517004 0.0751468 0.0566785 0 0 -0.00178742
3 1 0.699975 0.124047 0.653553 0 0 -0.000680923
4 1 0.949175 0.950763 0.916057 0 0 0.00338566
5 1 0.605565 0.158862 0.797003 0 0 0.00187349
6 1 0.399084 0.0407296 0.903152 0 0 0.00178719
7 1 0.0478782 0.249118 0.776756 0 0 0.00237679
8 1 0.00508858 0.207204 0.408035 0 0 -0.00175846
9 1 0.258267 0.0337677 0.674384 0 0 0.000457525
10 1 0.910999 0.242006 0.551795 0 0 0.00175858
11 1 0.86821 0.200092 0.183074 0 0 -0.00237679
12 1 0.657821 0.0821087 0.285446 0 0 -0.000457644
13 1 0.310523 0.290348 0.162827 0 0 -0.00187361
14 1 0.563607 0.116916 0.429086 0 0 -0.000347018
15 1 0.966913 0.498447 0.0437732 0 0 -0.00338626
16 1 0.517004 0.40848 0.0566785 0 0 -0.00178719
17 1 0.699975 0.45738 0.653553 0 0 -0.000680685
18 1 0.949175 0.284096 0.916057 0 0 0.00338614
19 1 0.605565 0.492195 0.797003 0 0 0.00187325
20 1 0.399084 0.374063 0.903152 0 0 0.00178719
21 1 0.0478783 0.582451 0.776756 0 0 0.00237656
22 1 0.35248 0.332294 0.530744 0 0 0.00034678
23 1 0.00508856 0.540537 0.408035 0 0 -0.00175846
24 1 0.258267 0.367101 0.674384 0 0 0.000457406
25 1 0.910999 0.575339 0.551795 0 0 0.00175858
26 1 0.216113 0.325163 0.306277 0 0 0.000680804
27 1 0.86821 0.533425 0.183074 0 0 -0.00237644
28 1 0.657821 0.415442 0.285446 0 0 -0.000457406
29 1 0.310523 0.623681 0.162827 0 0 -0.00187373
30 1 0.563607 0.450249 0.429086 0 0 -0.000347137
31 1 0.966913 0.83178 0.0437732 0 0 -0.0033859
32 1 0.517004 0.741813 0.0566785 0 0 -0.00178671
33 1 0.699975 0.790714 0.653553 0 0 -0.000680923
34 1 0.949175 0.617429 0.916057 0 0 0.00338614
35 1 0.605565 0.825528 0.797003 0 0 0.00187349
36 1 0.399084 0.707396 0.903152 0 0 0.00178707
37 1 0.0478783 0.915785 0.776756 0 0 0.00237679
38 1 0.35248 0.665627 0.530744 0 0 0.000347137
39 1 0.00508857 0.87387 0.408035 0 0 -0.00175858
40 1 0.258267 0.700434 0.674384 0 0 0.000457764
41 1 0.910999 0.908673 0.551795 0 0 0.00175858
42 1 0.216113 0.658496 0.306277 0 0 0.000681281
43 1 0.86821 0.866758 0.183074 0 0 -0.00237668
44 1 0.657821 0.748775 0.285446 0 0 -0.000457525
45 1 0.310523 0.957015 0.162827 0 0 -0.00187361
46 1 0.563607 0.783582 0.429086 0 0 -0.000347137
47 1 0.35248 0.998961 0.530744 0 0 0.000347018
48 1 0.216113 0.991829 0.306277 0 0 0.000681043
ITEM: TIMESTEP
7
ITEM: NUMBER OF ATOMS
48
ITEM: BOX BOUNDS xy xz yz pp pp pp
-6.2418807744979858e+00 8.6109705567359924e+00 2.5110912919044495e+00
-1.0506033897399902e-02 9.6185076832771301e+00 -6.2273239493370056e+00
-2.6944518089294434e-02 1.9544072151184082e+01 3.6519104242324829e-01
ITEM: ATOMS id type xs ys zs fx fy fz
1 1 0.966852 0.165116 0.0437137 0 0 0.00129366
2 1 0.516954 0.0751487 0.05663 0 0 0.000663638
3 1 0.699964 0.124048 0.653542 0 0 0.00123453
4 1 0.949236 0.95076 0.916117 0 0 -0.0012933
5 1 0.605612 0.15886 0.797048 0 0 0.0010637
6 1 0.399134 0.0407277 0.9032 0 0 -0.0006634
7 1 0.0479367 0.249116 0.776813 0 0 0.000957012
8 1 0.00506616 0.207205 0.408013 0 0 -0.000787377
9 1 0.258287 0.0337669 0.674404 0 0 0.00086391
10 1 0.911022 0.242005 0.551817 0 0 0.000787377
11 1 0.868151 0.200094 0.183017 0 0 -0.000956893
12 1 0.657801 0.0821095 0.285426 0 0 -0.000863671
13 1 0.310476 0.29035 0.162782 0 0 -0.00106406
14 1 0.563621 0.116915 0.429099 0 0 -0.000960588
15 1 0.966852 0.498449 0.0437137 0 0 0.00129342
16 1 0.516954 0.408482 0.05663 0 0 0.00066328
17 1 0.699964 0.457381 0.653542 0 0 0.00123441
18 1 0.949236 0.284094 0.916117 0 0 -0.00129354
19 1 0.605612 0.492193 0.797048 0 0 0.00106406
20 1 0.399134 0.374061 0.9032 0 0 -0.00066328
21 1 0.0479367 0.582449 0.776813 0 0 0.000957131
22 1 0.352467 0.332295 0.530731 0 0 0.000961304
23 1 0.00506614 0.540538 0.408013 0 0 -0.000787616
24 1 0.258287 0.3671 0.674404 0 0 0.000863433
25 1 0.911022 0.575338 0.551817 0 0 0.000787258
26 1 0.216124 0.325162 0.306288 0 0 -0.00123465
27 1 0.868151 0.533427 0.183017 0 0 -0.000957012
28 1 0.657801 0.415443 0.285426 0 0 -0.000863552
29 1 0.310476 0.623683 0.162782 0 0 -0.00106347
30 1 0.563621 0.450248 0.429099 0 0 -0.000961185
31 1 0.966852 0.831783 0.0437137 0 0 0.0012933
32 1 0.516954 0.741815 0.0566301 0 0 0.000662804
33 1 0.699964 0.790714 0.653542 0 0 0.00123477
34 1 0.949236 0.617427 0.916117 0 0 -0.00129366
35 1 0.605612 0.825526 0.797048 0 0 0.00106394
36 1 0.399134 0.707394 0.9032 0 0 -0.000662923
37 1 0.0479367 0.915782 0.776813 0 0 0.000956655
38 1 0.352467 0.665628 0.530731 0 0 0.000961065
39 1 0.00506615 0.873871 0.408013 0 0 -0.000787258
40 1 0.258287 0.700434 0.674404 0 0 0.000863433
41 1 0.911022 0.908672 0.551817 0 0 0.000787258
42 1 0.216124 0.658495 0.306288 0 0 -0.00123501
43 1 0.868151 0.866761 0.183017 0 0 -0.000956774
44 1 0.657801 0.748776 0.285426 0 0 -0.000863552
45 1 0.310476 0.957017 0.162782 0 0 -0.0010637
46 1 0.563621 0.783582 0.429099 0 0 -0.000960827
47 1 0.352467 0.998961 0.530731 0 0 0.000960708
48 1 0.216124 0.991829 0.306288 0 0 -0.00123477
ITEM: TIMESTEP
8
ITEM: NUMBER OF ATOMS
48
ITEM: BOX BOUNDS xy xz yz pp pp pp
-6.2418807744979858e+00 8.6109705567359924e+00 2.5110912919044495e+00
-1.0506033897399902e-02 9.6185076832771301e+00 -6.2273239493370056e+00
-2.6944518089294434e-02 1.9544072151184082e+01 3.6519104242324829e-01
ITEM: ATOMS id type xs ys zs fx fy fz
1 1 0.966862 0.165116 0.0437233 0 0 -0.0010196
2 1 0.516953 0.0751487 0.0566293 0 0 -0.000159383
3 1 0.699989 0.124047 0.653566 0 0 0.0014472
4 1 0.949226 0.950761 0.916107 0 0 0.00101912
5 1 0.605651 0.158858 0.797086 0 0 -0.000511169
6 1 0.399135 0.0407277 0.903201 0 0 0.000159144
7 1 0.0479772 0.249114 0.776852 0 0 -0.000637054
8 1 0.00504102 0.207206 0.407989 0 0 0.000372291
9 1 0.258313 0.0337659 0.674429 0 0 0.000964999
10 1 0.911047 0.242004 0.551841 0 0 -0.000372648
11 1 0.868111 0.200095 0.182978 0 0 0.000636816
12 1 0.657774 0.0821105 0.285401 0 0 -0.000965357
13 1 0.310437 0.290351 0.162744 0 0 0.000511408
14 1 0.563603 0.116916 0.429082 0 0 -0.000241756
15 1 0.966862 0.498449 0.0437233 0 0 -0.00101888
16 1 0.516953 0.408482 0.0566293 0 0 -0.000159144
17 1 0.699989 0.45738 0.653566 0 0 0.00144756
18 1 0.949226 0.284094 0.916107 0 0 0.00101948
19 1 0.605651 0.492192 0.797086 0 0 -0.000511289
20 1 0.399135 0.374061 0.903201 0 0 0.000159025
21 1 0.0479772 0.582448 0.776852 0 0 -0.000636816
22 1 0.352485 0.332294 0.530748 0 0 0.000241518
23 1 0.005041 0.540539 0.407989 0 0 0.000372648
24 1 0.258313 0.367099 0.674429 0 0 0.000966072
25 1 0.911047 0.575337 0.551841 0 0 -0.00037241
26 1 0.216099 0.325163 0.306264 0 0 -0.00144744
27 1 0.868111 0.533429 0.182978 0 0 0.000636935
28 1 0.657774 0.415444 0.285401 0 0 -0.000966072
29 1 0.310437 0.623685 0.162744 0 0 0.00051105
30 1 0.563603 0.450249 0.429082 0 0 -0.000241518
31 1 0.966862 0.831782 0.0437233 0 0 -0.00101888
32 1 0.516953 0.741815 0.0566293 0 0 -0.000158906
33 1 0.699989 0.790713 0.653566 0 0 0.00144756
34 1 0.949226 0.617427 0.916107 0 0 0.00101936
35 1 0.605651 0.825525 0.797086 0 0 -0.000511289
36 1 0.399135 0.707394 0.903201 0 0 0.000158668
37 1 0.0479772 0.915781 0.776852 0 0 -0.000636339
38 1 0.352485 0.665627 0.530748 0 0 0.000241399
39 1 0.00504101 0.873872 0.407989 0 0 0.000372291
40 1 0.258313 0.700433 0.674429 0 0 0.000965595
41 1 0.911047 0.908671 0.551841 0 0 -0.000371814
42 1 0.216099 0.658496 0.306264 0 0 -0.00144708
43 1 0.868111 0.866762 0.182978 0 0 0.000636458
44 1 0.657774 0.748777 0.285401 0 0 -0.000965834
45 1 0.310437 0.957018 0.162744 0 0 0.000511289
46 1 0.563603 0.783582 0.429082 0 0 -0.000241995
47 1 0.352485 0.998961 0.530748 0 0 0.000242114
48 1 0.216099 0.99183 0.306264 0 0 -0.00144732
ITEM: TIMESTEP
9
ITEM: NUMBER OF ATOMS
48
ITEM: BOX BOUNDS xy xz yz pp pp pp
-6.2418807744979858e+00 8.6109705567359924e+00 2.5110912919044495e+00
-1.0506033897399902e-02 9.6185076832771301e+00 -6.2273239493370056e+00
-2.6944518089294434e-02 1.9544072151184082e+01 3.6519104242324829e-01
ITEM: ATOMS id type xs ys zs fx fy fz
1 1 0.966848 0.165116 0.0437103 0 0 4.75645e-05
2 1 0.51695 0.0751488 0.0566261 0 0 -0.000174403
3 1 0.700027 0.124045 0.653603 0 0 3.18289e-05
4 1 0.94924 0.95076 0.91612 0 0 -4.73261e-05
5 1 0.605661 0.158858 0.797096 0 0 5.37634e-05
6 1 0.399138 0.0407276 0.903204 0 0 0.000174403
7 1 0.0479856 0.249114 0.77686 0 0 -1.34706e-05
8 1 0.00503536 0.207206 0.407984 0 0 0.000155449
9 1 0.258344 0.0337647 0.674459 0 0 -0.000119567
10 1 0.911053 0.242004 0.551847 0 0 -0.00015533
11 1 0.868102 0.200096 0.18297 0 0 1.33514e-05
12 1 0.657744 0.0821116 0.285371 0 0 0.000119567
13 1 0.310427 0.290352 0.162734 0 0 -5.32866e-05
14 1 0.56359 0.116916 0.429069 0 0 -0.000226617
15 1 0.966848 0.49845 0.0437103 0 0 4.68493e-05
16 1 0.51695 0.408482 0.0566261 0 0 -0.000174284
17 1 0.700027 0.457379 0.653603 0 0 3.1352e-05
18 1 0.94924 0.284093 0.91612 0 0 -4.73261e-05
19 1 0.605661 0.492191 0.797096 0 0 5.38826e-05
20 1 0.399138 0.374061 0.903204 0 0 0.000174403
21 1 0.0479856 0.582447 0.77686 0 0 -1.34706e-05
22 1 0.352498 0.332293 0.530761 0 0 0.000225663
23 1 0.00503534 0.540539 0.407984 0 0 0.000155687
24 1 0.258344 0.367098 0.674459 0 0 -0.000119448
25 1 0.911053 0.575337 0.551847 0 0 -0.00015521
26 1 0.216061 0.325165 0.306227 0 0 -3.12328e-05
27 1 0.868102 0.533429 0.18297 0 0 1.3113e-05
28 1 0.657744 0.415445 0.285371 0 0 0.000119328
29 1 0.310427 0.623685 0.162734 0 0 -5.40018e-05
30 1 0.56359 0.45025 0.429069 0 0 -0.000225782
31 1 0.966848 0.831783 0.0437103 0 0 4.70877e-05
32 1 0.51695 0.741815 0.0566261 0 0 -0.000174284
33 1 0.700027 0.790712 0.653603 0 0 3.08752e-05
34 1 0.94924 0.617427 0.91612 0 0 -4.69685e-05
35 1 0.605661 0.825525 0.797096 0 0 5.36442e-05
36 1 0.399138 0.707394 0.903204 0 0 0.000174403
37 1 0.0479856 0.915781 0.77686 0 0 -1.35899e-05
38 1 0.352498 0.665627 0.530761 0 0 0.000226021
39 1 0.00503535 0.873872 0.407984 0 0 0.00015533
40 1 0.258344 0.700431 0.674459 0 0 -0.000119448
41 1 0.911053 0.908671 0.551847 0 0 -0.000155687
42 1 0.216061 0.658498 0.306227 0 0 -3.12328e-05
43 1 0.868102 0.866762 0.18297 0 0 1.35899e-05
44 1 0.657744 0.748778 0.285371 0 0 0.000119805
45 1 0.310427 0.957018 0.162734 0 0 -5.37634e-05
46 1 0.56359 0.783583 0.429069 0 0 -0.00022614
47 1 0.352498 0.99896 0.530761 0 0 0.00022614
48 1 0.216061 0.991831 0.306227 0 0 -3.12328e-05
ITEM: TIMESTEP
10
ITEM: NUMBER OF ATOMS
48
ITEM: BOX BOUNDS xy xz yz pp pp pp
-6.2418807744979858e+00 8.6109705567359924e+00 2.5110912919044495e+00
-1.0506033897399902e-02 9.6185076832771301e+00 -6.2273239493370056e+00
-2.6944518089294434e-02 1.9544072151184082e+01 3.6519104242324829e-01
ITEM: ATOMS id type xs ys zs fx fy fz
1 1 0.966849 0.165116 0.0437108 0 0 -2.47955e-05
2 1 0.516946 0.075149 0.0566229 0 0 5.17368e-05
3 1 0.700029 0.124045 0.653605 0 0 9.29832e-06
4 1 0.949239 0.95076 0.916119 0 0 2.47955e-05
5 1 0.605662 0.158858 0.797097 0 0 2.14577e-06
6 1 0.399141 0.0407274 0.903207 0 0 -5.19753e-05
7 1 0.0479856 0.249114 0.77686 0 0 3.56436e-05
8 1 0.00503815 0.207206 0.407986 0 0 5.55515e-05
9 1 0.258342 0.0337648 0.674457 0 0 -1.63317e-05
10 1 0.91105 0.242004 0.551844 0 0 -5.55515e-05
11 1 0.868102 0.200096 0.18297 0 0 -3.54052e-05
12 1 0.657746 0.0821116 0.285373 0 0 1.62125e-05
13 1 0.310426 0.290352 0.162733 0 0 -2.14577e-06
14 1 0.563585 0.116916 0.429065 0 0 2.14577e-06
15 1 0.966849 0.49845 0.0437108 0 0 -2.41995e-05
16 1 0.516946 0.408482 0.0566229 0 0 5.1856e-05
17 1 0.700029 0.457378 0.653605 0 0 9.41753e-06
18 1 0.949239 0.284093 0.916119 0 0 2.46763e-05
19 1 0.605662 0.492191 0.797097 0 0 2.02656e-06
20 1 0.399141 0.374061 0.903207 0 0 -5.20945e-05
21 1 0.0479856 0.582447 0.77686 0 0 3.54052e-05
22 1 0.352502 0.332293 0.530766 0 0 -1.66893e-06
23 1 0.00503813 0.540539 0.407986 0 0 5.55515e-05
24 1 0.258342 0.367098 0.674457 0 0 -1.62125e-05
25 1 0.91105 0.575337 0.551844 0 0 -5.56707e-05
26 1 0.216059 0.325165 0.306226 0 0 -9.53674e-06
27 1 0.868102 0.533429 0.18297 0 0 -3.54052e-05
28 1 0.657746 0.415445 0.285373 0 0 1.63317e-05
29 1 0.310426 0.623685 0.162733 0 0 -1.90735e-06
30 1 0.563585 0.45025 0.429065 0 0 1.66893e-06
31 1 0.966849 0.831783 0.0437108 0 0 -2.45571e-05
32 1 0.516946 0.741816 0.0566229 0 0 5.19753e-05
33 1 0.700029 0.790712 0.653605 0 0 9.53674e-06
34 1 0.949239 0.617427 0.916119 0 0 2.43187e-05
35 1 0.605662 0.825524 0.797097 0 0 2.38419e-06
36 1 0.399141 0.707394 0.903207 0 0 -5.20945e-05
37 1 0.0479856 0.915781 0.77686 0 0 3.55244e-05
38 1 0.352502 0.665627 0.530766 0 0 -1.78814e-06
39 1 0.00503814 0.873872 0.407986 0 0 5.54323e-05
40 1 0.258342 0.700431 0.674457 0 0 -1.64509e-05
41 1 0.91105 0.908671 0.551844 0 0 -5.59092e-05
42 1 0.216059 0.658498 0.306226 0 0 -9.29832e-06
43 1 0.868102 0.866762 0.18297 0 0 -3.54052e-05
44 1 0.657746 0.748778 0.285373 0 0 1.60933e-05
45 1 0.310426 0.957019 0.162733 0 0 -2.26498e-06
46 1 0.563585 0.783583 0.429065 0 0 2.26498e-06
47 1 0.352502 0.99896 0.530766 0 0 -2.02656e-06
48 1 0.216059 0.991831 0.306226 0 0 -9.29832e-06
ITEM: TIMESTEP
11
ITEM: NUMBER OF ATOMS
48
ITEM: BOX BOUNDS xy xz yz pp pp pp
-6.2418807744979858e+00 8.6109705567359924e+00 2.5110912919044495e+00
-1.0506033897399902e-02 9.6185076832771301e+00 -6.2273239493370056e+00
-2.6944518089294434e-02 1.9544072151184082e+01 3.6519104242324829e-01
ITEM: ATOMS id type xs ys zs fx fy fz
1 1 0.966848 0.165116 0.0437104 0 0 1.54972e-06
2 1 0.516947 0.0751489 0.0566235 0 0 -5.96046e-07
3 1 0.700029 0.124045 0.653605 0 0 9.53674e-07
4 1 0.94924 0.95076 0.91612 0 0 -1.3113e-06
5 1 0.605662 0.158858 0.797097 0 0 -5.00679e-06
6 1 0.399141 0.0407274 0.903207 0 0 2.38419e-07
7 1 0.0479862 0.249114 0.776861 0 0 4.29153e-06
8 1 0.00503918 0.207206 0.407987 0 0 -2.14577e-06
9 1 0.258342 0.0337648 0.674457 0 0 -5.36442e-06
10 1 0.911049 0.242004 0.551843 0 0 1.90735e-06
11 1 0.868102 0.200096 0.182969 0 0 -4.41074e-06
12 1 0.657746 0.0821116 0.285373 0 0 5.36442e-06
13 1 0.310425 0.290352 0.162733 0 0 5.126e-06
14 1 0.563585 0.116916 0.429064 0 0 -7.15256e-07
15 1 0.966848 0.49845 0.0437104 0 0 1.43051e-06
16 1 0.516947 0.408482 0.0566235 0 0 -7.15256e-07
17 1 0.700029 0.457378 0.653605 0 0 1.19209e-06
18 1 0.94924 0.284093 0.91612 0 0 -1.54972e-06
19 1 0.605662 0.492191 0.797097 0 0 -5.36442e-06
20 1 0.399141 0.374061 0.903207 0 0 5.96046e-07
21 1 0.0479862 0.582447 0.776861 0 0 4.29153e-06
22 1 0.352503 0.332293 0.530766 0 0 1.19209e-06