ITEM: TIMESTEP
0
ITEM: NUMBER OF ATOMS
32
ITEM: BOX BOUNDS xy xz yz pp pp pp
-9.5987319946289062e-04 6.3977920413017273e+00 -0.0000000000000000e+00
-1.0525226593017578e-02 6.6371476650238037e+00 0.0000000000000000e+00
-5.8505058288574219e-02 2.0783891499042511e+01 1.1061912775039673e+00
ITEM: ATOMS id type xs ys zs fx fy fz
1 1 0.999986 0.654739 0.0597507 -1.54972e-06 0 0.645398
2 1 0.499986 0.654739 0.0597507 1.54972e-06 0 0.645399
3 1 0.249986 0.154739 0.0597507 1.19209e-07 0 0.645402
4 1 0.749986 0.154739 0.0597507 -4.76837e-07 0 0.645397
5 1 0.999986 0.604834 0.309751 0 0 0.000873566
6 1 0.249986 0.46312 0.184751 -1.19209e-06 0 -0.00550652
7 1 0.749986 0.46312 0.184751 1.19209e-06 0 -0.00550735
8 1 0.499986 0.604834 0.309751 1.07288e-06 0 0.000874281
9 1 0.999986 0.96312 0.184751 3.57628e-07 0 -0.00550699
10 1 0.249986 0.104834 0.309751 -2.02656e-06 0 0.000871778
11 1 0.499986 0.96312 0.184751 0 0 -0.00550818
12 1 0.749986 0.104834 0.309751 1.54972e-06 0 0.000872135
13 1 0.999986 0.554929 0.559751 -2.38419e-06 0 5.66244e-05
14 1 0.499986 0.554929 0.559751 2.5034e-06 0 5.67436e-05
15 1 0.249986 0.0549289 0.559751 -7.15256e-07 0 5.6982e-05
16 1 0.749986 0.0549288 0.559751 8.34465e-07 0 5.75781e-05
17 1 0.249986 0.413215 0.434751 4.76837e-07 0 -5.66244e-05
18 1 0.749986 0.413215 0.434751 -2.38419e-06 0 -5.68628e-05
19 1 0.999986 0.913215 0.434751 9.53674e-07 0 -5.65052e-05
20 1 0.499986 0.913215 0.434751 2.38419e-07 0 -5.61476e-05
21 1 0.999986 0.505024 0.809751 3.57628e-07 0 0.00550652
22 1 0.249986 0.36331 0.684751 2.38419e-07 0 -0.00087285
23 1 0.499986 0.505024 0.809751 -1.07288e-06 0 0.00550711
24 1 0.749986 0.36331 0.684751 4.76837e-07 0 -0.000874519
25 1 0.999986 0.86331 0.684751 -5.96046e-07 0 -0.00087297
26 1 0.249986 0.00502364 0.809751 0 0 0.00550747
27 1 0.749986 0.00502378 0.809751 2.38419e-07 0 0.00550699
28 1 0.499986 0.86331 0.684751 3.57628e-07 0 -0.000873685
29 1 0.249986 0.313405 0.934751 -5.96046e-07 0 -0.645401
30 1 0.749986 0.313405 0.934751 3.57628e-07 0 -0.645396
31 1 0.999986 0.813405 0.934751 -5.96046e-07 0 -0.645399
32 1 0.499986 0.813405 0.934751 7.15256e-07 0 -0.6454
ITEM: TIMESTEP
1
ITEM: NUMBER OF ATOMS
32
ITEM: BOX BOUNDS xy xz yz pp pp pp
-9.5987319946289062e-04 6.3977920413017273e+00 -0.0000000000000000e+00
-1.0525226593017578e-02 6.6371476650238037e+00 0.0000000000000000e+00
-5.8505058288574219e-02 2.0783891499042511e+01 1.1061912775039673e+00
ITEM: ATOMS id type xs ys zs fx fy fz
1 1 0.999986 0.653785 0.0645314 -8.34465e-07 0 0.000903845
2 1 0.499986 0.653784 0.0645314 8.34465e-07 0 0.000903726
3 1 0.249986 0.153785 0.0645314 2.38419e-07 0 0.000903845
4 1 0.749986 0.153785 0.0645313 -2.38419e-07 0 0.000905395
5 1 0.999986 0.604833 0.309757 1.19209e-07 0 0.00680637
6 1 0.249986 0.463128 0.18471 -2.38419e-07 0 0.14533
7 1 0.749986 0.463128 0.18471 0 0 0.145329
8 1 0.499986 0.604833 0.309757 -3.57628e-07 0 0.00680637
9 1 0.999986 0.963128 0.18471 2.38419e-07 0 0.145329
10 1 0.249986 0.104833 0.309757 -3.57628e-07 0 0.00680518
11 1 0.499986 0.963128 0.18471 3.57628e-07 0 0.145329
12 1 0.749986 0.104833 0.309757 2.38419e-07 0 0.00680506
13 1 0.999986 0.554929 0.559751 -2.38419e-07 0 0.000341892
14 1 0.499986 0.554929 0.559751 0 0 0.00034225
15 1 0.249986 0.0549288 0.559751 3.57628e-07 0 0.000342846
16 1 0.749986 0.0549287 0.559751 -1.19209e-07 0 0.000342846
17 1 0.249986 0.413215 0.43475 1.19209e-07 0 -0.000342011
18 1 0.749986 0.413215 0.43475 -3.57628e-07 0 -0.00034225
19 1 0.999986 0.913215 0.43475 2.38419e-07 0 -0.000342131
20 1 0.499986 0.913215 0.43475 0 0 -0.000341892
21 1 0.999986 0.505015 0.809791 -2.38419e-07 0 -0.14533
22 1 0.249986 0.363311 0.684744 -2.38419e-07 0 -0.00680554
23 1 0.499986 0.505015 0.809791 -7.15256e-07 0 -0.14533
24 1 0.749986 0.363311 0.684744 2.38419e-07 0 -0.00680661
25 1 0.999986 0.863311 0.684744 2.38419e-07 0 -0.00680625
26 1 0.249986 0.00501549 0.809791 2.38419e-07 0 -0.14533
27 1 0.749986 0.00501564 0.809791 2.38419e-07 0 -0.14533
28 1 0.499986 0.863311 0.684744 0 0 -0.00680625
29 1 0.249986 0.314359 0.92997 -1.19209e-07 0 -0.000903845
30 1 0.749986 0.314359 0.92997 4.76837e-07 0 -0.000903606
31 1 0.999986 0.814359 0.92997 -4.76837e-07 0 -0.000903964
32 1 0.499986 0.814359 0.92997 3.57628e-07 0 -0.000904083
ITEM: TIMESTEP
2
ITEM: NUMBER OF ATOMS
32
ITEM: BOX BOUNDS xy xz yz pp pp pp
-9.5987319946289062e-04 6.3977920413017273e+00 -0.0000000000000000e+00
-1.0525226593017578e-02 6.6371476650238037e+00 0.0000000000000000e+00
-5.8505058288574219e-02 2.0783891499042511e+01 1.1061912775039673e+00
ITEM: ATOMS id type xs ys zs fx fy fz
1 1 0.999986 0.65365 0.0652039 3.57628e-07 0 0.0206625
2 1 0.499986 0.65365 0.0652039 -3.57628e-07 0 0.0206623
3 1 0.249986 0.15365 0.0652039 -3.57628e-07 0 0.0206621
4 1 0.749986 0.15365 0.0652039 1.19209e-07 0 0.020662
5 1 0.999986 0.604806 0.309893 1.19209e-07 0 0.0781941
6 1 0.249986 0.462556 0.187577 1.19209e-07 0 -0.0066309
7 1 0.749986 0.462556 0.187577 1.19209e-07 0 -0.00662971
8 1 0.499986 0.604806 0.309893 2.38419e-07 0 0.0781941
9 1 0.999986 0.962556 0.187577 5.96046e-07 0 -0.00663018
10 1 0.249986 0.104806 0.309893 3.57628e-07 0 0.0781935
11 1 0.499986 0.962556 0.187577 -5.96046e-07 0 -0.00662994
12 1 0.749986 0.104806 0.309893 -4.76837e-07 0 0.0781941
13 1 0.999986 0.554927 0.559758 3.57628e-07 0 -0.00730741
14 1 0.499986 0.554927 0.559758 -2.38419e-07 0 -0.00730729
15 1 0.249986 0.0549274 0.559758 -2.38419e-07 0 -0.00730753
16 1 0.749986 0.0549274 0.559758 -1.19209e-07 0 -0.00730765
17 1 0.249986 0.413216 0.434743 0 0 0.00730729
18 1 0.749986 0.413216 0.434743 0 0 0.00730705
19 1 0.999986 0.913216 0.434743 -1.19209e-07 0 0.00730753
20 1 0.499986 0.913216 0.434743 3.57628e-07 0 0.00730717
21 1 0.999986 0.505588 0.806924 -3.57628e-07 0 0.00663006
22 1 0.249986 0.363338 0.684609 0 0 -0.078194
23 1 0.499986 0.505588 0.806924 4.76837e-07 0 0.0066303
24 1 0.749986 0.363338 0.684609 0 0 -0.0781937
25 1 0.999986 0.863338 0.684609 -1.19209e-07 0 -0.0781937
26 1 0.249986 0.0055878 0.806924 -1.19209e-07 0 0.00663078
27 1 0.749986 0.00558795 0.806924 -4.76837e-07 0 0.0066303
28 1 0.499986 0.863338 0.684609 2.38419e-07 0 -0.0781937
29 1 0.249986 0.314493 0.929297 1.19209e-07 0 -0.0206623
30 1 0.749986 0.314493 0.929297 -1.19209e-07 0 -0.020662
31 1 0.999986 0.814493 0.929297 4.76837e-07 0 -0.0206629
32 1 0.499986 0.814493 0.929297 -3.57628e-07 0 -0.0206625
ITEM: TIMESTEP
3
ITEM: NUMBER OF ATOMS
32
ITEM: BOX BOUNDS xy xz yz pp pp pp
-9.5987319946289062e-04 6.3977920413017273e+00 -0.0000000000000000e+00
-1.0525226593017578e-02 6.6371476650238037e+00 0.0000000000000000e+00
-5.8505058288574219e-02 2.0783891499042511e+01 1.1061912775039673e+00
ITEM: ATOMS id type xs ys zs fx fy fz
1 1 0.999986 0.6535 0.0659579 4.76837e-07 0 -0.0240632
2 1 0.499986 0.6535 0.0659579 -4.76837e-07 0 -0.024063
3 1 0.249986 0.1535 0.0659579 3.57628e-07 0 -0.0240629
4 1 0.749986 0.1535 0.0659579 -1.19209e-07 0 -0.0240622
5 1 0.999986 0.604427 0.311789 0 0 0.00151134
6 1 0.249986 0.46236 0.188559 0 0 0.0101545
7 1 0.749986 0.46236 0.188559 0 0 0.0101545
8 1 0.499986 0.604427 0.311789 -1.19209e-07 0 0.00151098
9 1 0.999986 0.962359 0.188559 -1.07288e-06 0 0.0101544
10 1 0.249986 0.104427 0.311789 2.38419e-07 0 0.00151253
11 1 0.499986 0.962359 0.188559 9.53674e-07 0 0.0101538
12 1 0.749986 0.104427 0.311789 2.38419e-07 0 0.00151181
13 1 0.999986 0.554961 0.559588 -1.19209e-07 0 -0.0434383
14 1 0.499986 0.554961 0.559588 3.57628e-07 0 -0.0434386
15 1 0.249986 0.0549613 0.559588 0 0 -0.0434388
16 1 0.749986 0.0549612 0.559588 0 0 -0.0434393
17 1 0.249986 0.413182 0.434913 -2.38419e-07 0 0.0434387
18 1 0.749986 0.413182 0.434913 2.38419e-07 0 0.043439
19 1 0.999986 0.913182 0.434913 1.19209e-07 0 0.0434382
20 1 0.499986 0.913182 0.434913 -5.96046e-07 0 0.0434383
21 1 0.999986 0.505784 0.805942 0 0 -0.0101538
22 1 0.249986 0.363717 0.682713 1.19209e-07 0 -0.00151145
23 1 0.499986 0.505784 0.805942 4.76837e-07 0 -0.0101541
24 1 0.749986 0.363716 0.682713 -1.19209e-07 0 -0.00151134
25 1 0.999986 0.863717 0.682713 0 0 -0.00151122
26 1 0.249986 0.00578394 0.805942 -4.76837e-07 0 -0.0101552
27 1 0.749986 0.00578409 0.805942 2.38419e-07 0 -0.0101542
28 1 0.499986 0.863716 0.682713 -1.19209e-07 0 -0.00151157
29 1 0.249986 0.314644 0.928544 -2.38419e-07 0 0.0240624
30 1 0.749986 0.314644 0.928544 -3.57628e-07 0 0.0240628
31 1 0.999986 0.814644 0.928544 -1.19209e-07 0 0.0240633
32 1 0.499986 0.814644 0.928544 3.57628e-07 0 0.0240626
ITEM: TIMESTEP
4
ITEM: NUMBER OF ATOMS
32
ITEM: BOX BOUNDS xy xz yz pp pp pp
-9.5987319946289062e-04 6.3977920413017273e+00 -0.0000000000000000e+00
-1.0525226593017578e-02 6.6371476650238037e+00 0.0000000000000000e+00
-5.8505058288574219e-02 2.0783891499042511e+01 1.1061912775039673e+00
ITEM: ATOMS id type xs ys zs fx fy fz
1 1 0.999986 0.653529 0.0658105 0 0 0.00218153
2 1 0.499986 0.653529 0.0658105 -1.19209e-07 0 0.00218153
3 1 0.249986 0.153529 0.0658105 -1.19209e-07 0 0.00218332
4 1 0.749986 0.153529 0.0658105 0 0 0.00218284
5 1 0.999986 0.604336 0.312246 -1.19209e-07 0 0.000932455
6 1 0.249986 0.462287 0.188921 2.38419e-07 0 -0.00238824
7 1 0.749986 0.462287 0.188921 -2.38419e-07 0 -0.00238883
8 1 0.499986 0.604336 0.312246 1.19209e-07 0 0.000932574
9 1 0.999986 0.962287 0.188921 -1.19209e-07 0 -0.00238883
10 1 0.249986 0.104336 0.312246 -4.76837e-07 0 0.000932693
11 1 0.499986 0.962287 0.188921 3.57628e-07 0 -0.0023886
12 1 0.749986 0.104336 0.312246 4.76837e-07 0 0.000932932
13 1 0.999986 0.555085 0.55897 -2.38419e-07 0 -0.00401711
14 1 0.499986 0.555085 0.55897 -4.76837e-07 0 -0.00401735
15 1 0.249986 0.0550847 0.55897 3.57628e-07 0 -0.004017
16 1 0.749986 0.0550847 0.55897 4.76837e-07 0 -0.00401723
17 1 0.249986 0.413059 0.435531 0 0 0.00401723
18 1 0.749986 0.413059 0.435531 1.19209e-07 0 0.00401747
19 1 0.999986 0.913059 0.435531 0 0 0.00401711
20 1 0.499986 0.913059 0.435531 -1.19209e-07 0 0.00401723
21 1 0.999986 0.505856 0.80558 2.38419e-07 0 0.00238895
22 1 0.249986 0.363808 0.682256 3.57628e-07 0 -0.00093317
23 1 0.499986 0.505856 0.80558 -1.19209e-07 0 0.00238872
24 1 0.749986 0.363808 0.682256 -3.57628e-07 0 -0.000932813
25 1 0.999986 0.863808 0.682256 0 0 -0.00093317
26 1 0.249986 0.00585616 0.80558 -2.38419e-07 0 0.00238943
27 1 0.749986 0.00585631 0.80558 2.38419e-07 0 0.00238931
28 1 0.499986 0.863808 0.682256 -2.38419e-07 0 -0.000932813
29 1 0.249986 0.314614 0.928691 0 0 -0.00218129
30 1 0.749986 0.314614 0.928691 0 0 -0.00218189
31 1 0.999986 0.814614 0.928691 0 0 -0.00218332
32 1 0.499986 0.814614 0.928691 0 0 -0.00218368
ITEM: TIMESTEP
5
ITEM: NUMBER OF ATOMS
32
ITEM: BOX BOUNDS xy xz yz pp pp pp
-9.5987319946289062e-04 6.3977920413017273e+00 -0.0000000000000000e+00
-1.0525226593017578e-02 6.6371476650238037e+00 0.0000000000000000e+00
-5.8505058288574219e-02 2.0783891499042511e+01 1.1061912775039673e+00
ITEM: ATOMS id type xs ys zs fx fy fz
1 1 0.999986 0.653524 0.0658343 1.19209e-07 0 -0.000960231
2 1 0.499986 0.653524 0.0658343 -2.38419e-07 0 -0.000960708
3 1 0.249986 0.153525 0.0658343 0 0 -0.000961304
4 1 0.749986 0.153524 0.0658344 0 0 -0.000961661
5 1 0.999986 0.604334 0.312256 -2.38419e-07 0 0.000814557
6 1 0.249986 0.462292 0.188895 -3.57628e-07 0 0.000210762
7 1 0.749986 0.462293 0.188895 1.19209e-07 0 0.000210524
8 1 0.499986 0.604334 0.312256 2.38419e-07 0 0.000814319
9 1 0.999986 0.962292 0.188895 3.57628e-07 0 0.000211239
10 1 0.249986 0.104334 0.312256 1.19209e-07 0 0.000814438
11 1 0.499986 0.962292 0.188895 0 0 0.000210881
12 1 0.749986 0.104334 0.312256 -1.19209e-07 0 0.000814438
13 1 0.999986 0.555093 0.558926 -1.19209e-07 0 -0.000475168
14 1 0.499986 0.555093 0.558926 3.57628e-07 0 -0.000475407
15 1 0.249986 0.0550935 0.558926 0 0 -0.000475287
16 1 0.749986 0.0550934 0.558926 2.38419e-07 0 -0.000475168
17 1 0.249986 0.41305 0.435575 1.19209e-07 0 0.000475168
18 1 0.749986 0.41305 0.435575 -2.38419e-07 0 0.000475407
19 1 0.999986 0.91305 0.435575 -2.38419e-07 0 0.000475049
20 1 0.499986 0.91305 0.435575 0 0 0.000475407
21 1 0.999986 0.505851 0.805606 2.38419e-07 0 -0.000210762
22 1 0.249986 0.36381 0.682246 -3.57628e-07 0 -0.000814199
23 1 0.499986 0.505851 0.805606 -2.38419e-07 0 -0.000210524
24 1 0.749986 0.36381 0.682246 0 0 -0.000814557
25 1 0.999986 0.86381 0.682246 0 0 -0.000814557
26 1 0.249986 0.00585096 0.805606 2.38419e-07 0 -0.000211954
27 1 0.749986 0.0058511 0.805606 1.19209e-07 0 -0.000211477
28 1 0.499986 0.86381 0.682246 1.19209e-07 0 -0.000814319
29 1 0.249986 0.314619 0.928667 -1.19209e-07 0 0.00096035
30 1 0.749986 0.314619 0.928667 1.19209e-07 0 0.000960708
31 1 0.999986 0.814619 0.928667 1.19209e-07 0 0.0009619
32 1 0.499986 0.814619 0.928667 -3.57628e-07 0 0.000962138
ITEM: TIMESTEP
6
ITEM: NUMBER OF ATOMS
32
ITEM: BOX BOUNDS xy xz yz pp pp pp
-9.5987319946289062e-04 6.3977920413017273e+00 -0.0000000000000000e+00
-1.0525226593017578e-02 6.6371476650238037e+00 0.0000000000000000e+00
-5.8505058288574219e-02 2.0783891499042511e+01 1.1061912775039673e+00
ITEM: ATOMS id type xs ys zs fx fy fz
1 1 0.999986 0.653527 0.0658223 -1.19209e-07 0 0.000286579
2 1 0.499986 0.653527 0.0658223 4.76837e-07 0 0.000287056
3 1 0.249986 0.153527 0.0658224 -1.19209e-07 0 0.000286818
4 1 0.749986 0.153527 0.0658224 2.38419e-07 0 0.000286937
5 1 0.999986 0.604331 0.312269 0 0 0.000355124
6 1 0.249986 0.462292 0.188896 0 0 0.000178456
7 1 0.749986 0.462292 0.188896 1.19209e-07 0 0.000177979
8 1 0.499986 0.604331 0.312269 -3.57628e-07 0 0.000355363
9 1 0.999986 0.962292 0.188896 -4.76837e-07 0 0.00017786
10 1 0.249986 0.104331 0.312269 1.19209e-07 0 0.000355124
11 1 0.499986 0.962292 0.188896 -1.19209e-07 0 0.000178218
12 1 0.749986 0.104331 0.312269 2.38419e-07 0 0.000354767
13 1 0.999986 0.555096 0.558915 1.19209e-07 0 0.000115514
14 1 0.499986 0.555096 0.558915 2.38419e-07 0 0.000115156
15 1 0.249986 0.0550956 0.558915 -1.19209e-07 0 0.000114679
16 1 0.749986 0.0550956 0.558915 -1.19209e-07 0 0.000115037
17 1 0.249986 0.413048 0.435586 2.38419e-07 0 -0.000115156
18 1 0.749986 0.413048 0.435586 0 0 -0.000115156
19 1 0.999986 0.913048 0.435586 -1.19209e-07 0 -0.000115156
20 1 0.499986 0.913048 0.435586 -1.19209e-07 0 -0.000115275
21 1 0.999986 0.505851 0.805605 -5.96046e-07 0 -0.000178695
22 1 0.249986 0.363812 0.682233 2.38419e-07 0 -0.000355005
23 1 0.499986 0.505851 0.805605 5.96046e-07 0 -0.000178218
24 1 0.749986 0.363812 0.682233 -1.19209e-07 0 -0.000355005
25 1 0.999986 0.863812 0.682233 -4.76837e-07 0 -0.000354767
26 1 0.249986 0.00585112 0.805605 0 0 -0.000177741
27 1 0.749986 0.00585127 0.805605 0 0 -0.000177979
28 1 0.499986 0.863812 0.682233 2.38419e-07 0 -0.000355005
29 1 0.249986 0.314617 0.928679 -1.19209e-07 0 -0.000286222
30 1 0.749986 0.314617 0.928679 0 0 -0.000286818
31 1 0.999986 0.814617 0.928679 -1.19209e-07 0 -0.000287056
32 1 0.499986 0.814617 0.928679 2.38419e-07 0 -0.000287414
ITEM: TIMESTEP
7
ITEM: NUMBER OF ATOMS
32
ITEM: BOX BOUNDS xy xz yz pp pp pp
-9.5987319946289062e-04 6.3977920413017273e+00 -0.0000000000000000e+00
-1.0525226593017578e-02 6.6371476650238037e+00 0.0000000000000000e+00
-5.8505058288574219e-02 2.0783891499042511e+01 1.1061912775039673e+00
ITEM: ATOMS id type xs ys zs fx fy fz
1 1 0.999986 0.653526 0.0658261 1.19209e-07 0 4.30346e-05
2 1 0.499986 0.653526 0.0658261 -3.57628e-07 0 4.29153e-05
3 1 0.249986 0.153526 0.0658261 3.57628e-07 0 4.31538e-05
4 1 0.749986 0.153526 0.0658261 0 0 4.31538e-05
5 1 0.999986 0.604329 0.312279 0 0 -0.000140309
6 1 0.249986 0.462292 0.1889 2.38419e-07 0 0.000333428
7 1 0.749986 0.462292 0.1889 -4.76837e-07 0 0.000334024
8 1 0.499986 0.604329 0.312279 3.57628e-07 0 -0.000140548
9 1 0.999986 0.962291 0.1889 3.57628e-07 0 0.000333667
10 1 0.249986 0.104329 0.312279 1.19209e-07 0 -0.000140309
11 1 0.499986 0.962291 0.1889 -2.38419e-07 0 0.000333428
12 1 0.749986 0.104329 0.312279 -3.57628e-07 0 -0.000140071
13 1 0.999986 0.555096 0.558916 2.38419e-07 0 -0.000188828
14 1 0.499986 0.555096 0.558916 -8.34465e-07 0 -0.000188589
15 1 0.249986 0.0550956 0.558916 4.76837e-07 0 -0.000188112
16 1 0.749986 0.0550955 0.558916 -3.57628e-07 0 -0.000188708
17 1 0.249986 0.413048 0.435586 -4.76837e-07 0 0.000188708
18 1 0.749986 0.413048 0.435586 4.76837e-07 0 0.00018847
19 1 0.999986 0.913048 0.435586 3.57628e-07 0 0.000188828
20 1 0.499986 0.913048 0.435586 -1.19209e-07 0 0.000188708
21 1 0.999986 0.505852 0.805601 1.07288e-06 0 -0.000333309
22 1 0.249986 0.363814 0.682222 -2.38419e-07 0 0.000140071
23 1 0.499986 0.505852 0.805601 -9.53674e-07 0 -0.000333428
24 1 0.749986 0.363814 0.682222 0 0 0.00014019
25 1 0.999986 0.863814 0.682222 9.53674e-07 0 0.000139713
26 1 0.249986 0.00585193 0.805601 1.19209e-07 0 -0.000333548
27 1 0.749986 0.00585208 0.805601 1.19209e-07 0 -0.000333428
28 1 0.499986 0.863814 0.682222 -5.96046e-07 0 0.000140071
29 1 0.249986 0.314617 0.928675 3.57628e-07 0 -4.36306e-05
30 1 0.749986 0.314617 0.928675 -1.19209e-07 0 -4.33922e-05
31 1 0.999986 0.814617 0.928675 -5.96046e-07 0 -4.31538e-05
32 1 0.499986 0.814617 0.928675 0 0 -4.22001e-05
ITEM: TIMESTEP
8
ITEM: NUMBER OF ATOMS
32
ITEM: BOX BOUNDS xy xz yz pp pp pp
-9.5987319946289062e-04 6.3977920413017273e+00 -0.0000000000000000e+00
-1.0525226593017578e-02 6.6371476650238037e+00 0.0000000000000000e+00
-5.8505058288574219e-02 2.0783891499042511e+01 1.1061912775039673e+00
ITEM: ATOMS id type xs ys zs fx fy fz
1 1 0.999986 0.653525 0.0658291 0 0 2.6226e-06
2 1 0.499986 0.653525 0.0658291 -3.57628e-07 0 2.74181e-06
3 1 0.249986 0.153526 0.0658291 2.38419e-07 0 3.09944e-06
4 1 0.749986 0.153526 0.0658292 -1.19209e-07 0 2.26498e-06
5 1 0.999986 0.604329 0.312282 2.38419e-07 0 -8.34465e-07
6 1 0.249986 0.46229 0.188909 -2.38419e-07 0 7.15256e-07
7 1 0.749986 0.46229 0.188909 0 0 1.43051e-06
8 1 0.499986 0.604329 0.312282 0 0 -7.15256e-07
9 1 0.999986 0.96229 0.188909 0 0 1.66893e-06
10 1 0.249986 0.104329 0.312282 -4.76837e-07 0 -5.96046e-07
11 1 0.499986 0.96229 0.188909 3.57628e-07 0 1.43051e-06
12 1 0.749986 0.104329 0.312282 2.38419e-07 0 -4.76837e-07
13 1 0.999986 0.555096 0.558912 -3.57628e-07 0 5.00679e-06
14 1 0.499986 0.555096 0.558912 8.34465e-07 0 5.96046e-06
15 1 0.249986 0.0550963 0.558912 -7.15256e-07 0 5.84126e-06
16 1 0.749986 0.0550962 0.558912 5.96046e-07 0 6.07967e-06
17 1 0.249986 0.413047 0.435589 1.19209e-07 0 -5.72205e-06
18 1 0.749986 0.413047 0.435589 0 0 -5.60284e-06
19 1 0.999986 0.913047 0.435589 -3.57628e-07 0 -5.48363e-06
20 1 0.499986 0.913047 0.435589 0 0 -6.07967e-06
21 1 0.999986 0.505854 0.805593 -1.19209e-07 0 -7.15256e-07
22 1 0.249986 0.363815 0.682219 1.19209e-07 0 8.34465e-07
23 1 0.499986 0.505854 0.805593 4.76837e-07 0 -1.54972e-06
24 1 0.749986 0.363815 0.682219 -1.19209e-07 0 8.34465e-07
25 1 0.999986 0.863815 0.682219 -3.57628e-07 0 8.34465e-07
26 1 0.249986 0.00585366 0.805593 -1.19209e-07 0 -2.02656e-06
27 1 0.749986 0.00585381 0.805593 -1.19209e-07 0 -1.90735e-06
28 1 0.499986 0.863815 0.682219 1.19209e-07 0 8.34465e-07
29 1 0.249986 0.314618 0.928672 -1.19209e-07 0 -2.74181e-06
30 1 0.749986 0.314618 0.928672 1.19209e-07 0 -2.26498e-06
31 1 0.999986 0.814618 0.928672 8.34465e-07 0 -2.6226e-06
32 1 0.499986 0.814618 0.928672 -7.15256e-07 0 -2.86102e-06
ITEM: TIMESTEP
9
ITEM: NUMBER OF ATOMS
32
ITEM: BOX BOUNDS xy xz yz pp pp pp
-9.5987319946289062e-04 6.3977920413017273e+00 -0.0000000000000000e+00
-1.0525226593017578e-02 6.6371476650238037e+00 0.0000000000000000e+00
-5.8505058288574219e-02 2.0783891499042511e+01 1.1061912775039673e+00
ITEM: ATOMS id type xs ys zs fx fy fz
1 1 0.999986 0.653525 0.0658292 0 0 0
2 1 0.499986 0.653525 0.0658292 2.38419e-07 0 -2.38419e-07
3 1 0.249986 0.153526 0.0658292 -1.19209e-07 0 -2.38419e-07
4 1 0.749986 0.153525 0.0658292 2.38419e-07 0 -1.19209e-07
5 1 0.999986 0.604329 0.312282 3.57628e-07 0 -1.66893e-06
6 1 0.249986 0.46229 0.188909 -1.19209e-07 0 2.38419e-07
7 1 0.749986 0.46229 0.188909 0 0 5.96046e-07
8 1 0.499986 0.604329 0.312282 1.19209e-07 0 -2.02656e-06
9 1 0.999986 0.96229 0.188909 1.19209e-07 0 3.57628e-07
10 1 0.249986 0.104329 0.312282 0 0 -1.43051e-06
11 1 0.499986 0.96229 0.188909 -1.19209e-07 0 2.38419e-07
12 1 0.749986 0.104329 0.312282 -2.38419e-07 0 -1.54972e-06
13 1 0.999986 0.555096 0.558912 2.38419e-07 0 -3.57628e-07
14 1 0.499986 0.555096 0.558912 2.38419e-07 0 -5.96046e-07
15 1 0.249986 0.0550963 0.558912 -2.38419e-07 0 -3.57628e-07
16 1 0.749986 0.0550962 0.558912 -1.19209e-07 0 -3.57628e-07
17 1 0.249986 0.413047 0.435589 1.19209e-07 0 5.96046e-07
18 1 0.749986 0.413047 0.435589 -4.76837e-07 0 3.57628e-07
19 1 0.999986 0.913047 0.435589 -1.19209e-07 0 1.19209e-07
20 1 0.499986 0.913047 0.435589 2.38419e-07 0 8.34465e-07
21 1 0.999986 0.505854 0.805593 0 0 1.19209e-07
22 1 0.249986 0.363815 0.682219 1.19209e-07 0 1.43051e-06
23 1 0.499986 0.505854 0.805593 -2.38419e-07 0 0
24 1 0.749986 0.363815 0.682219 2.38419e-07 0 1.43051e-06
25 1 0.999986 0.863815 0.682219 0 0 1.54972e-06
26 1 0.249986 0.00585367 0.805593 0 0 0
27 1 0.749986 0.00585382 0.805593 0 0 -1.19209e-07
28 1 0.499986 0.863815 0.682219 -1.19209e-07 0 1.54972e-06
29 1 0.249986 0.314618 0.928672 -1.19209e-07 0 -2.38419e-07
30 1 0.749986 0.314618 0.928672 0 0 1.19209e-07
31 1 0.999986 0.814618 0.928672 -1.19209e-07 0 -2.38419e-07
32 1 0.499986 0.814618 0.928672 -1.19209e-07 0 0
