ITEM: TIMESTEP
0
ITEM: NUMBER OF ATOMS
32
ITEM: BOX BOUNDS xy xz yz pp pp pp
-9.5987319946289062e-04 6.3977920413017273e+00 -0.0000000000000000e+00
-1.0525226593017578e-02 8.7112563252449036e+00 0.0000000000000000e+00
-5.8505058288574219e-02 2.0783891499042511e+01 3.1802999377250671e+00
ITEM: ATOMS id type xs ys zs fx fy fz
1 1 0.999986 0.632375 0.0597507 -1.78814e-06 0 0.141035
2 1 0.499986 0.632375 0.0597507 1.90735e-06 0 0.141035
3 1 0.249986 0.132375 0.0597507 2.38419e-07 0 0.141037
4 1 0.749986 0.132375 0.0597507 -4.76837e-07 0 0.141036
5 1 0.999986 0.488898 0.309751 0 0 0.000104666
6 1 0.249986 0.39397 0.184751 -1.3113e-06 0 0.00147057
7 1 0.749986 0.39397 0.184751 1.07288e-06 0 0.00146961
8 1 0.499986 0.488898 0.309751 1.19209e-06 0 0.000105381
9 1 0.999986 0.89397 0.184751 1.19209e-07 0 0.00147021
10 1 0.249986 0.988898 0.309751 -2.02656e-06 0 0.000102639
11 1 0.499986 0.89397 0.184751 -1.19209e-07 0 0.00146866
12 1 0.749986 0.988898 0.309751 1.54972e-06 0 0.000103235
13 1 0.999986 0.345421 0.559751 -2.38419e-06 0 6.07967e-05
14 1 0.499986 0.345421 0.559751 2.5034e-06 0 6.09159e-05
15 1 0.249986 0.845421 0.559751 -7.15256e-07 0 6.10352e-05
16 1 0.749986 0.845421 0.559751 8.34465e-07 0 6.17504e-05
17 1 0.249986 0.250493 0.434751 4.76837e-07 0 -6.07967e-05
18 1 0.749986 0.250493 0.434751 -2.38419e-06 0 -6.10352e-05
19 1 0.999986 0.750493 0.434751 9.53674e-07 0 -6.05583e-05
20 1 0.499986 0.750493 0.434751 2.38419e-07 0 -6.02007e-05
21 1 0.999986 0.201944 0.809751 0 0 -0.00147057
22 1 0.249986 0.107016 0.684751 2.38419e-07 0 -0.000103593
23 1 0.499986 0.201944 0.809751 -1.07288e-06 0 -0.00146985
24 1 0.749986 0.107016 0.684751 4.76837e-07 0 -0.000105619
25 1 0.999986 0.607016 0.684751 -7.15256e-07 0 -0.00010407
26 1 0.249986 0.701944 0.809751 2.38419e-07 0 -0.00146949
27 1 0.749986 0.701944 0.809751 5.96046e-07 0 -0.00147021
28 1 0.499986 0.607016 0.684751 3.57628e-07 0 -0.000104785
29 1 0.249986 0.963539 0.934751 -5.96046e-07 0 -0.141037
30 1 0.749986 0.963539 0.934751 5.96046e-07 0 -0.141034
31 1 0.999986 0.463539 0.934751 -2.38419e-07 0 -0.141035
32 1 0.499986 0.463539 0.934751 2.38419e-07 0 -0.141036
ITEM: TIMESTEP
1
ITEM: NUMBER OF ATOMS
32
ITEM: BOX BOUNDS xy xz yz pp pp pp
-9.5987319946289062e-04 6.3977920413017273e+00 -0.0000000000000000e+00
-1.0525226593017578e-02 8.7112563252449036e+00 0.0000000000000000e+00
-5.8505058288574219e-02 2.0783891499042511e+01 3.1802999377250671e+00
ITEM: ATOMS id type xs ys zs fx fy fz
1 1 0.999986 0.631458 0.0613489 -2.38419e-07 0 -0.0127634
2 1 0.499986 0.631458 0.0613489 1.19209e-07 0 -0.0127639
3 1 0.249986 0.131458 0.0613489 0 0 -0.0127631
4 1 0.749986 0.131458 0.0613489 -2.38419e-07 0 -0.0127629
5 1 0.999986 0.488897 0.309752 2.38419e-07 0 0.00268197
6 1 0.249986 0.39396 0.184767 -1.19209e-07 0 0.0418395
7 1 0.749986 0.39396 0.184767 0 0 0.0418395
8 1 0.499986 0.488897 0.309752 -2.38419e-07 0 0.00268161
9 1 0.999986 0.89396 0.184767 2.38419e-07 0 0.0418386
10 1 0.249986 0.988897 0.309752 3.57628e-07 0 0.00268078
11 1 0.499986 0.89396 0.184767 2.38419e-07 0 0.0418385
12 1 0.749986 0.988897 0.309752 -3.57628e-07 0 0.00268114
13 1 0.999986 0.345421 0.559751 1.19209e-07 0 0.000117898
14 1 0.499986 0.345421 0.559751 -2.38419e-07 0 0.000118017
15 1 0.249986 0.845421 0.559751 1.19209e-07 0 0.000118494
16 1 0.749986 0.845421 0.559751 -1.19209e-07 0 0.000118017
17 1 0.249986 0.250493 0.43475 2.38419e-07 0 -0.000118017
18 1 0.749986 0.250493 0.43475 1.19209e-07 0 -0.000118017
19 1 0.999986 0.750493 0.43475 -3.57628e-07 0 -0.000117898
20 1 0.499986 0.750493 0.43475 0 0 -0.000118017
21 1 0.999986 0.201953 0.809734 0 0 -0.0418395
22 1 0.249986 0.107017 0.68475 -4.76837e-07 0 -0.00268114
23 1 0.499986 0.201953 0.809734 2.38419e-07 0 -0.0418394
24 1 0.749986 0.107017 0.68475 0 0 -0.00268149
25 1 0.999986 0.607017 0.68475 2.38419e-07 0 -0.00268149
26 1 0.249986 0.701953 0.809734 0 0 -0.0418392
27 1 0.749986 0.701954 0.809734 -2.38419e-07 0 -0.0418388
28 1 0.499986 0.607016 0.68475 2.38419e-07 0 -0.00268185
29 1 0.249986 0.964456 0.933153 -2.38419e-07 0 0.0127636
30 1 0.749986 0.964456 0.933153 2.38419e-07 0 0.0127639
31 1 0.999986 0.464456 0.933153 -2.38419e-07 0 0.0127631
32 1 0.499986 0.464456 0.933153 3.57628e-07 0 0.0127634
ITEM: TIMESTEP
2
ITEM: NUMBER OF ATOMS
32
ITEM: BOX BOUNDS xy xz yz pp pp pp
-9.5987319946289062e-04 6.3977920413017273e+00 -0.0000000000000000e+00
-1.0525226593017578e-02 8.7112563252449036e+00 0.0000000000000000e+00
-5.8505058288574219e-02 2.0783891499042511e+01 3.1802999377250671e+00
ITEM: ATOMS id type xs ys zs fx fy fz
1 1 0.999986 0.63131 0.0616054 7.15256e-07 0 -0.0143381
2 1 0.499986 0.63131 0.0616054 -9.53674e-07 0 -0.014338
3 1 0.249986 0.131311 0.0616054 -2.38419e-07 0 -0.0143383
4 1 0.749986 0.131311 0.0616054 2.38419e-07 0 -0.014338
5 1 0.999986 0.488867 0.309804 0 0 0.0213896
6 1 0.249986 0.39349 0.185587 3.57628e-07 0 0.00342107
7 1 0.749986 0.39349 0.185587 -5.96046e-07 0 0.00342119
8 1 0.499986 0.488867 0.309804 -3.57628e-07 0 0.0213894
9 1 0.999986 0.89349 0.185587 2.38419e-07 0 0.00342166
10 1 0.249986 0.988867 0.309804 2.38419e-07 0 0.0213894
11 1 0.499986 0.89349 0.185587 3.57628e-07 0 0.0034219
12 1 0.749986 0.988867 0.309804 -1.19209e-07 0 0.0213896
13 1 0.999986 0.345419 0.559754 9.53674e-07 0 -0.00238669
14 1 0.499986 0.345419 0.559754 -5.96046e-07 0 -0.00238669
15 1 0.249986 0.845419 0.559754 1.19209e-07 0 -0.00238657
16 1 0.749986 0.845419 0.559754 -4.76837e-07 0 -0.00238669
17 1 0.249986 0.250495 0.434747 -7.15256e-07 0 0.00238669
18 1 0.749986 0.250495 0.434747 8.34465e-07 0 0.00238681
19 1 0.999986 0.750495 0.434747 1.19209e-07 0 0.00238645
20 1 0.499986 0.750495 0.434747 -3.57628e-07 0 0.00238669
21 1 0.999986 0.202424 0.808914 -1.19209e-07 0 -0.00342119
22 1 0.249986 0.107047 0.684697 5.96046e-07 0 -0.0213901
23 1 0.499986 0.202424 0.808914 0 0 -0.00342166
24 1 0.749986 0.107047 0.684697 -2.38419e-07 0 -0.0213892
25 1 0.999986 0.607047 0.684697 0 0 -0.0213891
26 1 0.249986 0.702424 0.808914 0 0 -0.00342178
27 1 0.749986 0.702424 0.808914 -2.38419e-07 0 -0.00342202
28 1 0.499986 0.607047 0.684697 2.38419e-07 0 -0.0213892
29 1 0.249986 0.964603 0.932896 4.76837e-07 0 0.0143385
30 1 0.749986 0.964603 0.932896 -3.57628e-07 0 0.0143381
31 1 0.999986 0.464603 0.932896 0 0 0.0143384
32 1 0.499986 0.464603 0.932896 -1.19209e-07 0 0.014338
ITEM: TIMESTEP
3
ITEM: NUMBER OF ATOMS
32
ITEM: BOX BOUNDS xy xz yz pp pp pp
-9.5987319946289062e-04 6.3977920413017273e+00 -0.0000000000000000e+00
-1.0525226593017578e-02 8.7112563252449036e+00 0.0000000000000000e+00
-5.8505058288574219e-02 2.0783891499042511e+01 3.1802999377250671e+00
ITEM: ATOMS id type xs ys zs fx fy fz
1 1 0.999986 0.631435 0.0613886 -3.57628e-07 0 0.0102674
2 1 0.499986 0.631435 0.0613886 4.76837e-07 0 0.0102676
3 1 0.249986 0.131435 0.0613886 -2.38419e-07 0 0.0102677
4 1 0.749986 0.131435 0.0613886 0 0 0.0102682
5 1 0.999986 0.488647 0.310189 0 0 0.00574064
6 1 0.249986 0.393389 0.185762 0 0 -0.00191271
7 1 0.749986 0.393389 0.185762 2.38419e-07 0 -0.00191247
8 1 0.499986 0.488647 0.310189 0 0 0.005741
9 1 0.999986 0.893389 0.185762 0 0 -0.00191236
10 1 0.249986 0.988647 0.310189 1.19209e-07 0 0.00574172
11 1 0.499986 0.893389 0.185762 -1.19209e-07 0 -0.00191212
12 1 0.749986 0.988647 0.310189 -1.19209e-07 0 0.00574064
13 1 0.999986 0.345443 0.559712 -2.38419e-07 0 -0.00875354
14 1 0.499986 0.345443 0.559712 3.57628e-07 0 -0.00875354
15 1 0.249986 0.845443 0.559712 -1.19209e-07 0 -0.00875342
16 1 0.749986 0.845443 0.559712 1.19209e-07 0 -0.00875378
17 1 0.249986 0.250471 0.434789 7.15256e-07 0 0.00875378
18 1 0.749986 0.250471 0.434789 -4.76837e-07 0 0.00875378
19 1 0.999986 0.750471 0.434789 -1.19209e-07 0 0.00875354
20 1 0.499986 0.750471 0.434789 -1.19209e-07 0 0.00875318
21 1 0.999986 0.202524 0.808739 0 0 0.00191283
22 1 0.249986 0.107267 0.684313 -3.57628e-07 0 -0.00574052
23 1 0.499986 0.202524 0.808739 2.38419e-07 0 0.00191283
24 1 0.749986 0.107267 0.684313 0 0 -0.00574112
25 1 0.999986 0.607267 0.684313 0 0 -0.00574124
26 1 0.249986 0.702524 0.808739 1.19209e-07 0 0.00191259
27 1 0.749986 0.702525 0.808739 0 0 0.00191247
28 1 0.499986 0.607267 0.684313 -2.38419e-07 0 -0.00574076
29 1 0.249986 0.964479 0.933113 0 0 -0.0102679
30 1 0.749986 0.964479 0.933113 0 0 -0.010268
31 1 0.999986 0.464479 0.933113 0 0 -0.0102683
32 1 0.499986 0.464479 0.933113 1.19209e-07 0 -0.0102682
ITEM: TIMESTEP
4
ITEM: NUMBER OF ATOMS
32
ITEM: BOX BOUNDS xy xz yz pp pp pp
-9.5987319946289062e-04 6.3977920413017273e+00 -0.0000000000000000e+00
-1.0525226593017578e-02 8.7112563252449036e+00 0.0000000000000000e+00
-5.8505058288574219e-02 2.0783891499042511e+01 3.1802999377250671e+00
ITEM: ATOMS id type xs ys zs fx fy fz
1 1 0.999986 0.631372 0.0614977 -2.38419e-07 0 0.00138998
2 1 0.499986 0.631372 0.0614977 1.19209e-07 0 0.00138974
3 1 0.249986 0.131372 0.0614977 3.57628e-07 0 0.00138831
4 1 0.749986 0.131372 0.0614977 -1.19209e-07 0 0.00138855
5 1 0.999986 0.488513 0.310421 -1.19209e-07 0 -0.00191498
6 1 0.249986 0.393375 0.185788 -2.38419e-07 0 0.00570869
7 1 0.749986 0.393375 0.185788 3.57628e-07 0 0.00570846
8 1 0.499986 0.488513 0.310421 7.15256e-07 0 -0.0019151
9 1 0.999986 0.893375 0.185788 0 0 0.00570846
10 1 0.249986 0.988513 0.310421 -7.15256e-07 0 -0.00191545
11 1 0.499986 0.893375 0.185788 -1.19209e-07 0 0.00570846
12 1 0.749986 0.988513 0.310421 2.38419e-07 0 -0.0019151
13 1 0.999986 0.345541 0.559542 1.19209e-07 0 -0.000934601
14 1 0.499986 0.345541 0.559542 -7.15256e-07 0 -0.00093472
15 1 0.249986 0.845541 0.559542 2.38419e-07 0 -0.000934482
16 1 0.749986 0.845541 0.559542 2.38419e-07 0 -0.00093472
17 1 0.249986 0.250373 0.434959 0 0 0.000934243
18 1 0.749986 0.250373 0.434959 -3.57628e-07 0 0.000934243
19 1 0.999986 0.750373 0.434959 0 0 0.000934601
20 1 0.499986 0.750373 0.434959 3.57628e-07 0 0.00093472
21 1 0.999986 0.202539 0.808714 -1.19209e-07 0 -0.00570822
22 1 0.249986 0.107401 0.68408 0 0 0.00191534
23 1 0.499986 0.202539 0.808714 -1.19209e-07 0 -0.00570822
24 1 0.749986 0.107401 0.68408 7.15256e-07 0 0.0019151
25 1 0.999986 0.607401 0.68408 0 0 0.00191498
26 1 0.249986 0.702539 0.808714 -3.57628e-07 0 -0.00570834
27 1 0.749986 0.702539 0.808714 3.57628e-07 0 -0.00570798
28 1 0.499986 0.607401 0.68408 -5.96046e-07 0 0.00191534
29 1 0.249986 0.964542 0.933004 -1.19209e-07 0 -0.00138938
30 1 0.749986 0.964542 0.933004 1.19209e-07 0 -0.00138998
31 1 0.999986 0.464541 0.933004 0 0 -0.00138915
32 1 0.499986 0.464541 0.933004 0 0 -0.00138879
ITEM: TIMESTEP
5
ITEM: NUMBER OF ATOMS
32
ITEM: BOX BOUNDS xy xz yz pp pp pp
-9.5987319946289062e-04 6.3977920413017273e+00 -0.0000000000000000e+00
-1.0525226593017578e-02 8.7112563252449036e+00 0.0000000000000000e+00
-5.8505058288574219e-02 2.0783891499042511e+01 3.1802999377250671e+00
ITEM: ATOMS id type xs ys zs fx fy fz
1 1 0.999986 0.631346 0.061543 -2.38419e-07 0 0.000116587
2 1 0.499986 0.631346 0.061543 1.19209e-07 0 0.000117064
3 1 0.249986 0.131346 0.061543 0 0 0.000118017
4 1 0.749986 0.131346 0.061543 0 0 0.000117183
5 1 0.999986 0.488509 0.310428 2.38419e-07 0 0.00177848
6 1 0.249986 0.393312 0.185897 0 0 0.000991702
7 1 0.749986 0.393312 0.185897 1.19209e-07 0 0.00099206
8 1 0.499986 0.488509 0.310428 -4.76837e-07 0 0.00177813
9 1 0.999986 0.893312 0.185897 0 0 0.000991583
10 1 0.249986 0.988509 0.310428 2.38419e-07 0 0.0017786
11 1 0.499986 0.893312 0.185897 -1.19209e-07 0 0.000991464
12 1 0.749986 0.988509 0.310428 0 0 0.0017786
13 1 0.999986 0.345568 0.559494 -4.76837e-07 0 0.00261533
14 1 0.499986 0.345568 0.559494 8.34465e-07 0 0.00261581
15 1 0.249986 0.845568 0.559494 0 0 0.00261486
16 1 0.749986 0.845568 0.559494 -1.19209e-07 0 0.00261569
17 1 0.249986 0.250346 0.435007 -1.19209e-07 0 -0.00261509
18 1 0.749986 0.250346 0.435007 0 0 -0.00261545
19 1 0.999986 0.750346 0.435007 1.19209e-07 0 -0.00261533
20 1 0.499986 0.750346 0.435007 -2.38419e-07 0 -0.00261545
21 1 0.999986 0.202602 0.808604 0 0 -0.000992894
22 1 0.249986 0.107405 0.684073 2.38419e-07 0 -0.00177824
23 1 0.499986 0.202602 0.808604 -1.19209e-07 0 -0.00099194
24 1 0.749986 0.107405 0.684073 -7.15256e-07 0 -0.00177836
25 1 0.999986 0.607405 0.684073 0 0 -0.00177872
26 1 0.249986 0.702602 0.808604 3.57628e-07 0 -0.000991106
27 1 0.749986 0.702602 0.808604 -1.19209e-07 0 -0.00099206
28 1 0.499986 0.607405 0.684073 2.38419e-07 0 -0.0017786
29 1 0.249986 0.964568 0.932958 1.19209e-07 0 -0.00011754
30 1 0.749986 0.964568 0.932958 0 0 -0.000116467
31 1 0.999986 0.464567 0.932958 1.19209e-07 0 -0.000116706
32 1 0.499986 0.464567 0.932958 0 0 -0.000117183
ITEM: TIMESTEP
6
ITEM: NUMBER OF ATOMS
32
ITEM: BOX BOUNDS xy xz yz pp pp pp
-9.5987319946289062e-04 6.3977920413017273e+00 -0.0000000000000000e+00
-1.0525226593017578e-02 8.7112563252449036e+00 0.0000000000000000e+00
-5.8505058288574219e-02 2.0783891499042511e+01 3.1802999377250671e+00
ITEM: ATOMS id type xs ys zs fx fy fz
1 1 0.999986 0.631339 0.061555 3.57628e-07 0 8.84533e-05
2 1 0.499986 0.631339 0.061555 -1.19209e-07 0 8.83341e-05
3 1 0.249986 0.13134 0.061555 -2.38419e-07 0 8.85725e-05
4 1 0.749986 0.131339 0.061555 -1.19209e-07 0 8.89301e-05
5 1 0.999986 0.488493 0.310456 1.19209e-07 0 0.000622511
6 1 0.249986 0.393289 0.185936 4.76837e-07 0 -0.000220537
7 1 0.749986 0.39329 0.185936 -4.76837e-07 0 -0.000220895
8 1 0.499986 0.488493 0.310456 -4.76837e-07 0 0.00062263
9 1 0.999986 0.893289 0.185936 -2.38419e-07 0 -0.000220776
10 1 0.249986 0.988493 0.310456 8.34465e-07 0 0.000622392
11 1 0.499986 0.893289 0.185936 0 0 -0.000220656
12 1 0.749986 0.988493 0.310456 -1.19209e-07 0 0.000622272
13 1 0.999986 0.345552 0.559522 -1.19209e-07 0 -0.000344753
14 1 0.499986 0.345552 0.559522 0 0 -0.000345111
15 1 0.249986 0.845552 0.559522 -1.19209e-07 0 -0.000344753
16 1 0.749986 0.845552 0.559522 1.19209e-07 0 -0.00034523
17 1 0.249986 0.250362 0.434979 -1.19209e-07 0 0.000344634
18 1 0.749986 0.250362 0.434979 4.76837e-07 0 0.00034523
19 1 0.999986 0.750362 0.434979 -5.96046e-07 0 0.000345111
20 1 0.499986 0.750362 0.434979 3.57628e-07 0 0.000344872
21 1 0.999986 0.202624 0.808565 1.19209e-07 0 0.000220776
22 1 0.249986 0.107421 0.684045 -3.57628e-07 0 -0.000622988
23 1 0.499986 0.202624 0.808565 -1.19209e-07 0 0.000220895
24 1 0.749986 0.107421 0.684045 1.19209e-07 0 -0.00062263
25 1 0.999986 0.607421 0.684045 0 0 -0.000622272
26 1 0.249986 0.702624 0.808565 1.19209e-07 0 0.000220537
27 1 0.749986 0.702624 0.808565 0 0 0.000220776
28 1 0.499986 0.607421 0.684045 2.38419e-07 0 -0.000622511
29 1 0.249986 0.964574 0.932946 -2.38419e-07 0 -8.84533e-05
30 1 0.749986 0.964574 0.932946 1.19209e-07 0 -8.84533e-05
31 1 0.999986 0.464574 0.932946 2.38419e-07 0 -8.86917e-05
32 1 0.499986 0.464574 0.932946 -2.38419e-07 0 -8.82149e-05
ITEM: TIMESTEP
7
ITEM: NUMBER OF ATOMS
32
ITEM: BOX BOUNDS xy xz yz pp pp pp
-9.5987319946289062e-04 6.3977920413017273e+00 -0.0000000000000000e+00
-1.0525226593017578e-02 8.7112563252449036e+00 0.0000000000000000e+00
-5.8505058288574219e-02 2.0783891499042511e+01 3.1802999377250671e+00
ITEM: ATOMS id type xs ys zs fx fy fz
1 1 0.999986 0.631338 0.0615575 -1.19209e-07 0 -0.000152826
2 1 0.499986 0.631338 0.0615575 1.19209e-07 0 -0.000152707
3 1 0.249986 0.131338 0.0615575 0 0 -0.000153422
4 1 0.749986 0.131338 0.0615575 0 0 -0.000153422
5 1 0.999986 0.488485 0.31047 -3.57628e-07 0 -4.27961e-05
6 1 0.249986 0.39329 0.185935 -3.57628e-07 0 0.000291228
7 1 0.749986 0.39329 0.185935 1.19209e-07 0 0.000291348
8 1 0.499986 0.488485 0.31047 5.96046e-07 0 -4.30346e-05
9 1 0.999986 0.89329 0.185935 2.38419e-07 0 0.000291705
10 1 0.249986 0.988485 0.31047 -4.76837e-07 0 -4.24385e-05
11 1 0.499986 0.89329 0.185935 0 0 0.00029099
12 1 0.749986 0.988485 0.31047 1.19209e-07 0 -4.26769e-05
13 1 0.999986 0.345555 0.559517 2.38419e-07 0 -0.000300884
14 1 0.499986 0.345555 0.559517 -4.76837e-07 0 -0.000300407
15 1 0.249986 0.845555 0.559517 5.96046e-07 0 -0.000301123
16 1 0.749986 0.845555 0.559517 -2.38419e-07 0 -0.000299931
17 1 0.249986 0.250359 0.434984 0 0 0.000301123
18 1 0.749986 0.250359 0.434984 -3.57628e-07 0 0.000300288
19 1 0.999986 0.750359 0.434984 5.96046e-07 0 0.000300288
20 1 0.499986 0.750359 0.434984 -1.19209e-07 0 0.000300407
21 1 0.999986 0.202623 0.808567 3.57628e-07 0 -0.00029099
22 1 0.249986 0.107429 0.684032 0 0 4.29153e-05
23 1 0.499986 0.202623 0.808567 2.38419e-07 0 -0.000291348
24 1 0.749986 0.107429 0.684032 -4.76837e-07 0 4.27961e-05
25 1 0.999986 0.607429 0.684032 2.38419e-07 0 4.29153e-05
26 1 0.249986 0.702623 0.808567 -7.15256e-07 0 -0.000291944
27 1 0.749986 0.702624 0.808567 1.19209e-07 0 -0.000291228
28 1 0.499986 0.607429 0.684032 1.19209e-07 0 4.26769e-05
29 1 0.249986 0.964576 0.932944 0 0 0.000153065
30 1 0.749986 0.964576 0.932944 0 0 0.000153422
31 1 0.999986 0.464576 0.932944 0 0 0.000153065
32 1 0.499986 0.464576 0.932944 0 0 0.000152946
ITEM: TIMESTEP
8
ITEM: NUMBER OF ATOMS
32
ITEM: BOX BOUNDS xy xz yz pp pp pp
-9.5987319946289062e-04 6.3977920413017273e+00 -0.0000000000000000e+00
-1.0525226593017578e-02 8.7112563252449036e+00 0.0000000000000000e+00
-5.8505058288574219e-02 2.0783891499042511e+01 3.1802999377250671e+00
ITEM: ATOMS id type xs ys zs fx fy fz
1 1 0.999986 0.631339 0.0615559 -1.19209e-07 0 8.70228e-05
2 1 0.499986 0.631339 0.0615559 -2.38419e-07 0 8.69036e-05
3 1 0.249986 0.131339 0.0615559 2.38419e-07 0 8.65459e-05
4 1 0.749986 0.131339 0.0615559 0 0 8.65459e-05
5 1 0.999986 0.488483 0.310473 3.57628e-07 0 2.37226e-05
6 1 0.249986 0.393288 0.185939 -3.57628e-07 0 0.000126362
7 1 0.749986 0.393288 0.185939 0 0 0.000126839
8 1 0.499986 0.488484 0.310473 1.19209e-07 0 2.39611e-05
9 1 0.999986 0.893288 0.185939 0 0 0.000126839
10 1 0.249986 0.988484 0.310473 -3.57628e-07 0 2.37226e-05
11 1 0.499986 0.893288 0.185939 1.19209e-07 0 0.000127077
12 1 0.749986 0.988484 0.310473 2.38419e-07 0 2.40803e-05
13 1 0.999986 0.345558 0.559512 1.19209e-07 0 7.55787e-05
14 1 0.499986 0.345558 0.559512 0 0 7.52211e-05
15 1 0.249986 0.845558 0.559512 -1.19209e-07 0 7.54595e-05
16 1 0.749986 0.845558 0.559512 0 0 7.52211e-05
17 1 0.249986 0.250356 0.43499 0 0 -7.53403e-05
18 1 0.749986 0.250356 0.43499 0 0 -7.52211e-05
19 1 0.999986 0.750356 0.43499 1.19209e-07 0 -7.54595e-05
20 1 0.499986 0.750356 0.43499 -2.38419e-07 0 -7.52211e-05
21 1 0.999986 0.202626 0.808563 -2.38419e-07 0 -0.0001266
22 1 0.249986 0.10743 0.684028 4.76837e-07 0 -2.37226e-05
23 1 0.499986 0.202626 0.808563 1.19209e-07 0 -0.000127077
24 1 0.749986 0.10743 0.684028 -1.19209e-07 0 -2.37226e-05
25 1 0.999986 0.60743 0.684028 -1.19209e-07 0 -2.40803e-05
26 1 0.249986 0.702626 0.808563 5.96046e-07 0 -0.000126719
27 1 0.749986 0.702626 0.808563 -2.38419e-07 0 -0.000127077
28 1 0.499986 0.60743 0.684028 -4.76837e-07 0 -2.34842e-05
29 1 0.249986 0.964575 0.932945 2.38419e-07 0 -8.7142e-05
30 1 0.749986 0.964575 0.932945 -2.38419e-07 0 -8.74996e-05
31 1 0.999986 0.464575 0.932945 -3.57628e-07 0 -8.61883e-05
32 1 0.499986 0.464575 0.932945 4.76837e-07 0 -8.65459e-05
ITEM: TIMESTEP
9
ITEM: NUMBER OF ATOMS
32
ITEM: BOX BOUNDS xy xz yz pp pp pp
-9.5987319946289062e-04 6.3977920413017273e+00 -0.0000000000000000e+00
-1.0525226593017578e-02 8.7112563252449036e+00 0.0000000000000000e+00
-5.8505058288574219e-02 2.0783891499042511e+01 3.1802999377250671e+00
ITEM: ATOMS id type xs ys zs fx fy fz
1 1 0.999986 0.631338 0.0615578 0 0 3.33786e-05
2 1 0.499986 0.631338 0.0615578 0 0 3.34978e-05
3 1 0.249986 0.131338 0.0615577 1.19209e-07 0 3.42131e-05
4 1 0.749986 0.131338 0.0615578 1.19209e-07 0 3.44515e-05
5 1 0.999986 0.488483 0.310474 -3.57628e-07 0 4.69685e-05
6 1 0.249986 0.393286 0.185943 3.57628e-07 0 -2.94447e-05
7 1 0.749986 0.393286 0.185943 -3.57628e-07 0 -3.00407e-05
8 1 0.499986 0.488483 0.310474 -1.19209e-07 0 4.673e-05
9 1 0.999986 0.893286 0.185943 -1.19209e-07 0 -3.05176e-05
10 1 0.249986 0.988483 0.310474 5.96046e-07 0 4.69685e-05
11 1 0.499986 0.893286 0.185943 -1.19209e-07 0 -3.02792e-05
12 1 0.749986 0.988483 0.310474 -1.19209e-07 0 4.69685e-05
13 1 0.999986 0.345558 0.559512 -2.38419e-07 0 -3.33786e-06
14 1 0.499986 0.345558 0.559512 0 0 -3.21865e-06
15 1 0.249986 0.845558 0.559512 0 0 -3.09944e-06
16 1 0.749986 0.845558 0.559512 2.38419e-07 0 -3.33786e-06
17 1 0.249986 0.250356 0.434989 -3.57628e-07 0 3.21865e-06
18 1 0.749986 0.250356 0.434989 1.19209e-07 0 3.33786e-06
19 1 0.999986 0.750356 0.434989 0 0 3.57628e-06
20 1 0.499986 0.750356 0.434989 2.38419e-07 0 3.33786e-06
21 1 0.999986 0.202628 0.808559 0 0 2.96831e-05
22 1 0.249986 0.107431 0.684027 -5.96046e-07 0 -4.68493e-05
23 1 0.499986 0.202628 0.808558 1.19209e-07 0 3.05176e-05
24 1 0.749986 0.107431 0.684027 3.57628e-07 0 -4.74453e-05
25 1 0.999986 0.607431 0.684027 -3.57628e-07 0 -4.70877e-05
26 1 0.249986 0.702628 0.808558 -2.38419e-07 0 3.09944e-05
27 1 0.749986 0.702628 0.808558 4.76837e-07 0 3.03984e-05
28 1 0.499986 0.607431 0.684027 7.15256e-07 0 -4.75645e-05
29 1 0.249986 0.964576 0.932944 -2.38419e-07 0 -3.3617e-05
30 1 0.749986 0.964576 0.932944 -1.19209e-07 0 -3.3021e-05
31 1 0.999986 0.464576 0.932944 2.38419e-07 0 -3.49283e-05
32 1 0.499986 0.464576 0.932944 -3.57628e-07 0 -3.44515e-05
ITEM: TIMESTEP
10
ITEM: NUMBER OF ATOMS
32
ITEM: BOX BOUNDS xy xz yz pp pp pp
-9.5987319946289062e-04 6.3977920413017273e+00 -0.0000000000000000e+00
-1.0525226593017578e-02 8.7112563252449036e+00 0.0000000000000000e+00
-5.8505058288574219e-02 2.0783891499042511e+01 3.1802999377250671e+00
ITEM: ATOMS id type xs ys zs fx fy fz
1 1 0.999986 0.631338 0.0615583 0 0 -1.3113e-05
2 1 0.499986 0.631337 0.0615583 0 0 -1.3113e-05
3 1 0.249986 0.131338 0.0615583 1.19209e-07 0 -1.34706e-05
4 1 0.749986 0.131338 0.0615583 0 0 -1.28746e-05
5 1 0.999986 0.488482 0.310475 0 0 1.13249e-05
6 1 0.249986 0.393286 0.185943 1.19209e-07 0 3.8147e-06
7 1 0.749986 0.393286 0.185943 2.38419e-07 0 3.93391e-06
8 1 0.499986 0.488482 0.310475 -4.76837e-07 0 1.15633e-05
9 1 0.999986 0.893286 0.185943 3.57628e-07 0 3.57628e-06
10 1 0.249986 0.988482 0.310475 1.19209e-07 0 1.15633e-05
11 1 0.499986 0.893286 0.185943 -3.57628e-07 0 3.93391e-06
12 1 0.749986 0.988482 0.310475 -2.38419e-07 0 1.13249e-05
13 1 0.999986 0.345558 0.559512 0 0 -1.88351e-05
14 1 0.499986 0.345558 0.559512 1.19209e-07 0 -1.8239e-05
15 1 0.249986 0.845558 0.559512 0 0 -1.84774e-05
16 1 0.749986 0.845558 0.559512 -2.38419e-07 0 -1.87159e-05
17 1 0.249986 0.250356 0.434989 2.38419e-07 0 1.8239e-05
18 1 0.749986 0.250356 0.434989 -1.19209e-07 0 1.8239e-05
19 1 0.999986 0.750356 0.434989 1.19209e-07 0 1.88351e-05
20 1 0.499986 0.750356 0.434989 0 0 1.85966e-05
21 1 0.999986 0.202628 0.808559 -1.19209e-07 0 -4.29153e-06
22 1 0.249986 0.107432 0.684026 0 0 -1.0848e-05
23 1 0.499986 0.202628 0.808559 -1.19209e-07 0 -4.29153e-06
24 1 0.749986 0.107432 0.684026 2.38419e-07 0 -1.10865e-05
25 1 0.999986 0.607432 0.684026 4.76837e-07 0 -1.12057e-05
26 1 0.249986 0.702628 0.808559 -1.19209e-07 0 -4.05312e-06
27 1 0.749986 0.702628 0.808559 -2.38419e-07 0 -4.17233e-06
28 1 0.499986 0.607432 0.684026 -1.19209e-07 0 -1.15633e-05
29 1 0.249986 0.964576 0.932943 0 0 1.35899e-05
30 1 0.749986 0.964576 0.932943 -2.38419e-07 0 1.33514e-05
31 1 0.999986 0.464576 0.932943 5.96046e-07 0 1.3113e-05
32 1 0.499986 0.464576 0.932943 -3.57628e-07 0 1.33514e-05
ITEM: TIMESTEP
11
ITEM: NUMBER OF ATOMS
32
ITEM: BOX BOUNDS xy xz yz pp pp pp
-9.5987319946289062e-04 6.3977920413017273e+00 -0.0000000000000000e+00
-1.0525226593017578e-02 8.7112563252449036e+00 0.0000000000000000e+00
-5.8505058288574219e-02 2.0783891499042511e+01 3.1802999377250671e+00
ITEM: ATOMS id type xs ys zs fx fy fz
1 1 0.999986 0.631338 0.0615581 1.19209e-07 0 3.57628e-07
2 1 0.499986 0.631338 0.0615581 -1.19209e-07 0 5.96046e-07
3 1 0.249986 0.131338 0.0615581 -2.38419e-07 0 1.19209e-06
4 1 0.749986 0.131338 0.0615582 1.19209e-07 0 1.19209e-07
5 1 0.999986 0.488482 0.310475 -3.57628e-07 0 1.66893e-06
6 1 0.249986 0.393286 0.185943 -2.38419e-07 0 7.51019e-06
7 1 0.749986 0.393286 0.185943 5.96046e-07 0 7.39098e-06
8 1 0.499986 0.488482 0.310475 2.38419e-07 0 1.43051e-06
9 1 0.999986 0.893286 0.185943 -3.57628e-07 0 7.51019e-06
10 1 0.249986 0.988482 0.310475 0 0 1.90735e-06
11 1 0.499986 0.893286 0.185943 -1.19209e-07 0 7.39098e-06
12 1 0.749986 0.988482 0.310475 3.57628e-07 0 1.90735e-06
13 1 0.999986 0.345558 0.559512 2.38419e-07 0 4.17233e-06
14 1 0.499986 0.345558 0.559512 1.19209e-07 0 3.8147e-06
15 1 0.249986 0.845558 0.559512 -4.76837e-07 0 3.8147e-06
16 1 0.749986 0.845558 0.559512 1.19209e-07 0 3.93391e-06
17 1 0.249986 0.250356 0.43499 2.38419e-07 0 -3.57628e-06
18 1 0.749986 0.250356 0.43499 0 0 -3.93391e-06
19 1 0.999986 0.750356 0.43499 -1.19209e-07 0 -4.17233e-06
20 1 0.499986 0.750356 0.43499 0 0 -3.69549e-06
21 1 0.999986 0.202628 0.808559 0 0 -6.79493e-06
22 1 0.249986 0.107432 0.684026 1.19209e-07 0 -2.5034e-06
23 1 0.499986 0.202628 0.808559 -1.19209e-07 0 -6.79493e-06
24 1 0.749986 0.107432 0.684026 0 0 -2.38419e-06
25 1 0.999986 0.607432 0.684026 -3.57628e-07 0 -2.14577e-06
26 1 0.249986 0.702628 0.808559 -2.38419e-07 0 -6.67572e-06
27 1 0.749986 0.702628 0.808559 2.38419e-07 0 -7.03335e-06
28 1 0.499986 0.607432 0.684026 1.19209e-07 0 -1.66893e-06
29 1 0.249986 0.964576 0.932943 -4.76837e-07 0 -1.43051e-06
30 1 0.749986 0.964576 0.932943 7.15256e-07 0 -7.15256e-07
31 1 0.999986 0.464576 0.932943 -7.15256e-07 0 -5.96046e-07
32 1 0.499986 0.464576 0.932943 5.96046e-07 0 -5.96046e-07
ITEM: TIMESTEP
12
ITEM: NUMBER OF ATOMS
32
ITEM: BOX BOUNDS xy xz yz pp pp pp
-9.5987319946289062e-04 6.3977920413017273e+00 -0.0000000000000000e+00
-1.0525226593017578e-02 8.7112563252449036e+00 0.0000000000000000e+00
-5.8505058288574219e-02 2.0783891499042511e+01 3.1802999377250671e+00
ITEM: ATOMS id type xs ys zs fx fy fz
1 1 0.999986 0.631338 0.0615581 0 0 5.72205e-06
2 1 0.499986 0.631338 0.0615581 2.38419e-07 0 5.84126e-06
3 1 0.249986 0.131338 0.0615581 -2.38419e-07 0 3.93391e-06
4 1 0.749986 0.131338 0.0615581 -2.38419e-07 0 4.88758e-06
5 1 0.999986 0.488482 0.310476 7.15256e-07 0 5.96046e-07
6 1 0.249986 0.393286 0.185943 0 0 2.38419e-07
7 1 0.749986 0.393286 0.185943 -3.57628e-07 0 -5.96046e-07
8 1 0.499986 0.488482 0.310476 -2.38419e-07 0 3.57628e-07
9 1 0.999986 0.893285 0.185943 0 0 2.38419e-07
10 1 0.249986 0.988482 0.310476 -2.38419e-07 0 1.19209e-07
11 1 0.499986 0.893286 0.185943 4.76837e-07 0 0
12 1 0.749986 0.988482 0.310476 -2.38419e-07 0 1.19209e-07
13 1 0.999986 0.345558 0.559512 0 0 -2.02656e-06
14 1 0.499986 0.345558 0.559512 -2.38419e-07 0 -1.54972e-06
15 1 0.249986 0.845558 0.559512 5.96046e-07 0 -1.43051e-06
16 1 0.749986 0.845558 0.559512 0 0 -1.54972e-06
17 1 0.249986 0.250356 0.43499 -1.19209e-07 0 1.19209e-06
18 1 0.749986 0.250356 0.43499 -1.19209e-07 0 1.66893e-06
19 1 0.999986 0.750356 0.43499 2.38419e-07 0 1.3113e-06
20 1 0.499986 0.750356 0.43499 -1.19209e-07 0 1.43051e-06
21 1 0.999986 0.202628 0.808558 2.38419e-07 0 -4.76837e-07
22 1 0.249986 0.107432 0.684026 5.96046e-07 0 -3.57628e-07
23 1 0.499986 0.202628 0.808558 -3.57628e-07 0 -2.38419e-07
24 1 0.749986 0.107432 0.684026 -3.57628e-07 0 2.38419e-07
25 1 0.999986 0.607432 0.684026 2.38419e-07 0 1.19209e-07
26 1 0.249986 0.702628 0.808558 4.76837e-07 0 -7.15256e-07
27 1 0.749986 0.702628 0.808558 -1.19209e-07 0 1.19209e-07
28 1 0.499986 0.607432 0.684026 -7.15256e-07 0 -3.57628e-07
29 1 0.249986 0.964576 0.932943 4.76837e-07 0 -4.52995e-06
30 1 0.749986 0.964576 0.932943 -2.38419e-07 0 -5.72205e-06
31 1 0.999986 0.464576 0.932943 0 0 -4.05312e-06
32 1 0.499986 0.464576 0.932943 -3.57628e-07 0 -4.52995e-06
ITEM: TIMESTEP
13
ITEM: NUMBER OF ATOMS
32
ITEM: BOX BOUNDS xy xz yz pp pp pp
-9.5987319946289062e-04 6.3977920413017273e+00 -0.0000000000000000e+00
-1.0525226593017578e-02 8.7112563252449036e+00 0.0000000000000000e+00
-5.8505058288574219e-02 2.0783891499042511e+01 3.1802999377250671e+00
ITEM: ATOMS id type xs ys zs fx fy fz
1 1 0.999986 0.631338 0.0615582 0 0 -5.96046e-07
2 1 0.499986 0.631337 0.0615582 0 0 -8.34465e-07
3 1 0.249986 0.131338 0.0615582 2.38419e-07 0 4.76837e-07
4 1 0.749986 0.131338 0.0615582 -2.38419e-07 0 2.38419e-07
5 1 0.999986 0.488482 0.310476 -2.38419e-07 0 7.15256e-07
6 1 0.249986 0.393286 0.185943 2.38419e-07 0 -2.38419e-07
7 1 0.749986 0.393286 0.185943 -1.19209e-07 0 4.76837e-07
8 1 0.499986 0.488482 0.310476 2.38419e-07 0 1.07288e-06
9 1 0.999986 0.893285 0.185943 -1.19209e-07 0 -2.38419e-07
10 1 0.249986 0.988482 0.310476 2.38419e-07 0 4.76837e-07
11 1 0.499986 0.893285 0.185943 0 0 -2.38419e-07
12 1 0.749986 0.988482 0.310476 -1.19209e-07 0 4.76837e-07
13 1 0.999986 0.345558 0.559512 -3.57628e-07 0 -9.53674e-07
14 1 0.499986 0.345558 0.559512 8.34465e-07 0 -1.3113e-06
15 1 0.249986 0.845558 0.559512 -2.38419e-07 0 0
16 1 0.749986 0.845558 0.559512 2.38419e-07 0 -3.57628e-07
17 1 0.249986 0.250356 0.43499 -1.19209e-07 0 2.38419e-07
18 1 0.749986 0.250356 0.43499 0 0 5.96046e-07
19 1 0.999986 0.750356 0.43499 0 0 7.15256e-07
20 1 0.499986 0.750356 0.43499 -2.38419e-07 0 0
21 1 0.999986 0.202628 0.808558 -2.38419e-07 0 -2.38419e-07
22 1 0.249986 0.107432 0.684026 -7.15256e-07 0 3.57628e-07
23 1 0.499986 0.202628 0.808558 1.19209e-07 0 -2.38419e-07
24 1 0.749986 0.107432 0.684026 0 0 -4.76837e-07
25 1 0.999986 0.607432 0.684026 -2.38419e-07 0 -5.96046e-07
26 1 0.249986 0.702628 0.808558 -1.19209e-07 0 -1.19209e-07
27 1 0.749986 0.702628 0.808558 2.38419e-07 0 0
28 1 0.499986 0.607432 0.684026 7.15256e-07 0 -2.38419e-07
29 1 0.249986 0.964576 0.932943 3.57628e-07 0 4.76837e-07
30 1 0.749986 0.964576 0.932943 -2.38419e-07 0 5.96046e-07
31 1 0.999986 0.464576 0.932943 2.38419e-07 0 -3.57628e-07
32 1 0.499986 0.464576 0.932943 -3.57628e-07 0 1.19209e-07
