ITEM: TIMESTEP
0
ITEM: NUMBER OF ATOMS
32
ITEM: BOX BOUNDS xy xz yz pp pp pp
-4.0532350540161133e-03 6.4008854031562805e+00 0.0000000000000000e+00
-9.1640949249267578e-03 6.9119940400123596e+00 0.0000000000000000e+00
-4.7960281372070312e-02 2.0773346722126007e+01 1.3823987841606140e+00
ITEM: ATOMS id type xs ys zs fx fy fz
1 1 0.999986 0.651246 0.0597509 0 0 0.900158
2 1 0.499986 0.651246 0.0597509 0 0 0.900158
3 1 0.249986 0.151246 0.0597519 0 0 0.900009
4 1 0.749986 0.151246 0.0597519 0 0 0.900009
5 1 0.999986 0.588862 0.309753 0 0 0.000522614
6 1 0.249986 0.454403 0.184753 0 0 0.00104523
7 1 0.749986 0.454403 0.184753 0 0 0.00104523
8 1 0.499986 0.588862 0.309753 0 0 0.000522614
9 1 0.999986 0.954401 0.184753 0 0 0.00106239
10 1 0.249986 0.0888622 0.309753 0 0 0.0004673
11 1 0.499986 0.954401 0.184753 0 0 0.00106239
12 1 0.749986 0.0888622 0.309753 0 0 0.0004673
13 1 0.999986 0.526453 0.559749 0 0 6.86646e-05
14 1 0.499986 0.526453 0.559749 0 0 6.86646e-05
15 1 0.249986 0.0264511 0.55975 0 0 5.72205e-05
16 1 0.749986 0.0264511 0.55975 0 0 5.72205e-05
17 1 0.249986 0.392007 0.434752 0 0 -6.86646e-05
18 1 0.749986 0.392007 0.434752 0 0 -6.86646e-05
19 1 0.999986 0.892006 0.434752 0 0 -4.57764e-05
20 1 0.499986 0.892006 0.434752 0 0 -4.57764e-05
21 1 0.999986 0.464048 0.809748 0 0 -0.00106621
22 1 0.249986 0.329592 0.684748 0 0 -0.000495911
23 1 0.499986 0.464048 0.809748 0 0 -0.00106621
24 1 0.749986 0.329592 0.684748 0 0 -0.000495911
25 1 0.999986 0.829592 0.684749 0 0 -0.000518799
26 1 0.249986 0.964048 0.809748 0 0 -0.00105095
27 1 0.749986 0.964048 0.809748 0 0 -0.00105095
28 1 0.499986 0.829592 0.684749 0 0 -0.000518799
29 1 0.249986 0.2672 0.934749 0 0 -0.899994
30 1 0.749986 0.2672 0.934749 0 0 -0.899994
31 1 0.999986 0.767201 0.93475 0 0 -0.90015
32 1 0.499986 0.767201 0.93475 0 0 -0.90015
ITEM: TIMESTEP
1
ITEM: NUMBER OF ATOMS
32
ITEM: BOX BOUNDS xy xz yz pp pp pp
-4.0532350540161133e-03 6.4008854031562805e+00 0.0000000000000000e+00
-9.1640949249267578e-03 6.9119940400123596e+00 0.0000000000000000e+00
-4.7960281372070312e-02 2.0773346722126007e+01 1.3823987841606140e+00
ITEM: ATOMS id type xs ys zs fx fy fz
1 1 0.999986 0.650047 0.0645537 0 0 0.145979
2 1 0.499986 0.650047 0.0645537 0 0 0.145979
3 1 0.249986 0.150047 0.0645539 0 0 0.145983
4 1 0.749986 0.150047 0.0645539 0 0 0.145983
5 1 0.999986 0.588861 0.309756 0 0 0.00798035
6 1 0.249986 0.454401 0.184759 0 0 0.146038
7 1 0.749986 0.454401 0.184759 0 0 0.146038
8 1 0.499986 0.588861 0.309756 0 0 0.00798035
9 1 0.999986 0.9544 0.184759 0 0 0.146051
10 1 0.249986 0.0888615 0.309756 0 0 0.00795746
11 1 0.499986 0.9544 0.184759 0 0 0.146051
12 1 0.749986 0.0888615 0.309756 0 0 0.00795746
13 1 0.999986 0.526453 0.55975 0 0 0.000436783
14 1 0.499986 0.526453 0.55975 0 0 0.000436783
15 1 0.249986 0.026451 0.55975 0 0 0.000427246
16 1 0.749986 0.026451 0.55975 0 0 0.000427246
17 1 0.249986 0.392007 0.434752 0 0 -0.000432968
18 1 0.749986 0.392007 0.434752 0 0 -0.000432968
19 1 0.999986 0.892006 0.434752 0 0 -0.000415802
20 1 0.499986 0.892006 0.434752 0 0 -0.000415802
21 1 0.999986 0.464049 0.809742 0 0 -0.146042
22 1 0.249986 0.329593 0.684746 0 0 -0.00798416
23 1 0.499986 0.464049 0.809742 0 0 -0.146042
24 1 0.749986 0.329593 0.684746 0 0 -0.00798416
25 1 0.999986 0.829593 0.684746 0 0 -0.00798988
26 1 0.249986 0.964049 0.809742 0 0 -0.146038
27 1 0.749986 0.964049 0.809742 0 0 -0.146038
28 1 0.499986 0.829593 0.684746 0 0 -0.00798988
29 1 0.249986 0.268399 0.929947 0 0 -0.145973
30 1 0.749986 0.268399 0.929947 0 0 -0.145973
31 1 0.999986 0.7684 0.929947 0 0 -0.145977
32 1 0.499986 0.7684 0.929947 0 0 -0.145977
ITEM: TIMESTEP
2
ITEM: NUMBER OF ATOMS
32
ITEM: BOX BOUNDS xy xz yz pp pp pp
-4.0532350540161133e-03 6.4008854031562805e+00 0.0000000000000000e+00
-9.1640949249267578e-03 6.9119940400123596e+00 0.0000000000000000e+00
-4.7960281372070312e-02 2.0773346722126007e+01 1.3823987841606140e+00
ITEM: ATOMS id type xs ys zs fx fy fz
1 1 0.999986 0.649326 0.0674415 0 0 -0.092083
2 1 0.499986 0.649326 0.0674415 0 0 -0.092083
3 1 0.249986 0.149327 0.0674418 0 0 -0.0921001
4 1 0.749986 0.149327 0.0674418 0 0 -0.0921001
5 1 0.999986 0.588822 0.309913 0 0 0.0795689
6 1 0.249986 0.45368 0.187648 0 0 0.066103
7 1 0.749986 0.45368 0.187648 0 0 0.066103
8 1 0.499986 0.588822 0.309913 0 0 0.0795689
9 1 0.999986 0.953678 0.187648 0 0 0.0660973
10 1 0.249986 0.0888223 0.309913 0 0 0.0795708
11 1 0.499986 0.953678 0.187648 0 0 0.0660973
12 1 0.749986 0.0888223 0.309913 0 0 0.0795708
13 1 0.999986 0.52645 0.559758 0 0 -0.00824928
14 1 0.499986 0.52645 0.559758 0 0 -0.00824928
15 1 0.249986 0.0264489 0.559758 0 0 -0.00825882
16 1 0.749986 0.0264489 0.559758 0 0 -0.00825882
17 1 0.249986 0.392009 0.434743 0 0 0.00824356
18 1 0.749986 0.392009 0.434743 0 0 0.00824356
19 1 0.999986 0.892008 0.434743 0 0 0.00823402
20 1 0.499986 0.892008 0.434743 0 0 0.00823402
21 1 0.999986 0.46477 0.806853 0 0 -0.0661011
22 1 0.249986 0.329632 0.684588 0 0 -0.0795479
23 1 0.499986 0.46477 0.806853 0 0 -0.0661011
24 1 0.749986 0.329632 0.684588 0 0 -0.0795479
25 1 0.999986 0.829632 0.684588 0 0 -0.0795612
26 1 0.249986 0.96477 0.806853 0 0 -0.0661049
27 1 0.749986 0.96477 0.806853 0 0 -0.0661049
28 1 0.499986 0.829632 0.684588 0 0 -0.0795612
29 1 0.249986 0.26912 0.92706 0 0 0.0920982
30 1 0.749986 0.26912 0.92706 0 0 0.0920982
31 1 0.999986 0.76912 0.92706 0 0 0.0920906
32 1 0.499986 0.76912 0.92706 0 0 0.0920906
ITEM: TIMESTEP
3
ITEM: NUMBER OF ATOMS
32
ITEM: BOX BOUNDS xy xz yz pp pp pp
-4.0532350540161133e-03 6.4008854031562805e+00 0.0000000000000000e+00
-9.1640949249267578e-03 6.9119940400123596e+00 0.0000000000000000e+00
-4.7960281372070312e-02 2.0773346722126007e+01 1.3823987841606140e+00
ITEM: ATOMS id type xs ys zs fx fy fz
1 1 0.999986 0.649389 0.067191 0 0 0.0100765
2 1 0.499986 0.649389 0.067191 0 0 0.0100765
3 1 0.249986 0.149389 0.0671911 0 0 0.0100975
4 1 0.749986 0.149389 0.0671911 0 0 0.0100975
5 1 0.999986 0.588483 0.311269 0 0 0.070879
6 1 0.249986 0.453104 0.189957 0 0 -0.0470715
7 1 0.749986 0.453104 0.189957 0 0 -0.0470715
8 1 0.499986 0.588483 0.311269 0 0 0.070879
9 1 0.999986 0.953102 0.189958 0 0 -0.047081
10 1 0.249986 0.0884841 0.311268 0 0 0.0708847
11 1 0.499986 0.953102 0.189958 0 0 -0.047081
12 1 0.749986 0.0884841 0.311268 0 0 0.0708847
13 1 0.999986 0.526483 0.559629 0 0 -0.0339947
14 1 0.499986 0.526483 0.559629 0 0 -0.0339947
15 1 0.249986 0.0264814 0.559628 0 0 -0.0339966
16 1 0.749986 0.0264814 0.559628 0 0 -0.0339966
17 1 0.249986 0.391976 0.434873 0 0 0.0339947
18 1 0.749986 0.391976 0.434873 0 0 0.0339947
19 1 0.999986 0.891976 0.434873 0 0 0.0339737
20 1 0.499986 0.891976 0.434873 0 0 0.0339737
21 1 0.999986 0.465346 0.804544 0 0 0.0470829
22 1 0.249986 0.32997 0.683233 0 0 -0.0708694
23 1 0.499986 0.465346 0.804544 0 0 0.0470829
24 1 0.749986 0.32997 0.683233 0 0 -0.0708694
25 1 0.999986 0.82997 0.683233 0 0 -0.0708694
26 1 0.249986 0.965347 0.804544 0 0 0.0470772
27 1 0.749986 0.965347 0.804544 0 0 0.0470772
28 1 0.499986 0.82997 0.683233 0 0 -0.0708694
29 1 0.249986 0.269057 0.92731 0 0 -0.0101013
30 1 0.749986 0.269057 0.92731 0 0 -0.0101013
31 1 0.999986 0.769058 0.92731 0 0 -0.0100822
32 1 0.499986 0.769058 0.92731 0 0 -0.0100822
ITEM: TIMESTEP
4
ITEM: NUMBER OF ATOMS
32
ITEM: BOX BOUNDS xy xz yz pp pp pp
-4.0532350540161133e-03 6.4008854031562805e+00 0.0000000000000000e+00
-9.1640949249267578e-03 6.9119940400123596e+00 0.0000000000000000e+00
-4.7960281372070312e-02 2.0773346722126007e+01 1.3823987841606140e+00
ITEM: ATOMS id type xs ys zs fx fy fz
1 1 0.999986 0.649369 0.0672725 0 0 0.00621223
2 1 0.499986 0.649369 0.0672725 0 0 0.00621223
3 1 0.249986 0.149369 0.0672729 0 0 0.00620461
4 1 0.749986 0.149369 0.0672729 0 0 0.00620461
5 1 0.999986 0.588057 0.312978 0 0 -0.0107441
6 1 0.249986 0.453095 0.189992 0 0 0.00180626
7 1 0.749986 0.453095 0.189992 0 0 0.00180626
8 1 0.499986 0.588057 0.312978 0 0 -0.0107441
9 1 0.999986 0.953093 0.189992 0 0 0.00180244
10 1 0.249986 0.0880574 0.312978 0 0 -0.0107536
11 1 0.499986 0.953093 0.189992 0 0 0.00180244
12 1 0.749986 0.0880574 0.312978 0 0 -0.0107536
13 1 0.999986 0.52664 0.558998 0 0 -0.0261002
14 1 0.499986 0.52664 0.558998 0 0 -0.0261002
15 1 0.249986 0.0266387 0.558998 0 0 -0.0260944
16 1 0.749986 0.0266387 0.558998 0 0 -0.0260944
17 1 0.249986 0.391819 0.435503 0 0 0.0261078
18 1 0.749986 0.391819 0.435503 0 0 0.0261078
19 1 0.999986 0.891819 0.435503 0 0 0.026104
20 1 0.499986 0.891819 0.435503 0 0 0.026104
21 1 0.999986 0.465355 0.80451 0 0 -0.00180244
22 1 0.249986 0.330397 0.681524 0 0 0.0107327
23 1 0.499986 0.465355 0.80451 0 0 -0.00180244
24 1 0.749986 0.330397 0.681524 0 0 0.0107327
25 1 0.999986 0.830397 0.681524 0 0 0.0107384
26 1 0.249986 0.965355 0.80451 0 0 -0.00180626
27 1 0.749986 0.965355 0.80451 0 0 -0.00180626
28 1 0.499986 0.830397 0.681524 0 0 0.0107384
29 1 0.249986 0.269077 0.927229 0 0 -0.00619698
30 1 0.749986 0.269077 0.927229 0 0 -0.00619698
31 1 0.999986 0.769078 0.927229 0 0 -0.00621033
32 1 0.499986 0.769078 0.927229 0 0 -0.00621033
ITEM: TIMESTEP
5
ITEM: NUMBER OF ATOMS
32
ITEM: BOX BOUNDS xy xz yz pp pp pp
-4.0532350540161133e-03 6.4008854031562805e+00 0.0000000000000000e+00
-9.1640949249267578e-03 6.9119940400123596e+00 0.0000000000000000e+00
-4.7960281372070312e-02 2.0773346722126007e+01 1.3823987841606140e+00
ITEM: ATOMS id type xs ys zs fx fy fz
1 1 0.999986 0.649352 0.0673406 0 0 -4.76837e-05
2 1 0.499986 0.649352 0.0673406 0 0 -4.76837e-05
3 1 0.249986 0.149352 0.0673409 0 0 -4.76837e-05
4 1 0.749986 0.149352 0.0673409 0 0 -4.76837e-05
5 1 0.999986 0.588062 0.312956 0 0 -0.00131607
6 1 0.249986 0.45309 0.190012 0 0 0.00263786
7 1 0.749986 0.45309 0.190012 0 0 0.00263786
8 1 0.499986 0.588062 0.312956 0 0 -0.00131607
9 1 0.999986 0.953088 0.190012 0 0 0.00264168
10 1 0.249986 0.0880629 0.312956 0 0 -0.0012989
11 1 0.499986 0.953088 0.190012 0 0 0.00264168
12 1 0.749986 0.0880629 0.312956 0 0 -0.0012989
13 1 0.999986 0.526715 0.558697 0 0 -0.000785828
14 1 0.499986 0.526715 0.558697 0 0 -0.000785828
15 1 0.249986 0.0267138 0.558697 0 0 -0.000762939
16 1 0.749986 0.0267138 0.558697 0 0 -0.000762939
17 1 0.249986 0.391744 0.435804 0 0 0.000770569
18 1 0.749986 0.391744 0.435804 0 0 0.000770569
19 1 0.999986 0.891743 0.435804 0 0 0.000780106
20 1 0.499986 0.891743 0.435804 0 0 0.000780106
21 1 0.999986 0.46536 0.804489 0 0 -0.00264359
22 1 0.249986 0.330391 0.681546 0 0 0.00130653
23 1 0.499986 0.46536 0.804489 0 0 -0.00264359
24 1 0.749986 0.330391 0.681546 0 0 0.00130653
25 1 0.999986 0.830391 0.681546 0 0 0.00130653
26 1 0.249986 0.96536 0.804489 0 0 -0.00264359
27 1 0.749986 0.96536 0.804489 0 0 -0.00264359
28 1 0.499986 0.830391 0.681546 0 0 0.00130653
29 1 0.249986 0.269094 0.927161 0 0 5.72205e-05
30 1 0.749986 0.269094 0.927161 0 0 5.72205e-05
31 1 0.999986 0.769095 0.927161 0 0 4.57764e-05
32 1 0.499986 0.769095 0.927161 0 0 4.57764e-05
ITEM: TIMESTEP
6
ITEM: NUMBER OF ATOMS
32
ITEM: BOX BOUNDS xy xz yz pp pp pp
-4.0532350540161133e-03 6.4008854031562805e+00 0.0000000000000000e+00
-9.1640949249267578e-03 6.9119940400123596e+00 0.0000000000000000e+00
-4.7960281372070312e-02 2.0773346722126007e+01 1.3823987841606140e+00
ITEM: ATOMS id type xs ys zs fx fy fz
1 1 0.999986 0.649352 0.0673401 0 0 0.00091362
2 1 0.499986 0.649352 0.0673401 0 0 0.00091362
3 1 0.249986 0.149352 0.0673404 0 0 0.000921249
4 1 0.749986 0.149352 0.0673404 0 0 0.000921249
5 1 0.999986 0.588066 0.31294 0 0 0.000621796
6 1 0.249986 0.453082 0.190043 0 0 0.000417709
7 1 0.749986 0.453082 0.190043 0 0 0.000417709
8 1 0.499986 0.588066 0.31294 0 0 0.000621796
9 1 0.999986 0.953081 0.190043 0 0 0.000415802
10 1 0.249986 0.0880668 0.31294 0 0 0.000623703
11 1 0.499986 0.953081 0.190043 0 0 0.000415802
12 1 0.749986 0.0880668 0.31294 0 0 0.000623703
13 1 0.999986 0.526718 0.558688 0 0 0.000303268
14 1 0.499986 0.526718 0.558688 0 0 0.000303268
15 1 0.249986 0.0267161 0.558688 0 0 0.000299454
16 1 0.749986 0.0267161 0.558688 0 0 0.000299454
17 1 0.249986 0.391742 0.435814 0 0 -0.000305176
18 1 0.749986 0.391742 0.435814 0 0 -0.000305176
19 1 0.999986 0.891741 0.435813 0 0 -0.000289917
20 1 0.499986 0.891741 0.435813 0 0 -0.000289917
21 1 0.999986 0.465368 0.804458 0 0 -0.000423431
22 1 0.249986 0.330388 0.681561 0 0 -0.00062561
23 1 0.499986 0.465368 0.804458 0 0 -0.000423431
24 1 0.749986 0.330388 0.681561 0 0 -0.00062561
25 1 0.999986 0.830388 0.681561 0 0 -0.000623703
26 1 0.249986 0.965368 0.804458 0 0 -0.000417709
27 1 0.749986 0.965368 0.804458 0 0 -0.000417709
28 1 0.499986 0.830388 0.681561 0 0 -0.000623703
29 1 0.249986 0.269094 0.927161 0 0 -0.00091362
30 1 0.749986 0.269094 0.927161 0 0 -0.00091362
31 1 0.999986 0.769095 0.927161 0 0 -0.000917435
32 1 0.499986 0.769095 0.927161 0 0 -0.000917435
ITEM: TIMESTEP
7
ITEM: NUMBER OF ATOMS
32
ITEM: BOX BOUNDS xy xz yz pp pp pp
-4.0532350540161133e-03 6.4008854031562805e+00 0.0000000000000000e+00
-9.1640949249267578e-03 6.9119940400123596e+00 0.0000000000000000e+00
-4.7960281372070312e-02 2.0773346722126007e+01 1.3823987841606140e+00
ITEM: ATOMS id type xs ys zs fx fy fz
1 1 0.999986 0.649347 0.0673583 0 0 -0.000375748
2 1 0.499986 0.649347 0.0673583 0 0 -0.000375748
3 1 0.249986 0.149347 0.0673587 0 0 -0.000387192
4 1 0.749986 0.149347 0.0673587 0 0 -0.000387192
5 1 0.999986 0.588064 0.312949 0 0 0.000530243
6 1 0.249986 0.453078 0.19006 0 0 0.000207901
7 1 0.749986 0.453078 0.19006 0 0 0.000207901
8 1 0.499986 0.588064 0.312949 0 0 0.000530243
9 1 0.999986 0.953076 0.19006 0 0 0.000211716
10 1 0.249986 0.0880647 0.312949 0 0 0.000535965
11 1 0.499986 0.953076 0.19006 0 0 0.000211716
12 1 0.749986 0.0880647 0.312949 0 0 0.000535965
13 1 0.999986 0.526717 0.558691 0 0 -0.000228882
14 1 0.499986 0.526717 0.558691 0 0 -0.000228882
15 1 0.249986 0.0267152 0.558692 0 0 -0.000238419
16 1 0.749986 0.0267152 0.558692 0 0 -0.000238419
17 1 0.249986 0.391743 0.43581 0 0 0.000234604
18 1 0.749986 0.391743 0.43581 0 0 0.000234604
19 1 0.999986 0.891742 0.43581 0 0 0.000226974
20 1 0.499986 0.891742 0.43581 0 0 0.000226974
21 1 0.999986 0.465372 0.804441 0 0 -0.000198364
22 1 0.249986 0.33039 0.681553 0 0 -0.00053215
23 1 0.499986 0.465372 0.804441 0 0 -0.000198364
24 1 0.749986 0.33039 0.681553 0 0 -0.00053215
25 1 0.999986 0.83039 0.681553 0 0 -0.000524521
26 1 0.249986 0.965372 0.804441 0 0 -0.000205994
27 1 0.749986 0.965372 0.804441 0 0 -0.000205994
28 1 0.499986 0.83039 0.681553 0 0 -0.000524521
29 1 0.249986 0.269099 0.927143 0 0 0.000366211
30 1 0.749986 0.269099 0.927143 0 0 0.000366211
31 1 0.999986 0.7691 0.927143 0 0 0.000377655
32 1 0.499986 0.7691 0.927143 0 0 0.000377655
ITEM: TIMESTEP
8
ITEM: NUMBER OF ATOMS
32
ITEM: BOX BOUNDS xy xz yz pp pp pp
-4.0532350540161133e-03 6.4008854031562805e+00 0.0000000000000000e+00
-9.1640949249267578e-03 6.9119940400123596e+00 0.0000000000000000e+00
-4.7960281372070312e-02 2.0773346722126007e+01 1.3823987841606140e+00
ITEM: ATOMS id type xs ys zs fx fy fz
1 1 0.999986 0.649347 0.0673583 0 0 -0.000375748
2 1 0.499986 0.649347 0.0673583 0 0 -0.000375748
3 1 0.249986 0.149347 0.0673587 0 0 -0.000387192
4 1 0.749986 0.149347 0.0673587 0 0 -0.000387192
5 1 0.999986 0.588064 0.312949 0 0 0.000530243
6 1 0.249986 0.453078 0.19006 0 0 0.000207901
7 1 0.749986 0.453078 0.19006 0 0 0.000207901
8 1 0.499986 0.588064 0.312949 0 0 0.000530243
9 1 0.999986 0.953076 0.19006 0 0 0.000211716
10 1 0.249986 0.0880647 0.312949 0 0 0.000535965
11 1 0.499986 0.953076 0.19006 0 0 0.000211716
12 1 0.749986 0.0880647 0.312949 0 0 0.000535965
13 1 0.999986 0.526717 0.558691 0 0 -0.000228882
14 1 0.499986 0.526717 0.558691 0 0 -0.000228882
15 1 0.249986 0.0267152 0.558692 0 0 -0.000238419
16 1 0.749986 0.0267152 0.558692 0 0 -0.000238419
17 1 0.249986 0.391743 0.43581 0 0 0.000234604
18 1 0.749986 0.391743 0.43581 0 0 0.000234604
19 1 0.999986 0.891742 0.43581 0 0 0.000226974
20 1 0.499986 0.891742 0.43581 0 0 0.000226974
21 1 0.999986 0.465372 0.804441 0 0 -0.000198364
22 1 0.249986 0.33039 0.681553 0 0 -0.00053215
23 1 0.499986 0.465372 0.804441 0 0 -0.000198364
24 1 0.749986 0.33039 0.681553 0 0 -0.00053215
25 1 0.999986 0.83039 0.681553 0 0 -0.000524521
26 1 0.249986 0.965372 0.804441 0 0 -0.000205994
27 1 0.749986 0.965372 0.804441 0 0 -0.000205994
28 1 0.499986 0.83039 0.681553 0 0 -0.000524521
29 1 0.249986 0.269099 0.927143 0 0 0.000366211
30 1 0.749986 0.269099 0.927143 0 0 0.000366211
31 1 0.999986 0.7691 0.927143 0 0 0.000377655
32 1 0.499986 0.7691 0.927143 0 0 0.000377655
