ITEM: TIMESTEP
0
ITEM: NUMBER OF ATOMS
32
ITEM: BOX BOUNDS xy xz yz pp pp pp
0.0000000000000000e+00 6.3968321681022644e+00 0.0000000000000000e+00
0.0000000000000000e+00 5.5204311609268188e+00 0.0000000000000000e+00
0.0000000000000000e+00 2.0725386440753937e+01 0.0000000000000000e+00
ITEM: ATOMS id type xs ys zs fx fy fz
1 1 0.999986 0.666284 0.0597554 0 -0.000854492 -0.000118256
2 1 0.499986 0.666284 0.0597554 0 -0.000854492 -0.000118256
3 1 0.249986 0.166284 0.0597529 0 -0.000843048 -1.71661e-05
4 1 0.749986 0.166284 0.0597529 0 -0.000843048 -1.71661e-05
5 1 0.999986 0.666297 0.309761 0 -0.000864029 -0.000198364
6 1 0.249986 0.50039 0.18476 0 0.000841141 -0.000179291
7 1 0.749986 0.50039 0.18476 0 0.000841141 -0.000179291
8 1 0.499986 0.666297 0.309761 0 -0.000864029 -0.000198364
9 1 0.999986 0.000391002 0.184759 0 0.000846863 -0.00012207
10 1 0.249986 0.166295 0.309759 0 -0.000852585 -0.000120163
11 1 0.499986 0.000391002 0.184759 0 0.000846863 -0.00012207
12 1 0.749986 0.166295 0.309759 0 -0.000852585 -0.000120163
13 1 0.999986 0.666278 0.559747 0 -0.000818253 7.43866e-05
14 1 0.499986 0.666278 0.559747 0 -0.000818253 7.43866e-05
15 1 0.249986 0.16628 0.559747 0 -0.000841141 6.10352e-05
16 1 0.749986 0.16628 0.559747 0 -0.000841141 6.10352e-05
17 1 0.249986 0.500393 0.434755 0 0.000835419 -6.48499e-05
18 1 0.749986 0.500393 0.434755 0 0.000835419 -6.48499e-05
19 1 0.999986 0.000395418 0.434755 0 0.000804901 -8.7738e-05
20 1 0.499986 0.000395418 0.434755 0 0.000804901 -8.7738e-05
21 1 0.999986 0.666272 0.809742 0 -0.000839233 0.000146866
22 1 0.249986 0.500372 0.684743 0 0.0008564 0.000118256
23 1 0.499986 0.666272 0.809742 0 -0.000839233 0.000146866
24 1 0.749986 0.500372 0.684743 0 0.0008564 0.000118256
25 1 0.999986 0.000371505 0.684741 0 0.000862122 0.000179291
26 1 0.249986 0.166272 0.809741 0 -0.000843048 0.000171661
27 1 0.749986 0.166272 0.809741 0 -0.000843048 0.000171661
28 1 0.499986 0.000371505 0.684741 0 0.000862122 0.000179291
29 1 0.249986 0.500377 0.934747 0 0.000854492 4.95911e-05
30 1 0.749986 0.500377 0.934747 0 0.000854492 4.95911e-05
31 1 0.999986 0.000375504 0.934746 0 0.000854492 0.000106812
32 1 0.499986 0.000375505 0.934746 0 0.000854492 0.000106812
ITEM: TIMESTEP
1
ITEM: NUMBER OF ATOMS
32
ITEM: BOX BOUNDS xy xz yz pp pp pp
-3.1983852386474609e-04 6.3971520066261292e+00 0.0000000000000000e+00
-2.7602910995483398e-04 5.5207071900367737e+00 0.0000000000000000e+00
-1.0362863540649414e-03 2.0726422727108002e+01 0.0000000000000000e+00
ITEM: ATOMS id type xs ys zs fx fy fz
1 1 0.999986 0.666284 0.0597554 0 -0.000864029 -0.000106812
2 1 0.499986 0.666284 0.0597554 0 -0.000864029 -0.000106812
3 1 0.249986 0.166284 0.0597529 0 -0.000865936 -2.28882e-05
4 1 0.749986 0.166284 0.0597529 0 -0.000865936 -2.28882e-05
5 1 0.999986 0.666297 0.309761 0 -0.000867844 -0.00019455
6 1 0.249986 0.50039 0.18476 0 0.000854492 -0.000177383
7 1 0.749986 0.50039 0.18476 0 0.000854492 -0.000177383
8 1 0.499986 0.666297 0.309761 0 -0.000867844 -0.00019455
9 1 0.999986 0.000391005 0.184759 0 0.000846863 -0.0001297
10 1 0.249986 0.166295 0.309759 0 -0.00084877 -0.000133514
11 1 0.499986 0.000391005 0.184759 0 0.000846863 -0.0001297
12 1 0.749986 0.166295 0.309759 0 -0.00084877 -0.000133514
13 1 0.999986 0.666278 0.559747 0 -0.000816345 7.05719e-05
14 1 0.499986 0.666278 0.559747 0 -0.000816345 7.05719e-05
15 1 0.249986 0.16628 0.559747 0 -0.000850677 6.10352e-05
16 1 0.749986 0.16628 0.559747 0 -0.000850677 6.10352e-05
17 1 0.249986 0.500393 0.434755 0 0.000839233 -6.67572e-05
18 1 0.749986 0.500393 0.434755 0 0.000839233 -6.67572e-05
19 1 0.999986 0.000395422 0.434755 0 0.000814438 -7.43866e-05
20 1 0.499986 0.000395422 0.434755 0 0.000814438 -7.43866e-05
21 1 0.999986 0.666272 0.809742 0 -0.000852585 0.000141144
22 1 0.249986 0.500372 0.684743 0 0.000860214 0.000127792
23 1 0.499986 0.666272 0.809742 0 -0.000852585 0.000141144
24 1 0.749986 0.500372 0.684743 0 0.000860214 0.000127792
25 1 0.999986 0.000371509 0.684741 0 0.000862122 0.000175476
26 1 0.249986 0.166272 0.809741 0 -0.00084877 0.000169754
27 1 0.749986 0.166272 0.809741 0 -0.00084877 0.000169754
28 1 0.499986 0.000371508 0.684741 0 0.000862122 0.000175476
29 1 0.249986 0.500377 0.934747 0 0.000864029 4.57764e-05
30 1 0.749986 0.500377 0.934747 0 0.000864029 4.57764e-05
31 1 0.999986 0.000375507 0.934746 0 0.000873566 0.000114441
32 1 0.499986 0.000375508 0.934746 0 0.000873566 0.000114441
ITEM: TIMESTEP
2
ITEM: NUMBER OF ATOMS
32
ITEM: BOX BOUNDS xy xz yz pp pp pp
-6.3967704772949219e-04 6.3974718451499939e+00 0.0000000000000000e+00
-5.5205821990966797e-04 5.5209832191467285e+00 0.0000000000000000e+00
-2.0725727081298828e-03 2.0727459013462067e+01 0.0000000000000000e+00
ITEM: ATOMS id type xs ys zs fx fy fz
1 1 0.999986 0.666284 0.0597554 0 -0.000858307 -0.000110626
2 1 0.499986 0.666284 0.0597554 0 -0.000858307 -0.000110626
3 1 0.249986 0.166284 0.0597529 0 -0.000839233 -1.90735e-05
4 1 0.749986 0.166284 0.0597529 0 -0.000839233 -1.90735e-05
5 1 0.999986 0.666297 0.309761 0 -0.000862122 -0.000205994
6 1 0.249986 0.50039 0.18476 0 0.000844955 -0.000175476
7 1 0.749986 0.50039 0.18476 0 0.000844955 -0.000175476
8 1 0.499986 0.666297 0.309761 0 -0.000862122 -0.000205994
9 1 0.999986 0.000391009 0.184759 0 0.000844955 -0.00012207
10 1 0.249986 0.166295 0.309759 0 -0.000852585 -0.000127792
11 1 0.499986 0.000391009 0.184759 0 0.000844955 -0.00012207
12 1 0.749986 0.166295 0.309759 0 -0.000852585 -0.000127792
13 1 0.999986 0.666278 0.559747 0 -0.000814438 7.05719e-05
14 1 0.499986 0.666278 0.559747 0 -0.000814438 7.05719e-05
15 1 0.249986 0.16628 0.559747 0 -0.000846863 5.72205e-05
16 1 0.749986 0.16628 0.559747 0 -0.000846863 5.72205e-05
17 1 0.249986 0.500393 0.434755 0 0.000843048 -6.48499e-05
18 1 0.749986 0.500393 0.434755 0 0.000843048 -6.48499e-05
19 1 0.999986 0.000395425 0.434755 0 0.000808716 -7.82013e-05
20 1 0.499986 0.000395425 0.434755 0 0.000808716 -7.82013e-05
21 1 0.999986 0.666272 0.809742 0 -0.000844955 0.000137329
22 1 0.249986 0.500372 0.684743 0 0.000854492 0.0001297
23 1 0.499986 0.666272 0.809742 0 -0.000844955 0.000137329
24 1 0.749986 0.500372 0.684743 0 0.000854492 0.0001297
25 1 0.999986 0.000371512 0.684741 0 0.000852585 0.000177383
26 1 0.249986 0.166272 0.809741 0 -0.000843048 0.000171661
27 1 0.749986 0.166272 0.809741 0 -0.000843048 0.000171661
28 1 0.499986 0.000371512 0.684741 0 0.000852585 0.000177383
29 1 0.249986 0.500377 0.934747 0 0.000846863 5.14984e-05
30 1 0.749986 0.500377 0.934747 0 0.000846863 5.14984e-05
31 1 0.999986 0.000375511 0.934746 0 0.000865936 0.000108719
32 1 0.499986 0.000375512 0.934746 0 0.000865936 0.000108719
ITEM: TIMESTEP
3
ITEM: NUMBER OF ATOMS
32
ITEM: BOX BOUNDS xy xz yz pp pp pp
-9.5951557159423828e-04 6.3977916836738586e+00 0.0000000000000000e+00
-8.2808732986450195e-04 5.5212592482566833e+00 0.0000000000000000e+00
-3.1088590621948242e-03 2.0728495299816132e+01 0.0000000000000000e+00
ITEM: ATOMS id type xs ys zs fx fy fz
1 1 0.999986 0.666284 0.0597554 0 -0.000843048 -0.000112534
2 1 0.499986 0.666284 0.0597554 0 -0.000843048 -0.000112534
3 1 0.249986 0.166284 0.0597529 0 -0.000850677 -1.52588e-05
4 1 0.749986 0.166284 0.0597529 0 -0.000850677 -1.52588e-05
5 1 0.999986 0.666297 0.309761 0 -0.000858307 -0.000198364
6 1 0.249986 0.50039 0.18476 0 0.00084877 -0.000181198
7 1 0.749986 0.50039 0.18476 0 0.00084877 -0.000181198
8 1 0.499986 0.666297 0.309761 0 -0.000858307 -0.000198364
9 1 0.999986 0.000391013 0.184759 0 0.000839233 -0.000123978
10 1 0.249986 0.166295 0.309759 0 -0.000846863 -0.000120163
11 1 0.499986 0.000391013 0.184759 0 0.000839233 -0.000123978
12 1 0.749986 0.166295 0.309759 0 -0.000846863 -0.000120163
13 1 0.999986 0.666278 0.559747 0 -0.000827789 6.86646e-05
14 1 0.499986 0.666278 0.559747 0 -0.000827789 6.86646e-05
15 1 0.249986 0.16628 0.559747 0 -0.000844955 6.67572e-05
16 1 0.749986 0.16628 0.559747 0 -0.000844955 6.67572e-05
17 1 0.249986 0.500393 0.434755 0 0.000837326 -7.24792e-05
18 1 0.749986 0.500393 0.434755 0 0.000837326 -7.24792e-05
19 1 0.999986 0.000395429 0.434755 0 0.000814438 -8.58307e-05
20 1 0.499986 0.000395429 0.434755 0 0.000814438 -8.58307e-05
21 1 0.999986 0.666272 0.809742 0 -0.000835419 0.000137329
22 1 0.249986 0.500372 0.684743 0 0.00084877 0.000125885
23 1 0.499986 0.666272 0.809742 0 -0.000835419 0.000137329
24 1 0.749986 0.500372 0.684743 0 0.00084877 0.000125885
25 1 0.999986 0.000371516 0.684741 0 0.000854492 0.000179291
26 1 0.249986 0.166272 0.809741 0 -0.000843048 0.000175476
27 1 0.749986 0.166272 0.809741 0 -0.000843048 0.000175476
28 1 0.499986 0.000371516 0.684741 0 0.000854492 0.000179291
29 1 0.249986 0.500377 0.934747 0 0.000846863 4.76837e-05
30 1 0.749986 0.500377 0.934747 0 0.000846863 4.76837e-05
31 1 0.999986 0.000375515 0.934746 0 0.000860214 0.000108719
32 1 0.499986 0.000375516 0.934746 0 0.000860214 0.000108719
ITEM: TIMESTEP
4
ITEM: NUMBER OF ATOMS
32
ITEM: BOX BOUNDS xy xz yz pp pp pp
-1.2793540954589844e-03 6.3981115221977234e+00 0.0000000000000000e+00
-1.1041164398193359e-03 5.5215352773666382e+00 0.0000000000000000e+00
-4.1451454162597656e-03 2.0729531586170197e+01 0.0000000000000000e+00
ITEM: ATOMS id type xs ys zs fx fy fz
1 1 0.999986 0.666284 0.0597554 0 -0.000846863 -0.000104904
2 1 0.499986 0.666284 0.0597554 0 -0.000846863 -0.000104904
3 1 0.249986 0.166284 0.0597529 0 -0.000835419 -2.47955e-05
4 1 0.749986 0.166284 0.0597529 0 -0.000835419 -2.47955e-05
5 1 0.999986 0.666297 0.309761 0 -0.000864029 -0.000204086
6 1 0.249986 0.50039 0.18476 0 0.000841141 -0.00018692
7 1 0.749986 0.50039 0.18476 0 0.000841141 -0.00018692
8 1 0.499986 0.666297 0.309761 0 -0.000864029 -0.000204086
9 1 0.999986 0.000391017 0.184759 0 0.000835419 -0.000127792
10 1 0.249986 0.166295 0.309759 0 -0.000843048 -0.000118256
11 1 0.499986 0.000391017 0.184759 0 0.000835419 -0.000127792
12 1 0.749986 0.166295 0.309759 0 -0.000843048 -0.000118256
13 1 0.999986 0.666278 0.559747 0 -0.000810623 7.05719e-05
14 1 0.499986 0.666278 0.559747 0 -0.000810623 7.05719e-05
15 1 0.249986 0.16628 0.559747 0 -0.000841141 5.72205e-05
16 1 0.749986 0.16628 0.559747 0 -0.000841141 5.72205e-05
17 1 0.249986 0.500393 0.434755 0 0.000833511 -6.29425e-05
18 1 0.749986 0.500393 0.434755 0 0.000833511 -6.29425e-05
19 1 0.999986 0.000395432 0.434755 0 0.000804901 -8.39233e-05
20 1 0.499986 0.000395433 0.434755 0 0.000804901 -8.39233e-05
21 1 0.999986 0.666272 0.809742 0 -0.000837326 0.000135422
22 1 0.249986 0.500372 0.684743 0 0.000850677 0.00012207
23 1 0.499986 0.666272 0.809742 0 -0.000837326 0.000135422
24 1 0.749986 0.500372 0.684743 0 0.000850677 0.00012207
25 1 0.999986 0.00037152 0.684741 0 0.0008564 0.00018692
26 1 0.249986 0.166272 0.809741 0 -0.000837326 0.000181198
27 1 0.749986 0.166272 0.809741 0 -0.000837326 0.000181198
28 1 0.499986 0.00037152 0.684741 0 0.0008564 0.00018692
29 1 0.249986 0.500377 0.934747 0 0.000839233 5.14984e-05
30 1 0.749986 0.500377 0.934747 0 0.000839233 5.14984e-05
31 1 0.999986 0.000375519 0.934746 0 0.000854492 0.000108719
32 1 0.499986 0.00037552 0.934746 0 0.000854492 0.000108719
ITEM: TIMESTEP
5
ITEM: NUMBER OF ATOMS
32
ITEM: BOX BOUNDS xy xz yz pp pp pp
-1.5991926193237305e-03 6.3984313607215881e+00 0.0000000000000000e+00
-1.3801455497741699e-03 5.5218113064765930e+00 0.0000000000000000e+00
-5.1814317703247070e-03 2.0730567872524261e+01 0.0000000000000000e+00
ITEM: ATOMS id type xs ys zs fx fy fz
1 1 0.999986 0.666284 0.0597554 0 -0.00084877 -0.000116348
2 1 0.499986 0.666284 0.0597554 0 -0.00084877 -0.000116348
3 1 0.249986 0.166284 0.0597529 0 -0.000850677 -2.09808e-05
4 1 0.749986 0.166284 0.0597529 0 -0.000850677 -2.09808e-05
5 1 0.999986 0.666297 0.309761 0 -0.000862122 -0.000196457
6 1 0.249986 0.50039 0.18476 0 0.00084877 -0.000173569
7 1 0.749986 0.50039 0.18476 0 0.00084877 -0.000173569
8 1 0.499986 0.666297 0.309761 0 -0.000862122 -0.000196457
9 1 0.999986 0.000391021 0.184759 0 0.00084877 -0.000125885
10 1 0.249986 0.166295 0.309759 0 -0.000850677 -0.000120163
11 1 0.499986 0.000391021 0.184759 0 0.00084877 -0.000125885
12 1 0.749986 0.166295 0.309759 0 -0.000850677 -0.000120163
13 1 0.999986 0.666278 0.559747 0 -0.000822067 6.67572e-05
14 1 0.499986 0.666278 0.559747 0 -0.000822067 6.67572e-05
15 1 0.249986 0.16628 0.559747 0 -0.000852585 6.10352e-05
16 1 0.749986 0.16628 0.559747 0 -0.000852585 6.10352e-05
17 1 0.249986 0.500393 0.434755 0 0.000841141 -6.48499e-05
18 1 0.749986 0.500393 0.434755 0 0.000841141 -6.48499e-05
19 1 0.999986 0.000395436 0.434755 0 0.000814438 -7.62939e-05
20 1 0.499986 0.000395436 0.434755 0 0.000814438 -7.62939e-05
21 1 0.999986 0.666272 0.809742 0 -0.000833511 0.000144958
22 1 0.249986 0.500372 0.684743 0 0.000854492 0.000120163
23 1 0.499986 0.666272 0.809742 0 -0.000833511 0.000144958
24 1 0.749986 0.500372 0.684743 0 0.000854492 0.000120163
25 1 0.999986 0.000371524 0.684741 0 0.0008564 0.000171661
26 1 0.249986 0.166272 0.809741 0 -0.000837326 0.000165939
27 1 0.749986 0.166272 0.809741 0 -0.000837326 0.000165939
28 1 0.499986 0.000371524 0.684741 0 0.0008564 0.000171661
29 1 0.249986 0.500377 0.934747 0 0.000839233 5.14984e-05
30 1 0.749986 0.500377 0.934747 0 0.000839233 5.14984e-05
31 1 0.999986 0.000375523 0.934746 0 0.000854492 0.000112534
32 1 0.499986 0.000375524 0.934746 0 0.000854492 0.000112534
ITEM: TIMESTEP
6
ITEM: NUMBER OF ATOMS
32
ITEM: BOX BOUNDS xy xz yz pp pp pp
-1.9190311431884766e-03 6.3987511992454529e+00 0.0000000000000000e+00
-1.6561746597290039e-03 5.5220873355865479e+00 0.0000000000000000e+00
-6.2177181243896484e-03 2.0731604158878326e+01 0.0000000000000000e+00
ITEM: ATOMS id type xs ys zs fx fy fz
1 1 0.999986 0.666284 0.0597554 0 -0.000852585 -0.00012207
2 1 0.499986 0.666284 0.0597554 0 -0.000852585 -0.00012207
3 1 0.249986 0.166284 0.0597529 0 -0.000846863 -2.09808e-05
4 1 0.749986 0.166284 0.0597529 0 -0.000846863 -2.09808e-05
5 1 0.999986 0.666297 0.309761 0 -0.000873566 -0.00019455
6 1 0.249986 0.50039 0.18476 0 0.00084877 -0.000181198
7 1 0.749986 0.50039 0.18476 0 0.00084877 -0.000181198
8 1 0.499986 0.666297 0.309761 0 -0.000873566 -0.00019455
9 1 0.999986 0.000391025 0.184759 0 0.000841141 -0.000120163
10 1 0.249986 0.166295 0.309759 0 -0.000858307 -0.00012207
11 1 0.499986 0.000391025 0.184759 0 0.000841141 -0.000120163
12 1 0.749986 0.166295 0.309759 0 -0.000858307 -0.00012207
13 1 0.999986 0.666278 0.559747 0 -0.000825882 6.67572e-05
14 1 0.499986 0.666278 0.559747 0 -0.000825882 6.67572e-05
15 1 0.249986 0.16628 0.559747 0 -0.000850677 5.91278e-05
16 1 0.749986 0.16628 0.559747 0 -0.000850677 5.91278e-05
17 1 0.249986 0.500393 0.434755 0 0.000844955 -6.48499e-05
18 1 0.749986 0.500393 0.434755 0 0.000844955 -6.48499e-05
19 1 0.999986 0.00039544 0.434755 0 0.000823975 -7.24792e-05
20 1 0.499986 0.000395441 0.434755 0 0.000823975 -7.24792e-05
21 1 0.999986 0.666272 0.809742 0 -0.000833511 0.000133514
22 1 0.249986 0.500372 0.684743 0 0.0008564 0.0001297
23 1 0.499986 0.666272 0.809742 0 -0.000833511 0.000133514
24 1 0.749986 0.500372 0.684743 0 0.0008564 0.0001297
25 1 0.999986 0.000371529 0.684741 0 0.000854492 0.000175476
26 1 0.249986 0.166272 0.809741 0 -0.000837326 0.000165939
27 1 0.749986 0.166272 0.809741 0 -0.000837326 0.000165939
28 1 0.499986 0.000371528 0.684741 0 0.000854492 0.000175476
29 1 0.249986 0.500377 0.934747 0 0.000850677 4.57764e-05
30 1 0.749986 0.500377 0.934747 0 0.000850677 4.57764e-05
31 1 0.999986 0.000375528 0.934746 0 0.000858307 0.00012207
32 1 0.499986 0.000375528 0.934746 0 0.000858307 0.00012207
ITEM: TIMESTEP
7
ITEM: NUMBER OF ATOMS
32
ITEM: BOX BOUNDS xy xz yz pp pp pp
-2.2388696670532227e-03 6.3990710377693176e+00 0.0000000000000000e+00
-1.9322037696838379e-03 5.5223633646965027e+00 0.0000000000000000e+00
-7.2540044784545898e-03 2.0732640445232391e+01 0.0000000000000000e+00
ITEM: ATOMS id type xs ys zs fx fy fz
1 1 0.999986 0.666284 0.0597554 0 -0.00084877 -0.000112534
2 1 0.499986 0.666284 0.0597554 0 -0.00084877 -0.000112534
3 1 0.249986 0.166284 0.0597529 0 -0.000837326 -1.71661e-05
4 1 0.749986 0.166284 0.0597529 0 -0.000837326 -1.71661e-05
5 1 0.999986 0.666297 0.309761 -3.8147e-06 -0.000852585 -0.00019455
6 1 0.249986 0.50039 0.18476 0 0.000839233 -0.000179291
7 1 0.749986 0.50039 0.18476 1.90735e-06 0.000839233 -0.000179291
8 1 0.499986 0.666297 0.309761 3.8147e-06 -0.000852585 -0.00019455
9 1 0.999986 0.000391029 0.184759 -3.8147e-06 0.000843048 -0.000127792
10 1 0.249986 0.166295 0.309759 0 -0.000858307 -0.000127792
11 1 0.499986 0.000391029 0.184759 1.90735e-06 0.000843048 -0.000127792
12 1 0.749986 0.166295 0.309759 0 -0.000858307 -0.000127792
13 1 0.999986 0.666278 0.559747 0 -0.000818253 6.48499e-05
14 1 0.499986 0.666278 0.559747 0 -0.000818253 6.48499e-05
15 1 0.249986 0.16628 0.559747 0 -0.000833511 5.53131e-05
16 1 0.749986 0.16628 0.559747 0 -0.000833511 5.53131e-05
17 1 0.249986 0.500393 0.434755 0 0.000841141 -6.48499e-05
18 1 0.749986 0.500393 0.434755 0 0.000843048 -6.48499e-05
19 1 0.999986 0.000395445 0.434755 0 0.000804901 -7.24792e-05
20 1 0.499986 0.000395445 0.434755 0 0.000802994 -7.24792e-05
21 1 0.999986 0.666272 0.809742 0 -0.000839233 0.000137329
22 1 0.249986 0.500372 0.684743 0 0.000852585 0.000125885
23 1 0.499986 0.666272 0.809742 0 -0.000839233 0.000137329
24 1 0.749986 0.500372 0.684743 0 0.000852585 0.000125885
25 1 0.999986 0.000371533 0.684741 0 0.0008564 0.000177383
26 1 0.249986 0.166272 0.809741 0 -0.000841141 0.000167847
27 1 0.749986 0.166272 0.809741 0 -0.000843048 0.000167847
28 1 0.499986 0.000371533 0.684741 0 0.000854492 0.000177383
29 1 0.249986 0.500377 0.934747 0 0.000835419 5.14984e-05
30 1 0.749986 0.500377 0.934747 0 0.000835419 5.14984e-05
31 1 0.999986 0.000375532 0.934746 0 0.000858307 0.000116348
32 1 0.499986 0.000375533 0.934746 0 0.000858307 0.000116348
ITEM: TIMESTEP
8
ITEM: NUMBER OF ATOMS
32
ITEM: BOX BOUNDS xy xz yz pp pp pp
-2.5587081909179688e-03 6.3993908762931824e+00 0.0000000000000000e+00
-2.2082328796386719e-03 5.5226393938064575e+00 0.0000000000000000e+00
-8.2902908325195312e-03 2.0733676731586456e+01 0.0000000000000000e+00
ITEM: ATOMS id type xs ys zs fx fy fz
1 1 0.999986 0.666284 0.0597554 0 -0.000831604 -0.000114441
2 1 0.499986 0.666284 0.0597554 0 -0.000831604 -0.000114441
3 1 0.249986 0.166284 0.0597529 0 -0.000833511 -2.09808e-05
4 1 0.749986 0.166284 0.0597529 0 -0.000833511 -2.09808e-05
5 1 0.999986 0.666297 0.309761 0 -0.000839233 -0.000190735
6 1 0.249986 0.50039 0.18476 0 0.000827789 -0.000177383
7 1 0.749986 0.50039 0.18476 0 0.000827789 -0.000177383
8 1 0.499986 0.666297 0.309761 0 -0.000839233 -0.000190735
9 1 0.999986 0.000391034 0.184759 0 0.000823975 -0.000118256
10 1 0.249986 0.166295 0.309759 0 -0.000841141 -0.000127792
11 1 0.499986 0.000391034 0.184759 0 0.000823975 -0.000118256
12 1 0.749986 0.166295 0.309759 0 -0.000841141 -0.000127792
13 1 0.999986 0.666278 0.559747 0 -0.000808716 6.29425e-05
14 1 0.499986 0.666278 0.559747 0 -0.000808716 6.29425e-05
15 1 0.249986 0.16628 0.559747 0 -0.000839233 4.95911e-05
16 1 0.749986 0.16628 0.559747 0 -0.000839233 4.95911e-05
17 1 0.249986 0.500393 0.434755 0 0.000823975 -5.34058e-05
18 1 0.749986 0.500393 0.434755 0 0.000823975 -5.34058e-05
19 1 0.999986 0.000395449 0.434755 0 0.000810623 -7.62939e-05
20 1 0.499986 0.000395449 0.434755 0 0.000810623 -7.62939e-05
21 1 0.999986 0.666272 0.809742 0 -0.000823975 0.000137329
22 1 0.249986 0.500372 0.684743 0 0.000831604 0.000116348
23 1 0.499986 0.666272 0.809742 0 -0.000823975 0.000137329
24 1 0.749986 0.500372 0.684743 0 0.000831604 0.000116348
25 1 0.999986 0.000371538 0.684741 0 0.000841141 0.000179291
26 1 0.249986 0.166272 0.809741 0 -0.000818253 0.000167847
27 1 0.749986 0.166272 0.809741 0 -0.000818253 0.000167847
28 1 0.499986 0.000371537 0.684741 0 0.000841141 0.000179291
29 1 0.249986 0.500377 0.934747 0 0.000833511 5.34058e-05
30 1 0.749986 0.500377 0.934747 0 0.000833511 5.34058e-05
31 1 0.999986 0.000375537 0.934746 0 0.000843048 0.000112534
32 1 0.499986 0.000375537 0.934746 0 0.000843048 0.000112534
ITEM: TIMESTEP
9
ITEM: NUMBER OF ATOMS
32
ITEM: BOX BOUNDS xy xz yz pp pp pp
-2.8785467147827148e-03 6.3997107148170471e+00 0.0000000000000000e+00
-2.4842619895935059e-03 5.5229154229164124e+00 0.0000000000000000e+00
-9.3265771865844727e-03 2.0734713017940521e+01 0.0000000000000000e+00
ITEM: ATOMS id type xs ys zs fx fy fz
1 1 0.999986 0.666284 0.0597554 0 -0.000850677 -0.000110626
2 1 0.499986 0.666284 0.0597554 0 -0.000850677 -0.000110626
3 1 0.249986 0.166284 0.0597529 0 -0.000843048 -1.33514e-05
4 1 0.749986 0.166284 0.0597529 0 -0.000843048 -1.33514e-05
5 1 0.999986 0.666297 0.309761 0 -0.000871658 -0.000196457
6 1 0.249986 0.50039 0.18476 0 0.00084877 -0.000181198
7 1 0.749986 0.50039 0.18476 0 0.00084877 -0.000181198
8 1 0.499986 0.666297 0.309761 0 -0.000871658 -0.000196457
9 1 0.999986 0.000391039 0.184759 0 0.000843048 -0.00012207
10 1 0.249986 0.166295 0.309759 0 -0.000843048 -0.000123978
11 1 0.499986 0.000391039 0.184759 0 0.000843048 -0.00012207
12 1 0.749986 0.166295 0.309759 0 -0.000843048 -0.000123978
13 1 0.999986 0.666278 0.559747 0 -0.000818253 6.86646e-05
14 1 0.499986 0.666278 0.559747 0 -0.000818253 6.86646e-05
15 1 0.249986 0.16628 0.559747 0 -0.000846863 6.48499e-05
16 1 0.749986 0.16628 0.559747 0 -0.000846863 6.48499e-05
17 1 0.249986 0.500393 0.434755 0 0.000841141 -7.24792e-05
18 1 0.749986 0.500393 0.434755 0 0.000841141 -7.24792e-05
19 1 0.999986 0.000395454 0.434755 0 0.000808716 -8.2016e-05
20 1 0.499986 0.000395454 0.434755 0 0.000808716 -8.2016e-05
21 1 0.999986 0.666272 0.809742 0 -0.000843048 0.000137329
22 1 0.249986 0.500372 0.684743 0 0.00084877 0.000123978
23 1 0.499986 0.666272 0.809742 0 -0.000843048 0.000137329
24 1 0.749986 0.500372 0.684743 0 0.00084877 0.000123978
25 1 0.999986 0.000371542 0.684741 0 0.000865936 0.000185013
26 1 0.249986 0.166272 0.809741 0 -0.000839233 0.000169754
27 1 0.749986 0.166272 0.809741 0 -0.000839233 0.000169754
28 1 0.499986 0.000371542 0.684741 0 0.000865936 0.000185013
29 1 0.249986 0.500377 0.934747 0 0.000841141 5.14984e-05
30 1 0.749986 0.500377 0.934747 0 0.000841141 5.14984e-05
31 1 0.999986 0.000375541 0.934746 0 0.000858307 0.000101089
32 1 0.499986 0.000375542 0.934746 0 0.000858307 0.000101089
ITEM: TIMESTEP
10
ITEM: NUMBER OF ATOMS
32
ITEM: BOX BOUNDS xy xz yz pp pp pp
-3.1983852386474609e-03 6.4000305533409119e+00 0.0000000000000000e+00
-2.7602910995483398e-03 5.5231914520263672e+00 0.0000000000000000e+00
-1.0362863540649414e-02 2.0735749304294586e+01 0.0000000000000000e+00
ITEM: ATOMS id type xs ys zs fx fy fz
1 1 0.999986 0.666284 0.0597554 0 -0.000844955 -0.000110626
2 1 0.499986 0.666284 0.0597554 0 -0.000844955 -0.000110626
3 1 0.249986 0.166284 0.0597529 0 -0.000843048 -1.71661e-05
4 1 0.749986 0.166284 0.0597529 0 -0.000843048 -1.71661e-05
5 1 0.999986 0.666297 0.309761 0 -0.000854492 -0.000205994
6 1 0.249986 0.50039 0.18476 0 0.000839233 -0.000179291
7 1 0.749986 0.50039 0.18476 0 0.000839233 -0.000179291
8 1 0.499986 0.666297 0.309761 0 -0.000854492 -0.000205994
9 1 0.999986 0.000391044 0.184759 0 0.000831604 -0.000116348
10 1 0.249986 0.166295 0.309759 0 -0.000844955 -0.000127792
11 1 0.499986 0.000391044 0.184759 0 0.000831604 -0.000116348
12 1 0.749986 0.166295 0.309759 0 -0.000844955 -0.000127792
13 1 0.999986 0.666278 0.559747 0 -0.000818253 6.29425e-05
14 1 0.499986 0.666278 0.559747 0 -0.000818253 6.29425e-05
15 1 0.249986 0.16628 0.559747 0 -0.000839233 6.10352e-05
16 1 0.749986 0.16628 0.559747 0 -0.000839233 6.10352e-05
17 1 0.249986 0.500393 0.434755 0 0.000829697 -5.34058e-05
18 1 0.749986 0.500393 0.434755 0 0.000829697 -5.34058e-05
19 1 0.999986 0.000395458 0.434755 0 0.000818253 -8.2016e-05
20 1 0.499986 0.000395459 0.434755 0 0.000818253 -8.2016e-05
21 1 0.999986 0.666272 0.809742 0 -0.000835419 0.000144958
22 1 0.249986 0.500372 0.684743 0 0.000839233 0.000127792
23 1 0.499986 0.666272 0.809742 0 -0.000835419 0.000144958
24 1 0.749986 0.500372 0.684743 0 0.000839233 0.000127792
25 1 0.999986 0.000371548 0.684741 0 0.0008564 0.000175476
26 1 0.249986 0.166272 0.809741 0 -0.000831604 0.000173569
27 1 0.749986 0.166272 0.809741 0 -0.000831604 0.000173569
28 1 0.499986 0.000371547 0.684741 0 0.0008564 0.000175476
29 1 0.249986 0.500377 0.934747 0 0.000846863 3.8147e-05
30 1 0.749986 0.500377 0.934747 0 0.000846863 3.8147e-05
31 1 0.999986 0.000375547 0.934746 0 0.000850677 0.000108719
32 1 0.499986 0.000375547 0.934746 0 0.000850677 0.000108719
ITEM: TIMESTEP
11
ITEM: NUMBER OF ATOMS
32
ITEM: BOX BOUNDS xy xz yz pp pp pp
-3.5182237625122070e-03 6.4003503918647766e+00 0.0000000000000000e+00
-3.0363202095031738e-03 5.5234674811363220e+00 0.0000000000000000e+00
-1.1399149894714355e-02 2.0736785590648651e+01 0.0000000000000000e+00
ITEM: ATOMS id type xs ys zs fx fy fz
1 1 0.999986 0.666284 0.0597554 0 -0.000837326 -0.000112534
2 1 0.499986 0.666284 0.0597554 0 -0.000837326 -0.000112534
3 1 0.249986 0.166284 0.0597529 0 -0.000822067 -2.67029e-05
4 1 0.749986 0.166284 0.0597529 0 -0.000822067 -2.67029e-05
5 1 0.999986 0.666297 0.309761 0 -0.000854492 -0.000198364
6 1 0.249986 0.50039 0.18476 0 0.000825882 -0.000167847
7 1 0.749986 0.50039 0.18476 0 0.000825882 -0.000167847
8 1 0.499986 0.666297 0.309761 0 -0.000854492 -0.000198364
9 1 0.999986 0.000391049 0.184759 0 0.000823975 -0.000123978
10 1 0.249986 0.166295 0.309759 0 -0.000835419 -0.000135422
11 1 0.499986 0.000391049 0.184759 0 0.000823975 -0.000123978
12 1 0.749986 0.166295 0.309759 0 -0.000835419 -0.000135422
13 1 0.999986 0.666278 0.559747 0 -0.000810623 7.24792e-05
14 1 0.499986 0.666278 0.559747 0 -0.000810623 7.24792e-05
15 1 0.249986 0.16628 0.559747 0 -0.000843048 5.72205e-05
16 1 0.749986 0.16628 0.559747 0 -0.000843048 5.72205e-05
17 1 0.249986 0.500393 0.434755 0 0.000831604 -5.34058e-05
18 1 0.749986 0.500393 0.434755 0 0.000831604 -5.34058e-05
19 1 0.999986 0.000395464 0.434755 0 0.000804901 -8.58307e-05
20 1 0.499986 0.000395464 0.434755 0 0.000804901 -8.58307e-05
21 1 0.999986 0.666272 0.809742 0 -0.000814438 0.000133514
22 1 0.249986 0.500372 0.684743 0 0.000841141 0.000120163
23 1 0.499986 0.666272 0.809742 0 -0.000814438 0.000133514
24 1 0.749986 0.500372 0.684743 0 0.000841141 0.000120163
25 1 0.999986 0.000371553 0.684741 0 0.000854492 0.000181198
26 1 0.249986 0.166272 0.809741 0 -0.000833511 0.000175476
27 1 0.749986 0.166272 0.809741 0 -0.000833511 0.000175476
28 1 0.499986 0.000371552 0.684741 0 0.000854492 0.000181198
29 1 0.249986 0.500377 0.934747 0 0.000823975 4.95911e-05
30 1 0.749986 0.500377 0.934747 0 0.000823975 4.95911e-05
31 1 0.999986 0.000375552 0.934746 0 0.000844955 0.000114441
32 1 0.499986 0.000375552 0.934746 0 0.000844955 0.000114441
ITEM: TIMESTEP
12
ITEM: NUMBER OF ATOMS
32
ITEM: BOX BOUNDS xy xz yz pp pp pp
-3.8380622863769531e-03 6.4006702303886414e+00 0.0000000000000000e+00
-3.3123493194580078e-03 5.5237435102462769e+00 0.0000000000000000e+00
-1.2435436248779297e-02 2.0737821877002716e+01 0.0000000000000000e+00
ITEM: ATOMS id type xs ys zs fx fy fz
1 1 0.999986 0.666284 0.0597554 0 -0.000816345 -0.000108719
2 1 0.499986 0.666284 0.0597554 0 -0.000816345 -0.000108719
3 1 0.249986 0.166284 0.0597529 0 -0.000814438 -1.90735e-05
4 1 0.749986 0.166284 0.0597529 0 -0.000814438 -1.90735e-05
5 1 0.999986 0.666297 0.309761 0 -0.000850677 -0.000196457
6 1 0.249986 0.50039 0.18476 0 0.000829697 -0.000185013
7 1 0.749986 0.50039 0.18476 0 0.000829697 -0.000185013
8 1 0.499986 0.666297 0.309761 0 -0.000850677 -0.000196457
9 1 0.999986 0.000391054 0.184759 0 0.000812531 -0.000118256
10 1 0.249986 0.166295 0.309759 0 -0.000837326 -0.00012207
11 1 0.499986 0.000391054 0.184759 0 0.000812531 -0.000118256
12 1 0.749986 0.166295 0.309759 0 -0.000837326 -0.00012207
13 1 0.999986 0.666278 0.559747 0 -0.000814438 6.48499e-05
14 1 0.499986 0.666278 0.559747 0 -0.000814438 6.48499e-05
15 1 0.249986 0.16628 0.559747 0 -0.000822067 5.14984e-05
16 1 0.749986 0.16628 0.559747 0 -0.000822067 5.14984e-05
17 1 0.249986 0.500393 0.434755 0 0.000822067 -5.91278e-05
18 1 0.749986 0.500393 0.434755 0 0.000822067 -5.91278e-05
19 1 0.999986 0.000395469 0.434755 0 0.000799179 -8.01086e-05
20 1 0.499986 0.000395469 0.434755 0 0.000799179 -8.01086e-05
21 1 0.999986 0.666272 0.809742 0 -0.000810623 0.000135422
22 1 0.249986 0.500372 0.684743 0 0.000833511 0.000127792
23 1 0.499986 0.666272 0.809742 0 -0.000810623 0.000135422
24 1 0.749986 0.500372 0.684743 0 0.000833511 0.000127792
25 1 0.999986 0.000371559 0.684741 0 0.00084877 0.000183105
26 1 0.249986 0.166272 0.809741 0 -0.000822067 0.000171661
27 1 0.749986 0.166272 0.809741 0 -0.000822067 0.000171661
28 1 0.499986 0.000371558 0.684741 0 0.00084877 0.000183105
29 1 0.249986 0.500377 0.934747 0 0.000810623 4.95911e-05
30 1 0.749986 0.500377 0.934747 0 0.000810623 4.95911e-05
31 1 0.999986 0.000375557 0.934746 0 0.000831604 0.000104904
32 1 0.499986 0.000375558 0.934746 0 0.000831604 0.000104904
ITEM: TIMESTEP
13
ITEM: NUMBER OF ATOMS
32
ITEM: BOX BOUNDS xy xz yz pp pp pp
-4.1579008102416992e-03 6.4009900689125061e+00 0.0000000000000000e+00
-3.5883784294128418e-03 5.5240195393562317e+00 0.0000000000000000e+00
-1.3471722602844238e-02 2.0738858163356781e+01 0.0000000000000000e+00
ITEM: ATOMS id type xs ys zs fx fy fz
1 1 0.999986 0.666284 0.0597554 0 -0.000823975 -0.000112534
2 1 0.499986 0.666284 0.0597554 0 -0.000823975 -0.000112534
3 1 0.249986 0.166284 0.0597529 0 -0.00082016 -1.33514e-05
4 1 0.749986 0.166284 0.0597529 0 -0.00082016 -1.33514e-05
5 1 0.999986 0.666297 0.309761 0 -0.000846863 -0.000190735
6 1 0.249986 0.50039 0.18476 0 0.000833511 -0.000185013
7 1 0.749986 0.50039 0.18476 0 0.000833511 -0.000185013
8 1 0.499986 0.666297 0.309761 0 -0.000846863 -0.000190735
9 1 0.999986 0.00039106 0.184759 0 0.000814438 -0.00012207
10 1 0.249986 0.166295 0.309759 0 -0.000837326 -0.000120163
11 1 0.499986 0.00039106 0.184759 0 0.000814438 -0.00012207
12 1 0.749986 0.166295 0.309759 0 -0.000837326 -0.000120163
13 1 0.999986 0.666278 0.559747 0 -0.000814438 6.10352e-05