ITEM: TIMESTEP
0
ITEM: NUMBER OF ATOMS
32
ITEM: BOX BOUNDS xy xz yz pp pp pp
2.3402176666958421e-03 7.5907479290207984e+00 1.1985391466874940e+00
-1.8700970345103249e-02 2.2101578970345098e+01 0.0000000000000000e+00
8.6472273715375633e-03 5.1738187726284668e+00 0.0000000000000000e+00
ITEM: ATOMS id type xs ys zs fx fy fz
1 1 0.956092 0.336531 0.593597 0 0.00265299 -9.12783e-06
2 1 0.456091 0.336531 0.593597 0 0.00265471 -9.06974e-06
3 1 0.213872 0.295047 0.0935968 0 -0.00195641 7.57189e-06
4 1 0.713872 0.295047 0.0935968 0 -0.00195285 8.49573e-06
5 1 0.182644 0.461534 0.593597 0 0.00204498 -9.75632e-06
6 1 0.682645 0.461534 0.593597 0 0.00203984 -9.15815e-06
7 1 0.940426 0.420048 0.0935968 0 -0.00210988 9.22487e-06
8 1 0.440426 0.420048 0.0935968 0 -0.00211234 9.11444e-06
9 1 0.9092 0.586531 0.593597 0 0.00203923 -7.78475e-06
10 1 0.409199 0.586531 0.593597 0 0.0020393 -8.57897e-06
11 1 0.135753 0.711528 0.593597 0 0.00198221 -6.202e-06
12 1 0.635753 0.711528 0.593597 0 0.00197745 -6.34149e-06
13 1 0.893535 0.670045 0.0935969 0 -0.00253806 6.14185e-06
14 1 0.16698 0.545047 0.0935968 0 -0.00221207 8.8822e-06
15 1 0.66698 0.545047 0.0935968 0 -0.0022069 9.58393e-06
16 1 0.393534 0.670045 0.0935969 0 -0.00253815 6.66845e-06
17 1 0.862308 0.836529 0.593597 0 0.00957459 -3.89032e-06
18 1 0.362307 0.836529 0.593597 0 0.0095746 -3.85335e-06
19 1 0.0888613 0.961528 0.593597 0 -0.34056 -2.37337e-06
20 1 0.588861 0.961528 0.593597 0 -0.340569 -2.79389e-06
21 1 0.120088 0.795048 0.0935969 0 0.00446578 4.56139e-06
22 1 0.620088 0.795048 0.0935969 0 0.00446868 4.95556e-06
23 1 0.846643 0.920043 0.0935969 0 -0.626134 4.27787e-06
24 1 0.346643 0.920043 0.0935969 0 -0.626132 3.22244e-06
25 1 0.00298484 0.0865253 0.593597 0 0.626419 -2.00819e-06
26 1 0.502984 0.0865253 0.593597 0 0.626422 -2.83204e-07
27 1 0.260766 0.0450412 0.093597 0 0.340586 6.94134e-07
28 1 0.760766 0.0450411 0.0935969 0 0.340593 1.03645e-06
29 1 0.229538 0.211528 0.593597 0 -0.00462832 -4.17573e-06
30 1 0.729538 0.211528 0.593597 0 -0.00463174 -5.2092e-06
31 1 0.987319 0.170044 0.0935969 0 -0.00962505 3.40251e-06
32 1 0.487319 0.170044 0.093597 0 -0.00962652 2.81796e-06
ITEM: TIMESTEP
10
ITEM: NUMBER OF ATOMS
32
ITEM: BOX BOUNDS xy xz yz pp pp pp
2.3402176666958421e-03 7.5907479290207984e+00 1.1985391466874940e+00
-1.8700970345103249e-02 2.2101578970345098e+01 0.0000000000000000e+00
8.6472273715375633e-03 5.1738187726284668e+00 0.0000000000000000e+00
ITEM: ATOMS id type xs ys zs fx fy fz
1 1 0.955669 0.338785 0.593597 0 0.000150942 -2.10858e-06
2 1 0.455668 0.338785 0.593597 0 0.000151131 -1.9816e-06
3 1 0.213365 0.297752 0.093597 0 0.00013724 3.06879e-06
4 1 0.713365 0.297752 0.093597 0 0.000135037 1.30871e-06
5 1 0.182581 0.461872 0.593597 0 4.93603e-05 -8.79488e-07
6 1 0.682581 0.461872 0.593597 0 4.98114e-05 -1.6841e-06
7 1 0.940171 0.421408 0.093597 0 -6.26466e-05 1.38413e-06
8 1 0.440171 0.421408 0.093597 0 -6.48272e-05 1.18458e-06
9 1 0.909455 0.585166 0.593597 0 5.8308e-05 -9.85461e-07
10 1 0.409455 0.585166 0.593597 0 5.89246e-05 -1.27583e-06
11 1 0.136261 0.708823 0.593597 0 -0.00013334 4.32165e-07
12 1 0.636261 0.708823 0.593597 0 -0.000133664 -1.00927e-06
13 1 0.893958 0.667789 0.0935971 0 -0.000149538 4.71315e-07
14 1 0.167045 0.544702 0.0935971 0 -4.75243e-05 6.14443e-07
15 1 0.667045 0.544702 0.093597 0 -4.55738e-05 1.81575e-06
16 1 0.393957 0.66779 0.093597 0 -0.000152315 9.68521e-07
17 1 0.862875 0.833504 0.593597 0 -3.98898e-05 -6.91271e-07
18 1 0.362874 0.833504 0.593597 0 -4.1571e-05 2.14967e-08
19 1 0.0890596 0.96047 0.593597 0 -5.22806e-05 -1.54653e-07
20 1 0.58906 0.96047 0.593597 0 -5.07119e-05 1.74867e-07
21 1 0.120942 0.790492 0.0935971 0 -5.40732e-05 -1.25257e-07
22 1 0.620942 0.790492 0.0935971 0 -5.13388e-05 1.7849e-07
23 1 0.848228 0.911595 0.093597 0 4.45425e-05 5.56567e-07
24 1 0.348227 0.911595 0.0935971 0 4.92611e-05 -9.83982e-08
25 1 0.00139907 0.0949796 0.593597 0 -4.97986e-05 -1.55017e-06
26 1 0.501398 0.0949796 0.593597 0 -5.25547e-05 -3.07304e-07
27 1 0.260566 0.046104 0.093597 0 5.00502e-05 7.87691e-07
28 1 0.760566 0.046104 0.0935971 0 5.35065e-05 3.10957e-07
29 1 0.228683 0.216083 0.593597 0 5.18309e-05 -2.30879e-06
30 1 0.728684 0.216083 0.593597 0 5.36392e-05 -9.80714e-07
31 1 0.986752 0.17307 0.093597 0 4.41285e-05 2.15804e-06
32 1 0.486751 0.17307 0.093597 0 4.40446e-05 4.72393e-07
