ITEM: TIMESTEP
0
ITEM: NUMBER OF ATOMS
32
ITEM: BOX BOUNDS xy xz yz pp pp pp
-4.7826766967773438e-03 8.9590643644332886e+00 2.5597326755523682e+00
-3.7661075592041016e-02 2.2120539069175720e+01 0.0000000000000000e+00
-1.1393904685974121e-02 5.1938598752021790e+00 0.0000000000000000e+00
ITEM: ATOMS id type xs ys zs fx fy fz
1 1 0.884697 0.336542 0.593597 0 0.000797272 5.72205e-06
2 1 0.384698 0.336542 0.593597 0 0.000793457 5.72205e-06
3 1 0.151289 0.295033 0.0935973 0 -0.00126076 -5.72205e-06
4 1 0.651289 0.295033 0.0935973 0 -0.00125885 -3.8147e-06
5 1 0.0847348 0.461543 0.593597 0 0.000965118 0
6 1 0.584735 0.461543 0.593597 0 0.000968933 5.72205e-06
7 1 0.851324 0.420037 0.0935973 0 -0.0011425 -7.62939e-06
8 1 0.351324 0.420037 0.0935973 0 -0.0011425 -3.8147e-06
9 1 0.784771 0.586543 0.593597 0 0.00107574 0
10 1 0.284772 0.586543 0.593597 0 0.00107384 0
11 1 0.984811 0.711539 0.593597 0 0.00134659 7.62939e-06
12 1 0.484811 0.711539 0.593597 0 0.00134468 3.8147e-06
13 1 0.751397 0.670042 0.0935972 0 -0.00102997 -3.8147e-06
14 1 0.0513598 0.545043 0.0935972 0 -0.00107193 0
15 1 0.55136 0.545043 0.0935972 0 -0.00106812 0
16 1 0.251397 0.670042 0.0935972 0 -0.00103378 -7.62939e-06
17 1 0.68485 0.836533 0.593597 0 0.0105343 1.90735e-06
18 1 0.184851 0.836533 0.593597 0 0.0105381 -1.90735e-06
19 1 0.884888 0.961533 0.593597 0 -0.119368 3.8147e-06
20 1 0.384888 0.961533 0.593597 0 -0.119364 0
21 1 0.951438 0.795035 0.0935971 0 0.000486374 -1.90735e-06
22 1 0.451438 0.795035 0.0935971 0 0.000482559 0
23 1 0.651476 0.920032 0.0935971 0 -0.217073 0
24 1 0.151476 0.920032 0.0935971 0 -0.217081 -1.90735e-06
25 1 0.984624 0.0865377 0.593597 0 0.216923 0
26 1 0.484625 0.0865377 0.593597 0 0.216925 0
27 1 0.251215 0.045031 0.093597 0 0.11961 0
28 1 0.751215 0.045031 0.093597 0 0.119598 0
29 1 0.184661 0.211541 0.593597 0 -0.000482559 1.90735e-06
30 1 0.684661 0.211541 0.593597 0 -0.00047493 1.90735e-06
31 1 0.951252 0.170031 0.093597 0 -0.0103054 0
32 1 0.451252 0.170031 0.093597 0 -0.0103054 0
ITEM: TIMESTEP
1
ITEM: NUMBER OF ATOMS
32
ITEM: BOX BOUNDS xy xz yz pp pp pp
-4.7826766967773438e-03 8.9590643644332886e+00 2.5597326755523682e+00
-3.7661075592041016e-02 2.2120539069175720e+01 0.0000000000000000e+00
-1.1393904685974121e-02 5.1938598752021790e+00 0.0000000000000000e+00
ITEM: ATOMS id type xs ys zs fx fy fz
1 1 0.884694 0.336552 0.593597 0 0.000476837 -1.90735e-06
2 1 0.384694 0.336551 0.593597 0 0.000471115 -3.8147e-06
3 1 0.151295 0.295018 0.093597 0 -0.000301361 3.8147e-06
4 1 0.651295 0.295018 0.0935971 0 -0.000307083 1.90735e-06
5 1 0.0847304 0.461554 0.593597 0 0.000980377 0
6 1 0.58473 0.461554 0.593597 0 0.000982285 -5.72205e-06
7 1 0.851329 0.420024 0.0935969 0 -0.00139618 5.72205e-06
8 1 0.35133 0.420024 0.0935971 0 -0.00139618 0
9 1 0.784767 0.586556 0.593597 0 0.00133514 1.90735e-06
10 1 0.284767 0.586556 0.593597 0 0.00134087 -1.90735e-06
11 1 0.984805 0.711554 0.593597 0 0.000383377 -3.8147e-06
12 1 0.484805 0.711554 0.593597 0 0.000377655 -5.72205e-06
13 1 0.751402 0.670031 0.093597 0 -0.000597 1.90735e-06
14 1 0.0513646 0.54503 0.0935972 0 -0.00112152 0
15 1 0.551365 0.545031 0.0935972 0 -0.00113487 0
16 1 0.251402 0.670031 0.0935968 0 -0.000595093 5.72205e-06
17 1 0.684803 0.836653 0.593597 0 -0.0438061 0
18 1 0.184803 0.836653 0.593597 0 -0.0438099 5.72205e-06
19 1 0.88543 0.960177 0.593597 0 0.042881 -3.8147e-06
20 1 0.38543 0.960177 0.593597 0 0.0428905 3.8147e-06
21 1 0.951435 0.79504 0.093597 0 -0.0524998 0
22 1 0.451435 0.79504 0.0935971 0 -0.0524979 -1.90735e-06
23 1 0.652461 0.917566 0.0935971 0 -0.0144691 0
24 1 0.152462 0.917566 0.093597 0 -0.0144615 0
25 1 0.98364 0.0890013 0.593597 0 0.0146122 0
26 1 0.48364 0.0890014 0.593597 0 0.0146122 0
27 1 0.250672 0.0463895 0.093597 0 -0.0428314 0
28 1 0.750672 0.0463893 0.093597 0 -0.0428257 0
29 1 0.184663 0.211535 0.593597 0 0.0524044 -5.72205e-06
30 1 0.684663 0.211536 0.593597 0 0.0523987 -1.90735e-06
31 1 0.951299 0.169914 0.093597 0 0.0439529 1.90735e-06
32 1 0.451299 0.169914 0.093597 0 0.043951 3.8147e-06
ITEM: TIMESTEP
2
ITEM: NUMBER OF ATOMS
32
ITEM: BOX BOUNDS xy xz yz pp pp pp
-4.7826766967773438e-03 8.9590643644332886e+00 2.5597326755523682e+00
-3.7661075592041016e-02 2.2120539069175720e+01 0.0000000000000000e+00
-1.1393904685974121e-02 5.1938598752021790e+00 0.0000000000000000e+00
ITEM: ATOMS id type xs ys zs fx fy fz
1 1 0.884688 0.336566 0.593597 0 0.0252094 0
2 1 0.384688 0.336566 0.593597 0 0.0252209 5.72205e-06
3 1 0.1513 0.295006 0.0935973 0 0.0303421 -7.62939e-06
4 1 0.6513 0.295006 0.0935972 0 0.030344 0
5 1 0.0847194 0.461581 0.593597 0 0.000391006 3.8147e-06
6 1 0.584719 0.461581 0.593597 0 0.000392914 3.8147e-06
7 1 0.851345 0.419986 0.0935974 0 0.000940323 0
8 1 0.351345 0.419986 0.093597 0 0.000940323 -1.90735e-06
9 1 0.784752 0.586593 0.593597 0 -0.000953674 -1.90735e-06
10 1 0.284752 0.586593 0.593597 0 -0.000963211 3.8147e-06
11 1 0.984799 0.711569 0.593597 0 -0.0303669 0
12 1 0.484799 0.711569 0.593597 0 -0.0303631 3.8147e-06
13 1 0.751409 0.670012 0.0935972 0 -0.025301 -1.90735e-06
14 1 0.0513773 0.544999 0.0935972 0 -0.000492096 0
15 1 0.551377 0.544999 0.0935972 0 -0.000478745 -9.53674e-06
16 1 0.251409 0.670012 0.0935973 0 -0.0253029 -1.90735e-06
17 1 0.685219 0.83561 0.593597 0 0.01021 -1.90735e-06
18 1 0.185219 0.83561 0.593597 0 0.0102119 -7.62939e-06
19 1 0.885183 0.960795 0.593597 0 0.00870323 5.72205e-06
20 1 0.385183 0.960796 0.593597 0 0.0086956 -3.8147e-06
21 1 0.951953 0.793746 0.093597 0 -0.0100079 3.8147e-06
22 1 0.451953 0.793746 0.0935969 0 -0.0100117 1.90735e-06
23 1 0.652923 0.91641 0.0935971 0 0.00648689 0
24 1 0.152924 0.91641 0.093597 0 0.00647736 5.72205e-06
25 1 0.983176 0.0901604 0.593597 0 -0.00648499 1.90735e-06
26 1 0.483177 0.0901605 0.593597 0 -0.00648689 3.8147e-06
27 1 0.250918 0.045773 0.093597 0 -0.00856209 0
28 1 0.750918 0.045773 0.093597 0 -0.00857544 -3.8147e-06
29 1 0.184147 0.212827 0.593597 0 0.0100517 7.62939e-06
30 1 0.684147 0.212827 0.593597 0 0.0100613 1.90735e-06
31 1 0.95088 0.170961 0.0935972 0 -0.01017 -1.90735e-06
32 1 0.450881 0.170961 0.0935974 0 -0.0101585 -9.53674e-06
ITEM: TIMESTEP
3
ITEM: NUMBER OF ATOMS
32
ITEM: BOX BOUNDS xy xz yz pp pp pp
-4.7826766967773438e-03 8.9590643644332886e+00 2.5597326755523682e+00
-3.7661075592041016e-02 2.2120539069175720e+01 0.0000000000000000e+00
-1.1393904685974121e-02 5.1938598752021790e+00 0.0000000000000000e+00
ITEM: ATOMS id type xs ys zs fx fy fz
1 1 0.884437 0.337193 0.593597 0 0.00575638 3.8147e-06
2 1 0.384437 0.337193 0.593598 0 0.00575256 -7.62939e-06
3 1 0.151001 0.295754 0.0935966 0 -0.0015564 9.53674e-06
4 1 0.651001 0.295754 0.0935973 0 -0.00154305 -1.90735e-06
5 1 0.084713 0.461597 0.593597 0 0.0102825 -3.8147e-06
6 1 0.584713 0.461597 0.593597 0 0.0102711 0
7 1 0.851339 0.42 0.0935975 0 0.0196609 -7.62939e-06
8 1 0.351339 0.42 0.0935968 0 0.0196571 1.90735e-06
9 1 0.784758 0.586577 0.593597 0 -0.0197449 -7.62939e-06
10 1 0.284758 0.586577 0.593597 0 -0.019743 0
11 1 0.985098 0.710821 0.593597 0 0.00154114 1.90735e-06
12 1 0.485098 0.710821 0.593597 0 0.00155258 0
13 1 0.751661 0.669382 0.093597 0 -0.00572777 3.8147e-06
14 1 0.051385 0.544979 0.0935972 0 -0.0102921 0
15 1 0.551385 0.544979 0.0935962 0 -0.0102997 1.14441e-05
16 1 0.251661 0.669382 0.0935972 0 -0.00572586 -1.90735e-06
17 1 0.685213 0.835626 0.593597 0 -0.000541687 7.62939e-06
18 1 0.185213 0.835626 0.593597 0 -0.000537872 1.33514e-05
19 1 0.885041 0.961151 0.593597 0 -0.0118504 1.90735e-06
20 1 0.385041 0.961151 0.593597 0 -0.0118675 0
21 1 0.952169 0.793205 0.0935974 0 -0.00129509 -7.62939e-06
22 1 0.452169 0.793205 0.0935971 0 -0.00128937 -9.53674e-06
23 1 0.652964 0.916308 0.0935971 0 -0.00678825 0
24 1 0.152965 0.916308 0.0935976 0 -0.00677299 -9.53674e-06
25 1 0.983135 0.0902633 0.593597 0 0.00687218 -9.53674e-06
26 1 0.483136 0.0902633 0.593597 0 0.00688362 -1.52588e-05
27 1 0.251059 0.045421 0.093597 0 0.0118408 7.62939e-06
28 1 0.751059 0.0454207 0.0935966 0 0.0118618 7.62939e-06
29 1 0.18393 0.213369 0.593597 0 0.00128365 -3.8147e-06
30 1 0.68393 0.213369 0.593597 0 0.00127411 -3.8147e-06
31 1 0.950886 0.170947 0.093597 0 0.000551224 5.72205e-06
32 1 0.450886 0.170947 0.0935965 0 0.000534058 1.33514e-05
ITEM: TIMESTEP
4
ITEM: NUMBER OF ATOMS
32
ITEM: BOX BOUNDS xy xz yz pp pp pp
-4.7826766967773438e-03 8.9590643644332886e+00 2.5597326755523682e+00
-3.7661075592041016e-02 2.2120539069175720e+01 0.0000000000000000e+00
-1.1393904685974121e-02 5.1938598752021790e+00 0.0000000000000000e+00
ITEM: ATOMS id type xs ys zs fx fy fz
1 1 0.884306 0.337522 0.593597 0 0.000850677 -1.90735e-06
2 1 0.384306 0.337522 0.593597 0 0.00084877 0
3 1 0.150914 0.29597 0.0935972 0 -0.00137329 0
4 1 0.650914 0.29597 0.0935971 0 -0.00138474 0
5 1 0.0846246 0.461818 0.593597 0 -0.00364685 -1.90735e-06
6 1 0.584625 0.461818 0.593597 0 -0.00363731 0
7 1 0.851172 0.420418 0.0935969 0 0.00178528 3.8147e-06
8 1 0.351173 0.420418 0.0935969 0 0.00178909 -1.90735e-06
9 1 0.784926 0.586158 0.593596 0 -0.00181389 1.14441e-05
10 1 0.284926 0.586158 0.593597 0 -0.00181198 -3.8147e-06
11 1 0.985184 0.710605 0.593597 0 0.00137138 0
12 1 0.485184 0.710605 0.593597 0 0.00136948 -3.8147e-06
13 1 0.751793 0.669052 0.0935973 0 -0.000850677 -5.72205e-06
14 1 0.0514739 0.544757 0.0935972 0 0.00363159 -3.8147e-06
15 1 0.551474 0.544757 0.0935969 0 0.00363541 1.90735e-06
16 1 0.251793 0.669052 0.093597 0 -0.000854492 -1.90735e-06
17 1 0.685215 0.83562 0.593598 0 -0.00878334 -9.53674e-06
18 1 0.185215 0.83562 0.593598 0 -0.0087986 -1.71661e-05
19 1 0.885093 0.961021 0.593598 0 3.62396e-05 -3.8147e-06
20 1 0.385093 0.961021 0.593597 0 6.67572e-05 1.90735e-06
21 1 0.952252 0.792998 0.0935968 0 -0.00234985 3.8147e-06
22 1 0.452252 0.792998 0.0935963 0 -0.00235367 1.71661e-05
23 1 0.653035 0.916132 0.0935971 0 0.00250626 5.72205e-06
24 1 0.153035 0.916132 0.0935969 0 0.00250053 1.14441e-05
25 1 0.983064 0.0904417 0.593596 0 -0.00249481 1.52588e-05
26 1 0.483064 0.0904419 0.593596 0 -0.00251579 2.28882e-05
27 1 0.251007 0.0455527 0.0935977 0 -3.24249e-05 -1.71661e-05
28 1 0.751007 0.0455527 0.0935971 0 -3.24249e-05 -1.14441e-05
29 1 0.183848 0.213576 0.593597 0 0.00238037 5.72205e-06
30 1 0.683848 0.213576 0.593597 0 0.00238419 7.62939e-06
31 1 0.950883 0.170954 0.0935975 0 0.00878716 -1.52588e-05
32 1 0.450884 0.170954 0.0935974 0 0.00879097 -9.53674e-06
ITEM: TIMESTEP
5
ITEM: NUMBER OF ATOMS
32
ITEM: BOX BOUNDS xy xz yz pp pp pp
-4.7826766967773438e-03 8.9590643644332886e+00 2.5597326755523682e+00
-3.7661075592041016e-02 2.2120539069175720e+01 0.0000000000000000e+00
-1.1393904685974121e-02 5.1938598752021790e+00 0.0000000000000000e+00
ITEM: ATOMS id type xs ys zs fx fy fz
1 1 0.884281 0.337584 0.593597 0 -0.0007267 -1.90735e-06
2 1 0.384281 0.337584 0.593597 0 -0.000730515 1.90735e-06
3 1 0.150913 0.295975 0.0935973 0 0.00403023 1.90735e-06
4 1 0.650913 0.295975 0.0935971 0 0.00403595 0
5 1 0.0846395 0.461781 0.593597 0 -0.00186729 0
6 1 0.584639 0.461781 0.593597 0 -0.00187683 -3.8147e-06
7 1 0.851135 0.42051 0.0935971 0 -0.00156021 -1.90735e-06
8 1 0.351136 0.420509 0.0935968 0 -0.00155449 0
9 1 0.784963 0.586065 0.593597 0 0.00156403 -5.72205e-06
10 1 0.284963 0.586065 0.593597 0 0.00156784 -3.8147e-06
11 1 0.985186 0.7106 0.593597 0 -0.00404549 -3.8147e-06
12 1 0.485186 0.7106 0.593597 0 -0.0040493 3.8147e-06
13 1 0.751817 0.66899 0.0935968 0 0.000728607 1.90735e-06
14 1 0.0514592 0.544794 0.0935969 0 0.00185013 7.62939e-06
15 1 0.551459 0.544794 0.0935971 0 0.00185013 3.8147e-06
16 1 0.251818 0.66899 0.0935968 0 0.000736237 1.90735e-06
17 1 0.685281 0.835455 0.593597 0 -0.000795364 9.53674e-06
18 1 0.185282 0.835455 0.593597 0 -0.000789642 1.52588e-05
19 1 0.8851 0.961003 0.593597 0 -0.00224304 -3.8147e-06
20 1 0.3851 0.961003 0.593597 0 -0.00226021 -1.90735e-06
21 1 0.952281 0.792925 0.093597 0 0.000530243 -3.8147e-06
22 1 0.452281 0.792925 0.0935975 0 0.00053215 -1.14441e-05
23 1 0.653026 0.916154 0.0935976 0 -0.00161934 -9.53674e-06
24 1 0.153026 0.916154 0.0935977 0 -0.00162315 -5.72205e-06
25 1 0.983073 0.09042 0.593598 0 0.00163078 -1.14441e-05
26 1 0.483073 0.0904198 0.593598 0 0.00165176 -1.90735e-05
27 1 0.250999 0.0455705 0.0935964 0 0.00225449 1.33514e-05
28 1 0.750999 0.0455706 0.0935963 0 0.00224495 1.90735e-05
29 1 0.183818 0.213649 0.593598 0 -0.000522614 -1.33514e-05
30 1 0.683818 0.213649 0.593597 0 -0.000535965 -7.62939e-06
31 1 0.950817 0.171119 0.0935964 0 0.000797272 1.52588e-05
32 1 0.450817 0.171119 0.0935967 0 0.000795364 1.33514e-05
ITEM: TIMESTEP
6
ITEM: NUMBER OF ATOMS
32
ITEM: BOX BOUNDS xy xz yz pp pp pp
-4.7826766967773438e-03 8.9590643644332886e+00 2.5597326755523682e+00
-3.7661075592041016e-02 2.2120539069175720e+01 0.0000000000000000e+00
-1.1393904685974121e-02 5.1938598752021790e+00 0.0000000000000000e+00
ITEM: ATOMS id type xs ys zs fx fy fz
1 1 0.884279 0.33759 0.593597 0 -0.00153351 -1.90735e-06
2 1 0.384279 0.33759 0.593597 0 -0.00152969 1.90735e-06
3 1 0.150878 0.296061 0.0935975 0 0.00117874 -1.14441e-05
4 1 0.650878 0.296061 0.0935971 0 0.00117493 -1.90735e-06
5 1 0.0846602 0.461729 0.593597 0 0.00132561 0
6 1 0.58466 0.461729 0.593597 0 0.00133133 1.90735e-06
7 1 0.851136 0.420507 0.093597 0 0.00118446 -1.90735e-06
8 1 0.351137 0.420507 0.0935967 0 0.00117111 9.53674e-06
9 1 0.784962 0.586067 0.593597 0 -0.00118446 5.72205e-06
10 1 0.284962 0.586067 0.593597 0 -0.00119019 7.62939e-06
11 1 0.985221 0.710513 0.593597 0 -0.00117111 -1.90735e-06
12 1 0.485221 0.710513 0.593597 0 -0.00117493 -5.72205e-06
13 1 0.751819 0.668985 0.0935969 0 0.00152779 1.90735e-06
14 1 0.0514387 0.544845 0.0935975 0 -0.00131798 -9.53674e-06
15 1 0.551439 0.544845 0.0935976 0 -0.00131989 -1.14441e-05
16 1 0.25182 0.668985 0.0935969 0 0.00152397 -3.8147e-06
17 1 0.68531 0.835383 0.593598 0 3.24249e-05 -7.62939e-06
18 1 0.18531 0.835383 0.593598 0 4.00543e-05 -3.8147e-06
19 1 0.885121 0.96095 0.593597 0 0.000331879 1.90735e-06
20 1 0.385121 0.96095 0.593597 0 0.000341415 5.72205e-06
21 1 0.952286 0.792912 0.0935968 0 -0.000413895 9.53674e-06
22 1 0.452286 0.792912 0.0935969 0 -0.000413895 9.53674e-06
23 1 0.653036 0.916127 0.0935968 0 0.000253677 3.8147e-06
24 1 0.153037 0.916127 0.0935975 0 0.00025177 -1.90735e-06
25 1 0.983062 0.0904471 0.593597 0 -0.000259399 7.62939e-06
26 1 0.483062 0.0904473 0.593597 0 -0.000272751 1.33514e-05
27 1 0.250978 0.045624 0.0935972 0 -0.000324249 -9.53674e-06
28 1 0.750978 0.0456239 0.0935977 0 -0.000314713 -1.14441e-05
29 1 0.183813 0.213663 0.593596 0 0.000404358 1.33514e-05
30 1 0.683813 0.213663 0.593597 0 0.000417709 1.14441e-05
31 1 0.950788 0.171191 0.0935973 0 -3.8147e-05 -5.72205e-06
32 1 0.450789 0.171191 0.0935977 0 -3.24249e-05 -1.52588e-05
ITEM: TIMESTEP
7
ITEM: NUMBER OF ATOMS
32
ITEM: BOX BOUNDS xy xz yz pp pp pp
-4.7826766967773438e-03 8.9590643644332886e+00 2.5597326755523682e+00
-3.7661075592041016e-02 2.2120539069175720e+01 0.0000000000000000e+00
-1.1393904685974121e-02 5.1938598752021790e+00 0.0000000000000000e+00
ITEM: ATOMS id type xs ys zs fx fy fz
1 1 0.884288 0.337566 0.593597 0 0.000337601 0
2 1 0.384288 0.337566 0.593597 0 0.000331879 -5.72205e-06
3 1 0.150865 0.296094 0.0935967 0 6.29425e-05 3.8147e-06
4 1 0.650865 0.296094 0.093597 0 5.72205e-05 3.8147e-06
5 1 0.0846553 0.461742 0.593597 0 -0.00019455 3.8147e-06
6 1 0.584655 0.461742 0.593597 0 -0.000200272 -1.90735e-06
7 1 0.851129 0.420526 0.0935968 0 0.000476837 1.90735e-06
8 1 0.351129 0.420526 0.0935974 0 0.000482559 -7.62939e-06
9 1 0.784969 0.586049 0.593597 0 -0.000478745 -3.8147e-06
10 1 0.28497 0.586049 0.593597 0 -0.000478745 0
11 1 0.985234 0.71048 0.593597 0 -5.91278e-05 1.90735e-06
12 1 0.485234 0.71048 0.593597 0 -6.48499e-05 7.62939e-06
13 1 0.75181 0.669008 0.093597 0 -0.000331879 0
14 1 0.0514436 0.544833 0.0935969 0 0.000192642 1.90735e-06
15 1 0.551444 0.544833 0.0935969 0 0.000196457 7.62939e-06
16 1 0.251811 0.669008 0.0935967 0 -0.000337601 -3.8147e-06
17 1 0.685315 0.835371 0.593597 0 -4.95911e-05 3.8147e-06
18 1 0.185315 0.835371 0.593597 0 -4.19617e-05 -1.90735e-06
19 1 0.885123 0.960946 0.593597 0 0.00031662 0
20 1 0.385122 0.960946 0.593597 0 0.00031662 1.90735e-06
21 1 0.95229 0.792903 0.0935974 0 0.000141144 -1.90735e-06
22 1 0.45229 0.792903 0.0935974 0 0.000144958 -7.62939e-06
23 1 0.653037 0.916127 0.093597 0 9.53674e-05 0
24 1 0.153037 0.916127 0.0935973 0 9.91821e-05 1.90735e-06
25 1 0.983062 0.0904476 0.593597 0 -8.2016e-05 -3.8147e-06
26 1 0.483062 0.0904476 0.593597 0 -8.96454e-05 -3.8147e-06
27 1 0.250976 0.0456279 0.0935967 0 -0.000318527 0
28 1 0.750976 0.0456279 0.0935972 0 -0.000322342 0
29 1 0.183809 0.213671 0.593597 0 -0.000144958 -1.90735e-06
30 1 0.683809 0.213671 0.593598 0 -0.000150681 -7.62939e-06
31 1 0.950784 0.171203 0.0935971 0 4.57764e-05 5.72205e-06
32 1 0.450784 0.171203 0.0935969 0 4.76837e-05 5.72205e-06
