LAMMPS (4 May 2022)
## variable
variable        temp            equal 500
variable        eql_step        equal 500000
variable        rd_seed         equal 3

variable        temp_damp       equal 0.2 # tau_NVT = timestep * 100
variable        t_step          equal 0.002
variable        rlx_step        equal 20000

variable        thermo_freq     equal 100
variable        dump_freq       equal 100

## units
dimension       3
boundary        p p p
units           metal
atom_style      atomic
neighbor        1.0 bin
neigh_modify    every 10 delay 0 check no

## data.lmp, potential
read_data       data.lmp
Reading data file ...
  orthogonal box = (0 0 0) to (26.25021 26.25021 25.3108)
  1 by 1 by 1 MPI processor grid
  reading atoms ...
  900 atoms
  read_data CPU = 0.001 seconds
pair_style      nvnmd model.pb
pair_coeff * *

## velocity, timestep
velocity        all create ${temp} ${rd_seed} loop geom
velocity        all create 500 ${rd_seed} loop geom
velocity        all create 500 3 loop geom
timestep        ${t_step}
timestep        0.002

## nvt-relax
fix             equil all nvt temp ${temp} ${temp} ${temp_damp}
fix             equil all nvt temp 500 ${temp} ${temp_damp}
fix             equil all nvt temp 500 500 ${temp_damp}
fix             equil all nvt temp 500 500 0.2
run             ${rlx_step}
run             20000
Generated 0 of 6 mixed pair_coeff terms from geometric mixing rule
Neighbor list info ...
  update every 10 steps, delay 0 steps, check no
  max neighbors/atom: 2000, page size: 100000
  master list distance cutoff = 8
  ghost atom cutoff = 8
  binsize = 4, bins = 7 7 7
  1 neighbor lists, perpetual/occasional/extra = 1 0 0
  (1) pair nvnmd, perpetual
      attributes: full, newton on
      pair build: full/bin/atomonly
      stencil: full/bin/3d
      bin: standard
Per MPI rank memory allocation (min/avg/max) = 3.057 | 3.057 | 3.057 Mbytes
   Step          Temp          E_pair         E_mol          TotEng         Press     
         0   500            200.16062      0              258.26305      13816.484    
     20000   479.9422       251.5294       0              307.30102      13406.198    
Loop time of 12.0984 on 1 procs for 20000 steps with 900 atoms

Performance: 285.658 ns/day, 0.084 hours/ns, 1653.116 timesteps/s
53.9% CPU use with 1 MPI tasks x no OpenMP threads

MPI task timing breakdown:
Section |  min time  |  avg time  |  max time  |%varavg| %total
---------------------------------------------------------------
Pair    | 7.7146     | 7.7146     | 7.7146     |   0.0 | 63.77
Neigh   | 4.0979     | 4.0979     | 4.0979     |   0.0 | 33.87
Comm    | 0.13591    | 0.13591    | 0.13591    |   0.0 |  1.12
Output  | 1.7365e-05 | 1.7365e-05 | 1.7365e-05 |   0.0 |  0.00
Modify  | 0.12647    | 0.12647    | 0.12647    |   0.0 |  1.05
Other   |            | 0.02346    |            |       |  0.19

Nlocal:            900 ave         900 max         900 min
Histogram: 1 0 0 0 0 0 0 0 0 0
Nghost:           2787 ave        2787 max        2787 min
Histogram: 1 0 0 0 0 0 0 0 0 0
Neighs:              0 ave           0 max           0 min
Histogram: 1 0 0 0 0 0 0 0 0 0
FullNghs:        99218 ave       99218 max       99218 min
Histogram: 1 0 0 0 0 0 0 0 0 0

Total # of neighbors = 99218
Ave neighs/atom = 110.24222
Neighbor list builds = 2000
Dangerous builds not checked
unfix           equil

## nvt-equal
reset_timestep  0
fix             equil all nvt temp ${temp} ${temp} ${temp_damp}
fix             equil all nvt temp 500 ${temp} ${temp_damp}
fix             equil all nvt temp 500 500 ${temp_damp}
fix             equil all nvt temp 500 500 0.2
fix             com all recenter INIT INIT INIT

## thermo_style
thermo_style    custom step time temp ke etotal press
thermo          ${thermo_freq}
thermo          100
thermo_modify   flush yes
dump            1 all custom ${dump_freq} dump.lammpstraj id type x y z
dump            1 all custom 100 dump.lammpstraj id type x y z
run             500000
Generated 0 of 6 mixed pair_coeff terms from geometric mixing rule
Per MPI rank memory allocation (min/avg/max) = 4.341 | 4.341 | 4.341 Mbytes
   Step          Time           Temp          KinEng         TotEng         Press     
         0   0              479.9422       55.771621      307.30102      13406.198    
       100   0.2            499.33171      58.024776      309.2014       14142.553    
       200   0.4            505.81507      58.778174      312.25611      15098.137    
       300   0.6            515.659        59.922087      312.26425      13805.329    
       400   0.8            503.38315      58.495574      310.86098      14034.061    
       500   1              497.08169      57.763314      309.25298      13176.204    
       600   1.2            492.42456      57.222132      308.37397      14456.184    
       700   1.4            494.87915      57.507367      308.17053      16115.952    
       800   1.6            495.96888      57.634         309.58889      13620.701    
       900   1.8            507.98076      59.029838      311.81091      15637.548    
      1000   2              506.69333      58.880232      312.56016      13845.22     
      1100   2.2            511.25201      59.409974      310.73724      13893.359    
      1200   2.4            473.60283      55.034956      307.31587      15708.032    
      1300   2.6            507.17412      58.936103      307.49939      11754.004    
      1400   2.8            500.72293      58.186443      309.22092      14639.542    
      1500   3              497.36951      57.79676       310.56332      15172.551    
      1600   3.2            501.99465      58.334224      310.66926      12435.37     
      1700   3.4            499.44371      58.037791      309.9423       15321.042    
      1800   3.6            496.37106      57.680735      309.40782      14913.901    
      1900   3.8            471.49777      54.790337      307.83324      12943.172    
      2000   4              494.68739      57.485084      306.81567      14948.936    
      2100   4.2            496.52041      57.69809       309.04724      15440.264    
      2200   4.4            517.59476      60.147032      312.07344      14073.023    
      2300   4.6            502.18891      58.356797      312.31819      14497.127    
      2400   4.8            505.39435      58.729285      310.77741      14983.341    
      2500   5              484.24746      56.271913      307.06161      12983.417    
      2600   5.2            486.92131      56.582628      306.83786      13848        
      2700   5.4            474.72163      55.164966      308.34106      14936.007    
      2800   5.6            498.20728      57.894112      310.48807      14663.551    
      2900   5.8            511.31272      59.417028      311.66801      13912.141    
      3000   6              503.72434      58.535221      310.7598       15103.001    
      3100   6.2            482.07328      56.019264      306.73582      14452.105    
      3200   6.4            482.07865      56.019887      307.07654      13462.949    
      3300   6.6            493.22547      57.315202      309.62474      14092.827    
      3400   6.8            496.15253      57.655341      310.89143      14490.632    
      3500   7              487.20936      56.616101      311.18689      14824.295    
      3600   7.2            486.98315      56.589814      310.80974      13355.578    
      3700   7.4            479.62964      55.7353        308.84701      15594.417    
      3800   7.6            472.45867      54.901999      304.42459      14122.355    
      3900   7.8            480.71408      55.861317      304.97145      13688.122    
      4000   8              484.56201      56.308466      307.74777      14709.482    
      4100   8.2            504.93906      58.676378      309.74727      12975.698    
      4200   8.4            504.3106       58.603348      311.47923      14030.792    
      4300   8.6            501.90031      58.32326       312.05485      15037.97     
      4400   8.8            485.44293      56.410832      310.119        14997.543    
      4500   9              503.05842      58.457838      307.03015      14918.852    
      4600   9.2            480.39033      55.823697      307.31323      14094.607    
      4700   9.4            504.37222      58.610508      310.61901      15077.916    
      4800   9.6            521.27371      60.574544      311.88615      16526.735    
      4900   9.8            496.00766      57.638506      311.13394      13669.45     
      5000   10             502.51346      58.394511      309.69161      16632.794    
      5100   10.2           490.07343      56.948919      308.05421      14468.045    
      5200   10.4           472.84589      54.946996      305.08159      14826.576    
      5300   10.6           471.772        54.822204      304.27541      14804.929    
      5400   10.8           487.72913      56.6765        308.44411      15665.317    
      5500   11             504.95837      58.678622      310.10287      14306.865    
      5600   11.2           504.05925      58.57414       309.8785       15103.628    
      5700   11.4           503.9898       58.566069      309.11271      16805.461    
      5800   11.6           485.44633      56.411228      307.15057      14440.622    
      5900   11.8           478.16728      55.565366      305.87123      15255.724    
      6000   12             483.25596      56.156697      307.50682      13637.565    
      6100   12.2           511.84273      59.478618      311.29655      15168.954    
      6200   12.4           510.78603      59.355824      311.94752      15370.576    
      6300   12.6           501.70306      58.300339      310.19726      15598.981    
      6400   12.8           498.79362      57.962248      307.11745      13887.964    
      6500   13             507.40021      58.962376      306.95237      16238.535    
      6600   13.2           511.60489      59.45098       307.62636      13439.254    
      6700   13.4           506.88839      58.9029        308.31643      15519.009    
      6800   13.6           495.95706      57.632626      309.99753      15516.555    
      6900   13.8           504.0789       58.576423      312.73386      15335.943    
      7000   14             497.02413      57.756624      314.58596      17099.946    
      7100   14.2           509.95356      59.259088      314.08508      15320.66     
      7200   14.4           492.43756      57.223643      309.96198      15600.883    
      7300   14.6           480.03053      55.781886      307.92438      15641.415    
      7400   14.8           481.57388      55.961231      308.20187      15127.965    
      7500   15             494.43015      57.455191      310.64768      17003.278    
      7600   15.2           522.24067      60.686909      313.23428      14119.244    
      7700   15.4           504.94748      58.677357      313.36332      15536.716    
      7800   15.6           509.57905      59.215567      308.29172      15188.807    
      7900   15.8           491.67649      57.135203      306.78804      13090.085    
      8000   16             497.52421      57.814737      308.70594      16080.019    
      8100   16.2           488.14021      56.72427       311.39634      13857.63     
      8200   16.4           504.25203      58.596541      312.72593      15067.414    
      8300   16.6           511.235        59.407997      311.45995      14092.464    
      8400   16.8           498.79921      57.962898      307.618        16344.483    
      8500   17             491.62232      57.128908      305.46617      12490.39     
      8600   17.2           496.32422      57.675292      307.47147      15761.348    
      8700   17.4           503.29247      58.485036      310.0815       15599.534    
      8800   17.6           505.34485      58.723533      311.54055      13003.695    
      8900   17.8           499.18954      58.008256      311.06544      14674.816    
      9000   18             506.35824      58.841294      307.36384      14352.898    
      9100   18.2           495.32963      57.559716      305.75347      14609.226    
      9200   18.4           472.19249      54.871067      307.32017      14875.888    
      9300   18.6           494.61256      57.476389      309.03309      15999.066    
      9400   18.8           506.44714      58.851624      309.34919      14549.294    
      9500   19             503.59729      58.520457      309.57074      14185.114    
      9600   19.2           504.18797      58.589097      310.06178      14414.028    
      9700   19.4           508.82618      59.12808       312.14217      16168.394    
      9800   19.6           505.66963      58.761273      313.15801      14749.791    
      9900   19.8           491.40609      57.103781      310.58917      14693.854    
     10000   20             501.2185       58.24403       307.82834      14512.353    
     10100   20.2           487.92151      56.698855      307.96913      13572.118    
     10200   20.4           502.65434      58.410882      309.64765      14912.35     
     10300   20.6           502.99453      58.450415      312.31868      14022.456    
     10400   20.8           526.22273      61.149644      316.11935      15636.329    
     10500   21             524.62754      60.964275      314.38171      15876.53     
     10600   21.2           483.57054      56.193251      311.85728      14007.258    
     10700   21.4           500.63854      58.176637      309.71404      14780.477    
     10800   21.6           486.60629      56.546021      308.84657      12636.595    
     10900   21.8           510.72758      59.349032      309.60603      13558.082    
     11000   22             516.14797      59.978908      313.30738      15526.209    
     11100   22.2           522.39898      60.705306      314.88436      15322.217    
     11200   22.4           501.03477      58.222681      312.32329      15470.347    
     11300   22.6           496.48596      57.694086      309.81038      14969.77     
     11400   22.8           498.07163      57.878349      309.25155      15089.705    
     11500   23             502.88247      58.437392      309.07252      13355.592    
     11600   23.2           502.27411      58.366697      309.99643      14312.721    
     11700   23.4           510.91111      59.370359      313.24022      14603.434    
     11800   23.6           516.64566      60.036742      314.5952       15908.486    
     11900   23.8           499.48228      58.042273      311.04593      15802.975    
     12000   24             496.09544      57.648706      309.3127       13835.96     
     12100   24.2           491.54429      57.11984       309.20998      15910.662    
     12200   24.4           517.49835      60.135829      310.77278      14254.465    
     12300   24.6           521.30358      60.578014      312.84958      14868.328    
     12400   24.8           529.78181      61.563226      314.58326      15002.129    
     12500   25             512.9499       59.607277      311.92613      16068.499    
     12600   25.2           494.52493      57.466205      309.05869      14182.289    
     12700   25.4           474.6504       55.156688      308.03132      15263.1      
     12800   25.6           479.12148      55.676249      308.71315      15637.972    
     12900   25.8           504.85418      58.666515      312.48934      15747.722    
     13000   26             518.92547      60.301667      314.01613      15419.209    
     13100   26.2           505.27677      58.715622      312.21103      15969.668    
     13200   26.4           509.49165      59.205411      310.80497      14286.187    
     13300   26.6           488.03192      56.711686      309.41765      15574.517    
     13400   26.8           496.9858       57.752171      308.44579      15473.426    
     13500   27             504.75118      58.654545      308.24976      16494.323    
     13600   27.2           504.70576      58.649267      310.92868      14767.954    
     13700   27.4           546.27822      63.48019       313.27839      15033.313    
     13800   27.6           509.95163      59.258863      311.8201       16062.298    
     13900   27.8           495.76932      57.61081       308.06696      13541.576    
     14000   28             518.41568      60.242427      308.06162      14719.503    
     14100   28.2           487.03896      56.596299      308.75307      15584.93     
     14200   28.4           495.76425      57.610221      310.51401      14349.988    
     14300   28.6           509.2944       59.18249       313.75896      15296.723    
     14400   28.8           546.04541      63.453136      315.67213      16478.636    
     14500   29             508.5602       59.097172      312.03068      15370.487    
     14600   29.2           491.6538       57.132567      308.9399       15234.957    
     14700   29.4           501.08416      58.22842       308.58567      14379.66     
     14800   29.6           504.85062      58.6661        309.73221      15448.833    
     14900   29.8           504.12072      58.581283      312.18539      14119.106    
     15000   30             524.21079      60.915847      313.5933       15127.136    
     15100   30.2           499.82926      58.082595      310.45617      16469.806    
     15200   30.4           487.91258      56.697818      307.24467      15854.639    
     15300   30.6           492.53612      57.235096      307.02625      14775.173    
     15400   30.8           508.07215      59.040458      309.13769      14684.189    
     15500   31             513.63872      59.687321      312.04192      16326.807    
     15600   31.2           504.5117       58.626717      311.57754      13873.87     
     15700   31.4           500.08207      58.111972      310.40605      14818.947    
     15800   31.6           502.21795      58.360171      309.40415      14109.423    
     15900   31.8           488.71952      56.791589      308.67228      12626.619    
     16000   32             506.17171      58.819618      308.77263      15114.032    
     16100   32.2           507.95193      59.026488      311.76126      15322.575    
     16200   32.4           513.26473      59.643861      313.60761      15348.178    
     16300   32.6           513.76271      59.70173       312.21212      15308.348    
     16400   32.8           506.1813       58.820732      308.57105      15290.588    
     16500   33             495.10839      57.534006      307.8368       13799.255    
     16600   33.2           496.14464      57.654423      308.6968       13522.661    
     16700   33.4           520.58525      60.494541      311.44707      15763.792    
     16800   33.6           522.79735      60.751598      313.06332      15191.847    
     16900   33.8           512.18993      59.518965      309.74662      15794.251    
     17000   34             480.74883      55.865355      306.59143      14823.442    
     17100   34.2           491.46534      57.110666      307.62501      14572.588    
     17200   34.4           478.50608      55.604737      310.25721      16736.146    
     17300   34.6           520.21631      60.451668      312.61008      15088.475    
     17400   34.8           507.48036      58.971689      312.00876      15378.87     
     17500   35             511.2872       59.414063      309.99005      16542.006    
     17600   35.2           506.28266      58.832511      308.02924      14375.304    
     17700   35.4           483.6265       56.199754      308.26631      14534.227    
     17800   35.6           488.67253      56.786128      309.58993      15438.979    
     17900   35.8           510.69375      59.345101      311.67712      15254.494    
     18000   36             511.58532      59.448706      312.01486      14851.108    
     18100   36.2           497.31192      57.790067      308.7243       15641.919    
     18200   36.4           480.03332      55.78221       307.0857       13869.721    
     18300   36.6           480.84058      55.876017      308.11487      17456.033    
     18400   36.8           481.89016      55.997983      309.63046      14452.291    
     18500   37             487.71854      56.67527       310.40424      13599.836    
     18600   37.2           509.04896      59.153968      310.61081      16420.104    
     18700   37.4           492.94138      57.282189      310.32071      14267.162    
     18800   37.6           475.64405      55.272155      306.76001      15082.128    
     18900   37.8           473.8595       55.064781      304.74723      14862.114    
     19000   38             485.17566      56.379775      306.80748      15754.198    
     19100   38.2           491.51529      57.11647       309.8878       14075.619    
     19200   38.4           503.17872      58.471818      310.6116       14520.239    
     19300   38.6           507.98004      59.029755      310.4427       16418.515    
     19400   38.8           498.36356      57.912273      307.82186      12982.667    
     19500   39             474.65136      55.1568        305.30331      13939.605    
     19600   39.2           493.28076      57.321627      307.14215      13619.599    
     19700   39.4           498.18212      57.891189      309.60398      12705.076    
     19800   39.6           494.34038      57.444759      310.33184      15159.888    
     19900   39.8           523.25404      60.804668      310.52401      12876.983    
     20000   40             491.62287      57.128972      308.28328      12900.097    
     20100   40.2           477.35222      55.470652      305.96049      15055.442    
     20200   40.4           475.73245      55.282428      307.10881      14386.952    
     20300   40.6           497.25829      57.783835      311.82541      14250.421    
     20400   40.8           505.08859      58.693754      311.90549      14656.812    
     20500   41             503.03819      58.455487      309.40586      13101.485    
     20600   41.2           488.31854      56.744993      307.49805      17210.336    
     20700   41.4           481.99531      56.010202      308.11776      14202.172    
     20800   41.6           524.42723      60.940998      312.7273       15775.964    
     20900   41.8           505.27965      58.715956      313.97924      15193.524    
     21000   42             501.19273      58.241037      312.03256      14142.84     
     21100   42.2           498.50247      57.928414      309.43336      13125.449    
     21200   42.4           485.73946      56.445291      308.5749       14572.552    
     21300   42.6           496.88348      57.740281      310.41661      15645.588    
     21400   42.8           504.82202      58.662777      314.59558      16670.015    
     21500   43             541.14895      62.884144      314.00256      14340.803    
     21600   43.2           511.93921      59.489829      311.54364      13561.045    
     21700   43.4           507.93822      59.024896      309.98907      16495.805    
     21800   43.6           488.54151      56.770903      308.93509      14233.345    
     21900   43.8           485.40547      56.406479      308.36734      14747.007    
     22000   44             495.24619      57.55002       309.93911      13880.759    
     22100   44.2           528.97714      61.46972       313.13087      15003.147    
     22200   44.4           525.6924       61.088017      312.94083      16393.987    
     22300   44.6           498.81021      57.964176      309.49998      14550.397    
     22400   44.8           482.3095       56.046713      308.01555      16245.084    
     22500   45             497.62065      57.825943      309.01653      14618.714    
     22600   45.2           507.95752      59.027138      310.81907      15722.312    
     22700   45.4           500.4933       58.159759      312.05294      15131.556    
     22800   45.6           499.70024      58.067601      310.84158      14268.741    
     22900   45.8           502.92172      58.441954      306.89339      15194.844    
     23000   46             477.56058      55.494865      307.1223       13296.847    
     23100   46.2           509.09203      59.158974      310.43781      14560.67     
     23200   46.4           511.11728      59.394318      312.41155      13176.159    
     23300   46.6           507.46187      58.96954       312.75324      14934.865    
     23400   46.8           494.25233      57.434528      310.22824      13561.487    
     23500   47             501.66695      58.296143      306.78095      13376.469    
     23600   47.2           492.56804      57.238805      307.59581      15453.513    
     23700   47.4           496.864        57.738017      309.45844      13531.863    
     23800   47.6           505.91001      58.789207      310.94581      14700.632    
     23900   47.8           505.82595      58.779439      311.66818      14912.889    
     24000   48             510.58667      59.332658      311.08558      12272.45     
     24100   48.2           488.46041      56.761478      308.0743       12233.702    
     24200   48.4           486.72277      56.559556      306.90218      15592.166    
     24300   48.6           492.3169       57.209622      309.15351      12467.038    
     24400   48.8           498.63804      57.944169      311.85484      14031.688    
     24500   49             513.43317      59.663435      312.00486      15268.07     
     24600   49.2           484.64075      56.317615      310.50243      12477.743    
     24700   49.4           498.88861      57.973287      308.78525      13076.788    
     24800   49.6           471.50051      54.790656      306.06616      14667.948    
     24900   49.8           475.93908      55.306439      303.07572      12911.308    
     25000   50             477.34702      55.470049      306.32357      14259.795    
     25100   50.2           502.4904       58.391832      309.21444      16021.23     
     25200   50.4           487.82404      56.687529      311.20397      15638.793    
     25300   50.6           520.53029      60.488155      312.69421      14528.927    
     25400   50.8           506.95533      58.910679      312.40894      18404.61     
     25500   51             487.7561       56.679634      308.48925      14785.592    
     25600   51.2           480.27574      55.81038       307.60266      14715.735    
     25700   51.4           501.23977      58.246502      309.01338      16364.438    
     25800   51.6           509.41554      59.196566      312.94074      16241.342    
     25900   51.8           521.31932      60.579844      314.79012      15637.943    
     26000   52             520.70785      60.508788      313.5001       14235.239    
     26100   52.2           513.72487      59.697332      311.50385      15594.669    
     26200   52.4           493.66213      57.365944      309.51269      13904.154    
     26300   52.6           498.63903      57.944284      308.58105      15467.06     
     26400   52.8           483.12475      56.141449      309.46463      14677.243    
     26500   53             489.81653      56.919066      312.89741      15356.51     
     26600   53.2           512.51289      59.556494      313.84312      15235.837    
     26700   53.4           488.25334      56.737416      310.73872      16064.039    
     26800   53.6           497.46242      57.807556      308.68977      14036.684    
     26900   53.8           494.77224      57.494944      308.94291      16643.282    
     27000   54             485.67051      56.437279      309.24437      15472.779    
     27100   54.2           495.49973      57.579482      311.55439      15202.626    
     27200   54.4           541.95741      62.97809       315.74907      15913.934    
     27300   54.6           508.59915      59.101698      314.40163      14531.906    
     27400   54.8           502.35588      58.3762        311.88331      15174.329    
     27500   55             496.12175      57.651764      310.41795      16043.902    
     27600   55.2           491.46867      57.111053      309.76142      15515.783    
     27700   55.4           504.35447      58.608445      310.38159      16399.53     
     27800   55.6           525.86319      61.107863      312.47722      17505.168    
     27900   55.8           513.14012      59.629381      312.76313      15733.796    
     28000   56             513.70621      59.695163      309.62651      15172.117    
     28100   56.2           478.18104      55.566966      307.56118      16493.525    
     28200   56.4           505.04745      58.688973      308.47583      14371.594    
     28300   56.6           505.1922       58.705794      310.45709      14798.481    
     28400   56.8           509.93009      59.25636       311.306        14437.811    
     28500   57             500.14843      58.119684      310.88559      13395.826    
     28600   57.2           500.3965       58.14851       309.78986      13491.52     
     28700   57.4           517.18486      60.0994        309.28231      13460.321    
     28800   57.6           499.84465      58.084383      309.2003       14897.484    
     28900   57.8           508.56629      59.097879      311.00632      14556.009    
     29000   58             504.66849      58.644937      313.32454      14039.422    
     29100   58.2           522.665        60.736218      313.42991      15525.486    
     29200   58.4           490.36231      56.982489      309.01609      17453.872    
     29300   58.6           509.08561      59.158227      307.86431      13517.017    
     29400   58.8           499.33183      58.024791      308.57629      15620.004    
     29500   59             509.10468      59.160443      310.94241      15267.771    
     29600   59.2           519.10553      60.32259       313.66161      14637.669    
     29700   59.4           512.91286      59.602972      311.17853      15745.846    
     29800   59.6           495.33912      57.560819      307.52481      14148.89     
     29900   59.8           488.19753      56.730931      307.76024      15790.216    
     30000   60             501.97586      58.332039      310.10665      15752.772    
     30100   60.2           502.19858      58.357921      312.38612      15275.557    
     30200   60.4           489.98188      56.938281      312.88236      16127.234    
     30300   60.6           509.32169      59.185661      309.88597      14206.007    
     30400   60.8           467.22067      54.293317      306.84705      16560.485    
     30500   61             478.53047      55.607571      308.34034      14609.564    
     30600   61.2           506.11288      58.812782      310.80751      14053.364    
     30700   61.4           501.67692      58.297301      311.87031      16782.591    
     30800   61.6           502.48367      58.391049      311.27945      14910.989    
     30900   61.8           507.04339      58.920912      308.3126       14777.526    
     31000   62             482.47684      56.066159      304.96815      14794.711    
     31100   62.2           487.69616      56.672669      307.10513      14516.233    
     31200   62.4           503.8233       58.546721      309.83578      14876.391    
     31300   62.6           497.11721      57.767441      311.04484      16330.836    
     31400   62.8           507.431        58.965954      311.23687      15498.213    
     31500   63             501.87108      58.319864      308.83891      13018.317    
     31600   63.2           443.66845      51.556435      305.60777      15150.28     
     31700   63.4           482.48694      56.067332      307.00104      15520.255    
     31800   63.6           503.08502      58.460929      309.17907      15088.348    
     31900   63.8           507.19095      58.938059      310.29896      15796.691    
     32000   64             520.51548      60.486434      310.98767      14204.549    
     32100   64.2           504.15176      58.58489       310.55788      14588.645    
     32200   64.4           501.24441      58.247042      309.79647      15489.504    
     32300   64.6           508.08555      59.042015      305.46808      14793.803    
     32400   64.8           501.09514      58.229696      304.89027      14194.901    
     32500   65             502.59794      58.404328      307.84478      15406.543    
     32600   65.2           503.24353      58.47935       310.12697      14094.116    
     32700   65.4           516.17244      59.981752      310.79867      15375.254    
     32800   65.6           511.14197      59.397186      310.74724      14747.894    
     32900   65.8           501.59354      58.287612      309.10152      13127.596    
     33000   66             485.58507      56.42735       305.97978      15566.887    
     33100   66.2           472.29324      54.882775      305.65544      16093.376    
     33200   66.4           489.02586      56.827186      309.43748      13237.975    
     33300   66.6           507.62436      58.988423      310.50104      15820.761    
     33400   66.8           511.06779      59.388566      310.69156      14105.033    
     33500   67             491.5911       57.12528       309.86057      14080.181    
     33600   67.2           502.84299      58.432804      308.53861      15599.463    
     33700   67.4           483.02387      56.129726      307.9561       14027.159    
     33800   67.6           504.66178      58.644157      309.31787      14463.914    
     33900   67.8           505.68961      58.763595      312.38339      15161.324    
     34000   68             522.23595      60.686361      313.66082      15588.255    
     34100   68.2           500.19204      58.124751      312.10216      16238.798    
     34200   68.4           482.61765      56.082522      307.50628      12674.207    
     34300   68.6           481.35186      55.935431      307.42621      15144.894    
     34400   68.8           499.58622      58.054352      309.27638      14852.289    
     34500   69             511.46027      59.434175      311.33624      14452.007    
     34600   69.2           500.31249      58.138748      312.30169      14922.414    
     34700   69.4           516.83016      60.058182      310.08164      14206.168    
     34800   69.6           504.21627      58.592386      306.48586      12518.665    
     34900   69.8           492.87718      57.274729      307.11833      13914.545    
     35000   70             492.36732      57.215481      309.87116      12535.871    
     35100   70.2           498.45398      57.92278       311.29735      15636.329    
     35200   70.4           518.50578      60.252896      310.74076      14175.637    
     35300   70.6           496.05505      57.644012      310.0625       14291.362    
     35400   70.8           497.53002      57.815411      310.34809      13763.033    
     35500   71             489.31624      56.86093       310.31983      14213.514    
     35600   71.2           487.05787      56.598497      310.53933      14196.251    
     35700   71.4           506.01925      58.801902      313.13907      13962.916    
     35800   71.6           519.81666      60.405228      314.45898      15542.864    
     35900   71.8           502.09683      58.346097      310.97748      14821.55     
     36000   72             499.73767      58.071952      308.78136      13803.262    
     36100   72.2           505.77976      58.774072      308.6028       15263.814    
     36200   72.4           497.62575      57.826536      308.0433       15114.92     
     36300   72.6           484.19124      56.26538       307.42609      13298.316    
     36400   72.8           524.50325      60.949832      308.26714      15447.409    
     36500   73             497.49179      57.810969      310.57841      15133.562    
     36600   73.2           538.53103      62.579929      312.63896      14142.745    
     36700   73.4           508.83758      59.129405      311.37927      15248.557    
     36800   73.6           484.12995      56.258258      307.25678      16157.383    
     36900   73.8           473.21588      54.98999       306.85382      14814.801    
     37000   74             489.18209      56.845342      308.38171      14584.667    
     37100   74.2           495.09935      57.532956      309.76117      15366.347    
     37200   74.4           514.04356      59.734365      311.61342      14806.32     
     37300   74.6           538.48687      62.574797      314.97598      15077.159    
     37400   74.8           526.14467      61.140573      314.91098      13819.36     
     37500   75             521.66325      60.619811      310.90168      14114.86     
     37600   75.2           506.34173      58.839375      309.46859      15478.442    
     37700   75.4           506.13723      58.815611      308.77622      11544.308    
     37800   75.6           499.82946      58.082617      308.08887      14030.164    
     37900   75.8           508.23163      59.058991      308.83501      14873.206    
     38000   76             495.51404      57.581145      311.70823      14402.551    
     38100   76.2           523.92657      60.882819      313.2328       13854.333    
     38200   76.4           502.28894      58.368421      310.68434      15974.851    
     38300   76.6           487.48768      56.648442      307.74103      13569.62     
     38400   76.8           499.05984      57.993185      308.21734      14479.281    
     38500   77             503.28344      58.483987      309.62917      15053.65     
     38600   77.2           506.56175      58.864942      311.85548      15953.079    
     38700   77.4           510.87714      59.366412      314.72547      14081.641    
     38800   77.6           536.1986       62.308889      315.91231      16356.708    
     38900   77.8           495.29298      57.555457      311.03672      16842.987    
     39000   78             490.40743      56.987731      308.56988      14346.386    
     39100   78.2           509.28223      59.181075      307.73951      16269.607    
     39200   78.4           502.52383      58.395716      308.7803       14395.529    
     39300   78.6           514.76301      59.817969      311.95898      15831.799    
     39400   78.8           502.58402      58.402711      312.67333      15390.697    
     39500   79             493.33208      57.32759       310.15059      14993.363    
     39600   79.2           487.81792      56.686818      306.33868      15355.147    
     39700   79.4           507.12025      58.929843      306.93848      14717.291    
     39800   79.6           484.81828      56.338245      309.24839      14682.039    
     39900   79.8           520.64391      60.501358      311.41145      14114.28     
     40000   80             506.49973      58.857736      311.21322      13655.735    
     40100   80.2           510.21294      59.289228      309.11124      15246.433    
     40200   80.4           475.30772      55.233072      304.91394      12933.455    
     40300   80.6           492.90283      57.27771       306.01707      16827.723    
     40400   80.8           493.68805      57.368956      308.60101      15608.176    
     40500   81             502.02364      58.337592      309.97524      13682.333    
     40600   81.2           500.1044       58.114566      309.64957      16032.817    
     40700   81.4           506.17867      58.820427      308.78621      15113.973    
     40800   81.6           493.68027      57.368052      306.86677      14405.269    
     40900   81.8           467.50123      54.32592       305.60449      17319.105    
     41000   82             493.85021      57.3878        308.43344      12698.287    
     41100   82.2           499.56155      58.051485      311.03817      14915.757    
     41200   82.4           499.77909      58.076764      311.26292      16907.629    
     41300   82.6           498.63251      57.943527      310.27842      12696.49     
     41400   82.8           495.97149      57.634302      306.97368      12594.056    
     41500   83             464.64206      53.993671      305.09944      14805.87     
     41600   83.2           479.99377      55.777613      307.69103      14328.736    
     41700   83.4           490.50931      56.999571      309.93601      13819.08     
     41800   83.6           497.81512      57.848541      310.45584      14903.022    
     41900   83.8           495.37164      57.564597      310.3771       13782.359    
     42000   84             505.86636      58.784134      311.24047      13968.668    
     42100   84.2           504.15152      58.584862      313.71149      16548.583    
     42200   84.4           521.58664      60.610908      314.09943      14367.295    
     42300   84.6           504.39757      58.613454      310.13178      14561.687    
     42400   84.8           494.88831      57.508432      308.66299      16122.316    
     42500   85             480.98187      55.892435      308.93473      12438.648    
     42600   85.2           493.50083      57.3472        310.80794      14561.921    
     42700   85.4           531.31453      61.741337      314.80774      15461.938    
     42800   85.6           527.84908      61.338634      315.61067      13289.969    
     42900   85.8           510.80936      59.358535      312.92333      15157.777    
     43000   86             519.11584      60.323789      311.42758      15063.838    
     43100   86.2           486.68595      56.555277      309.54353      13452.104    
     43200   86.4           494.77863      57.495686      308.13821      14453.04     
     43300   86.6           490.21715      56.96562       309.20306      15047.753    
     43400   86.8           510.5702       59.330743      313.2163       13911.744    
     43500   87             526.62784      61.19672       313.71106      16707.435    
     43600   87.2           512.47288      59.551845      312.00687      13716.271    
     43700   87.4           485.21029      56.383799      310.25765      14803.998    
     43800   87.6           498.83644      57.967224      309.49791      15758.023    
     43900   87.8           503.34827      58.49152       309.68403      13837.633    
     44000   88             488.95146      56.818541      309.49729      15501.181    
     44100   88.2           506.83772      58.897011      309.92692      15785.414    
     44200   88.4           493.9453       57.398849      309.6063       16021.365    
     44300   88.6           487.2961       56.626181      309.38215      15924.8      
     44400   88.8           493.53863      57.351592      310.08263      14657.308    
     44500   89             493.99779      57.404949      311.1416       16291.206    
     44600   89.2           516.76443      60.050543      311.69402      15937.613    
     44700   89.4           521.31615      60.579476      310.61452      16125.677    
     44800   89.6           462.21347      53.711456      307.40453      13552.375    
     44900   89.8           474.9817       55.195186      307.01913      15162.095    
     45000   90             496.81845      57.732723      309.84202      14683.941    
     45100   90.2           514.94758      59.839417      313.09379      14513.482    
     45200   90.4           508.33748      59.071291      312.23965      14754.871    
     45300   90.6           490.28084      56.973021      310.31225      13886.726    
     45400   90.8           479.54072      55.724967      308.09069      14343.98     
     45500   91             498.99114      57.985201      307.26669      14075.359    
     45600   91.2           514.78296      59.820287      309.64754      15819.677    
     45700   91.4           519.38634      60.355222      313.00137      14562.272    
     45800   91.6           528.85424      61.455439      312.29373      17092.011    
     45900   91.8           505.26003      58.713676      308.77701      16101.845    
     46000   92             494.39237      57.450801      307.62503      11730.973    
     46100   92.2           511.5759       59.447611      308.7436       16387.137    
     46200   92.4           493.2727       57.32069       310.1777       14516.582    
     46300   92.6           507.52018      58.976317      312.66091      15652.072    
     46400   92.8           518.33684      60.233266      317.22435      16943.243    
     46500   93             526.87422      61.22535       316.33356      15795.814    
     46600   93.2           507.0785       58.924991      313.64886      15131.533    
     46700   93.4           482.60037      56.080514      311.59543      17021.401    
     46800   93.6           498.19062      57.892176      309.32798      12992.082    
     46900   93.8           487.58076      56.659259      307.78461      15174.106    
     47000   94             482.85424      56.110014      308.75264      14976.649    
     47100   94.2           506.54889      58.863448      313.59869      13992.922    
     47200   94.4           508.10792      59.044615      313.33205      16427.487    
     47300   94.6           500.45607      58.155433      310.62312      14035.622    
     47400   94.8           481.59608      55.96381       308.69714      17596.358    
     47500   95             501.15523      58.236679      308.52934      14485.27     
     47600   95.2           500.34885      58.142973      310.01638      17131.327    
     47700   95.4           521.46795      60.597115      314.49092      16148.417    
     47800   95.6           507.21906      58.941325      315.37369      16800.811    
     47900   95.8           513.27987      59.64562       312.9995       14948.492    
     48000   96             499.19413      58.008789      310.32751      16141.256    
     48100   96.2           494.59271      57.474081      308.78289      16940.43     
     48200   96.4           498.29604      57.904426      309.025        14237.64     
     48300   96.6           518.20886      60.218394      311.36213      15820.769    
     48400   96.8           525.27422      61.039423      314.47125      16720.522    
     48500   97             502.23864      58.362576      312.74475      13718.643    
     48600   97.2           503.85721      58.550662      309.9609       17854.427    
     48700   97.4           478.98063      55.659882      309.23091      14786.508    
     48800   97.6           507.44862      58.968001      309.75393      13295.857    
     48900   97.8           501.7469       58.305434      310.4991       15719.761    
     49000   98             521.84983      60.641492      313.29778      15735.68     
     49100   98.2           508.02169      59.034594      313.9503       16886.132    
     49200   98.4           519.7007       60.391752      310.1934       16673.137    
     49300   98.6           486.76734      56.564735      308.10572      12836.913    
     49400   98.8           484.7783       56.333599      308.74557      13620.314    
     49500   99             497.7237       57.837918      311.02218      16999.046    
     49600   99.2           521.5462       60.606208      313.04226      15699.761    
     49700   99.4           519.95743      60.421586      312.5541       15225.745    
     49800   99.6           475.86324      55.297626      307.83276      13681.85     
     49900   99.8           492.09398      57.183717      306.99983      15625.678    
     50000   100            476.15064      55.331024      308.21175      14313.48     
     50100   100.2          490.096        56.951542      311.00369      14170.468    
     50200   100.4          502.85614      58.434332      312.61255      14333.287    
     50300   100.6          535.06483      62.17714       312.54276      14833.194    
     50400   100.8          497.72084      57.837586      307.49183      12627.269    
     50500   101            487.08224      56.601329      307.1992       16821.62     
     50600   101.2          477.64111      55.504223      309.2641       14888.648    
     50700   101.4          496.77795      57.728018      311.78697      15438.444    
     50800   101.6          493.18616      57.310634      312.33923      18137.152    
     50900   101.8          496.59566      57.706834      311.02117      13010.592    
     51000   102            484.13811      56.259206      306.38918      16376.764    
     51100   102.2          482.32048      56.047989      306.79316      14128.247    
     51200   102.4          493.1068       57.301412      309.56517      14681.472    
     51300   102.6          505.6014       58.753345      310.66467      15440.984    
     51400   102.8          498.14543      57.886925      311.6372       14051.024    
     51500   103            503.97443      58.564284      311.18961      16213.676    
     51600   103.2          486.87199      56.576897      306.96764      14403.155    
     51700   103.4          475.31124      55.233481      305.89151      12993.327    
     51800   103.6          505.86958      58.784509      308.53862      14156.423    
     51900   103.8          500.83187      58.199102      310.81967      13737.81     
     52000   104            513.28676      59.646421      311.36353      16066.499    
     52100   104.2          496.24023      57.665531      310.07556      14536.246    
     52200   104.4          482.90598      56.116027      306.74603      15450.318    
     52300   104.6          476.93885      55.422617      304.3763       15342.213    
     52400   104.8          465.61548      54.106786      306.03826      15027.714    
     52500   105            508.0393       59.036641      308.24435      15360.343    
     52600   105.2          497.58366      57.821645      310.56851      15438.181    
     52700   105.4          515.40728      59.892836      312.47097      14847.015    
     52800   105.6          501.61633      58.29026       311.44744      15911.903    
     52900   105.8          479.87546      55.763866      307.32313      15426.501    
     53000   106            478.794        55.638194      306.49713      13989.839    
     53100   106.2          493.19264      57.311386      307.89214      15503.101    
     53200   106.4          514.96764      59.841747      310.36288      15822.197    
     53300   106.6          507.14914      58.9332        311.78079      14330.908    
     53400   106.8          514.05364      59.735536      311.96364      14938.801    
     53500   107            496.63755      57.711702      310.22777      15327.126    
     53600   107.2          486.40512      56.522643      307.21895      14333.219    
     53700   107.4          511.33327      59.419416      307.85216      16017.859    
     53800   107.6          510.79568      59.356946      311.24647      13442.616    
     53900   107.8          493.2047       57.312789      312.71578      11955.617    
     54000   108            506.39255      58.845281      312.48954      14236.081    
     54100   108.2          502.01746      58.336874      310.52644      15429.671    
     54200   108.4          478.93093      55.654106      306.80861      12762.195    
     54300   108.6          463.27939      53.835321      304.56324      14666.704    
     54400   108.8          513.78243      59.704021      309.87022      15905.518    
     54500   109            512.54353      59.560055      312.02756      15918.804    
     54600   109.2          507.87979      59.018106      311.26234      15888.946    
     54700   109.4          482.44701      56.062692      308.42133      14850.938    
     54800   109.6          484.5793       56.310474      307.41545      13238.252    
     54900   109.8          482.26314      56.041326      309.30033      16556.929    
     55000   110            513.28824      59.646594      312.69355      15666.691    
     55100   110.2          493.95979      57.400533      312.39783      14630.508    
     55200   110.4          502.50533      58.393567      311.53429      17187.895    
     55300   110.6          471.01639      54.734399      308.33096      15735.489    
     55400   110.8          480.66184      55.855247      306.43669      16103.894    
     55500   111            502.49659      58.392551      307.77093      16151.321    
     55600   111.2          496.4911       57.694683      309.18318      14011.594    
     55700   111.4          508.86621      59.132732      310.61454      15241.317    
     55800   111.6          499.08443      57.996042      312.2907       14542.27     
     55900   111.8          526.657        61.200108      314.36545      16305.191    
     56000   112            530.02677      61.591692      314.32311      13157.279    
     56100   112.2          497.47244      57.80872       310.35181      14537.486    
     56200   112.4          494.00102      57.405325      308.67892      14725.4      
     56300   112.6          504.4619       58.62093       308.86005      13569.513    
     56400   112.8          504.80422      58.660709      311.1097       13643.616    
     56500   113            522.39818      60.705213      314.68137      13564.655    
     56600   113.2          516.27658      59.993853      313.7267       14558.052    
     56700   113.4          481.08027      55.90387       311.57279      15493.174    
     56800   113.6          495.7514       57.608727      310.55534      14419.079    
     56900   113.8          510.06881      59.27248       309.67947      14866.651    
     57000   114            491.14699      57.073672      308.40932      13985.879    
     57100   114.2          508.40421      59.079045      308.05881      13386.868    
     57200   114.4          498.22744      57.896456      310.32567      14153.325    
     57300   114.6          505.13901      58.699613      312.75125      15446.636    
     57400   114.8          508.2694       59.063379      312.43422      15554.927    
     57500   115            481.55219      55.958709      308.35766      14795.238    
     57600   115.2          487.38335      56.636319      307.58552      13202.209    
     57700   115.4          507.35624      58.957266      308.74861      15183.44     
     57800   115.6          499.48337      58.042401      311.10011      14471.952    
     57900   115.8          517.63986      60.152273      311.90382      15874.977    
     58000   116            512.23309      59.52398       307.86585      14759.025    
     58100   116.2          490.65499      57.0165        305.57826      14126.286    
     58200   116.4          507.11078      58.928742      307.63035      12506.398    
     58300   116.6          485.90663      56.464717      310.36706      14994.6      
     58400   116.8          500.12204      58.116617      312.03532      14894.475    
     58500   117            490.77456      57.030395      312.67576      14606.623    
     58600   117.2          510.27079      59.295951      311.69305      15175.95     
     58700   117.4          475.11163      55.210286      306.82307      14186.854    
     58800   117.6          486.25951      56.505724      306.85274      12648.474    
     58900   117.8          502.41431      58.382989      309.55156      17094.133    
     59000   118            512.04504      59.502127      311.56876      14532.069    
     59100   118.2          503.66789      58.528662      312.45469      13357.21     
     59200   118.4          510.23672      59.291992      311.62875      15414.787    
     59300   118.6          509.20915      59.172583      308.1522       12156.964    
     59400   118.8          469.72475      54.584304      305.17248      13339.792    
     59500   119            492.19426      57.19537       307.35336      13489.545    
     59600   119.2          498.34672      57.910316      310.2587       15697.274    
     59700   119.4          505.12163      58.697594      311.42387      14905.638    
     59800   119.6          502.30732      58.370557      310.3347       15638.386    
     59900   119.8          473.03188      54.968608      307.08705      14963.729    
     60000   120            502.10567      58.347124      305.19466      14463.012    
     60100   120.2          483.68729      56.206818      307.35421      13506.802    
     60200   120.4          496.8386       57.735065      309.08917      15761.413    
     60300   120.6          503.38904      58.496258      309.96505      14696.922    
     60400   120.8          500.19832      58.125481      310.98788      15768.864    
     60500   121            486.3197       56.512717      311.47318      14229.431    
     60600   121.2          509.0915       59.158911      311.43488      14177.733    
     60700   121.4          479.3842       55.706779      309.3889       14307.418    
     60800   121.6          508.42434      59.081385      307.68749      16175.272    
     60900   121.8          486.53503      56.53774       308.17921      14952.74     
     61000   122            520.46128      60.480136      312.09873      16407.888    
     61100   122.2          502.92539      58.44238       313.18972      14520.337    
     61200   122.4          523.92467      60.882598      311.56582      15337.058    
     61300   122.6          490.2242       56.96644       309.7835       16070.953    
     61400   122.8          501.55947      58.283654      309.74064      12590.384    
     61500   123            510.06105      59.271578      310.06135      16003.082    
     61600   123.2          496.22987      57.664328      311.27426      16522        
     61700   123.4          516.20524      59.985564      315.0623       15249.926    
     61800   123.6          522.5764       60.725923      315.3079       15613.756    
     61900   123.8          499.67528      58.064701      310.83305      13923.655    
     62000   124            489.42936      56.874075      309.70778      14501.098    
     62100   124.2          477.96464      55.541819      309.827        16524.014    
     62200   124.4          504.14018      58.583545      311.2143       14884.031    
     62300   124.6          518.30562      60.229637      313.30097      14240.874    
     62400   124.8          517.37517      60.121515      314.19294      15451.015    
     62500   125            494.85753      57.504856      311.45575      15518.671    
     62600   125.2          475.00699      55.198125      308.4949       13674.07     
     62700   125.4          512.50309      59.555355      308.81426      14528.214    
     62800   125.6          484.97805      56.356812      310.53849      17230.963    
     62900   125.8          518.00254      60.194418      314.75668      13124.336    
     63000   126            527.97175      61.352889      314.23615      16052.1      
     63100   126.2          532.96925      61.933623      311.65921      14989.406    
     63200   126.4          489.37907      56.868232      309.61271      14266.366    
     63300   126.6          492.93216      57.281118      309.31724      16427.074    
     63400   126.8          481.01535      55.896327      310.22781      14304.146    
     63500   127            519.22393      60.336349      314.82844      15404.231    
     63600   127.2          509.69797      59.229387      314.39494      15355.416    
     63700   127.4          516.92608      60.069328      311.34622      13830.962    
     63800   127.6          504.7842       58.658382      310.11248      15044.276    
     63900   127.8          490.62263      57.01274       309.70045      14354.551    
     64000   128            496.1399       57.653873      310.56865      16372.527    
     64100   128.2          511.00373      59.381122      313.79372      15845.081    
     64200   128.4          519.79283      60.402458      314.01875      14946.925    
     64300   128.6          489.64718      56.899387      310.4241       14792.333    
     64400   128.8          496.63275      57.711144      308.76732      14967.429    
     64500   129            500.09615      58.113608      309.05027      14001.52     
     64600   129.2          506.39456      58.845514      310.37134      14509.209    
     64700   129.4          505.93465      58.792071      313.23059      14292.958    
     64800   129.6          537.48262      62.458098      316.56437      13860.982    
     64900   129.8          521.19696      60.565625      313.09136      13394.307    
     65000   130            499.49732      58.044021      309.31195      15192.534    
     65100   130.2          483.72613      56.211332      308.81884      14711.245    
     65200   130.4          489.74375      56.910609      309.98561      12709.969    
     65300   130.6          510.65275      59.340336      311.85265      14929.806    
     65400   130.8          515.74052      59.931561      313.38081      16009.733    
     65500   131            490.87039      57.04153       312.04981      11940.427    
     65600   131.2          482.7965       56.103305      308.09005      15055.054    
     65700   131.4          486.72003      56.559238      307.41552      13089.859    
     65800   131.6          498.18531      57.891559      309.15092      13598.912    
     65900   131.8          513.5372       59.675523      312.18257      14460.217    
     66000   132            514.95382      59.840141      313.26964      13555.543    
     66100   132.2          517.91349      60.18407       311.87846      16181.858    
     66200   132.4          506.99983      58.915849      311.09141      15543.922    
     66300   132.6          508.27734      59.064303      309.99435      14660.53     
     66400   132.8          482.22079      56.036404      308.4698       15456.45     
     66500   133            491.68632      57.136345      308.38928      13748.495    
     66600   133.2          488.2684       56.739166      311.02796      15699.234    
     66700   133.4          499.53341      58.048215      313.59769      15074.475    
     66800   133.6          538.04052      62.522928      312.78008      13846.394    
     66900   133.8          490.82915      57.036738      309.63444      15299.646    
     67000   134            520.56633      60.492342      309.76157      13993.469    
     67100   134.2          514.01103      59.730586      310.46086      15720.759    
     67200   134.4          511.33766      59.419926      310.8941       14644.872    
     67300   134.6          493.74023      57.375019      310.08952      14928.748    
     67400   134.8          489.94418      56.9339        307.72588      15638.664    
     67500   135            485.34117      56.399008      306.56393      15307.473    
     67600   135.2          501.09073      58.229183      308.6591       14670.573    
     67700   135.4          497.79732      57.846474      312.09108      15431.117    
     67800   135.6          521.20239      60.566256      312.07875      14974.601    
     67900   135.8          486.04355      56.480628      309.8742       14491.35     
     68000   136            494.81747      57.5002        308.07092      15622.524    
     68100   136.2          480.91537      55.884708      307.48375      13533.341    
     68200   136.4          487.95999      56.703327      310.73049      14694.947    
     68300   136.6          511.32966      59.418997      313.26387      15389.989    
     68400   136.8          515.86154      59.945623      312.28166      14966.302    
     68500   137            486.69764      56.556637      309.32589      14661.211    
     68600   137.2          487.45063      56.644137      308.12225      14007.318    
     68700   137.4          489.70984      56.906669      310.01754      12732.112    
     68800   137.6          504.35476      58.608479      313.71511      14714.196    
     68900   137.8          510.33699      59.303644      313.48835      14813.841    
     69000   138            498.75868      57.958187      311.62294      12854.823    
     69100   138.2          510.13081      59.279685      310.37087      16580.107    
     69200   138.4          494.86412      57.505621      309.00862      12179.914    
     69300   138.6          469.09119      54.510681      307.02714      14699.926    
     69400   138.8          492.80564      57.266415      306.46828      15389.218    
     69500   139            489.87134      56.925436      309.29943      13354.496    
     69600   139.2          511.95539      59.49171       312.00204      14410.291    
     69700   139.4          505.41078      58.731195      312.33218      15015.349    
     69800   139.6          505.63109      58.756795      310.93249      15218.611    
     69900   139.8          496.2235       57.663588      307.58684      14219.874    
     70000   140            478.27388      55.577754      305.59546      14311.854    
     70100   140.2          484.89961      56.347696      308.07807      15684.309    
     70200   140.4          503.9131       58.557156      309.80114      13839.534    
     70300   140.6          495.36533      57.563864      310.93466      16199.806    
     70400   140.8          513.39133      59.658572      312.00633      16093.196    
     70500   141            513.39044      59.65847       314.21357      13730.047    
     70600   141.2          536.52643      62.346984      316.38901      15179.762    
     70700   141.4          505.90903      58.789094      312.97369      13791.721    
     70800   141.6          490.4257       56.989855      310.12615      13959.37     
     70900   141.8          504.05945      58.574163      309.80184      12975.239    
     71000   142            498.36005      57.911865      310.88278      13561.418    
     71100   142.2          494.36462      57.447576      313.81674      14256.121    
     71200   142.4          519.40574      60.357477      315.98738      15404.821    
     71300   142.6          499.25619      58.016001      313.321        14406.612    
     71400   142.8          502.05815      58.341602      311.64898      14829.345    
     71500   143            493.37648      57.332749      310.78072      13646.836    
     71600   143.2          504.57298      58.633838      309.96978      14452.213    
     71700   143.4          478.13845      55.562017      308.64144      14357.128    
     71800   143.6          494.30006      57.440075      308.66823      13777.31     
     71900   143.8          518.13043      60.209279      312.20613      13614.69     
     72000   144            506.61892      58.871586      313.82566      14384.895    
     72100   144.2          502.12977      58.349925      313.32633      13932.419    
     72200   144.4          485.02847      56.362671      309.73334      14244.57     
     72300   144.6          492.6809       57.251921      308.07873      13303.263    
     72400   144.8          474.09202      55.091802      309.5402       15842.135    
     72500   145            510.13388      59.280041      311.69102      13236.664    
     72600   145.2          518.07341      60.202653      312.3121       15044.959    
     72700   145.4          511.19345      59.403169      311.70479      14121.921    
     72800   145.6          488.84608      56.806296      308.26727      14880.86     
     72900   145.8          463.57737      53.869948      305.48876      14384.928    
     73000   146            495.52015      57.581854      308.08863      15280.771    
     73100   146.2          501.85384      58.317861      310.55189      14676.266    
     73200   146.4          497.1952       57.776503      311.81902      14328.655    
     73300   146.6          508.91836      59.138792      310.9162       14919.159    
     73400   146.8          488.72917      56.79271       307.01384      14457.346    
     73500   147            491.60151      57.12649       305.84442      13541.342    
     73600   147.2          490.14817      56.957604      307.4394       13323.904    
     73700   147.4          482.64114      56.085251      309.18957      14356.106    
     73800   147.6          505.87697      58.785368      310.59219      14408.641    
     73900   147.8          494.98153      57.519264      311.54089      13477.408    
     74000   148            512.91674      59.603423      311.13418      14882.478    
     74100   148.2          485.75171      56.446715      308.28833      14154.502    
     74200   148.4          490.71671      57.023671      306.76621      13584.25     
     74300   148.6          485.9752       56.472685      307.18367      13450.515    
     74400   148.8          504.09691      58.578516      310.95387      14034.577    
     74500   149            503.9751       58.564362      312.49997      13463.67     
     74600   149.2          500.98288      58.216651      311.37974      13132.552    
     74700   149.4          512.03468      59.500924      309.90634      13786.601    
     74800   149.6          504.29888      58.601986      307.36801      15373.001    
     74900   149.8          480.8923       55.882028      303.75417      14980.656    
     75000   150            492.59387      57.241807      305.64028      14617.168    
     75100   150.2          494.01987      57.407515      308.23312      14941.454    
     75200   150.4          498.69275      57.950527      310.26371      14100.672    
     75300   150.6          498.80902      57.964038      311.70709      14240.668    
     75400   150.8          495.83156      57.618042      312.32927      16093.976    
     75500   151            484.48275      56.299255      309.69604      14522.813    
     75600   151.2          494.12527      57.419763      307.20404      13669.325    
     75700   151.4          491.05802      57.063334      308.2794       13625.966    
     75800   151.6          500.47039      58.157097      311.6647       15382.404    
     75900   151.8          506.43349      58.850039      312.03428      15573.146    
     76000   152            508.73362      59.117324      311.4317       13028.519    
     76100   152.2          506.1899       58.821732      310.01902      12601.944    
     76200   152.4          491.29201      57.090524      307.82497      15634.724    
     76300   152.6          473.81665      55.059803      306.09839      12419.705    
     76400   152.8          487.89537      56.695818      308.75717      15392.039    
     76500   153            503.76905      58.540417      312.0766       15155.424    
     76600   153.2          514.75891      59.817493      312.92816      15344.849    
     76700   153.4          508.42374      59.081314      310.92407      13240.099    
     76800   153.6          493.20061      57.312313      308.54216      13806.524    
     76900   153.8          489.12783      56.839036      308.01904      15372.674    
     77000   154            495.65461      57.597479      310.89076      13972.647    
     77100   154.2          507.13503      58.931561      313.97188      15213.388    
     77200   154.4          501.84078      58.316343      312.7861       15790.88     
     77300   154.6          505.82022      58.778774      309.6759       14174.188    
     77400   154.8          507.47614      58.971199      308.52656      14068.208    
     77500   155            483.64981      56.202464      309.06468      15979.315    
     77600   155.2          507.65274      58.991721      310.72048      14649.565    
     77700   155.4          494.97879      57.518947      312.03255      16614.604    
     77800   155.6          483.08736      56.137104      312.07124      14674.902    
     77900   155.8          520.1002       60.438177      311.39228      14376.478    
     78000   156            487.23855      56.619492      310.13282      15854.95     
     78100   156.2          501.14799      58.235837      309.81538      13634.021    
     78200   156.4          484.15992      56.261741      310.29775      13696.33     
     78300   156.6          494.86636      57.505881      312.91621      15531.606    
     78400   156.8          526.02284      61.126416      314.47633      12904.238    
     78500   157            507.32951      58.95416       312.58168      14982.671    
     78600   157.2          486.51045      56.534884      308.76469      14285.313    
     78700   157.4          493.47328      57.343998      308.84688      13984.679    
     78800   157.6          502.01375      58.336443      310.37473      13955.113    
     78900   157.8          495.65969      57.59807       311.8435       15952.059    
     79000   158            502.43891      58.385848      313.95452      13559.152    
     79100   158.2          524.13933      60.907543      317.32029      14414.616    
     79200   158.4          514.69955      59.810594      315.9498       17561.1      
     79300   158.6          489.62938      56.897318      312.02566      12551.901    
     79400   158.8          476.74486      55.400074      310.297        14764.658    
     79500   159            487.68167      56.670986      309.02316      13499.889    
     79600   159.2          472.97479      54.961974      308.75685      14915.811    
     79700   159.4          502.45538      58.387763      311.1562       14812.534    
     79800   159.6          514.39715      59.775455      314.36478      14337.107    
     79900   159.8          508.54464      59.095364      313.69129      14714.598    
     80000   160            494.88789      57.508383      310.57353      13591.589    
     80100   160.2          494.07915      57.414403      309.89321      16747.097    
     80200   160.4          494.81353      57.499742      310.28123      15298.263    
     80300   160.6          502.14815      58.35206       311.34819      16335.424    
     80400   160.8          504.99853      58.683289      313.58281      15341.973    
     80500   161            523.92762      60.882941      315.20954      14702.935    
     80600   161.2          507.82913      59.012219      312.4907       16105.768    
     80700   161.4          485.8782       56.461413      308.99833      15279.42     
     80800   161.6          493.07397      57.297597      308.69142      14579.843    
     80900   161.8          501.6025       58.288654      309.88291      15157.588    
     81000   162            506.18732      58.821432      312.86828      17414.513    
     81100   162.2          506.95324      58.910436      314.6313       14095.878    
     81200   162.4          521.17324      60.562868      312.90249      15567.366    
     81300   162.6          498.09732      57.881334      308.89769      15055.334    
     81400   162.8          472.30831      54.884526      307.79483      13562.382    
     81500   163            482.04322      56.015769      308.4365       12910.935    
     81600   163.2          504.42683      58.616854      311.4216       15546.23     
     81700   163.4          512.95934      59.608374      313.55171      13326.471    
     81800   163.6          507.88786      59.019043      311.6737       13875.546    
     81900   163.8          486.08146      56.485034      307.51671      13914.058    
     82000   164            484.85888      56.342964      308.05983      15480.226    
     82100   164.2          494.0175       57.407239      310.36272      14263.485    
     82200   164.4          532.01732      61.823004      312.19149      13807.242    
     82300   164.6          508.49608      59.089721      312.51952      15822.563    
     82400   164.8          481.24792      55.923352      309.67801      13939.014    
     82500   165            481.09132      55.905155      307.18816      14018.823    
     82600   165.2          503.22415      58.477098      307.54561      14764.656    
     82700   165.4          512.59836      59.566426      310.74508      12318.129    
     82800   165.6          505.02614      58.686497      312.54542      15566.85     
     82900   165.8          505.45274      58.73607       311.88089      14175.29     
     83000   166            480.17408      55.798567      310.4237       12393.979    
     83100   166.2          502.84309      58.432817      310.00367      15482.609    
     83200   166.4          501.77214      58.308367      309.92987      11657.424    
     83300   166.6          507.40185      58.962567      309.82562      14063.794    
     83400   166.8          508.67765      59.110821      309.74378      13548.965    
     83500   167            494.04416      57.410338      309.1323       13802.482    
     83600   167.2          497.82151      57.849283      309.41357      13260.156    
     83700   167.4          501.28882      58.252203      310.79148      14161.146    
     83800   167.6          508.62839      59.105097      312.27707      15915.952    
     83900   167.8          496.28147      57.670324      312.42738      15300.351    
     84000   168            502.8502       58.433643      309.19421      14792.294    
     84100   168.2          478.65934      55.622547      307.37159      15882.779    
     84200   168.4          494.88579      57.50814       308.40503      13487.589    
     84300   168.6          515.8402       59.943143      311.15427      14953.145    
     84400   168.8          522.54495      60.722268      315.12511      14684.731    
     84500   169            509.89043      59.251751      315.08237      14795.112    
     84600   169.2          510.48541      59.320891      313.59956      14705.157    
     84700   169.4          515.19456      59.868117      311.60524      13793.925    
     84800   169.6          500.02982      58.1059        309.17785      12094.361    
     84900   169.8          489.22         56.849747      308.13297      15169.559    
     85000   170            500.89841      58.206835      309.06445      14175.319    
     85100   170.2          525.63329      61.081149      312.59252      15103.062    
     85200   170.4          514.81157      59.823612      313.92659      14842.829    
     85300   170.6          491.38969      57.101875      312.28532      13519.253    
     85400   170.8          490.82705      57.036494      310.69971      15802.847    
     85500   171            495.21061      57.545885      310.32096      13456.252    
     85600   171.2          488.85538      56.807376      310.74761      12583.825    
     85700   171.4          496.69507      57.718387      311.41204      15286.965    
     85800   171.6          517.6741       60.156252      311.77392      13787.559    
     85900   171.8          498.79055      57.961891      310.07672      13260.975    
     86000   172            486.54076      56.538406      307.68887      14780.596    
     86100   172.2          486.73439      56.560907      307.50853      13975.658    
     86200   172.4          503.14753      58.468194      311.3883       15281.463    
     86300   172.6          500.00028      58.102467      312.86708      14334.806    
     86400   172.8          506.94988      58.910046      311.85089      13163.537    
     86500   173            509.93313      59.256714      309.89241      15777.977    
     86600   173.2          492.64868      57.248176      307.62226      11916.835    
     86700   173.4          479.34935      55.702729      307.20258      14788.63     
     86800   173.6          476.86179      55.413663      308.25948      14804.872    
     86900   173.8          493.49906      57.346994      309.66375      14966.523    
     87000   174            500.26403      58.133117      311.30249      14078.807    
[...]
    478600   957.2          522.11926      60.672801      309.7837       13463.962    
    478700   957.4          517.4038       60.124842      311.03924      14379.901    
    478800   957.6          525.44033      61.058725      313.07691      13681.444    
    478900   957.8          524.46946      60.945906      314.0123       14656.291    
    479000   958            479.87887      55.764261      310.47112      14102.185    
    479100   958.2          489.461        56.877752      307.95731      15372.798    
    479200   958.4          500.6809       58.181559      308.01337      15169.855    
    479300   958.6          499.51842      58.046473      310.16895      14286.408    
    479400   958.8          516.22912      59.988337      313.76678      16353.147    
    479500   959            526.98121      61.237783      314.94546      15145.424    
    479600   959.2          494.95836      57.516573      309.28896      13988.206    
    479700   959.4          493.24307      57.317247      308.05434      15371.574    
    479800   959.6          501.54008      58.281399      308.11363      13376.539    
    479900   959.8          499.18509      58.007738      309.39907      16584.931    
    480000   960            497.9732       57.866911      311.50798      16975.934    
    480100   960.2          523.84555      60.873405      312.40844      13817.648    
    480200   960.4          490.61058      57.011338      308.91183      14458.477    
    480300   960.6          494.06456      57.412708      306.58702      13938.328    
    480400   960.8          494.83309      57.502015      307.47255      12610.234    
    480500   961            515.11241      59.85857       309.60906      13737.739    
    480600   961.2          495.43388      57.57183       311.81179      15938.903    
    480700   961.4          529.55697      61.5371        316.21323      13376.28     
    480800   961.6          534.00188      62.053619      315.61581      15729.031    
    480900   961.8          500.58535      58.170456      311.50682      14844.761    
    481000   962            500.28024      58.135001      309.35834      12751.315    
    481100   962.2          498.37201      57.913255      307.81008      16037.65     
    481200   962.4          495.33999      57.56092       307.49195      14502.421    
    481300   962.6          510.32026      59.301699      309.06397      14257.299    
    481400   962.8          516.34502      60.001806      311.86418      15388.569    
    481500   963            525.13609      61.023372      312.92302      15258.027    
    481600   963.2          509.64239      59.222928      308.93849      15653.795    
    481700   963.4          478.19623      55.568731      306.7434       14880.545    
    481800   963.6          491.53811      57.119123      307.28737      14402.949    
    481900   963.8          497.89413      57.857723      309.66454      13366.803    
    482000   964            507.01323      58.917407      312.25361      16868.862    
    482100   964.2          504.54236      58.63028       312.37993      15002.727    
    482200   964.4          513.05598      59.619604      310.2645       13044.635    
    482300   964.6          476.66313      55.390577      304.85402      16938.864    
    482400   964.8          489.79446      56.916502      306.10619      13680.373    
    482500   965            477.7162       55.512949      309.49708      15878.954    
    482600   965.2          521.71338      60.625636      311.72177      14722.516    
    482700   965.4          523.34314      60.815021      311.01791      16891.304    
    482800   965.6          481.08755      55.904717      307.86592      14719.064    
    482900   965.8          496.25187      57.666884      306.92679      13994.047    
    483000   966            497.11003      57.766606      307.91607      13950.53     
    483100   966.2          484.2741       56.275009      308.64469      14337.435    
    483200   966.4          485.08017      56.368678      309.66669      16244.022    
    483300   966.6          517.94813      60.188096      311.28195      15435.758    
    483400   966.8          531.85065      61.803635      312.23543      14849.855    
    483500   967            507.9728       59.028914      311.78548      15653.271    
    483600   967.2          504.54493      58.630578      309.11104      15410.285    
    483700   967.4          485.5954       56.42855       307.37338      15555.717    
    483800   967.6          479.41645      55.710527      308.53082      15780.58     
    483900   967.8          507.32492      58.953626      312.4232       13720.782    
    484000   968            517.19847      60.100982      312.6013       13448.122    
    484100   968.2          513.34345      59.653009      310.8973       16916.724    
    484200   968.4          519.77708      60.400628      309.30809      13725.949    
    484300   968.6          488.98934      56.822943      308.52057      14625.102    
    484400   968.8          496.37345      57.681012      309.37836      16125.001    
    484500   969            507.52982      58.977436      313.42918      13285.807    
    484600   969.2          519.7392       60.396226      314.67161      14125.463    
    484700   969.4          516.66733      60.03926       311.70976      16119.739    
    484800   969.6          485.11615      56.372859      309.65188      12888.457    
    484900   969.8          499.24623      58.014844      309.39574      15547.223    
    485000   970            493.89108      57.392548      309.81508      13143.215    
    485100   970.2          514.93226      59.837636      311.79634      15028.81     
    485200   970.4          523.39469      60.821013      313.72694      15240.646    
    485300   970.6          507.31703      58.95271       313.37182      15092.319    
    485400   970.8          513.34882      59.653633      309.73689      13256.737    
    485500   971            491.8788       57.158712      307.99371      13996.104    
    485600   971.2          497.47238      57.808713      308.83888      15256.289    
    485700   971.4          521.5662       60.608533      311.55524      14438.263    
    485800   971.6          518.76424      60.282932      313.6999       15022.9      
    485900   971.8          483.76585      56.215948      312.13754      15110.162    
    486000   972            479.77846      55.752594      306.78918      13182.013    
    486100   972.2          474.5981       55.150611      305.51039      12799.694    
    486200   972.4          472.90429      54.953782      308.47351      14316.014    
    486300   972.6          496.71158      57.720304      311.58752      15498.816    
    486400   972.8          520.67133      60.504545      312.96795      13705.128    
    486500   973            513.92015      59.720024      311.32493      15717.31     
    486600   973.2          484.81433      56.337786      308.19941      15006.261    
    486700   973.4          482.78277      56.101709      306.94281      15141.86     
    486800   973.6          473.15514      54.982932      308.30315      15317.552    
    486900   973.8          506.2281       58.826171      309.55643      14737.769    
    487000   974            498.82695      57.966121      310.54681      16322.687    
    487100   974.2          493.83873      57.386466      311.74585      13983.011    
    487200   974.4          514.29426      59.763498      314.37894      16601.795    
    487300   974.6          519.91887      60.417104      317.35873      16734.382    
    487400   974.8          536.25544      62.315494      314.20472      14110.791    
    487500   975            493.06921      57.297044      311.1739       15951.288    
    487600   975.2          501.48541      58.275047      310.60341      14658.429    
    487700   975.4          503.67503      58.529492      310.24205      13213.133    
    487800   975.6          506.29425      58.833857      309.53241      15345.455    
    487900   975.8          475.2904       55.231059      308.66846      14348.801    
    488000   976            494.36495      57.447615      309.91816      12598.976    
    488100   976.2          515.88718      59.948603      312.54406      14464.416    
    488200   976.4          505.08215      58.693006      313.68735      15563.829    
    488300   976.6          510.3382       59.303784      311.60997      12827.005    
    488400   976.8          497.01611      57.755692      307.96431      15084.552    
    488500   977            474.88292      55.183708      308.10937      13256.737    
    488600   977.2          490.28739      56.973783      310.20194      14246.579    
    488700   977.4          508.8248       59.12792       312.54288      12880.229    
    488800   977.6          503.38045      58.49526       312.74146      13214.041    
    488900   977.8          492.62106      57.244966      309.26946      13753.023    
    489000   978            491.35266      57.097572      307.58242      13811.607    
    489100   978.2          492.50802      57.231831      309.12043      15378.983    
    489200   978.4          508.73806      59.11784       312.17678      13792.374    
    489300   978.6          514.59751      59.798736      313.14193      15391.325    
    489400   978.8          496.88706      57.740697      311.76957      13830.489    
    489500   979            497.80247      57.847072      307.86459      13776.051    
    489600   979.2          491.18699      57.078321      307.43653      13363.506    
    489700   979.4          495.53775      57.5839        308.76524      15218.219    
    489800   979.6          514.60003      59.799029      310.76094      13214.96     
    489900   979.8          515.70389      59.927304      312.21466      15022.892    
    490000   980            508.96766      59.144521      313.67727      13420.32     
    490100   980.2          513.40257      59.659879      312.53701      15326.801    
    490200   980.4          479.34262      55.701947      309.34678      13581.692    
    490300   980.6          476.46346      55.367374      308.02948      14183.788    
    490400   980.8          485.36069      56.401276      309.326        15300.012    
    490500   981            517.39795      60.124162      313.20384      16848.021    
    490600   981.2          509.11751      59.161934      313.74918      15709.575    
    490700   981.4          514.65416      59.80532       312.01995      15609.029    
    490800   981.6          511.14277      59.397279      310.69945      13890.899    
    490900   981.8          489.20872      56.848436      310.18168      13319.405    
    491000   982            482.5519       56.074881      311.00667      13462.849    
    491100   982.2          506.4819       58.855664      314.65216      14792.198    
    491200   982.4          530.30852      61.624433      316.46308      14313.978    
    491300   982.6          509.9975       59.264193      313.42097      13530.297    
    491400   982.8          503.97789      58.564686      311.13277      15060.737    
    491500   983            508.23508      59.059391      310.28642      13696.558    
    491600   983.2          500.6866       58.182222      309.71873      14658.18     
    491700   983.4          501.91794      58.325309      309.06537      14459.596    
    491800   983.6          506.75907      58.887872      309.55538      12184.789    
    491900   983.8          499.50252      58.044625      311.25993      14322.514    
    492000   984            511.71447      59.463713      312.71665      15550.337    
    492100   984.2          486.4503       56.527894      311.13521      14014.828    
    492200   984.4          469.39734      54.546257      307.70835      15374.912    
    492300   984.6          478.46214      55.599631      307.63622      15426.558    
    492400   984.8          488.61043      56.778912      309.64007      13888.623    
    492500   985            521.78224      60.633638      310.54271      14955.306    
    492600   985.2          484.38928      56.288393      310.68357      13687.893    
    492700   985.4          492.79126      57.264745      310.55061      14449.673    
    492800   985.6          494.19192      57.427508      311.48843      14354.752    
    492900   985.8          506.5083       58.858731      313.89927      13488.189    
    493000   986            504.03506      58.571329      314.84586      13712.403    
    493100   986.2          483.86645      56.227638      311.51833      15237.617    
    493200   986.4          483.89573      56.23104       309.24732      13775.545    
    493300   986.6          502.11584      58.348306      309.34952      16364.104    
    493400   986.8          512.48603      59.553373      310.07733      14594.863    
    493500   987            504.20259      58.590796      311.85468      12422.126    
    493600   987.2          522.10573      60.671229      315.23136      15258.967    
    493700   987.4          498.04364      57.875097      314.20488      15572.875    
    493800   987.6          492.27617      57.204889      310.24255      13116.984    
    493900   987.8          520.70846      60.508859      309.40183      14181.371    
    494000   988            500.77975      58.193045      309.13214      15421.824    
    494100   988.2          493.29943      57.323797      309.58343      13901.447    
    494200   988.4          519.98585      60.424888      311.9488       14693.617    
    494300   988.6          542.67946      63.061997      314.2152       14431.217    
    494400   988.8          497.59534      57.823003      312.91397      14086.539    
    494500   989            497.39911      57.800199      308.84671      16367.55     
    494600   989.2          488.24409      56.736342      308.76683      15571.512    
    494700   989.4          501.25728      58.248538      310.10637      15083.979    
    494800   989.6          492.88538      57.275682      312.66444      14949.17     
    494900   989.8          524.97512      61.004666      313.95286      16501.495    
    495000   990            513.88445      59.715876      312.63912      14236.251    
    495100   990.2          498.01333      57.871575      308.74034      17786.626    
    495200   990.4          490.80333      57.033737      307.52135      14875.966    
    495300   990.6          489.12045      56.838178      308.57001      15479.394    
    495400   990.8          509.79254      59.240376      311.88948      14859.795    
    495500   991            498.57523      57.93687       313.11747      13846.186    
    495600   991.2          491.9632       57.16852       312.15827      13517.956    
    495700   991.4          498.43216      57.920244      310.94002      16098.948    
    495800   991.6          486.55535      56.540102      310.14187      14397.792    
    495900   991.8          490.53796      57.0029        310.02481      14942.014    
    496000   992            508.74796      59.11899       310.78867      15553.907    
    496100   992.2          528.03315      61.360024      313.51469      15142.218    
    496200   992.4          521.9274       60.650506      313.93064      14616.168    
    496300   992.6          503.69185      58.531447      310.67967      15296.847    
    496400   992.8          495.67976      57.600402      308.44241      13449.152    
    496500   993            486.87545      56.577298      308.5736       14933.423    
    496600   993.2          502.21942      58.360343      310.16227      14680.919    
    496700   993.4          522.46582      60.713072      313.72688      16143.231    
    496800   993.6          528.46686      61.410423      314.35461      13902.688    
    496900   993.8          506.52989      58.86124       311.43398      14629.838    
    497000   994            501.847        58.317066      310.6094       15400.164    
    497100   994.2          504.06255      58.574523      308.7782       12300.91     
    497200   994.4          488.58124      56.775519      307.1071       15011.261    
    497300   994.6          493.31003      57.325029      307.24452      15562.718    
    497400   994.8          499.08409      57.996002      310.89131      14548.942    
    497500   995            503.55735      58.515817      312.37526      15782.758    
    497600   995.2          490.21219      56.965045      311.6294       14909.197    
    497700   995.4          497.5907       57.822463      310.02362      15748.644    
    497800   995.6          495.1274       57.536215      308.98059      16017.73     
    497900   995.8          505.48972      58.740367      309.24749      13673.931    
    498000   996            496.04302      57.642614      309.61131      15003.829    
    498100   996.2          506.40992      58.847299      309.81861      14435.778    
    498200   996.4          488.64911      56.783407      308.99361      15290.962    
    498300   996.6          487.3764       56.635512      306.69922      13065.792    
    498400   996.8          481.60871      55.965277      306.57606      15112.096    
    498500   997            500.72493      58.186676      309.87426      14940.371    
    498600   997.2          498.54198      57.933007      312.25824      13349.803    
    498700   997.4          504.99038      58.682341      311.67865      16854.531    
    498800   997.6          504.40463      58.614275      309.63744      13862.556    
    498900   997.8          485.20046      56.382657      307.73317      13284.233    
    499000   998            483.1272       56.141734      307.4063       15392.112    
    499100   998.2          505.55824      58.74833       309.98643      15279.324    
    499200   998.4          526.2071       61.147828      312.4946       14128.635    
    499300   998.6          512.27553      59.528912      312.35134      15796.519    
    499400   998.8          496.11319      57.650769      309.63308      14010.167    
    499500   999            472.87379      54.950237      307.45493      14620.48     
    499600   999.2          511.41907      59.429386      307.82749      14903.887    
    499700   999.4          509.83804      59.245663      311.13702      14724.17     
    499800   999.6          524.88329      60.993995      313.84928      15250.435    
    499900   999.8          483.73889      56.212815      311.63667      15289.648    
    500000   1000           486.59134      56.544283      308.9557       14626.039    
Loop time of 327.802 on 1 procs for 500000 steps with 900 atoms

Performance: 263.574 ns/day, 0.091 hours/ns, 1525.310 timesteps/s
54.4% CPU use with 1 MPI tasks x no OpenMP threads

MPI task timing breakdown:
Section |  min time  |  avg time  |  max time  |%varavg| %total
---------------------------------------------------------------
Pair    | 209.41     | 209.41     | 209.41     |   0.0 | 63.88
Neigh   | 106.23     | 106.23     | 106.23     |   0.0 | 32.41
Comm    | 3.8579     | 3.8579     | 3.8579     |   0.0 |  1.18
Output  | 2.1427     | 2.1427     | 2.1427     |   0.0 |  0.65
Modify  | 5.4788     | 5.4788     | 5.4788     |   0.0 |  1.67
Other   |            | 0.6902     |            |       |  0.21

Nlocal:            900 ave         900 max         900 min
Histogram: 1 0 0 0 0 0 0 0 0 0
Nghost:           2774 ave        2774 max        2774 min
Histogram: 1 0 0 0 0 0 0 0 0 0
Neighs:              0 ave           0 max           0 min
Histogram: 1 0 0 0 0 0 0 0 0 0
FullNghs:        99584 ave       99584 max       99584 min
Histogram: 1 0 0 0 0 0 0 0 0 0

Total # of neighbors = 99584
Ave neighs/atom = 110.64889
Neighbor list builds = 50000
Dangerous builds not checked

Total wall time: 0:05:46
