LAMMPS (23 Jun 2022 - Update 1)
OMP_NUM_THREADS environment is not set. Defaulting to 1 thread. (src/comm.cpp:98)
  using 1 OpenMP thread(s) per MPI task
Loaded 1 plugins from /software/deepmd-kit/2.1.5/gpu/lib/deepmd_lmp
Loaded 0 plugins from 
Reading data file ...
  orthogonal box = (0 0 0) to (26.08221 26.08221 25.1988)
  1 by 1 by 1 MPI processor grid
  reading atoms ...
  900 atoms
  read_data CPU = 0.029 seconds
Summary of lammps deepmd module ...
  >>> Info of deepmd-kit:
  installed to:       /software/deepmd-kit/2.1.5/gpu
  source:             v2.1.5
  source branch:       HEAD
  source commit:      6e3d4a62
  source commit at:   2022-09-23 16:10:28 +0800
  surpport model ver.:1.1 
  build float prec:   double
  build variant:      cuda
  build with tf inc:  /software/deepmd-kit/2.1.5/gpu/include;/software/deepmd-kit/2.1.5/gpu/include
  build with tf lib:  /software/deepmd-kit/2.1.5/gpu/lib/libtensorflow_cc.so;/software/deepmd-kit/2.1.5/gpu/lib/libtensorflow_framework.so
  set tf intra_op_parallelism_threads: 0
  set tf inter_op_parallelism_threads: 0
  >>> Info of lammps module:
  use deepmd-kit at:  /software/deepmd-kit/2.1.5/gpuDeePMD-kit WARNING: Environmental variable TF_INTRA_OP_PARALLELISM_THREADS is not set. Tune TF_INTRA_OP_PARALLELISM_THREADS for the best performance.
DeePMD-kit WARNING: Environmental variable TF_INTER_OP_PARALLELISM_THREADS is not set. Tune TF_INTER_OP_PARALLELISM_THREADS for the best performance.
DeePMD-kit WARNING: Environmental variable OMP_NUM_THREADS is not set. Tune OMP_NUM_THREADS for the best performance.
2023-03-06 17:14:55.106241: I tensorflow/core/platform/cpu_feature_guard.cc:193] This TensorFlow binary is optimized with oneAPI Deep Neural Network Library (oneDNN) to use the following CPU instructions in performance-critical operations:  SSE4.1 SSE4.2 AVX
To enable them in other operations, rebuild TensorFlow with the appropriate compiler flags.
2023-03-06 17:14:55.704418: I tensorflow/core/common_runtime/gpu/gpu_device.cc:1532] Created device /job:localhost/replica:0/task:0/device:GPU:0 with 10059 MB memory:  -> device: 0, name: GeForce GTX 1080 Ti, pci bus id: 0000:04:00.0, compute capability: 6.1
2023-03-06 17:14:55.704717: I tensorflow/core/common_runtime/process_util.cc:146] Creating new thread pool with default inter op setting: 2. Tune using inter_op_parallelism_threads for best performance.
2023-03-06 17:14:55.749317: I tensorflow/compiler/mlir/mlir_graph_optimization_pass.cc:354] MLIR V1 optimization pass is not enabled
  >>> Info of model(s):
  using   1 model(s): model.pb 
  rcut in model:      6
  ntypes in model:    4

CITE-CITE-CITE-CITE-CITE-CITE-CITE-CITE-CITE-CITE-CITE-CITE-CITE

Your simulation uses code contributions which should be cited:
- USER-DEEPMD package:
The log file lists these citations in BibTeX format.

CITE-CITE-CITE-CITE-CITE-CITE-CITE-CITE-CITE-CITE-CITE-CITE-CITE

Generated 0 of 6 mixed pair_coeff terms from geometric mixing rule
Neighbor list info ...
  update every 10 steps, delay 0 steps, check no
  max neighbors/atom: 2000, page size: 100000
  master list distance cutoff = 7
  ghost atom cutoff = 7
  binsize = 3.5, bins = 8 8 8
  1 neighbor lists, perpetual/occasional/extra = 1 0 0
  (1) pair deepmd, perpetual
      attributes: full, newton on
      pair build: full/bin/atomonly
      stencil: full/bin/3d
      bin: standard
Setting up Verlet run ...
  Unit style    : metal
  Current step  : 0
  Time step     : 0.002
Per MPI rank memory allocation (min/avg/max) = 2.658 | 2.658 | 2.658 Mbytes
   Step          Temp          E_pair         E_mol          TotEng         Press     
         0   300           -3887.3361      0             -3852.4746      16807.284    
      2000   303.60818     -3857.5527      0             -3822.272       15675.717    
Loop time of 113.524 on 1 procs for 2000 steps with 900 atoms

Performance: 3.044 ns/day, 7.884 hours/ns, 17.617 timesteps/s
60.8% CPU use with 1 MPI tasks x 1 OpenMP threads

MPI task timing breakdown:
Section |  min time  |  avg time  |  max time  |%varavg| %total
---------------------------------------------------------------
Pair    | 112.38     | 112.38     | 112.38     |   0.0 | 99.00
Neigh   | 1.0311     | 1.0311     | 1.0311     |   0.0 |  0.91
Comm    | 0.04403    | 0.04403    | 0.04403    |   0.0 |  0.04
Output  | 0.00027741 | 0.00027741 | 0.00027741 |   0.0 |  0.00
Modify  | 0.049269   | 0.049269   | 0.049269   |   0.0 |  0.04
Other   |            | 0.01585    |            |       |  0.01

Nlocal:            900 ave         900 max         900 min
Histogram: 1 0 0 0 0 0 0 0 0 0
Nghost:           2509 ave        2509 max        2509 min
Histogram: 1 0 0 0 0 0 0 0 0 0
Neighs:              0 ave           0 max           0 min
Histogram: 1 0 0 0 0 0 0 0 0 0
FullNghs:        67102 ave       67102 max       67102 min
Histogram: 1 0 0 0 0 0 0 0 0 0

Total # of neighbors = 67102
Ave neighs/atom = 74.557778
Neighbor list builds = 200
Dangerous builds not checked
Generated 0 of 6 mixed pair_coeff terms from geometric mixing rule
Setting up Verlet run ...
  Unit style    : metal
  Current step  : 0
  Time step     : 0.002
Per MPI rank memory allocation (min/avg/max) = 3.942 | 3.942 | 3.942 Mbytes
   Step          Time           Temp          KinEng         TotEng         Press     
         0   0              303.60818      35.280749     -3822.272       15675.717    
       100   0.2            304.02115      35.328738     -3823.3771      16901.266    
       200   0.4            301.07313      34.986164     -3825.2039      14912.098    
       300   0.6            280.18054      32.558344     -3825.6218      16596.071    
       400   0.8            307.46633      35.729085     -3824.7571      15803.43     
       500   1              307.29112      35.708724     -3823.8728      16577.468    
       600   1.2            310.40004      36.069997     -3824.6172      15732.248    
       700   1.4            289.74046      33.669252     -3827.6281      15275.515    
       800   1.6            293.0962       34.059206     -3827.5144      15849.936    
       900   1.8            294.35236      34.205178     -3826.1846      16053.621    
      1000   2              307.81776      35.769923     -3824.9003      16604.685    
      1100   2.2            305.87662      35.544353     -3825.1365      15371.107    
      1200   2.4            291.42163      33.864613     -3827.645       16265.449    
      1300   2.6            289.78815      33.674794     -3828.548       15614.773    
      1400   2.8            295.20965      34.3048       -3827.1026      16054.758    
      1500   3              294.75578      34.252058     -3825.8552      14950.12     
      1600   3.2            309.97059      36.020092     -3825.5176      16359.564    
      1700   3.4            301.99683      35.093502     -3826.5088      16167.021    
      1800   3.6            291.55748      33.880399     -3829.1909      17201.91     
      1900   3.8            288.77032      33.556518     -3829.1127      15991.765    
      2000   4              302.44563      35.145655     -3827.7326      17016.456    
      2100   4.2            298.19725      34.651973     -3826.5385      14027.433    
      2200   4.4            294.44923      34.216435     -3826.3468      16989.062    
      2300   4.6            306.17716      35.579277     -3826.3067      15630.604    
      2400   4.8            304.76869      35.415606     -3828.0625      15583.461    
      2500   5              293.18858      34.069941     -3829.368       15832.162    
      2600   5.2            293.46094      34.10159      -3828.7685      15435.583    
      2700   5.4            302.34259      35.133681     -3826.5313      15383.679    
      2800   5.6            307.12095      35.688951     -3826.2966      16654.293    
      2900   5.8            286.70276      33.316258     -3827.0991      16400.051    
      3000   6              289.59837      33.652741     -3828.3028      16571.717    
      3100   6.2            290.36747      33.742114     -3829.6676      15937.1      
      3200   6.4            288.57359      33.533657     -3831.3552      14855.556    
      3300   6.6            292.23769      33.959443     -3830.6844      16263.728    
      3400   6.8            306.78774      35.65023      -3828.0931      16268.62     
      3500   7              307.10043      35.686565     -3827.1183      16706.752    
      3600   7.2            302.2113       35.118425     -3826.7023      14576.914    
      3700   7.4            300.59515      34.930621     -3826.4598      16988.496    
      3800   7.6            306.90562      35.663928     -3827.3761      14424.121    
      3900   7.8            288.15305      33.484787     -3829.3629      16768.57     
      4000   8              302.39248      35.139479     -3829.4952      15083.842    
      4100   8.2            302.1872       35.115625     -3828.135       16863.144    
      4200   8.4            304.36522      35.368721     -3826.2325      14677.779    
      4300   8.6            303.92275      35.317303     -3826.284       16642.654    
      4400   8.8            296.74532      34.483252     -3827.2854      14277.67     
      4500   9              306.55887      35.623634     -3828.4475      16078.627    
      4600   9.2            285.1775       33.139014     -3829.1206      17090.449    
      4700   9.4            303.55092      35.274095     -3827.2813      14286.25     
      4800   9.6            301.26384      35.008325     -3825.5837      16692.979    
      4900   9.8            302.7077       35.176109     -3826.3795      14902.174    
      5000   10             295.75015      34.367608     -3827.9333      14852.51     
      5100   10.2           298.54603      34.692503     -3828.2291      14770.068    
      5200   10.4           304.32755      35.364344     -3827.6265      15825.86     
      5300   10.6           300.77449      34.951461     -3827.1881      15310.48     
      5400   10.8           303.38681      35.255025     -3827.2406      15517.35     
      5500   11             299.66578      34.822624     -3827.3928      16223.747    
      5600   11.2           284.90599      33.107464     -3827.7148      16505.488    
      5700   11.4           296.30661      34.432271     -3828.8562      16106.579    
      5800   11.6           291.72687      33.900083     -3829.5859      16233.891    
      5900   11.8           301.60234      35.047661     -3828.4556      15901.522    
      6000   12             303.15664      35.228278     -3826.5422      17119.414    
      6100   12.2           304.44224      35.377671     -3826.2388      14842.82     
      6200   12.4           294.58331      34.232015     -3826.9         17355.098    
      6300   12.6           289.57163      33.649633     -3828.9223      14353.939    
      6400   12.8           289.43148      33.633348     -3830.2081      15492.77     
      6500   13             294.47101      34.218966     -3829.4019      15946.558    
      6600   13.2           297.81672      34.607754     -3828.4499      14688.113    
      6700   13.4           303.41196      35.257947     -3827.0807      16318.238    
      6800   13.6           298.45838      34.682318     -3826.4716      14716.108    
      6900   13.8           301.76343      35.066381     -3827.0566      16066.215    
      7000   14             284.51182      33.061659     -3829.1898      15372.976    
      7100   14.2           282.25664      32.799596     -3830.571       15340.054    
      7200   14.4           295.32195      34.317849     -3829.2615      14234.936    
      7300   14.6           294.23861      34.191959     -3827.7141      17382.836    
      7400   14.8           294.62359      34.236696     -3827.4115      15299.938    
      7500   15             302.83797      35.191247     -3827.4281      15380.554    
      7600   15.2           297.7352       34.59828      -3826.9438      15185.351    
      7700   15.4           299.85997      34.845188     -3826.0071      15384.262    
      7800   15.6           297.25274      34.542216     -3826.0874      16834.731    
      7900   15.8           309.98587      36.021868     -3827.4962      15838.492    
      8000   16             289.41819      33.631803     -3829.2429      16612.213    
      8100   16.2           289.32089      33.620496     -3829.0872      15991.475    
      8200   16.4           286.04474      33.239792     -3827.6596      15389.398    
      8300   16.6           309.41052      35.955009     -3826.949       15668.632    
      8400   16.8           307.69229      35.755342     -3827.5869      15289.614    
      8500   17             302.04773      35.099417     -3828.3084      15211.025    
      8600   17.2           299.23157      34.772166     -3828.8856      14169.117    
      8700   17.4           290.17628      33.719897     -3828.0929      14763.288    
      8800   17.6           294.626        34.236977     -3826.0648      15140.707    
      8900   17.8           295.58181      34.348046     -3826.0237      13672.298    
      9000   18             291.83922      33.913139     -3827.4108      15912.593    
      9100   18.2           283.62327      32.958405     -3829.357       14956.835    
      9200   18.4           297.08744      34.523008     -3829.4229      15468.152    
      9300   18.6           299.00601      34.745955     -3828.6898      16681.867    
      9400   18.8           301.49355      35.035018     -3827.9025      14512.148    
      9500   19             293.68377      34.127485     -3827.1988      16012.117    
      9600   19.2           301.23114      35.004525     -3825.6882      15133.019    
      9700   19.4           305.11818      35.456219     -3824.0798      13561.826    
      9800   19.6           309.93411      36.015853     -3825.4715      15608.706    
      9900   19.8           298.48538      34.685455     -3827.7385      16779.908    
     10000   20             300.05643      34.868019     -3828.073       13513.167    
     10100   20.2           296.11865      34.41043      -3828.0475      16308.853    
     10200   20.4           321.13655      37.317631     -3826.8166      15791.26     
     10300   20.6           304.99831      35.442289     -3825.5453      14522.737    
     10400   20.8           301.41403      35.025779     -3825.6789      15699.382    
     10500   21             297.63296      34.586399     -3828.2978      16372.84     
     10600   21.2           291.90966      33.921325     -3829.0944      15347.985    
     10700   21.4           289.50029      33.641344     -3828.2996      16231.772    
     10800   21.6           294.05993      34.171197     -3826.6393      15582.215    
     10900   21.8           306.38672      35.603629     -3825.8861      15947.349    
     11000   22             308.81446      35.885745     -3826.5393      14744.77     
     11100   22.2           306.86889      35.65966      -3827.0567      16388.067    
     11200   22.4           299.86486      34.845758     -3827.8152      15608.384    
     11300   22.6           290.93079      33.807575     -3828.1802      16493.681    
     11400   22.8           291.17959      33.836487     -3827.563       14385.235    
     11500   23             311.36148      36.181721     -3825.8071      14628.351    
     11600   23.2           300.37784      34.905368     -3825.4656      15634.21     
     11700   23.4           304.31659      35.36307      -3827.4049      15734.645    
     11800   23.6           292.97243      34.044823     -3828.9493      15452.82     
     11900   23.8           294.7974       34.256894     -3828.3455      16684.896    
     12000   24             301.6875       35.057557     -3827.2522      14187.99     
     12100   24.2           307.63972      35.749234     -3826.3021      15080.683    
     12200   24.4           302.72011      35.177551     -3826.15        15423.834    
     12300   24.6           300.60728      34.93203      -3827.8421      14801.805    
     12400   24.8           294.10382      34.176297     -3829.2161      14015.581    
     12500   25             293.58834      34.116395     -3828.9032      16505.502    
     12600   25.2           299.01768      34.747311     -3827.1299      13918.027    
     12700   25.4           308.2561       35.82086      -3825.7505      15981.395    
     12800   25.6           297.89845      34.617251     -3826.2571      15418.933    
     12900   25.8           305.25068      35.471615     -3827.0212      14326.503    
     13000   26             287.15866      33.369234     -3827.4405      16165.821    
     13100   26.2           295.30173      34.315499     -3827.3712      15528.999    
     13200   26.4           300.42412      34.910746     -3827.3729      15654.094    
     13300   26.6           300.71691      34.94477      -3827.9881      15470.863    
     13400   26.8           301.4051       35.024741     -3829.0698      14404.421    
     13500   27             299.6511       34.820918     -3829.5463      16007.208    
     13600   27.2           300.75908      34.94967      -3828.3732      13727.085    
     13700   27.4           301.59989      35.047377     -3826.3843      15824.724    
     13800   27.6           308.47758      35.846597     -3826.2176      14584.096    
     13900   27.8           292.83091      34.028377     -3827.3111      14612.025    
     14000   28             298.03665      34.63331      -3828.6442      13972.8      
     14100   28.2           284.23748      33.029779     -3831.6378      14296.656    
     14200   28.4           273.94714      31.833992     -3830.9303      14809.496    
     14300   28.6           289.34542      33.623347     -3829.0394      15588.6      
     14400   28.8           285.08831      33.12865      -3827.6036      14452.577    
     14500   29             304.85977      35.42619      -3826.7956      14359.405    
     14600   29.2           315.57193      36.670996     -3826.5438      15024.555    
     14700   29.4           295.57153      34.346851     -3828.1374      14787.605    
     14800   29.6           288.69142      33.547349     -3829.761       15542.994    
     14900   29.8           282.16147      32.788537     -3829.1674      14871.355    
     15000   30             301.57395      35.044361     -3827.2768      16708.06     
     15100   30.2           303.92273      35.317301     -3826.8533      14916.921    
     15200   30.4           300.58085      34.928958     -3827.0961      14761.616    
     15300   30.6           299.4749       34.800442     -3828.0115      16076.088    
     15400   30.8           296.67233      34.47477      -3829.03        14245.288    
     15500   31             282.90568      32.875018     -3831.0708      16161.29     
     15600   31.2           278.04015      32.30962      -3831.0281      14608.072    
     15700   31.4           304.78943      35.418016     -3828.5417      14880.959    
     15800   31.6           301.54002      35.040419     -3827.7921      16340.449    
     15900   31.8           308.95929      35.902574     -3827.6723      16272.216    
     16000   32             295.77789      34.370831     -3827.9594      15541.681    
     16100   32.2           299.95188      34.85587      -3829.1928      16658.98     
     16200   32.4           286.80154      33.327736     -3830.3302      14472.245    
     16300   32.6           280.2714       32.568901     -3829.7729      15756.269    
     16400   32.8           303.01623      35.211961     -3827.257       16469.777    
     16500   33             308.50084      35.8493       -3826.8466      15197.857    
     16600   33.2           294.23259      34.19126      -3827.9662      16102.379    
     16700   33.4           290.37998      33.743567     -3829.4078      15006.333    
     16800   33.6           292.16782      33.951323     -3830.2261      14668.731    
     16900   33.8           297.81673      34.607755     -3830.1301      15696.747    
     17000   34             298.7339       34.714334     -3827.887       15974.49     
     17100   34.2           303.11434      35.223362     -3826.7243      15310.75     
     17200   34.4           302.69803      35.174985     -3826.5493      15490.001    
     17300   34.6           295.63998      34.354806     -3827.8774      15162.034    
     17400   34.8           287.20725      33.374881     -3829.7235      14283.754    
     17500   35             296.25228      34.425958     -3829.5506      16610.212    
     17600   35.2           295.32889      34.318655     -3828.1803      14738.529    
     17700   35.4           300.42158      34.910451     -3827.3508      15869.04     
     17800   35.6           298.26546      34.659899     -3827.4114      17620.293    
     17900   35.8           299.40766      34.792628     -3828.4434      15998.455    
     18000   36             295.77775      34.370815     -3829.4514      15946.414    
     18100   36.2           289.6933       33.663773     -3829.4255      16161.23     
     18200   36.4           296.65774      34.473075     -3827.3727      14862.482    
     18300   36.6           319.2766       37.101496     -3825.9721      15924.977    
     18400   36.8           296.96345      34.5086       -3826.5517      16265.001    
     18500   37             300.89876      34.965901     -3828.5871      15041.369    
     18600   37.2           302.19278      35.116273     -3829.3027      14975.169    
     18700   37.4           289.77915      33.673749     -3829.0128      14507.232    
     18800   37.6           296.21913      34.422106     -3828.1336      16133.062    
     18900   37.8           300.195        34.884121     -3826.8855      15339.715    
     19000   38             323.94969      37.644532     -3825.0385      16357.326    
     19100   38.2           307.18909      35.696868     -3825.7351      16676.078    
     19200   38.4           294.55835      34.229115     -3828.4161      15580.733    
     19300   38.6           296.23644      34.424117     -3828.9682      16176.802    
     19400   38.8           309.49549      35.964883     -3828.3843      16777.926    
     19500   39             312.24998      36.284969     -3826.8895      16656.912    
     19600   39.2           316.17495      36.74107      -3825.6666      17300.849    
     19700   39.4           302.51591      35.153822     -3826.3352      15671.091    
     19800   39.6           300.1649       34.880624     -3829.0378      15338.51     
     19900   39.8           291.69374      33.896233     -3829.3413      15926.129    
     20000   40             295.61139      34.351484     -3828.2052      14904.647    
     20100   40.2           303.5819       35.277695     -3826.6369      15868.288    
     20200   40.4           305.34799      35.482924     -3826.3765      16080.439    
     20300   40.6           297.05072      34.518741     -3829.1377      14101.389    
     20400   40.8           299.30428      34.780615     -3829.9586      15004.666    
     20500   41             292.77181      34.021511     -3828.8768      15021.448    
     20600   41.2           313.16745      36.391582     -3827.2339      15039.999    
     20700   41.4           298.9118       34.735007     -3827.1275      15412.825    
     20800   41.6           291.2477       33.844401     -3828.3367      13981.556    
     20900   41.8           290.3545       33.740607     -3830.8579      15595.466    
     21000   42             300.32267      34.898957     -3830.5925      15403.143    
     21100   42.2           307.72677      35.759349     -3829.1576      14409.79     
     21200   42.4           287.90963      33.456502     -3828.119       16331.001    
     21300   42.6           299.46165      34.798902     -3827.7079      15160.109    
     21400   42.8           285.03325      33.122252     -3827.8143      15857.337    
     21500   43             297.42481      34.562211     -3828.9608      14169.611    
     21600   43.2           289.37229      33.62647      -3830.2961      15449.442    
     21700   43.4           295.6287       34.353495     -3829.3048      15158.736    
     21800   43.6           307.67078      35.752843     -3827.3512      15135.233    
     21900   43.8           307.89644      35.779066     -3826.8726      16095.746    
     22000   44             308.27404      35.822945     -3827.3383      13706.823    
     22100   44.2           289.84902      33.681867     -3828.4133      16151.609    
     22200   44.4           277.96189      32.300525     -3830.6337      15024.242    
     22300   44.6           287.65392      33.426787     -3831.1157      14150.27     
     22400   44.8           311.63553      36.213567     -3828.212       15234.662    
     22500   45             299.74755      34.832125     -3827.5357      17943.796    
     22600   45.2           303.05961      35.217003     -3827.4941      14170.214    
     22700   45.4           299.37743      34.789116     -3827.862       16382.623    
     22800   45.6           299.63002      34.818468     -3828.3443      16374.584    
     22900   45.8           308.94034      35.900372     -3828.989       14910.66     
     23000   46             301.53354      35.039666     -3829.4124      16496.966    
     23100   46.2           310.07632      36.032378     -3828.4473      15912.661    
     23200   46.4           300.09709      34.872744     -3826.4882      14917.81     
     23300   46.6           305.0543       35.448796     -3826.4113      16648.758    
     23400   46.8           306.21945      35.584191     -3827.6507      15489.392    
     23500   47             295.08815      34.290681     -3830.051       15779.142    
     23600   47.2           297.81894      34.608012     -3829.9596      16026.182    
     23700   47.4           302.41206      35.141754     -3828.6691      16097.605    
     23800   47.6           306.03825      35.563136     -3827.5441      15796.644    
     23900   47.8           312.84423      36.354023     -3827.2042      14970.707    
     24000   48             304.77102      35.415877     -3827.8418      15327.653    
     24100   48.2           284.73695      33.087821     -3830.4429      14588.815    
     24200   48.4           296.46268      34.450408     -3830.4292      15601.972    
     24300   48.6           303.34252      35.249878     -3828.5574      15696.351    
     24400   48.8           306.09205      35.569387     -3827.4888      15193.425    
     24500   49             306.71775      35.642097     -3827.5913      16620.431    
     24600   49.2           305.94257      35.552017     -3828.3218      15499.902    
     24700   49.4           286.86219      33.334783     -3830.3986      15784.033    
     24800   49.6           286.50435      33.293201     -3831.3694      16426.417    
     24900   49.8           302.1041       35.105967     -3829.4275      15747.842    
     25000   50             296.92304      34.503904     -3828.4458      16922.272    
     25100   50.2           303.50918      35.269245     -3827.4819      16251.293    
     25200   50.4           308.66869      35.868805     -3826.8826      16249.652    
     25300   50.6           303.48362      35.266275     -3827.4872      17059.816    
     25400   50.8           287.29948      33.385599     -3829.5152      15802.617    
     25500   51             297.00506      34.513435     -3830.2022      17589.092    
     25600   51.2           308.07389      35.799686     -3828.8325      16147.645    
     25700   51.4           303.92943      35.31808      -3826.8238      15136.191    
     25800   51.6           303.78084      35.300813     -3826.9131      17440.463    
     25900   51.8           302.54651      35.157378     -3827.9086      15067.413    
     26000   52             296.03631      34.400861     -3829.0326      14941.772    
     26100   52.2           305.9609       35.554146     -3829.4482      16992.968    
     26200   52.4           299.48307      34.801392     -3828.4832      15195.236    
     26300   52.6           304.36967      35.369238     -3826.7325      16266.02     
     26400   52.8           307.19719      35.697809     -3826.5036      17622.607    
     26500   53             294.68132      34.243404     -3828.3733      16116.844    
     26600   53.2           292.78453      34.022989     -3829.859       16819.821    
     26700   53.4           301.41691      35.026113     -3829.4219      15798.513    
     26800   53.6           298.49463      34.68653      -3828.4368      16270.053    
     26900   53.8           303.50577      35.268849     -3827.5011      17199.884    
     27000   54             295.77911      34.370973     -3827.3145      14976.39     
     27100   54.2           314.5079       36.54735      -3827.7405      17070.102    
     27200   54.4           305.92174      35.549596     -3828.0814      16172.648    
     27300   54.6           297.62788      34.585809     -3828.2288      15038.223    
     27400   54.8           305.06671      35.450238     -3828.1069      15340.569    
     27500   55             304.00235      35.326553     -3828.001       14360.738    
     27600   55.2           307.68008      35.753923     -3827.3893      14623.765    
     27700   55.4           307.00713      35.675724     -3827.1113      16140.048    
     27800   55.6           290.10501      33.711615     -3827.9303      15055.5      
     27900   55.8           283.90807      32.9915       -3829.477       14531.523    
     28000   56             292.13965      33.94805      -3829.9042      15852.705    
     28100   56.2           294.11578      34.177686     -3827.9692      14446.933    
     28200   56.4           315.19841      36.62759      -3826.2696      16174.978    
     28300   56.6           314.18845      36.510228     -3826.9091      15514.294    
     28400   56.8           292.64861      34.007194     -3828.6041      14619.484    
     28500   57             303.83491      35.307096     -3829.1093      16666.287    
     28600   57.2           292.52438      33.992758     -3828.7849      14818.113    
     28700   57.4           301.87162      35.078952     -3828.2983      15350.912    
     28800   57.6           304.42995      35.376243     -3827.8577      16146.66     
     28900   57.8           297.70131      34.594342     -3827.8806      15041.217    
     29000   58             290.29244      33.733395     -3827.8297      16253.055    
     29100   58.2           295.967        34.392807     -3827.9042      15724.599    
     29200   58.4           297.99805      34.628824     -3827.9338      14259.142    
     29300   58.6           299.22819      34.771773     -3827.6557      15886.623    
     29400   58.8           297.16482      34.532        -3826.9282      16203.312    
     29500   59             302.48772      35.150546     -3826.4384      15266.532    
     29600   59.2           312.96417      36.367961     -3826.9455      16200.521    
     29700   59.4           294.61869      34.236126     -3828.8078      15817.423    
     29800   59.6           293.02066      34.050427     -3829.7808      14922.669    
     29900   59.8           303.03626      35.214289     -3828.8771      14828.78     
     30000   60             304.23567      35.353666     -3826.4331      15359.956    
     30100   60.2           299.63658      34.819231     -3826.588       15591.625    
     30200   60.4           302.69832      35.175019     -3827.7452      16254.921    
     30300   60.6           293.86922      34.149035     -3828.987       15609.599    
     30400   60.8           301.03806      34.982088     -3829.1987      15440.079    
     30500   61             314.09712      36.499615     -3826.857       15921.422    
     30600   61.2           314.00339      36.488724     -3825.4647      15113.057    
     30700   61.4           302.00477      35.094425     -3826.842       14555.701    
     30800   61.6           289.61434      33.654597     -3828.2219      16191.575    
     30900   61.8           294.42839      34.214013     -3828.7219      15167.811    
     31000   62             302.0754       35.102633     -3828.439       15435.505    
     31100   62.2           304.7142       35.409274     -3826.644       14911.504    
     31200   62.4           303.06649      35.217802     -3824.8634      16113.336    
     31300   62.6           306.9127       35.664751     -3826.3147      16851.6      
     31400   62.8           299.8097       34.839347     -3827.6582      15379.506    
     31500   63             293.21387      34.072879     -3828.3979      15849.365    
     31600   63.2           301.00474      34.978217     -3828.9202      15667.502    
     31700   63.4           295.5379       34.342943     -3829.2171      14560.901    
     31800   63.6           302.08739      35.104026     -3828.3692      16506.031    
     31900   63.8           317.97332      36.950049     -3826.6704      15038.11     
     32000   64             304.0903       35.336774     -3826.2608      17272.471    
     32100   64.2           311.2035       36.163362     -3827.6077      16108.049    
     32200   64.4           287.67834      33.429624     -3829.6299      14510.791    
     32300   64.6           293.47299      34.102991     -3829.3327      15533.168    
     32400   64.8           302.02982      35.097336     -3828.0732      16362.464    
     32500   65             305.08346      35.452184     -3827.1788      16203.72     
     32600   65.2           295.89361      34.384279     -3827.3417      15965.953    
     32700   65.4           298.44844      34.681162     -3827.9658      15911.968    
     32800   65.6           293.61329      34.119295     -3828.0307      14866.162    
     32900   65.8           293.71619      34.131251     -3828.1718      15031.206    
     33000   66             296.76874      34.485973     -3827.6666      14650.885    
     33100   66.2           301.24697      35.006365     -3826.3008      14727.162    
     33200   66.4           312.10517      36.268141     -3824.9919      15176.485    
     33300   66.6           307.95637      35.78603      -3826.8338      15224.031    
     33400   66.8           295.29546      34.314771     -3828.5243      14716.533    
     33500   67             301.81271      35.072107     -3828.7546      15426.034    
     33600   67.2           304.11291      35.339402     -3828.1515      14880.239    
     33700   67.4           302.55044      35.157835     -3826.6436      15882.588    
     33800   67.6           307.63961      35.749221     -3825.3857      15605.867    
     33900   67.8           310.19346      36.04599      -3826.6639      15117.068    
     34000   68             296.56033      34.461755     -3829.0512      14144.198    
     34100   68.2           292.82256      34.027407     -3829.1211      15636.342    
     34200   68.4           304.14548      35.343186     -3828.0864      15676.258    
     34300   68.6           311.63709      36.213747     -3826.7171      14478.709    
     34400   68.8           300.63654      34.93543      -3826.2627      16074.762    
     34500   69             305.27973      35.474991     -3827.6966      15385.644    
     34600   69.2           303.35018      35.250768     -3829.5117      15000.923    
     34700   69.4           291.73417      33.900931     -3829.7543      16657.248    
     34800   69.6           306.49915      35.616694     -3828.1575      15135.915    
     34900   69.8           301.0183       34.979793     -3826.7092      15995.662    
     35000   70             301.45204      35.030195     -3826.8121      15685.673    
     35100   70.2           310.68825      36.103488     -3827.4792      15377.862    
     35200   70.4           300.94819      34.971646     -3828.2236      15786.122    
     35300   70.6           310.68872      36.103543     -3828.8403      16214.658    
     35400   70.8           291.50542      33.87435      -3829.4757      16178.293    
     35500   71             294.20662      34.188242     -3830.1341      17098.508    
     35600   71.2           291.63441      33.889339     -3829.8587      15608.075    
     35700   71.4           298.61598      34.700631     -3827.9846      16452.489    
     35800   71.6           303.43755      35.260921     -3826.7679      14999.357    
     35900   71.8           307.56586      35.740651     -3827.0041      16506.089    
     36000   72             293.79339      34.140223     -3829.1256      14773.331    
     36100   72.2           293.56441      34.113615     -3830.2801      15227.849    
     36200   72.4           298.4749       34.684237     -3829.7463      15909.365    
     36300   72.6           289.64319      33.65795      -3828.5897      14791.51     
     36400   72.8           294.99806      34.280211     -3827.604       16053.445    
     36500   73             302.78237      35.184787     -3827.1356      15987.052    
     36600   73.2           304.67383      35.404583     -3828.3435      14376.592    
     36700   73.4           283.98344      33.000258     -3830.387       15883.28     
     36800   73.6           298.8804       34.731359     -3830.1701      14406.096    
     36900   73.8           307.98498      35.789354     -3828.2039      16192.831    
     37000   74             303.49557      35.267663     -3827.1427      16373.059    
     37100   74.2           306.50807      35.617731     -3827.2409      14731.843    
     37200   74.4           297.27499      34.544802     -3828.4603      15639.993    
     37300   74.6           287.0103       33.351994     -3830.174       15578.194    
     37400   74.8           300.80094      34.954534     -3831.7389      14753.092    
     37500   75             281.23838      32.681269     -3832.954       15023.354    
     37600   75.2           287.35851      33.392458     -3830.8306      13701.055    
     37700   75.4           297.68324      34.592243     -3828.7871      15259.161    
     37800   75.6           300.2927       34.895475     -3827.382       15062.07     
     37900   75.8           313.36998      36.415118     -3826.8111      14985.798    
     38000   76             300.60693      34.931989     -3827.6477      15117.289    
     38100   76.2           292.12041      33.945814     -3829.5851      15823.433    
     38200   76.4           290.54852      33.763153     -3829.7301      14693.248    
     38300   76.6           298.25934      34.659188     -3828.0603      16077.807    
     38400   76.8           309.99748      36.023217     -3825.6094      16876.769    
     38500   77             310.06744      36.031347     -3826.2387      14750.294    
     38600   77.2           304.04252      35.331221     -3827.8906      16053.998    
     38700   77.4           299.98405      34.859608     -3829.187       15327.833    
     38800   77.6           291.09239      33.826353     -3829.5001      15588.117    
     38900   77.8           305.01975      35.444781     -3827.7256      15792.502    
     39000   78             311.65853      36.216239     -3825.8836      16715.056    
     39100   78.2           312.68371      36.33537      -3826.5829      15967.223    
     39200   78.4           295.09385      34.291343     -3827.9593      14917.86     
     39300   78.6           309.73354      35.992546     -3828.6272      15490.845    
     39400   78.8           302.92184      35.200993     -3828.5396      16161.647    
     39500   79             311.65213      36.215495     -3827.5475      15367.135    
     39600   79.2           320.97234      37.298549     -3825.4698      16152.164    
     39700   79.4           317.48807      36.89366      -3825.9452      14808.12     
     39800   79.6           305.43827      35.493415     -3828.3715      16407.531    
     39900   79.8           286.63186      33.308018     -3828.8665      14510.193    
     40000   80             302.16685      35.113259     -3828.3943      15303.073    
     40100   80.2           292.83936      34.02936      -3827.6686      15347.445    
     40200   80.4           304.82826      35.422528     -3826.378       16237.575    
     40300   80.6           303.82853      35.306355     -3825.535       16359.16     
     40400   80.8           305.28749      35.475893     -3827.5557      14784.049    
     40500   81             283.65885      32.96254      -3828.8837      14986.78     
     40600   81.2           296.26471      34.427402     -3828.8188      14192.531    
     40700   81.4           307.50202      35.733232     -3828.1883      15515.214    
     40800   81.6           314.70657      36.570436     -3826.2563      15442.647    
     40900   81.8           317.07812      36.846021     -3825.1889      16073.949    
     41000   82             303.3879       35.255152     -3827.6485      14788.327    
     41100   82.2           297.92375      34.620191     -3828.8983      14758.803    
     41200   82.4           300.43785      34.912342     -3828.7808      14962.663    
     41300   82.6           299.83916      34.842771     -3828.139       15247.005    
     41400   82.8           304.86756      35.427095     -3827.4163      15828.586    
     41500   83             299.10767      34.757768     -3826.85        15204.441    
     41600   83.2           314.18033      36.509285     -3827.163       16130.414    
     41700   83.4           294.71767      34.247628     -3829.3071      14953.598    
     41800   83.6           303.7435       35.296475     -3829.7777      14710.776    
     41900   83.8           294.84404      34.262313     -3829.076       16136.233    
     42000   84             300.94721      34.971532     -3826.6783      14838.9      
     42100   84.2           308.52129      35.851677     -3826.3573      15338.324    
     42200   84.4           308.16358      35.810109     -3827.3582      16501.801    
     42300   84.6           301.8078       35.071536     -3828.6484      15172.607    
     42400   84.8           287.61342      33.422081     -3829.3687      15346.584    
     42500   85             301.52653      35.038851     -3828.9041      16225.062    
     42600   85.2           307.2537       35.704376     -3827.0916      14468.091    
     42700   85.4           299.94485      34.855052     -3825.0645      16213.241    
     42800   85.6           305.57179      35.50893      -3826.4641      15712.137    
     42900   85.8           299.76542      34.834202     -3828.2629      14119.23     
     43000   86             297.04911      34.518554     -3829.0279      15286.286    
     43100   86.2           298.94359      34.738702     -3828.8797      15160.375    
     43200   86.4           308.54515      35.854449     -3827.9639      14741.733    
     43300   86.6           312.33077      36.294356     -3825.8914      16423.202    
     43400   86.8           308.19556      35.813825     -3825.7712      15105.667    
     43500   87             290.64189      33.774004     -3828.1018      14747.757    
     43600   87.2           299.04049      34.749961     -3829.064       15689.587    
     43700   87.4           296.30947      34.432604     -3828.7746      15706.79     
     43800   87.6           298.14654      34.64608      -3827.7454      17596.943    
     43900   87.8           303.53619      35.272384     -3826.0989      15154.708    
     44000   88             318.0582       36.959912     -3825.7977      16981.967    
     44100   88.2           309.34947      35.947914     -3828.7451      15393.401    
     44200   88.4           301.16247      34.996546     -3829.7996      16157.683    
     44300   88.6           292.20798      33.95599      -3829.6517      16173.265    
     44400   88.8           300.62535      34.93413      -3827.8311      14319.677    
     44500   89             306.1782       35.579398     -3826.764       16410.341    
     44600   89.2           296.62535      34.469311     -3827.0836      16314.373    
     44700   89.4           301.66888      35.055393     -3827.8658      15903.67     
     44800   89.6           302.32389      35.131509     -3828.9197      15492.885    
     44900   89.8           288.77755      33.557358     -3829.0798      15617.218    
     45000   90             301.32381      35.015294     -3828.7403      15653.424    
     45100   90.2           297.03294      34.516674     -3827.8468      16494.083    
     45200   90.4           307.7022       35.756495     -3826.9354      15203.769    
     45300   90.6           304.84556      35.424539     -3826.6089      16743.769    
     45400   90.8           280.77007      32.62685      -3827.9189      14753.855    
     45500   91             296.54851      34.460381     -3829.8088      14829.437    
     45600   91.2           284.82063      33.097544     -3829.7471      16334.807    
     45700   91.4           306.41233      35.606605     -3828.1214      14173.727    
     45800   91.6           305.19181      35.464775     -3827.256       16604.522    
     45900   91.8           296.48833      34.453388     -3827.4057      15297.797    
     46000   92             285.90573      33.223638     -3828.2566      15081.3      
     46100   92.2           288.14595      33.483963     -3829.5233      15794.79     
     46200   92.4           290.61658      33.771062     -3830.2226      14224.965    
     46300   92.6           295.31107      34.316585     -3829.2626      16026.815    
     46400   92.8           297.48489      34.569193     -3827.2771      14869.834    
     46500   93             303.31467      35.246642     -3826.9893      16775.392    
     46600   93.2           310.64562      36.098534     -3828.2089      13820.718    
     46700   93.4           290.88871      33.802685     -3830.3569      16357.475    
     46800   93.6           291.91         33.921364     -3830.3868      15205.2      
     46900   93.8           298.35138      34.669883     -3829.4092      15960.673    
     47000   94             303.28556      35.243259     -3828.3919      16319.833    
     47100   94.2           304.05169      35.332288     -3827.8953      15932.234    
     47200   94.4           299.9868       34.859927     -3827.9531      15651.519    
     47300   94.6           299.29223      34.779214     -3829.9248      15795.729    
     47400   94.8           278.85689      32.404529     -3830.9552      15675.486    
     47500   95             296.82316      34.492297     -3829.6407      14471.046    
     47600   95.2           295.5721       34.346917     -3827.986       15974.043    
     47700   95.4           306.49469      35.616175     -3827.7699      15175.118    
     47800   95.6           303.25313      35.239491     -3828.1938      14139.114    
     47900   95.8           294.37379      34.207668     -3829.5352      17936.148    
     48000   96             286.20005      33.25784      -3831.3908      13650.9      
     48100   96.2           280.3476       32.577757     -3831.4745      15884.867    
     48200   96.4           296.75299      34.484143     -3828.487       15429.91     
     48300   96.6           301.94631      35.087631     -3827.8938      14987.613    
     48400   96.8           314.83037      36.584822     -3828.4884      15941.04     
     48500   97             305.29718      35.477019     -3829.6641      15340.58     
     48600   97.2           305.88533      35.545365     -3830.7236      14164.427    
     48700   97.4           297.3974       34.559027     -3830.4823      15381.458    
     48800   97.6           300.84675      34.959857     -3827.9652      15319.497    
     48900   97.8           311.81406      36.234312     -3827.0676      15882.322    
     49000   98             308.50005      35.849209     -3828.0801      16345.526    
     49100   98.2           290.57033      33.765687     -3829.6232      13493.809    
     49200   98.4           299.83971      34.842835     -3829.7027      16379.572    
     49300   98.6           303.81737      35.305059     -3828.9369      16483.975    
     49400   98.8           307.43796      35.725788     -3825.4486      15008.348    
     49500   99             303.76636      35.29913      -3825.704       16404.913    
     49600   99.2           308.6146       35.862519     -3827.9074      16179.866    
     49700   99.4           295.91687      34.386981     -3829.3448      15987.036    
     49800   99.6           295.13109      34.29567      -3829.9367      17160.558    
     49900   99.8           291.98407      33.929971     -3829.5643      16323.865    
     50000   100            304.4726       35.381199     -3827.2044      15862.842    
     50100   100.2          302.1184       35.10763      -3826.5696      15813.327    
     50200   100.4          313.2339       36.399304     -3827.5982      14575.413    
     50300   100.6          302.40458      35.140885     -3828.628       16305.987    
     50400   100.8          286.48394      33.290829     -3829.009       15532.769    
     50500   101            310.69115      36.103825     -3828.9478      15431.646    
     50600   101.2          296.89802      34.500996     -3828.51        16008.038    
     50700   101.4          299.35909      34.786984     -3827.74        15045.639    
     50800   101.6          306.41237      35.606609     -3825.8703      15876.136    
     50900   101.8          312.7733       36.34578      -3825.4119      16793.383    
     51000   102            299.63356      34.818879     -3827.9806      15684.201    
     51100   102.2          282.57541      32.836639     -3829.1074      15340.215    
     51200   102.4          297.5015       34.571123     -3829.142       16214.965    
     51300   102.6          296.12643      34.411333     -3828.6701      14855.533    
     51400   102.8          314.46199      36.542015     -3826.5682      15621.531    
     51500   103            313.57746      36.439229     -3826.139       14867.957    
     51600   103.2          297.31719      34.549705     -3828.1028      15662.672    
     51700   103.4          292.54169      33.994769     -3829.0588      16452.284    
     51800   103.6          296.85842      34.496394     -3828.924       15037.948    
     51900   103.8          298.45396      34.681804     -3828.1986      15552.9      
     52000   104            287.60037      33.420564     -3827.6379      15810.521    
     52100   104.2          301.70407      35.059482     -3827.0579      16125.288    
     52200   104.4          304.08287      35.335911     -3828.0368      16314.636    
     52300   104.6          289.69993      33.664543     -3829.8986      15856.588    
     52400   104.8          288.52463      33.527967     -3830.3156      15779.489    
     52500   105            308.19209      35.813422     -3828.7508      14690.93     
     52600   105.2          307.0131       35.676418     -3827.1191      15530.062    
     52700   105.4          301.009        34.978712     -3827.4295      15687.734    
     52800   105.6          303.57812      35.277256     -3828.4017      15101.455    
     52900   105.8          297.77255      34.602621     -3829.5987      16032.164    
     53000   106            298.07448      34.637706     -3830.0025      14898.022    
     53100   106.2          305.42457      35.491822     -3827.512       14827.519    
     53200   106.4          321.30275      37.336944     -3826.3137      16614.235    
     53300   106.6          307.05617      35.681423     -3827.5751      15411.017    
     53400   106.8          292.53026      33.993441     -3828.9432      14672.984    
     53500   107            296.99809      34.512625     -3829.2801      15003.167    
     53600   107.2          301.09966      34.989247     -3829.1354      15107.859    
     53700   107.4          308.32476      35.828839     -3828.8368      15291.273    
     53800   107.6          304.47539      35.381523     -3827.0437      17263.527    
     53900   107.8          302.63135      35.167236     -3826.4869      15105.004    
     54000   108            299.622        34.817535     -3828.2127      15473.972    
     54100   108.2          297.07193      34.521205     -3829.8172      15652.877    
     54200   108.4          311.69264      36.220203     -3829.6699      14263.23     
     54300   108.6          299.36424      34.787583     -3828.6512      16621.942    
     54400   108.8          312.11296      36.269046     -3826.6399      15091.954    
     54500   109            317.42905      36.886802     -3825.0211      15635.454    
     54600   109.2          298.35176      34.669927     -3827.3766      15507.404    
     54700   109.4          297.56154      34.578101     -3828.4799      14461.251    
     54800   109.6          317.02546      36.839902     -3828.9915      16211.475    
     54900   109.8          299.75068      34.832489     -3829.5946      14906.515    
     55000   110            292.48125      33.987746     -3829.7524      15237.664    
     55100   110.2          311.84331      36.237711     -3828.9229      15627.125    
     55200   110.4          304.74984      35.413416     -3827.2134      14956.774    
     55300   110.6          305.2678       35.473605     -3827.1377      15392.985    
     55400   110.8          296.66179      34.473545     -3829.6401      15319.392    
     55500   111            293.22058      34.073659     -3830.521       14909.924    
     55600   111.2          290.27899      33.731832     -3829.5791      15116.844    
     55700   111.4          299.73515      34.830684     -3828.1251      16394.086    
     55800   111.6          309.14283      35.923902     -3827.7044      15061.264    
     55900   111.8          303.43549      35.260681     -3828.3188      15180.764    
     56000   112            295.9794       34.394248     -3829.0097      14612.478    
     56100   112.2          297.90517      34.618031     -3829.2814      15664.727    
     56200   112.4          292.51626      33.991815     -3829.231       13667.819    
     56300   112.6          302.97398      35.207053     -3828.5422      14818.007    
     56400   112.8          299.88176      34.847721     -3827.6704      15637.312    
     56500   113            311.11221      36.152754     -3827.1452      14971.59     
     56600   113.2          298.43455      34.679549     -3828.7428      15481.602    
     56700   113.4          289.41212      33.631098     -3830.4604      15072.008    
     56800   113.6          300.20112      34.884832     -3829.9714      14830.806    
     56900   113.8          306.90882      35.6643       -3828.6721      15214.152    
     57000   114            303.15806      35.228443     -3827.3917      16213.845    
     57100   114.2          311.67006      36.217579     -3825.413       14563.069    
     57200   114.4          321.97178      37.41469      -3823.9453      15884.028    
     57300   114.6          316.56049      36.785871     -3826.5462      15234.368    
     57400   114.8          304.17203      35.346272     -3828.2115      14897.03     
     57500   115            298.21735      34.654308     -3829.4381      14668.665    
     57600   115.2          304.68415      35.405782     -3829.9583      14836.939    
     57700   115.4          317.8492       36.935625     -3829.087       14481.22     
     57800   115.6          305.5593       35.507479     -3827.0797      16331.514    
     57900   115.8          309.68148      35.986496     -3826.6138      14759.875    
     58000   116            302.02721      35.097033     -3828.7602      14971.415    
     58100   116.2          291.99384      33.931107     -3830.1363      14804.757    
     58200   116.4          298.38924      34.674283     -3829.4611      14529.598    
     58300   116.6          305.57026      35.508752     -3828.228       14268.831    
     58400   116.8          301.83773      35.075015     -3827.3164      15357.328    
     58500   117            300.20481      34.885261     -3827.3551      15254.91     
     58600   117.2          299.33665      34.784377     -3829.5913      15962.457    
     58700   117.4          284.61348      33.073472     -3830.4095      15359.321    
     58800   117.6          304.80909      35.420301     -3829.5538      14865.971    
     58900   117.8          304.35623      35.367676     -3827.5142      17838.165    
     59000   118            302.87836      35.195941     -3827.1279      14568.642    
     59100   118.2          294.9465       34.27422      -3827.761       16848.816    
     59200   118.4          304.22707      35.352667     -3828.6921      14039.579    
     59300   118.6          301.31955      35.0148       -3829.484       16384.917    
     59400   118.8          288.08801      33.477229     -3829.6461      15399.962    
     59500   119            306.60652      35.629171     -3828.4319      16596.502    
     59600   119.2          309.03725      35.911634     -3827.0276      15175.844    
     59700   119.4          318.27402      36.984991     -3826.9164      16747.432    
     59800   119.6          299.13865      34.761368     -3829.018       15991.407    
     59900   119.8          294.71321      34.247111     -3830.1093      16306.963    
     60000   120            309.47172      35.962121     -3829.7018      16186.276    
     60100   120.2          296.35016      34.437331     -3828.7682      15960.424    
     60200   120.4          313.13193      36.387455     -3827.0895      16937.736    
     60300   120.6          315.64856      36.6799       -3824.9858      16379.007    
     60400   120.8          329.3216       38.268774     -3823.6885      16119.344    
     60500   121            323.92544      37.641714     -3826.5728      16856.63     
     60600   121.2          300.71676      34.944752     -3828.386       15829.281    
     60700   121.4          299.97278      34.858298     -3829.7862      14588.926    
     60800   121.6          293.42398      34.097296     -3830.0002      16180.748    
     60900   121.8          302.41681      35.142306     -3828.3153      14908.234    
     61000   122            315.86849      36.705457     -3826.8504      14913.948    
     61100   122.2          314.21682      36.513525     -3827.1833      15980.689    
     61200   122.4          314.10771      36.500846     -3828.455       15667.671    
     61300   122.6          297.91421      34.619082     -3829.0192      15719.934    
     61400   122.8          303.51804      35.270274     -3828.7799      14257.986    
     61500   123            312.36607      36.298458     -3828.5376      14536.826    
     61600   123.2          310.84609      36.121829     -3828.4399      15722.729    
     61700   123.4          294.70319      34.245946     -3829.1512      14694.514    
     61800   123.6          298.69031      34.709268     -3830.2972      15844.891    
     61900   123.8          303.694        35.290721     -3830.1761      15977.158    
     62000   124            306.05064      35.564575     -3828.3727      14252.579    
     62100   124.2          301.78414      35.068787     -3827.1972      16555.411    
     62200   124.4          306.75967      35.646968     -3827.8714      15015.196    
     62300   124.6          287.23888      33.378556     -3829.0625      15306.908    
     62400   124.8          300.21854      34.886857     -3829.0821      16928.032    
     62500   125            298.86725      34.72983      -3829.0559      14304.151    
     62600   125.2          307.05442      35.681219     -3828.8619      15272.18     
     62700   125.4          299.04061      34.749975     -3827.6155      16653.556    
     62800   125.6          324.62712      37.723253     -3826.1089      13648.524    
     62900   125.8          310.62765      36.096446     -3826.7788      15976.593    
     63000   126            295.65033      34.356008     -3829.2605      16113.45     
     63100   126.2          282.86969      32.870836     -3829.7745      13415.465    
     63200   126.4          298.27219      34.660681     -3828.8482      16852.311    
     63300   126.6          306.63998      35.63306      -3827.6735      15951.887    
     63400   126.8          303.92137      35.317143     -3826.8895      15054.753    
     63500   127            323.47056      37.588855     -3826.3443      16413.399    
     63600   127.2          307.02006      35.677227     -3828.1554      14583.584    
     63700   127.4          283.71464      32.969022     -3829.8411      15892.04     
     63800   127.6          303.12952      35.225126     -3829.9385      14722.561    
     63900   127.8          298.03011      34.632551     -3828.8153      16102.108    
     64000   128            302.84613      35.192196     -3826.8236      14942.128    
     64100   128.2          300.11806      34.87518      -3826.8507      17371.127    
     64200   128.4          308.55693      35.855818     -3827.7902      14718.874    
     64300   128.6          310.88906      36.126823     -3828.499       15833.02     
     64400   128.8          304.98031      35.440198     -3828.8943      16403.443    
     64500   129            306.61916      35.63064      -3829.2616      15407.748    
     64600   129.2          296.1778       34.417303     -3829.6722      16599.469    
     64700   129.4          303.87104      35.311295     -3829.4214      15167.977    
     64800   129.6          304.24827      35.355131     -3828.2248      16555.86     
     64900   129.8          309.20884      35.931573     -3827.0378      16729.332    
     65000   130            310.23719      36.051073     -3826.6142      15833.261    
     65100   130.2          300.3602       34.903318     -3828.89        14135.375    
     65200   130.4          297.55909      34.577815     -3830.0727      16229.843    
     65300   130.6          311.71916      36.223284     -3829.43        14387.35     
     65400   130.8          303.10865      35.222701     -3827.8384      13775.977    
     65500   131            312.58979      36.324457     -3827.0471      17182.494    
     65600   131.2          318.03077      36.956724     -3827.6238      14315.431    
     65700   131.4          292.9807       34.045784     -3828.4814      16177.792    
     65800   131.6          286.52162      33.295208     -3829.1819      15277.344    
     65900   131.8          303.46287      35.263864     -3829.729       15210.773    
     66000   132            299.12687      34.76         -3830.0266      13695.21     
     66100   132.2          301.76819      35.066934     -3829.0786      14725.049    
     66200   132.4          309.27017      35.9387       -3827.3381      15545.153    
     66300   132.6          298.78409      34.720167     -3826.8472      14877.776    
     66400   132.8          297.70846      34.595173     -3828.4865      16225.191    
     66500   133            288.08447      33.476819     -3830.052       14318.892    
     66600   133.2          292.99788      34.047781     -3829.8395      16388.734    
     66700   133.4          298.26393      34.659721     -3829.0776      15431.987    
     66800   133.6          306.57353      35.625338     -3827.6719      14800.458    
     66900   133.8          311.26841      36.170905     -3826.1028      16755.09     
     67000   134            313.46078      36.42567      -3825.0365      16006.819    
     67100   134.2          308.59763      35.860548     -3826.7007      15416.929    
     67200   134.4          309.45062      35.959669     -3828.9612      15402.562    
     67300   134.6          294.0186       34.166393     -3829.9238      16346.381    
     67400   134.8          297.2699       34.54421      -3829.6969      15246.798    
     67500   135            302.45017      35.146183     -3828.3684      15769.164    
     67600   135.2          308.0289       35.794458     -3826.7127      15706.943    
     67700   135.4          312.21881      36.281346     -3827.1318      15867.019    
     67800   135.6          291.66529      33.892927     -3829.976       16431.891    
     67900   135.8          299.53433      34.807348     -3830.2468      15584.005    
     68000   136            297.17823      34.533558     -3829.2416      15109.98     
     68100   136.2          291.75051      33.90283      -3827.7679      16800.704    
     68200   136.4          309.28867      35.94085      -3827.3813      15577.417    
     68300   136.6          299.63216      34.818716     -3829.3126      14985.415    
     68400   136.8          291.88863      33.918881     -3831.1602      16692.374    
     68500   137            289.13343      33.598713     -3830.4257      15162.22     
     68600   137.2          298.09868      34.640518     -3828.7821      15003.915    
     68700   137.4          308.81556      35.885872     -3827.9581      15089.61     
     68800   137.6          290.85491      33.798757     -3828.5031      14967.202    
     68900   137.8          293.95747      34.15929      -3829.1369      16170.013    
     69000   138            292.8024       34.025065     -3829.3713      15497.659    
     69100   138.2          299.94446      34.855007     -3829.2252      15260.572    
     69200   138.4          302.83991      35.191472     -3828.968       15855.903    
     69300   138.6          298.56935      34.695213     -3828.6176      14988.583    
     69400   138.8          310.89978      36.128068     -3827.5584      15256.654    
     69500   139            314.28041      36.520915     -3826.6877      15361.381    
     69600   139.2          304.0869       35.336379     -3827.4623      15412.242    
     69700   139.4          295.25708      34.31031      -3829.7162      15330.858    
     69800   139.6          296.74378      34.483072     -3830.009       14582.954    
     69900   139.8          297.00185      34.513062     -3829.0845      15160.156    
     70000   140            306.04825      35.564297     -3827.4369      15116.9      
     70100   140.2          314.87818      36.590378     -3825.934       14005.61     
     70200   140.4          306.22384      35.584702     -3824.2177      15709.571    
     70300   140.6          310.75586      36.111344     -3825.8334      15322.639    
     70400   140.8          298.858        34.728756     -3828.1544      14378.474    
     70500   141            287.16905      33.370443     -3829.2205      16395.48     
     70600   141.2          303.07007      35.218218     -3829.5705      14614.723    
     70700   141.4          298.60393      34.699231     -3829.2897      14576.27     
     70800   141.6          314.38533      36.533107     -3827.7601      16497.613    
     70900   141.8          311.59881      36.2093       -3826.5303      14822.897    
     71000   142            309.25171      35.936554     -3827.5823      14406.554    
     71100   142.2          311.83641      36.23691      -3829.7983      16383.55     
     71200   142.4          293.45154      34.100498     -3829.9397      14479.161    
     71300   142.6          295.5469       34.343989     -3828.7676      13776.532    
     71400   142.8          301.47488      35.03285      -3827.6876      17143.09     
     71500   143            300.0411       34.866238     -3827.7646      13243.661    
     71600   143.2          290.2346       33.726674     -3830.1637      16552.332    
     71700   143.4          291.65823      33.892107     -3830.7961      14596.763    
     71800   143.6          295.71435      34.363447     -3829.4892      14418.326    
     71900   143.8          305.28788      35.475938     -3827.9815      15905.813    
     72000   144            314.93028      36.596432     -3827.8758      14993.588    
     72100   144.2          300.14231      34.877998     -3828.4944      15759.076    
     72200   144.4          303.11549      35.223496     -3828.8677      15626.289    
     72300   144.6          302.39425      35.139684     -3828.8873      16141.923    
     72400   144.8          295.19142      34.302681     -3828.5075      14450.79     
     72500   145            295.1266       34.295148     -3827.5547      14942.993    
     72600   145.2          314.71179      36.571043     -3825.3549      17261.212    
     72700   145.4          315.56376      36.670046     -3824.904       16566.228    
     72800   145.6          301.58223      35.045324     -3827.6709      15598.004    
     72900   145.8          297.16669      34.532217     -3828.69        16408.053    
     73000   146            298.06766      34.636914     -3829.5618      15470.734    
     73100   146.2          288.58787      33.535317     -3830.1165      15403.803    
     73200   146.4          297.64994      34.588373     -3829.0052      15900.872    
     73300   146.6          295.65173      34.356171     -3827.0412      15577.266    
     73400   146.8          306.31339      35.595108     -3826.8363      15855.752    
     73500   147            301.22219      35.003485     -3828.2452      14440.045    
     73600   147.2          291.38704      33.860593     -3829.84        14923.787    
     73700   147.4          294.05521      34.170648     -3829.8202      15877.141    
     73800   147.6          297.85055      34.611684     -3829.1631      14469.925    
     73900   147.8          312.28218      36.28871      -3827.9313      16293.321    
     74000   148            306.90808      35.664214     -3827.2606      16488.714    
     74100   148.2          299.61144      34.816309     -3827.6116      16027.61     
     74200   148.4          295.8773       34.382383     -3829.7004      16542.742    
     74300   148.6          293.65396      34.124021     -3830.5204      15592.409    
     74400   148.8          300.94582      34.97137      -3829.3969      16485.473    
     74500   149            301.68756      35.057564     -3827.729       16894.667    
     74600   149.2          310.81008      36.117645     -3827.3723      15083.717    
     74700   149.4          291.41861      33.864262     -3827.9735      15565.55     
     74800   149.6          300.77841      34.951916     -3828.6978      13601.273    
     74900   149.8          299.41504      34.793485     -3829.265       14748.985    
     75000   150            292.38103      33.9761       -3829.7439      15143.803    
     75100   150.2          298.73773      34.714779     -3829.0706      14021.802    
     75200   150.4          293.25208      34.07732      -3827.5006      15545.904    
     75300   150.6          303.54999      35.273987     -3826.7343      14601.511    
     75400   150.8          308.34154      35.830789     -3827.6432      14133.642    
     75500   151            297.97815      34.626512     -3830.0502      15748.603    
     75600   151.2          303.00122      35.210217     -3830.0252      15456.138    
     75700   151.4          297.93478      34.621472     -3828.8923      15730.193    
     75800   151.6          303.50063      35.268251     -3827.8233      15942.128    
     75900   151.8          301.12492      34.992183     -3828.1036      16149.446    
     76000   152            293.76869      34.137353     -3830.9791      13902.833    
     76100   152.2          287.0282       33.354075     -3831.7723      15485.489    
     76200   152.4          299.77096      34.834845     -3829.7652      14546.317    
     76300   152.6          290.24922      33.728373     -3828.3048      16091.739    
     76400   152.8          303.47898      35.265735     -3827.8732      16144.482    
     76500   153            296.02986      34.400111     -3828.528       14669.67     
     76600   153.2          296.21463      34.421583     -3830.4022      15128.733    
     76700   153.4          292.42852      33.981618     -3831.38        15590.799    
     76800   153.6          300.45645      34.914503     -3829.7894      15392.864    
     76900   153.8          300.21109      34.885991     -3828.1427      16132.323    
     77000   154            297.145        34.529696     -3828.2289      14957.629    
     77100   154.2          299.6229       34.81764      -3828.7306      16351.047    
     77200   154.4          293.80061      34.141062     -3829.8286      15265.372    
     77300   154.6          288.23372      33.494162     -3831.0808      15294.065    
     77400   154.8          293.90638      34.153353     -3830.5228      14089.325    
     77500   155            305.09032      35.452981     -3827.9136      15316.158    
     77600   155.2          300.65348      34.937398     -3827.6117      14551.582    
     77700   155.4          311.88038      36.242019     -3828.5253      14584.24     
     77800   155.6          295.21236      34.305114     -3830.0298      15830.502    
     77900   155.8          294.19784      34.187222     -3831.0594      15740.087    
     78000   156            294.55381      34.228587     -3831.9498      13832.811    
     78100   156.2          300.7955       34.953902     -3830.1999      16316.937    
     78200   156.4          295.18232      34.301623     -3828.3254      15342.389    
     78300   156.6          289.70177      33.664757     -3827.8451      15885.354    
     78400   156.8          295.96291      34.392332     -3828.2059      16518.751    
     78500   157            297.20712      34.536915     -3829.9194      15583.382    
     78600   157.2          279.92123      32.52821      -3831.2141      14654.864    
     78700   157.4          295.01649      34.282353     -3830.1568      15071.448    
     78800   157.6          300.67302      34.93967      -3828.7318      15969.268    
     78900   157.8          298.3139       34.665529     -3828.4679      15106.521    
     79000   158            305.96825      35.555        -3828.7279      15675.537    
     79100   158.2          296.04324      34.401666     -3829.2262      16724.172    
     79200   158.4          290.88209      33.801916     -3829.4783      14333.699    
     79300   158.6          311.67884      36.2186       -3828.6241      17444.89     
     79400   158.8          299.6251       34.817896     -3827.4372      13892.936    
     79500   159            312.28061      36.288527     -3826.9413      17407.843    
     79600   159.2          308.26932      35.822396     -3828.767       15594.596    
     79700   159.4          285.60861      33.189112     -3830.4545      14534.281    
     79800   159.6          297.37336      34.556233     -3829.8048      14755.904    
     79900   159.8          300.83957      34.959023     -3828.4492      15843.628    
     80000   160            309.42924      35.957185     -3827.7537      15668.984    
     80100   160.2          305.63126      35.51584      -3828.157       14906.946    
     80200   160.4          300.70625      34.94353      -3828.6346      16148.898    
     80300   160.6          297.70665      34.594963     -3829.0432      14345.901    
     80400   160.8          298.93486      34.737687     -3829.3117      16006.109    
     80500   161            300.90185      34.966261     -3829.5391      14960.664    
     80600   161.2          288.76156      33.5555       -3829.5571      14574.107    
     80700   161.4          296.13006      34.411755     -3828.5896      15899.547    
     80800   161.6          305.52818      35.503863     -3827.2807      14478.557    
     80900   161.8          316.22564      36.74696      -3827.4559      15722.982    
     81000   162            297.17876      34.533619     -3829.9358      14393.863    
     81100   162.2          291.18898      33.837578     -3830.5947      14134.32     
     81200   162.4          299.56143      34.810497     -3829.6774      15261.611    
     81300   162.6          310.38937      36.068757     -3828.2935      15960.589    
     81400   162.8          313.11175      36.38511      -3828.0805      15302.974    
     81500   163            299.50728      34.804204     -3828.4282      16277.439    
     81600   163.2          304.49046      35.383274     -3828.7902      15181.664    
     81700   163.4          299.34977      34.785901     -3829.4112      15364.311    
     81800   163.6          282.28266      32.80262      -3830.8468      16022.062    
     81900   163.8          283.31464      32.922541     -3831.4628      15315.257    
     82000   164            302.13296      35.109321     -3829.6172      14872.262    
     82100   164.2          308.00081      35.791194     -3828.1553      16203.607    
     82200   164.4          307.66677      35.752377     -3827.873       14619.514    
     82300   164.6          297.62204      34.585131     -3828.6939      15554.812    
     82400   164.8          284.98462      33.1166       -3831.0002      15703.503    
     82500   165            286.91213      33.340587     -3831.4545      14949.425    
     82600   165.2          298.0932       34.639882     -3830.3832      14871.748    
     82700   165.4          299.32685      34.783238     -3829.3892      15023.345    
     82800   165.6          302.7052       35.175818     -3828.3892      14904.941    
     82900   165.8          294.6646       34.241461     -3828.0942      15462.513    
     83000   166            295.8132       34.374935     -3828.1075      15201.813    
     83100   166.2          298.31541      34.665703     -3829.2079      15765.537    
     83200   166.4          291.5167       33.875661     -3830.4781      15313.409    
     83300   166.6          286.40046      33.281128     -3830.68        14483.544    
     83400   166.8          303.64147      35.284618     -3828.6942      16339.187    
     83500   167            307.60898      35.745661     -3827.261       14650.64     
     83600   167.2          303.37587      35.253754     -3827.5568      15448.831    
     83700   167.4          305.22351      35.468459     -3828.6545      15990.349    
     83800   167.6          293.60987      34.118896     -3829.8186      13968.838    
     83900   167.8          300.70293      34.943145     -3830.1707      14155.193    
     84000   168            300.72223      34.945388     -3829.0104      14490.23     
     84100   168.2          311.67811      36.218514     -3827.3399      13987.427    
     84200   168.4          303.7783       35.300519     -3827.0603      15283.311    
     84300   168.6          299.34372      34.785198     -3828.4845      15863.861    
     84400   168.8          292.82479      34.027667     -3830.0417      14215.961    
     84500   169            297.11257      34.525928     -3829.8899      15983.841    
     84600   169.2          304.10706      35.338722     -3828.7282      14866.478    
     84700   169.4          301.91962      35.08453      -3828.0847      15705.396    
     84800   169.6          304.8708       35.427471     -3828.1443      15200.741    
     84900   169.8          303.75141      35.297394     -3828.4249      14387.611    
     85000   170            294.14116      34.180635     -3829.0489      16343.999    
     85100   170.2          295.3329       34.319121     -3829.7776      14734.898    
     85200   170.4          290.04967      33.705184     -3830.2724      15600.301    
     85300   170.6          299.75914      34.833472     -3829.5307      14653.666    
     85400   170.8          299.14831      34.762491     -3827.5889      16208.723    
     85500   171            311.71704      36.223038     -3827.0596      15106.47     
     85600   171.2          297.90807      34.618368     -3828.173       14103.255    
     85700   171.4          283.17718      32.906568     -3830.6021      15330.489    
[...]
    478600   957.2          306.39556      35.604657     -3827.8033      15404.83     
    478700   957.4          300.61072      34.93243      -3827.7967      14537.555    
    478800   957.6          295.48394      34.336673     -3829.8724      16068.325    
    478900   957.8          288.88136      33.569422     -3831.0229      16602.199    
    479000   958            303.94933      35.320393     -3829.9127      15553.318    
    479100   958.2          315.15589      36.62265      -3828.3003      16321.588    
    479200   958.4          304.82676      35.422354     -3828.1228      15428.267    
    479300   958.6          298.36723      34.671726     -3828.6334      16532.599    
    479400   958.8          297.44116      34.564112     -3829.4306      16815.397    
    479500   959            303.43871      35.261056     -3831.2894      14863.497    
    479600   959.2          289.49611      33.640858     -3832.5354      14976.068    
    479700   959.4          297.73213      34.597924     -3830.4731      16280.166    
    479800   959.6          294.63845      34.238423     -3829.1014      16031.41     
    479900   959.8          305.45029      35.494812     -3828.3498      16303.271    
    480000   960            310.72558      36.107825     -3827.9763      14053.976    
    480100   960.2          304.8558       35.425728     -3827.6798      16098.968    
    480200   960.4          296.42425      34.445941     -3829.0504      16403.658    
    480300   960.6          302.24097      35.121873     -3830.6843      15157.576    
    480400   960.8          280.79553      32.629808     -3830.7602      15259.8      
    480500   961            296.39695      34.442769     -3828.3962      14427.983    
    480600   961.2          309.98117      36.021321     -3827.3402      15857.027    
    480700   961.4          289.74015      33.669217     -3828.1175      15772.126    
    480800   961.6          302.14259      35.110441     -3829.3435      14381.263    
    480900   961.8          284.49634      33.059861     -3830.5281      16338.315    
    481000   962            298.09267      34.63982      -3829.8292      15462.858    
    481100   962.2          309.52352      35.968141     -3826.7444      16044.225    
    481200   962.4          300.38943      34.906715     -3826.8706      16388.762    
    481300   962.6          305.26743      35.473562     -3828.3209      16675.307    
    481400   962.8          295.09515      34.291494     -3829.8506      15925.284    
    481500   963            298.64324      34.7038       -3829.883       15723.184    
    481600   963.2          307.97843      35.788594     -3828.5675      16752.816    
    481700   963.4          315.18188      36.62567      -3826.2469      15397.478    
    481800   963.6          319.90434      37.174442     -3826.5284      16674.411    
    481900   963.8          297.38394      34.557462     -3827.7136      15621.451    
    482000   964            300.74171      34.947652     -3828.8923      16547.864    
    482100   964.2          297.09366      34.52373      -3829.5596      15777.874    
    482200   964.4          285.78455      33.209557     -3830.0308      15339.146    
    482300   964.6          288.3803       33.511195     -3830.8108      16409.717    
    482400   964.8          292.02662      33.934915     -3830.1576      15683.842    
    482500   965            295.1045       34.29258      -3828.3291      14885.42     
    482600   965.2          306.39715      35.604841     -3827.2353      15223.782    
    482700   965.4          301.04334      34.982702     -3827.3542      14392.326    
    482800   965.6          289.35852      33.62487      -3829.651       15334.595    
    482900   965.8          283.87497      32.987654     -3830.8744      15074.761    
    483000   966            295.64697      34.355618     -3829.7721      15526.337    
    483100   966.2          305.50742      35.50145      -3828.5383      14182.111    
    483200   966.4          302.15667      35.112076     -3827.9947      16095.64     
    483300   966.6          309.66293      35.98434      -3828.0963      14158.42     
    483400   966.8          299.43548      34.795861     -3829.6058      15787.09     
    483500   967            286.18855      33.256503     -3832.0888      15331.552    
    483600   967.2          284.80016      33.095166     -3831.2465      15037.099    
    483700   967.4          294.30209      34.199336     -3829.4813      14975.271    
    483800   967.6          299.80313      34.838584     -3828.3757      13915.092    
    483900   967.8          303.61021      35.280985     -3828.0518      15842.563    
    484000   968            296.32501      34.434409     -3828.5712      14327.576    
    484100   968.2          284.39512      33.048098     -3830.7435      14437.586    
    484200   968.4          294.83606      34.261386     -3831.1745      14634.835    
    484300   968.6          298.35523      34.670331     -3829.618       15156.596    
    484400   968.8          299.49129      34.802346     -3828.1845      12991.406    
    484500   969            314.13635      36.504173     -3828.0728      15585.653    
    484600   969.2          292.95281      34.042544     -3828.7802      14187.231    
    484700   969.4          298.16694      34.64845      -3828.9257      14136.617    
    484800   969.6          300.09874      34.872935     -3828.8221      16069.241    
    484900   969.8          295.30866      34.316305     -3827.8821      15581.367    
    485000   970            310.71171      36.106214     -3826.9263      15090.16     
    485100   970.2          296.21942      34.42214      -3827.2519      17034.198    
    485200   970.4          296.50971      34.455873     -3829.295       13876.283    
    485300   970.6          293.88547      34.150923     -3830.2922      15787.865    
    485400   970.8          294.77728      34.254556     -3829.4197      16305.144    
    485500   971            307.00412      35.675374     -3828.2055      14583.647    
    485600   971.2          299.6649       34.822521     -3827.9513      15139.78     
    485700   971.4          297.73519      34.598279     -3828.3518      17641.168    
    485800   971.6          301.38746      35.02269      -3828.5826      14403.246    
    485900   971.8          297.6347       34.586601     -3829.4325      17307.66     
    486000   972            287.93159      33.459053     -3830.4042      16126.247    
    486100   972.2          308.58561      35.859151     -3829.5097      15048.401    
    486200   972.4          303.41345      35.25812      -3827.4737      16998.219    
    486300   972.6          315.65191      36.680289     -3826.7748      14814.842    
    486400   972.8          297.81629      34.607704     -3827.567       15662.813    
    486500   973            303.51329      35.269722     -3828.9889      15940.205    
    486600   973.2          297.43629      34.563546     -3829.186       15493.796    
    486700   973.4          294.71365      34.247162     -3828.8252      15776.835    
    486800   973.6          297.24472      34.541284     -3828.2971      16214.498    
    486900   973.8          313.27285      36.403831     -3827.1693      14734.723    
    487000   974            315.78279      36.695498     -3825.8854      15351.059    
    487100   974.2          296.50708      34.455567     -3826.8921      15541.015    
    487200   974.4          300.54451      34.924736     -3828.984       14136.861    
    487300   974.6          298.40003      34.675537     -3829.5119      16014.173    
    487400   974.8          293.34347      34.08794      -3829.0469      14856.116    
    487500   975            297.46953      34.567408     -3827.4976      16683.729    
    487600   975.2          310.30328      36.058752     -3825.6666      15481.586    
    487700   975.4          308.58288      35.858834     -3824.4426      17122.905    
    487800   975.6          308.34491      35.83118      -3826.2261      14021.652    
    487900   975.8          305.14123      35.458897     -3828.4695      14379.826    
    488000   976            300.14769      34.878623     -3829.6626      15471.905    
    488100   976.2          292.80943      34.025882     -3829.7836      14412.118    
    488200   976.4          301.9757       35.091047     -3829.0226      15939.182    
    488300   976.6          308.43049      35.841125     -3826.8212      13897.043    
    488400   976.8          315.39587      36.650536     -3826.5235      16337.82     
    488500   977            299.12769      34.760095     -3827.8848      14555.173    
    488600   977.2          299.53027      34.806877     -3828.7325      15477.683    
    488700   977.4          297.6883       34.59283      -3828.7494      14931.324    
    488800   977.6          304.20598      35.350217     -3828.3962      15946.218    
    488900   977.8          312.4356       36.306538     -3827.8478      15923.567    
    489000   978            308.81365      35.885651     -3826.6917      14371.203    
    489100   978.2          307.48535      35.731295     -3826.0766      16980.173    
    489200   978.4          300.37241      34.904737     -3827.9164      15247.65     
    489300   978.6          303.14317      35.226713     -3829.3551      15820.283    
    489400   978.8          291.36697      33.858261     -3829.4637      15001.202    
    489500   979            307.76244      35.763494     -3828.4006      14435.395    
    489600   979.2          302.21294      35.118616     -3826.2324      14776.112    
    489700   979.4          309.88819      36.010517     -3825.5187      17247.596    
    489800   979.6          306.00175      35.558894     -3826.7645      14050.519    
    489900   979.8          303.54341      35.273222     -3827.6793      15238.936    
    490000   980            286.52643      33.295767     -3828.82        16153.036    
    490100   980.2          293.25241      34.077359     -3829.6805      14963.884    
    490200   980.4          295.08051      34.289792     -3829.6636      15987.176    
    490300   980.6          299.92108      34.85229      -3827.4156      14981.048    
    490400   980.8          324.89034      37.753839     -3826.3207      14935.543    
    490500   981            305.76997      35.53196      -3827.6965      14764.439    
    490600   981.2          305.41169      35.490326     -3829.0183      15533.276    
    490700   981.4          303.46944      35.264627     -3829.1241      13626.5      
    490800   981.6          299.99648      34.861052     -3828.7084      15930.588    
    490900   981.8          299.91581      34.851678     -3828.1466      14506.396    
    491000   982            305.24459      35.470908     -3827.4565      14923.77     
    491100   982.2          317.09068      36.847481     -3825.7156      15097.197    
    491200   982.4          312.74595      36.342602     -3826.2689      15004.754    
    491300   982.6          304.36489      35.368682     -3828.6283      15720.919    
    491400   982.8          299.45932      34.798632     -3829.1324      15088.785    
    491500   983            297.09208      34.523547     -3829.1893      16614.951    
    491600   983.2          301.65688      35.053999     -3828.2336      15223.197    
    491700   983.4          310.87269      36.124921     -3826.3927      16312.309    
    491800   983.6          316.11116      36.733657     -3826.2745      16452.622    
    491900   983.8          301.96079      35.089315     -3828.8827      15053.692    
    492000   984            294.6669       34.241729     -3829.8548      15301.903    
    492100   984.2          304.09203      35.336975     -3829.3771      17041.99     
    492200   984.4          312.06114      36.263024     -3828.2257      15449.024    
    492300   984.6          302.85537      35.193269     -3827.0403      15522.729    
    492400   984.8          309.10163      35.919114     -3826.0988      16320.727    
    492500   985            301.44751      35.029669     -3827.4399      15929.842    
    492600   985.2          299.19715      34.768165     -3829.4818      16581.25     
    492700   985.4          300.27376      34.893274     -3829.859       15933.168    
    492800   985.6          305.71207      35.525232     -3828.8186      15909.436    
    492900   985.8          309.7942       35.999595     -3826.8874      15884.04     
    493000   986            312.04308      36.260926     -3826.3807      16366.687    
    493100   986.2          300.94259      34.970994     -3829.2939      14328.526    
    493200   986.4          294.20428      34.187971     -3830.1629      15472.401    
    493300   986.6          299.71503      34.828346     -3828.9769      15435.851    
    493400   986.8          301.56484      35.043303     -3827.3722      16458.359    
    493500   987            314.90695      36.593721     -3826.8681      15197.319    
    493600   987.2          300.80766      34.955315     -3828.3167      15768.236    
    493700   987.4          296.15668      34.414849     -3830.4796      15561.813    
    493800   987.6          302.18082      35.114883     -3830.0608      14497.519    
    493900   987.8          309.60648      35.977781     -3828.8524      15039.978    
    494000   988            297.97811      34.626507     -3827.8608      16379.918    
    494100   988.2          310.52132      36.08409      -3827.7599      16098.362    
    494200   988.4          293.3286       34.086212     -3829.8207      14322.26     
    494300   988.6          299.53477      34.807399     -3831.1864      15517.058    
    494400   988.8          284.39889      33.048536     -3830.18        14119.045    
    494500   989            307.38957      35.720165     -3828.4202      14403.176    
    494600   989.2          303.37941      35.254164     -3828.2689      15047.387    
    494700   989.4          304.31874      35.36332      -3828.5115      14906.629    
    494800   989.6          296.30261      34.431806     -3829.6263      14276.258    
    494900   989.8          280.28623      32.570625     -3831.8255      16396.426    
    495000   990            291.03088      33.819205     -3831.0331      14114.119    
    495100   990.2          294.56516      34.229906     -3829.199       14319.27     
    495200   990.4          305.85744      35.542124     -3828.79        16398.068    
    495300   990.6          305.45581      35.495452     -3828.5713      15629.429    
    495400   990.8          305.42964      35.492411     -3829.2109      16074.003    
    495500   991            292.3298       33.970146     -3830.9681      14963.728    
    495600   991.2          288.65596      33.543228     -3831.1727      15361.19     
    495700   991.4          295.4747       34.335599     -3828.9095      15516.673    
    495800   991.6          301.79062      35.06954      -3827.7962      15879.982    
    495900   991.8          299.75721      34.833248     -3827.8605      16553.278    
    496000   992            306.77325      35.648546     -3828.802       15198.168    
    496100   992.2          294.929        34.272186     -3830.7227      14574.749    
    496200   992.4          291.25419      33.845155     -3831.6529      16483.598    
    496300   992.6          295.10448      34.292578     -3829.3201      14551.534    
    496400   992.8          308.54933      35.854935     -3827.571       15708.66     
    496500   993            308.81645      35.885975     -3827.8569      16266.721    
    496600   993.2          289.679        33.66211      -3829.4897      14334.493    
    496700   993.4          301.00699      34.978478     -3830.4092      17085.935    
    496800   993.6          295.83127      34.377035     -3829.709       14419.365    
    496900   993.8          299.15942      34.763781     -3826.9187      14686.006    
    497000   994            306.77879      35.649189     -3826.7575      15483.335    
    497100   994.2          321.83728      37.399059     -3827.9264      14757.742    
    497200   994.4          298.98449      34.743454     -3829.2796      15847.994    
    497300   994.6          296.58892      34.465077     -3829.7759      15447.631    
    497400   994.8          297.57361      34.579503     -3829.2684      14456.612    
    497500   995            304.76347      35.415        -3826.9876      15649.519    
    497600   995.2          314.82873      36.584632     -3825.2732      16037.916    
    497700   995.4          305.81857      35.537607     -3826.9266      13846.058    
    497800   995.6          310.13377      36.039054     -3828.7009      16570.866    
    497900   995.8          291.92677      33.923313     -3829.4307      14915.152    
    498000   996            293.533        34.109965     -3829.4279      15584.473    
    498100   996.2          303.90303      35.315013     -3828.1375      14081.794    
    498200   996.4          318.06977      36.961256     -3826.4156      17052.042    
    498300   996.6          302.9072       35.199292     -3827.2812      14810.058    
    498400   996.8          303.38559      35.254883     -3829.4905      14894.693    
    498500   997            290.07534      33.708167     -3829.6318      16749.468    
    498600   997.2          298.41218      34.676949     -3829.2588      14609.55     
    498700   997.4          295.41113      34.328212     -3827.9416      14236.599    
    498800   997.6          303.89437      35.314006     -3827.0522      16166.15     
    498900   997.8          314.03063      36.491889     -3827.0297      14345.905    
    499000   998            303.27657      35.242214     -3829.3193      16573.908    
    499100   998.2          294.13695      34.180147     -3830.2497      14419.937    
    499200   998.4          292.46809      33.986216     -3829.7468      15881.417    
    499300   998.6          298.03263      34.632843     -3828.0153      15498.793    
    499400   998.8          313.13057      36.387297     -3826.5399      15192.866    
    499500   999            299.955        34.856232     -3827.9893      14256.562    
    499600   999.2          291.27436      33.847499     -3830.6338      16049.082    
    499700   999.4          296.53488      34.458797     -3830.1296      15534.483    
    499800   999.6          301.30613      35.013239     -3828.7467      15624.808    
    499900   999.8          301.75991      35.065972     -3827.6701      15287.994    
    500000   1000           310.93326      36.131959     -3827.4637      15821.686    
Loop time of 28401.9 on 1 procs for 500000 steps with 900 atoms

Performance: 3.042 ns/day, 7.889 hours/ns, 17.604 timesteps/s
60.5% CPU use with 1 MPI tasks x 1 OpenMP threads

MPI task timing breakdown:
Section |  min time  |  avg time  |  max time  |%varavg| %total
---------------------------------------------------------------
Pair    | 28101      | 28101      | 28101      |   0.0 | 98.94
Neigh   | 254.3      | 254.3      | 254.3      |   0.0 |  0.90
Comm    | 10.926     | 10.926     | 10.926     |   0.0 |  0.04
Output  | 11.832     | 11.832     | 11.832     |   0.0 |  0.04
Modify  | 19.505     | 19.505     | 19.505     |   0.0 |  0.07
Other   |            | 4          |            |       |  0.01

Nlocal:            900 ave         900 max         900 min
Histogram: 1 0 0 0 0 0 0 0 0 0
Nghost:           2470 ave        2470 max        2470 min
Histogram: 1 0 0 0 0 0 0 0 0 0
Neighs:              0 ave           0 max           0 min
Histogram: 1 0 0 0 0 0 0 0 0 0
FullNghs:        67108 ave       67108 max       67108 min
Histogram: 1 0 0 0 0 0 0 0 0 0

Total # of neighbors = 67108
Ave neighs/atom = 74.564444
Neighbor list builds = 50000
Dangerous builds not checked
Total wall time: 7:55:18
