ITEM: TIMESTEP
0
ITEM: NUMBER OF ATOMS
32
ITEM: BOX BOUNDS xy xz yz pp pp pp
-3.4762620925903320e-03 7.5176841020584106e+00 1.1196544170379639e+00
-4.2882263660430908e-02 2.2125610172748566e+01 4.4107437133789062e-06
1.5788495540618896e-02 5.1666774749755859e+00 -1.5008449554443359e-04
ITEM: ATOMS id type xs ys zs fx fy fz
1 1 0.960345 0.33658 0.593597 0 0.00296211 -5.72205e-06
2 1 0.460345 0.33658 0.593597 0 0.0029583 -1.14441e-05
3 1 0.217618 0.294997 0.0935973 0 0.002985 0
4 1 0.717618 0.294997 0.0935972 0 0.002985 1.90735e-06
5 1 0.188482 0.461582 0.593597 0 0.00087738 -2.28882e-05
6 1 0.688482 0.461582 0.593597 0 0.000875473 -2.47955e-05
7 1 0.945755 0.419999 0.0935965 0 -0.00136566 1.33514e-05
8 1 0.445755 0.419999 0.0935967 0 -0.00135612 1.52588e-05
9 1 0.91662 0.586581 0.593597 0 0.00128555 0
10 1 0.416619 0.58658 0.593597 0 0.00128746 7.62939e-06
11 1 0.144757 0.711577 0.593597 0 -0.00296211 -3.8147e-06
12 1 0.644757 0.711577 0.593598 0 -0.00295067 -1.33514e-05
13 1 0.902029 0.67 0.0935966 0 -0.00301552 1.52588e-05
14 1 0.173892 0.545001 0.0935972 0 -0.00102806 1.71661e-05
15 1 0.673892 0.545001 0.0935972 0 -0.00102615 1.90735e-05
16 1 0.402029 0.67 0.0935969 0 -0.00302315 9.53674e-06
17 1 0.872895 0.836574 0.593597 0 0.0164394 0
18 1 0.372895 0.836574 0.593597 0 0.0164394 1.90735e-06
19 1 0.101032 0.961574 0.593597 0 -0.303791 4.3869e-05
20 1 0.601032 0.961574 0.593597 0 -0.303791 4.19617e-05
21 1 0.130167 0.794998 0.0935969 0 0.0172329 0
22 1 0.630167 0.794998 0.093597 0 0.0172329 -3.8147e-06
23 1 0.858305 0.919994 0.0935972 0 -0.56352 -7.62939e-06
24 1 0.358304 0.919994 0.0935972 0 -0.56352 -1.33514e-05
25 1 0.00407177 0.0865748 0.593597 0 0.563622 0
26 1 0.504072 0.0865748 0.593597 0 0.563618 1.90735e-06
27 1 0.261344 0.0449931 0.0935972 0 0.303911 -3.62396e-05
28 1 0.761344 0.0449931 0.0935972 0 0.303921 -3.62396e-05
29 1 0.232208 0.211577 0.593597 0 -0.0173302 -3.8147e-06
30 1 0.732208 0.211577 0.593597 0 -0.0173321 -5.72205e-06
31 1 0.989482 0.169994 0.0935969 0 -0.0163097 -1.90735e-06
32 1 0.489481 0.169994 0.093597 0 -0.0163097 1.90735e-06
ITEM: TIMESTEP
1
ITEM: NUMBER OF ATOMS
32
ITEM: BOX BOUNDS xy xz yz pp pp pp
-3.4762620925903320e-03 7.5176841020584106e+00 1.1196544170379639e+00
-4.2882263660430908e-02 2.2125610172748566e+01 4.4107437133789062e-06
1.5788495540618896e-02 5.1666774749755859e+00 -1.5008449554443359e-04
ITEM: ATOMS id type xs ys zs fx fy fz
1 1 0.960341 0.336603 0.593597 0 -0.00260353 -1.14441e-05
2 1 0.460341 0.336603 0.593597 0 -0.00260162 -1.90735e-06
3 1 0.217614 0.295021 0.0935973 0 0.00310135 -3.8147e-06
4 1 0.717614 0.295021 0.0935972 0 0.00309563 -5.72205e-06
5 1 0.188481 0.461589 0.593597 0 0.00225067 1.90735e-05
6 1 0.688481 0.461589 0.593596 0 0.00224495 2.28882e-05
7 1 0.945757 0.419988 0.093597 0 0.000272751 -9.53674e-06
8 1 0.445757 0.419989 0.0935972 0 0.000282288 -1.71661e-05
9 1 0.916618 0.586591 0.593597 0 -0.000366211 3.8147e-06
10 1 0.416617 0.586591 0.593598 0 -0.000371933 0
11 1 0.144761 0.711553 0.593597 0 -0.00306129 -5.72205e-06
12 1 0.644761 0.711554 0.593597 0 -0.00306511 -5.72205e-06
13 1 0.902033 0.669976 0.0935972 0 0.00253868 9.53674e-06
14 1 0.173893 0.544993 0.0935977 0 -0.0023632 -2.09808e-05
15 1 0.673893 0.544993 0.0935978 0 -0.0023632 -2.67029e-05
16 1 0.402033 0.669976 0.0935972 0 0.00254059 1.52588e-05
17 1 0.872872 0.836706 0.593597 0 -0.099102 -5.72205e-06
18 1 0.372872 0.836706 0.593597 0 -0.0991039 -1.90735e-06
19 1 0.101457 0.959142 0.593598 0 0.0773525 2.67029e-05
20 1 0.601457 0.959143 0.593598 0 0.0773468 2.67029e-05
21 1 0.130142 0.795136 0.0935969 0 -0.108757 1.90735e-06
22 1 0.630142 0.795136 0.0935969 0 -0.108759 1.90735e-06
23 1 0.859094 0.915483 0.0935969 0 -0.0654678 3.24249e-05
24 1 0.359093 0.915483 0.0935968 0 -0.0654736 3.24249e-05
25 1 0.00328279 0.0910857 0.593597 0 0.0655918 -2.86102e-05
26 1 0.503283 0.0910857 0.593597 0 0.0656033 -3.05176e-05
27 1 0.260919 0.0474255 0.0935959 0 -0.0772457 -2.86102e-05
28 1 0.760919 0.0474255 0.0935959 0 -0.0772381 -2.86102e-05
29 1 0.232233 0.211439 0.593597 0 0.108671 3.8147e-06
30 1 0.732233 0.211439 0.593597 0 0.108673 9.53674e-06
31 1 0.989505 0.169864 0.0935969 0 0.0991936 1.33514e-05
32 1 0.489504 0.169864 0.0935971 0 0.099184 1.33514e-05
ITEM: TIMESTEP
2
ITEM: NUMBER OF ATOMS
32
ITEM: BOX BOUNDS xy xz yz pp pp pp
-3.4762620925903320e-03 7.5176841020584106e+00 1.1196544170379639e+00
-4.2882263660430908e-02 2.2125610172748566e+01 4.4107437133789062e-06
1.5788495540618896e-02 5.1666774749755859e+00 -1.5008449554443359e-04
ITEM: ATOMS id type xs ys zs fx fy fz
1 1 0.96035 0.336551 0.593596 0 0.0583801 1.52588e-05
2 1 0.46035 0.336551 0.593597 0 0.0583801 7.62939e-06
3 1 0.217602 0.295091 0.0935969 0 0.077774 -9.53674e-06
4 1 0.717602 0.295091 0.0935967 0 0.0777721 0
5 1 0.188472 0.461638 0.593598 0 -0.00285339 -3.24249e-05
6 1 0.688472 0.461638 0.593598 0 -0.00284576 -3.05176e-05
7 1 0.945756 0.419993 0.0935961 0 0.00274467 2.47955e-05
8 1 0.445756 0.419993 0.0935957 0 0.00273514 3.24249e-05
9 1 0.916619 0.586584 0.593598 0 -0.00276756 -1.71661e-05
10 1 0.416618 0.586584 0.593598 0 -0.00275421 -1.33514e-05
11 1 0.144773 0.711484 0.593597 0 -0.0778446 2.28882e-05
12 1 0.644773 0.711484 0.593597 0 -0.0778503 2.28882e-05
13 1 0.902024 0.670027 0.0935981 0 -0.0584908 -2.28882e-05
14 1 0.173902 0.544941 0.0935959 0 0.00278854 2.09808e-05
15 1 0.673902 0.544941 0.0935954 0 0.00279045 2.47955e-05
16 1 0.402024 0.670027 0.0935987 0 -0.0584908 -2.86102e-05
17 1 0.873241 0.834597 0.593596 0 0.0330238 2.47955e-05
18 1 0.373241 0.834597 0.593597 0 0.03302 1.33514e-05
19 1 0.101228 0.960454 0.593601 0 -0.00561333 3.05176e-05
20 1 0.601228 0.960454 0.593601 0 -0.00560379 2.47955e-05
21 1 0.130547 0.792821 0.093597 0 -0.0100269 -3.8147e-06
22 1 0.630547 0.792821 0.093597 0 -0.010025 -1.90735e-06
23 1 0.859453 0.91343 0.0935999 0 -0.0234146 0
24 1 0.359452 0.91343 0.0935997 0 -0.0234165 1.90735e-06
25 1 0.00292312 0.093142 0.593595 0 0.0234051 -1.14441e-05
26 1 0.502923 0.0931423 0.593595 0 0.0233822 -5.72205e-06
27 1 0.261148 0.0461167 0.0935931 0 0.00569344 -3.05176e-05
28 1 0.761148 0.0461169 0.0935931 0 0.00569153 -2.09808e-05
29 1 0.231828 0.213752 0.593597 0 0.0101547 1.33514e-05
30 1 0.731828 0.213752 0.593598 0 0.0101585 3.8147e-06
31 1 0.989135 0.171974 0.0935981 0 -0.0329609 -2.67029e-05
32 1 0.489135 0.171974 0.0935983 0 -0.0329361 -2.86102e-05
ITEM: TIMESTEP
3
ITEM: NUMBER OF ATOMS
32
ITEM: BOX BOUNDS xy xz yz pp pp pp
-3.4762620925903320e-03 7.5176841020584106e+00 1.1196544170379639e+00
-4.2882263660430908e-02 2.2125610172748566e+01 4.4107437133789062e-06
1.5788495540618896e-02 5.1666774749755859e+00 -1.5008449554443359e-04
ITEM: ATOMS id type xs ys zs fx fy fz
1 1 0.960161 0.337631 0.593597 0 0.0159798 -1.90735e-05
2 1 0.460161 0.337631 0.593597 0 0.015974 -1.90735e-05
3 1 0.217342 0.296577 0.093596 0 5.53131e-05 1.71661e-05
4 1 0.717342 0.296576 0.0935965 0 6.67572e-05 9.53674e-06
5 1 0.188479 0.461601 0.593596 0 0.0227451 2.86102e-05
6 1 0.688479 0.461601 0.593597 0 0.0227375 2.47955e-05
7 1 0.945747 0.420046 0.0935979 0 0.0484543 -1.71661e-05
8 1 0.445747 0.420046 0.0935978 0 0.0484467 -1.52588e-05
9 1 0.916628 0.58653 0.593596 0 -0.0485077 0
10 1 0.416628 0.58653 0.593596 0 -0.0485172 -5.72205e-06
11 1 0.145033 0.709997 0.593598 0 0 -1.71661e-05
12 1 0.645033 0.709997 0.593598 0 -5.72205e-06 -1.71661e-05
13 1 0.902214 0.668944 0.0935966 0 -0.0159569 2.67029e-05
14 1 0.173896 0.544976 0.093597 0 -0.0228004 -1.14441e-05
15 1 0.673896 0.544976 0.0935967 0 -0.0227947 -1.14441e-05
16 1 0.402214 0.668944 0.0935969 0 -0.015955 2.47955e-05
17 1 0.873256 0.83451 0.593598 0 -0.0079689 -7.62939e-06
18 1 0.373256 0.83451 0.593598 0 -0.00797081 -7.62939e-06
19 1 0.101169 0.960789 0.593604 0 -0.000692368 -1.33514e-05
20 1 0.601169 0.960789 0.593604 0 -0.000694275 -3.8147e-06
21 1 0.130716 0.791855 0.0935968 0 -0.017374 1.71661e-05
22 1 0.630716 0.791855 0.0935969 0 -0.0173702 1.90735e-05
23 1 0.85965 0.9123 0.0936009 0 0.0304871 3.62396e-05
24 1 0.35965 0.9123 0.0936008 0 0.0304928 3.24249e-05
25 1 0.00272536 0.0942727 0.593593 0 -0.0303974 -2.86102e-05
26 1 0.502725 0.0942726 0.593593 0 -0.030386 -3.05176e-05
27 1 0.261206 0.0457842 0.0935897 0 0.000694275 1.33514e-05
28 1 0.761206 0.0457845 0.0935904 0 0.000684738 0
29 1 0.231659 0.214719 0.593599 0 0.0173531 -3.05176e-05
30 1 0.731659 0.214719 0.593598 0 0.0173378 -2.28882e-05
31 1 0.98912 0.172063 0.0935963 0 0.00794792 1.52588e-05
32 1 0.489119 0.172064 0.0935964 0 0.00793457 1.33514e-05
ITEM: TIMESTEP
4
ITEM: NUMBER OF ATOMS
32
ITEM: BOX BOUNDS xy xz yz pp pp pp
-3.4762620925903320e-03 7.5176841020584106e+00 1.1196544170379639e+00
-4.2882263660430908e-02 2.2125610172748566e+01 4.4107437133789062e-06
1.5788495540618896e-02 5.1666774749755859e+00 -1.5008449554443359e-04
ITEM: ATOMS id type xs ys zs fx fy fz
1 1 0.960049 0.338272 0.593596 0 0.00832367 2.86102e-05
2 1 0.460049 0.338272 0.593596 0 0.00832748 3.05176e-05
3 1 0.217253 0.297083 0.093597 0 0.000740051 0
4 1 0.717253 0.297083 0.0935972 0 0.000738144 -5.72205e-06
5 1 0.188413 0.461978 0.593598 0 -0.0084877 -7.62939e-06
6 1 0.688413 0.461978 0.593598 0 -0.00848007 -1.52588e-05
7 1 0.945598 0.420894 0.0935972 0 0.00561714 7.62939e-06
8 1 0.445598 0.420894 0.0935974 0 0.00562477 5.72205e-06
9 1 0.916777 0.585681 0.593596 0 -0.00561905 3.8147e-06
10 1 0.416776 0.585681 0.593596 0 -0.00561714 1.14441e-05
11 1 0.145122 0.709491 0.593598 0 -0.000749588 -3.8147e-06
12 1 0.645122 0.709491 0.593597 0 -0.000730515 0
13 1 0.902326 0.668302 0.093598 0 -0.00831604 -1.71661e-05
14 1 0.173962 0.544597 0.0935965 0 0.00846863 -9.53674e-06
15 1 0.673962 0.544597 0.0935962 0 0.008461 1.90735e-06
16 1 0.402326 0.668302 0.0935981 0 -0.00831985 -2.09808e-05
17 1 0.873285 0.834344 0.593598 0 -0.00795364 3.05176e-05
18 1 0.373285 0.834344 0.593597 0 -0.00794411 4.3869e-05
19 1 0.101151 0.960891 0.593604 0 -0.0148277 1.90735e-05
20 1 0.601151 0.960891 0.593605 0 -0.0148296 1.33514e-05
21 1 0.130826 0.791229 0.093598 0 0.00790596 -1.90735e-06
22 1 0.630826 0.791229 0.0935983 0 0.00790215 -1.90735e-06
23 1 0.859626 0.912437 0.0936039 0 -0.00429535 -3.8147e-06
24 1 0.359626 0.912437 0.0936036 0 -0.00429344 -9.53674e-06
25 1 0.00274909 0.094137 0.59359 0 0.00427818 7.62939e-06
26 1 0.502749 0.094137 0.593591 0 0.00428009 -1.90735e-06
27 1 0.261224 0.0456829 0.0935895 0 0.0148582 -1.52588e-05
28 1 0.761224 0.045683 0.0935895 0 0.0148563 -1.52588e-05
29 1 0.231549 0.215346 0.593597 0 -0.0079174 1.90735e-06
30 1 0.731549 0.215346 0.593597 0 -0.00790787 3.8147e-06
31 1 0.989091 0.17223 0.0935969 0 0.00795746 -4.3869e-05
32 1 0.48909 0.17223 0.0935967 0 0.00794983 -3.62396e-05
ITEM: TIMESTEP
5
ITEM: NUMBER OF ATOMS
32
ITEM: BOX BOUNDS xy xz yz pp pp pp
-3.4762620925903320e-03 7.5176841020584106e+00 1.1196544170379639e+00
-4.2882263660430908e-02 2.2125610172748566e+01 4.4107437133789062e-06
1.5788495540618896e-02 5.1666774749755859e+00 -1.5008449554443359e-04
ITEM: ATOMS id type xs ys zs fx fy fz
1 1 0.960016 0.338461 0.593597 0 -0.00557899 -1.14441e-05
2 1 0.460016 0.338461 0.593598 0 -0.0055809 -1.33514e-05
3 1 0.217242 0.297146 0.0935971 0 0.00376511 0
4 1 0.717242 0.297146 0.0935969 0 0.00375748 5.72205e-06
5 1 0.188428 0.46189 0.593597 0 -0.000915527 1.90735e-06
6 1 0.688428 0.46189 0.593597 0 -0.00091362 5.72205e-06
7 1 0.945569 0.421063 0.0935976 0 -0.000219345 -1.90735e-06
8 1 0.445569 0.421063 0.0935977 0 -0.000221252 -1.90735e-06
9 1 0.916807 0.585511 0.593596 0 0.000217438 -3.8147e-06
10 1 0.416806 0.585511 0.593596 0 0.000219345 -9.53674e-06
11 1 0.145133 0.709428 0.593597 0 -0.00377274 5.72205e-06
12 1 0.645133 0.709428 0.593597 0 -0.00377274 3.8147e-06
13 1 0.902359 0.668114 0.0935971 0 0.00556755 7.62939e-06
14 1 0.173947 0.544684 0.0935958 0 0.000921249 1.71661e-05
15 1 0.673947 0.544684 0.0935963 0 0.000919342 3.8147e-06
16 1 0.402359 0.668113 0.0935969 0 0.00557137 1.14441e-05
17 1 0.873308 0.834209 0.5936 0 -0.00572014 -7.62939e-06
18 1 0.373308 0.834209 0.5936 0 -0.00572205 -1.14441e-05
19 1 0.101188 0.960681 0.593606 0 -0.00180817 -5.72205e-06
20 1 0.601188 0.960681 0.593605 0 -0.0018177 -1.90735e-06
21 1 0.130816 0.791282 0.093598 0 -0.00355148 1.90735e-05
22 1 0.630817 0.791282 0.0935983 0 -0.00355339 1.90735e-05
23 1 0.859635 0.912388 0.0936039 0 0.00489235 3.8147e-06
24 1 0.359635 0.912388 0.0936033 0 0.00489044 1.33514e-05
25 1 0.00274041 0.0941867 0.59359 0 -0.00489807 -7.62939e-06
26 1 0.50274 0.0941867 0.59359 0 -0.00490189 -1.90735e-06
27 1 0.261187 0.0458928 0.0935885 0 0.0018158 3.8147e-06
28 1 0.761187 0.0458929 0.0935885 0 0.00181961 3.8147e-06
29 1 0.231559 0.215293 0.593597 0 0.00354767 -2.86102e-05
30 1 0.731559 0.215292 0.593597 0 0.00355721 -3.62396e-05
31 1 0.989067 0.172365 0.0935941 0 0.00574303 1.14441e-05
32 1 0.489067 0.172365 0.0935945 0 0.00574303 5.72205e-06
ITEM: TIMESTEP
6
ITEM: NUMBER OF ATOMS
32
ITEM: BOX BOUNDS xy xz yz pp pp pp
-3.4762620925903320e-03 7.5176841020584106e+00 1.1196544170379639e+00
-4.2882263660430908e-02 2.2125610172748566e+01 4.4107437133789062e-06
1.5788495540618896e-02 5.1666774749755859e+00 -1.5008449554443359e-04
ITEM: ATOMS id type xs ys zs fx fy fz
1 1 0.960024 0.338416 0.593597 0 -0.00137901 3.8147e-06
2 1 0.460024 0.338416 0.593597 0 -0.00138474 9.53674e-06
3 1 0.217227 0.297236 0.0935971 0 0.00276947 -1.33514e-05
4 1 0.717226 0.297235 0.0935972 0 0.00277328 -1.52588e-05
5 1 0.188436 0.461846 0.593597 0 0.000488281 9.53674e-06
6 1 0.688436 0.461846 0.593597 0 0.000490189 5.72205e-06
7 1 0.94556 0.421112 0.0935976 0 -0.000823975 -7.62939e-06
8 1 0.44556 0.421112 0.0935977 0 -0.000823975 -7.62939e-06
9 1 0.916815 0.585463 0.593596 0 0.000818253 2.09808e-05
10 1 0.416815 0.585463 0.593596 0 0.000812531 1.90735e-05
11 1 0.145148 0.709339 0.593598 0 -0.00275421 -1.90735e-06
12 1 0.645148 0.709339 0.593598 0 -0.00277138 1.90735e-06
13 1 0.902351 0.668159 0.0935974 0 0.00138283 -3.8147e-06
14 1 0.173939 0.544728 0.093597 0 -0.000490189 -1.52588e-05
15 1 0.673939 0.544728 0.0935966 0 -0.000484467 -9.53674e-06
16 1 0.402351 0.668159 0.0935974 0 0.00138092 -7.62939e-06
17 1 0.873334 0.834061 0.5936 0 0.000171661 1.33514e-05
18 1 0.373334 0.834061 0.5936 0 0.000171661 1.33514e-05
19 1 0.101205 0.960583 0.593606 0 -1.90735e-06 -3.8147e-06
20 1 0.601205 0.960582 0.593606 0 3.8147e-06 -3.8147e-06
21 1 0.130825 0.791232 0.0935995 0 0.00148201 -1.90735e-06
22 1 0.630825 0.791232 0.0935999 0 0.00148773 -5.72205e-06
23 1 0.859622 0.912463 0.0936043 0 -0.00206375 7.62939e-06
24 1 0.359621 0.912463 0.0936043 0 -0.00206375 1.14441e-05
25 1 0.0027537 0.0941107 0.59359 0 0.0020752 -5.72205e-06
26 1 0.502754 0.0941107 0.59359 0 0.00208092 -3.8147e-06
27 1 0.26117 0.0459918 0.0935885 0 -7.62939e-06 0
28 1 0.76117 0.0459919 0.0935885 0 -5.72205e-06 1.90735e-06
29 1 0.23155 0.215342 0.593594 0 -0.00148392 9.53674e-06
30 1 0.73155 0.215342 0.593594 0 -0.00149345 1.14441e-05
31 1 0.989041 0.172514 0.0935942 0 -0.000177383 -1.52588e-05
32 1 0.489041 0.172514 0.0935942 0 -0.000179291 -1.71661e-05
ITEM: TIMESTEP
7
ITEM: NUMBER OF ATOMS
32
ITEM: BOX BOUNDS xy xz yz pp pp pp
-3.4762620925903320e-03 7.5176841020584106e+00 1.1196544170379639e+00
-4.2882263660430908e-02 2.2125610172748566e+01 4.4107437133789062e-06
1.5788495540618896e-02 5.1666774749755859e+00 -1.5008449554443359e-04
ITEM: ATOMS id type xs ys zs fx fy fz
1 1 0.960028 0.338395 0.593597 0 -0.000183105 -1.33514e-05
2 1 0.460028 0.338395 0.593598 0 -0.000173569 -1.71661e-05
3 1 0.217219 0.297278 0.0935964 0 -1.71661e-05 -3.8147e-06
4 1 0.717219 0.297277 0.0935965 0 -1.52588e-05 1.90735e-06
5 1 0.188435 0.461848 0.593598 0 -2.67029e-05 -7.62939e-06
6 1 0.688435 0.461849 0.593598 0 -2.67029e-05 -7.62939e-06
7 1 0.945561 0.421106 0.0935972 0 0.000301361 3.8147e-06
8 1 0.445561 0.421106 0.0935972 0 0.000293732 1.14441e-05
9 1 0.916814 0.585469 0.593597 0 -0.000299454 -5.72205e-06
10 1 0.416814 0.585469 0.593597 0 -0.000305176 0
11 1 0.145156 0.709297 0.593598 0 1.90735e-05 1.90735e-06
12 1 0.645156 0.709297 0.593598 0 2.47955e-05 0
13 1 0.902347 0.66818 0.0935972 0 0.000177383 1.14441e-05
14 1 0.17394 0.544726 0.0935963 0 2.47955e-05 7.62939e-06
15 1 0.67394 0.544726 0.0935962 0 2.09808e-05 9.53674e-06
16 1 0.402347 0.66818 0.093597 0 0.000181198 5.72205e-06
17 1 0.873336 0.83405 0.593601 0 -0.000429153 0
18 1 0.373336 0.83405 0.593601 0 -0.000432968 -1.90735e-06
19 1 0.101207 0.960574 0.593605 0 0.000871658 3.8147e-06
20 1 0.601207 0.960574 0.593605 0 0.000875473 9.53674e-06
21 1 0.130823 0.791246 0.0935995 0 -3.24249e-05 -1.90735e-06
22 1 0.630823 0.791246 0.0935997 0 -3.24249e-05 0
23 1 0.859625 0.912445 0.0936047 0 -9.72748e-05 1.52588e-05
24 1 0.359625 0.912444 0.093605 0 -9.15527e-05 1.71661e-05
25 1 0.00275037 0.0941297 0.593589 0 0.000106812 -1.71661e-05
26 1 0.50275 0.0941298 0.59359 0 9.15527e-05 -2.28882e-05
27 1 0.261168 0.0460002 0.0935885 0 -0.000871658 -3.8147e-06
28 1 0.761168 0.0460004 0.0935886 0 -0.000875473 -1.90735e-06
29 1 0.231552 0.215328 0.593595 0 3.24249e-05 -1.90735e-06
30 1 0.731552 0.215328 0.593595 0 2.86102e-05 3.8147e-06
31 1 0.989039 0.172524 0.0935934 0 0.000429153 0
32 1 0.489039 0.172524 0.0935933 0 0.000431061 3.8147e-06
ITEM: TIMESTEP
8
ITEM: NUMBER OF ATOMS
32
ITEM: BOX BOUNDS xy xz yz pp pp pp
-3.4762620925903320e-03 7.5176841020584106e+00 1.1196544170379639e+00
-4.2882263660430908e-02 2.2125610172748566e+01 4.4107437133789062e-06
1.5788495540618896e-02 5.1666774749755859e+00 -1.5008449554443359e-04
ITEM: ATOMS id type xs ys zs fx fy fz
1 1 0.960028 0.338391 0.593596 0 0.000133514 3.8147e-06
2 1 0.460028 0.338391 0.593597 0 0.000135422 1.33514e-05
3 1 0.217219 0.29728 0.0935961 0 4.19617e-05 -3.8147e-06
4 1 0.717219 0.29728 0.0935965 0 4.57764e-05 -1.14441e-05
5 1 0.188435 0.461848 0.593597 0 -0.000185013 -1.14441e-05
6 1 0.688435 0.461848 0.593597 0 -0.000190735 -9.53674e-06
7 1 0.945561 0.42111 0.0935974 0 6.29425e-05 -3.8147e-06
8 1 0.445561 0.42111 0.0935979 0 6.48499e-05 -9.53674e-06
9 1 0.916815 0.585465 0.593597 0 -6.48499e-05 -3.8147e-06
10 1 0.416814 0.585465 0.593597 0 -5.91278e-05 -1.90735e-06
11 1 0.145156 0.709294 0.593598 0 -4.57764e-05 7.62939e-06
12 1 0.645156 0.709294 0.593598 0 -5.14984e-05 7.62939e-06
13 1 0.902347 0.668184 0.0935979 0 -0.000137329 -9.53674e-06
14 1 0.17394 0.544726 0.0935967 0 0.000183105 1.71661e-05
15 1 0.67394 0.544726 0.0935967 0 0.000188828 1.33514e-05
16 1 0.402347 0.668184 0.0935974 0 -0.000148773 1.90735e-06
17 1 0.873337 0.834043 0.593601 0 0.000127792 3.8147e-06
18 1 0.373337 0.834043 0.593601 0 0.000127792 1.33514e-05
19 1 0.101205 0.960586 0.593606 0 4.3869e-05 2.86102e-05
20 1 0.601205 0.960586 0.593606 0 4.3869e-05 2.28882e-05
21 1 0.130823 0.791247 0.0935994 0 -0.000101089 0
22 1 0.630823 0.791247 0.0935997 0 -9.72748e-05 0
23 1 0.859625 0.912442 0.0936057 0 -0.000257492 -5.72205e-06
24 1 0.359625 0.912442 0.093606 0 -0.000263214 -1.71661e-05
25 1 0.00274987 0.0941326 0.593588 0 0.000253677 5.72205e-06
26 1 0.50275 0.0941324 0.593588 0 0.000267029 1.33514e-05
27 1 0.26117 0.0459887 0.0935883 0 -4.00543e-05 -2.28882e-05
28 1 0.76117 0.0459888 0.0935884 0 -4.3869e-05 -2.28882e-05
29 1 0.231553 0.215327 0.593595 0 0.000106812 -1.90735e-06
30 1 0.731553 0.215328 0.593595 0 9.72748e-05 -1.90735e-06
31 1 0.989038 0.172531 0.0935933 0 -0.000120163 -5.72205e-06
32 1 0.489037 0.172531 0.0935935 0 -0.000118256 -9.53674e-06
ITEM: TIMESTEP
9
ITEM: NUMBER OF ATOMS
32
ITEM: BOX BOUNDS xy xz yz pp pp pp
-3.4762620925903320e-03 7.5176841020584106e+00 1.1196544170379639e+00
-4.2882263660430908e-02 2.2125610172748566e+01 4.4107437133789062e-06
1.5788495540618896e-02 5.1666774749755859e+00 -1.5008449554443359e-04
ITEM: ATOMS id type xs ys zs fx fy fz
1 1 0.960028 0.338392 0.593597 0 1.90735e-05 -7.62939e-06
2 1 0.460028 0.338392 0.593597 0 2.28882e-05 -1.52588e-05
3 1 0.217219 0.297281 0.0935958 0 2.86102e-05 1.90735e-06
4 1 0.717218 0.297281 0.0935957 0 1.90735e-05 5.72205e-06
5 1 0.188436 0.461845 0.593596 0 5.34058e-05 9.53674e-06
6 1 0.688436 0.461845 0.593596 0 5.34058e-05 1.14441e-05
7 1 0.94556 0.421111 0.0935971 0 5.34058e-05 -1.33514e-05
8 1 0.44556 0.421111 0.0935973 0 5.34058e-05 -1.52588e-05
9 1 0.916815 0.585463 0.593596 0 -5.53131e-05 3.05176e-05
10 1 0.416815 0.585463 0.593597 0 -5.72205e-05 2.86102e-05
11 1 0.145156 0.709293 0.593598 0 -3.24249e-05 -5.72205e-06
12 1 0.645156 0.709293 0.593598 0 -9.53674e-06 -3.8147e-06
13 1 0.902347 0.668182 0.0935973 0 -2.67029e-05 3.8147e-06
14 1 0.173939 0.544729 0.093598 0 -5.34058e-05 -1.52588e-05
15 1 0.673939 0.544729 0.0935978 0 -5.91278e-05 -1.71661e-05
16 1 0.402347 0.668182 0.0935975 0 -1.52588e-05 5.72205e-06
17 1 0.873337 0.834044 0.593601 0 5.72205e-06 -1.90735e-06
18 1 0.373337 0.834044 0.593602 0 7.62939e-06 -1.33514e-05
19 1 0.101204 0.960588 0.593608 0 -1.52588e-05 -5.72205e-06
20 1 0.601204 0.960588 0.593608 0 -1.33514e-05 -7.62939e-06
21 1 0.130823 0.791245 0.0935994 0 -0.000165939 9.53674e-06
22 1 0.630823 0.791245 0.0935997 0 -0.000181198 -1.90735e-06
23 1 0.859626 0.912437 0.0936054 0 4.3869e-05 7.62939e-06
24 1 0.359626 0.912437 0.093605 0 3.8147e-05 1.90735e-05
25 1 0.00274903 0.0941374 0.593589 0 -3.8147e-05 -3.8147e-06
26 1 0.502749 0.0941374 0.593589 0 -4.00543e-05 -1.14441e-05
27 1 0.261171 0.045986 0.0935865 0 2.09808e-05 1.90735e-06
28 1 0.761171 0.0459861 0.0935867 0 2.47955e-05 3.8147e-06
29 1 0.231552 0.215329 0.593594 0 0.000171661 0
30 1 0.731552 0.215329 0.593595 0 0.000183105 -3.8147e-06
31 1 0.989038 0.17253 0.0935929 0 -1.71661e-05 -1.90735e-06
32 1 0.489038 0.17253 0.0935928 0 -1.90735e-05 5.72205e-06
ITEM: TIMESTEP
10
ITEM: NUMBER OF ATOMS
32
ITEM: BOX BOUNDS xy xz yz pp pp pp
-3.4762620925903320e-03 7.5176841020584106e+00 1.1196544170379639e+00
-4.2882263660430908e-02 2.2125610172748566e+01 4.4107437133789062e-06
1.5788495540618896e-02 5.1666774749755859e+00 -1.5008449554443359e-04
ITEM: ATOMS id type xs ys zs fx fy fz
1 1 0.960028 0.338392 0.593597 0 1.90735e-05 -7.62939e-06
2 1 0.460028 0.338392 0.593597 0 2.28882e-05 -1.52588e-05
3 1 0.217219 0.297281 0.0935958 0 2.86102e-05 1.90735e-06
4 1 0.717218 0.297281 0.0935957 0 1.90735e-05 5.72205e-06
5 1 0.188436 0.461845 0.593596 0 5.34058e-05 9.53674e-06
6 1 0.688436 0.461845 0.593596 0 5.34058e-05 1.14441e-05
7 1 0.94556 0.421111 0.0935971 0 5.34058e-05 -1.33514e-05
8 1 0.44556 0.421111 0.0935973 0 5.34058e-05 -1.52588e-05
9 1 0.916815 0.585463 0.593596 0 -5.53131e-05 3.05176e-05
10 1 0.416815 0.585463 0.593597 0 -5.72205e-05 2.86102e-05
11 1 0.145156 0.709293 0.593598 0 -3.24249e-05 -5.72205e-06
12 1 0.645156 0.709293 0.593598 0 -9.53674e-06 -3.8147e-06
13 1 0.902347 0.668182 0.0935973 0 -2.67029e-05 3.8147e-06
14 1 0.173939 0.544729 0.093598 0 -5.34058e-05 -1.52588e-05
15 1 0.673939 0.544729 0.0935978 0 -5.91278e-05 -1.71661e-05
16 1 0.402347 0.668182 0.0935975 0 -1.52588e-05 5.72205e-06
17 1 0.873337 0.834044 0.593601 0 5.72205e-06 -1.90735e-06
18 1 0.373337 0.834044 0.593602 0 7.62939e-06 -1.33514e-05
19 1 0.101204 0.960588 0.593608 0 -1.52588e-05 -5.72205e-06
20 1 0.601204 0.960588 0.593608 0 -1.33514e-05 -7.62939e-06
21 1 0.130823 0.791245 0.0935994 0 -0.000165939 9.53674e-06
22 1 0.630823 0.791245 0.0935997 0 -0.000181198 -1.90735e-06
23 1 0.859626 0.912437 0.0936054 0 4.3869e-05 7.62939e-06
24 1 0.359626 0.912437 0.093605 0 3.8147e-05 1.90735e-05
25 1 0.00274903 0.0941374 0.593589 0 -3.8147e-05 -3.8147e-06
26 1 0.502749 0.0941374 0.593589 0 -4.00543e-05 -1.14441e-05
27 1 0.261171 0.045986 0.0935865 0 2.09808e-05 1.90735e-06
28 1 0.761171 0.0459861 0.0935867 0 2.47955e-05 3.8147e-06
29 1 0.231552 0.215329 0.593594 0 0.000171661 0
30 1 0.731552 0.215329 0.593595 0 0.000183105 -3.8147e-06
31 1 0.989038 0.17253 0.0935929 0 -1.71661e-05 -1.90735e-06
32 1 0.489038 0.17253 0.0935928 0 -1.90735e-05 5.72205e-06
