ITEM: TIMESTEP
0
ITEM: NUMBER OF ATOMS
32
ITEM: BOX BOUNDS xy xz yz pp pp pp
3.0272657245757604e-03 6.3938049081754240e+00 0.0000000000000000e+00
-3.1320509042145829e-03 7.7329885168258983e+00 0.0000000000000000e+00
2.7435269680358088e-02 2.0697951192719628e+01 2.2094252905216849e+00
ITEM: ATOMS id type xs ys zs fx fy fz
1 1 0.999986 0.642396 0.0597554 3.68935e-07 0 1.06477
2 1 0.499986 0.642396 0.0597554 -1.85246e-08 0 1.06477
3 1 0.249986 0.142397 0.0597529 -3.19356e-07 0 1.06518
4 1 0.749986 0.142397 0.0597529 2.81785e-07 0 1.06518
5 1 0.999986 0.542464 0.309761 1.68889e-07 0 0.003638
6 1 0.249986 0.426527 0.18476 -4.24508e-07 0 0.0173806
7 1 0.749986 0.426527 0.18476 2.90267e-07 0 0.0173809
8 1 0.499986 0.542464 0.309761 2.3516e-08 0 0.00363778
9 1 0.999986 0.926529 0.184758 9.31032e-08 0 0.0174428
10 1 0.249986 0.0424628 0.309759 -4.44735e-07 0 0.00371709
11 1 0.499986 0.926529 0.184758 -3.16733e-07 0 0.0174429
12 1 0.749986 0.0424628 0.309759 5.18823e-07 0 0.00371693
13 1 0.999986 0.442507 0.559747 1.85712e-07 0 0.000850752
14 1 0.499986 0.442507 0.559747 -4.00352e-07 0 0.000850826
15 1 0.249986 0.942508 0.559747 -4.61767e-07 0 0.000838378
16 1 0.749986 0.942508 0.559747 3.37369e-07 0 0.000837932
17 1 0.249986 0.326589 0.434755 -4.50896e-07 0 -0.000846198
18 1 0.749986 0.326589 0.434755 5.24087e-07 0 -0.000846459
19 1 0.999986 0.826591 0.434755 1.37021e-07 0 -0.000862244
20 1 0.499986 0.826591 0.434755 -1.86526e-07 0 -0.000861993
21 1 0.999986 0.342559 0.809742 2.01981e-07 0 -0.0174281
22 1 0.249986 0.22663 0.684743 -5.35016e-07 0 -0.0037165
23 1 0.499986 0.342559 0.809742 -1.10187e-07 0 -0.0174277
24 1 0.749986 0.22663 0.684743 3.51341e-07 0 -0.00371646
25 1 0.999986 0.726629 0.684741 2.41881e-07 0 -0.0036548
26 1 0.249986 0.84256 0.809741 -4.2234e-07 0 -0.0173924
27 1 0.749986 0.84256 0.809741 3.90806e-07 0 -0.0173925
28 1 0.499986 0.726629 0.684741 -1.47149e-07 0 -0.00365443
29 1 0.249986 0.126689 0.934748 -4.65545e-07 0 -1.06516
30 1 0.749986 0.126689 0.934748 3.27127e-07 0 -1.06516
31 1 0.999986 0.626688 0.934746 3.37153e-07 0 -1.06475
32 1 0.499986 0.626688 0.934746 -7.08969e-08 0 -1.06475
ITEM: TIMESTEP
9
ITEM: NUMBER OF ATOMS
32
ITEM: BOX BOUNDS xy xz yz pp pp pp
3.0272657245757604e-03 6.3938049081754240e+00 0.0000000000000000e+00
-3.1320509042145829e-03 7.7329885168258983e+00 0.0000000000000000e+00
2.7435269680358088e-02 2.0697951192719628e+01 2.2094252905216849e+00
ITEM: ATOMS id type xs ys zs fx fy fz
1 1 0.999986 0.638889 0.0685296 4.55475e-07 0 0.000350111
2 1 0.499986 0.638889 0.0685296 2.33907e-07 0 0.000356086
3 1 0.249986 0.138889 0.0685295 5.29224e-07 0 0.000358319
4 1 0.749986 0.138889 0.0685295 -8.68793e-07 0 0.000352447
5 1 0.999986 0.54089 0.313698 -5.98433e-07 0 3.29362e-05
6 1 0.249986 0.423952 0.191202 2.98693e-07 0 -0.000256999
7 1 0.749986 0.423952 0.191202 -1.06252e-06 0 -0.000257321
8 1 0.499986 0.54089 0.313698 6.39237e-07 0 3.29314e-05
9 1 0.999986 0.923953 0.191201 7.78455e-07 0 -0.00025444
10 1 0.249986 0.0408881 0.313698 -2.07539e-07 0 3.24218e-05
11 1 0.499986 0.923953 0.191201 -4.79235e-07 0 -0.00025614
12 1 0.749986 0.0408881 0.313698 4.97784e-07 0 3.45628e-05
13 1 0.999986 0.44303 0.55844 6.96193e-07 0 -0.000266675
14 1 0.499986 0.44303 0.55844 -2.72295e-07 0 -0.000266105
15 1 0.249986 0.943031 0.55844 4.88888e-07 0 -0.000265694
16 1 0.749986 0.943031 0.55844 -4.86754e-07 0 -0.000266032
17 1 0.249986 0.326067 0.436062 4.84317e-07 0 0.000265414
18 1 0.749986 0.326067 0.436062 -9.14078e-07 0 0.0002648
19 1 0.999986 0.826069 0.436062 -8.57573e-07 0 0.000266459
20 1 0.499986 0.826069 0.436062 8.69843e-07 0 0.000266928
21 1 0.999986 0.345135 0.8033 1.25302e-06 0 0.000256534
22 1 0.249986 0.228205 0.680803 8.50514e-07 0 -3.25403e-05
23 1 0.499986 0.345135 0.8033 -7.39406e-07 0 0.000251113
24 1 0.749986 0.228205 0.680803 -1.45775e-06 0 -3.23347e-05
25 1 0.999986 0.728204 0.680803 6.22298e-07 0 -3.23931e-05
26 1 0.249986 0.845135 0.8033 1.99045e-06 0 0.000252214
27 1 0.749986 0.845135 0.8033 -1.84664e-06 0 0.00025161
28 1 0.499986 0.728204 0.680803 -4.53088e-07 0 -3.10351e-05
29 1 0.249986 0.130197 0.925972 -4.28223e-07 0 -0.000357277
30 1 0.749986 0.130197 0.925972 7.33489e-07 0 -0.000349696
31 1 0.999986 0.630196 0.925972 -7.57907e-07 0 -0.000346708
32 1 0.499986 0.630196 0.925972 -5.93718e-08 0 -0.000353791
