ITEM: TIMESTEP
0
ITEM: NUMBER OF ATOMS
32
ITEM: BOX BOUNDS xy xz yz pp pp pp
-2.1013021469116211e-03 7.5160641074180603e+00 1.1194137930870056e+00
-4.1524946689605713e-02 2.2124402940273285e+01 -0.0000000000000000e+00
-1.4066457748413086e-02 5.1965324282646179e+00 0.0000000000000000e+00
ITEM: ATOMS id type xs ys zs fx fy fz
1 1 0.960325 0.336621 0.593597 0 0.00118947 -1.19209e-07
2 1 0.460325 0.336621 0.593597 0 0.00119007 -4.76837e-07
3 1 0.217614 0.294954 0.093597 0 0.00168335 7.15256e-07
4 1 0.717614 0.294954 0.0935971 0 0.00168204 2.38419e-07
5 1 0.188457 0.461621 0.593597 0 -3.68357e-05 3.57628e-07
6 1 0.688457 0.461621 0.593597 0 -3.73125e-05 1.19209e-07
7 1 0.945746 0.419954 0.0935971 0 -7.70092e-05 -4.76837e-07
8 1 0.445746 0.419954 0.0935971 0 -7.72476e-05 0
9 1 0.916589 0.586621 0.593597 0 7.22408e-05 -3.57628e-07
10 1 0.416589 0.586621 0.593597 0 7.20024e-05 -7.15256e-07
11 1 0.144721 0.711621 0.593597 0 -0.00168419 -1.3113e-06
12 1 0.644721 0.711621 0.593597 0 -0.00168395 -1.3113e-06
13 1 0.90201 0.669954 0.093597 0 -0.00119507 1.3113e-06
14 1 0.173878 0.544954 0.0935971 0 3.85046e-05 1.19209e-07
15 1 0.673878 0.544954 0.0935971 0 3.88622e-05 -1.19209e-07
16 1 0.40201 0.669954 0.093597 0 -0.00119472 1.43051e-06
17 1 0.872853 0.83662 0.593597 0 0.00905585 2.38419e-07
18 1 0.372853 0.83662 0.593597 0 0.00905478 -1.19209e-07
19 1 0.100986 0.96162 0.593597 0 -0.324485 -1.19209e-07
20 1 0.600986 0.96162 0.593597 0 -0.324485 -1.19209e-07
21 1 0.130143 0.794954 0.093597 0 0.00319791 3.57628e-07
22 1 0.630143 0.794954 0.0935971 0 0.00319815 2.38419e-07
23 1 0.858275 0.919954 0.0935971 0 -0.527009 -4.76837e-07
24 1 0.358275 0.919954 0.093597 0 -0.527008 7.15256e-07
25 1 0.00406034 0.0866205 0.593597 0 0.527014 -9.53674e-07
26 1 0.50406 0.0866205 0.593597 0 0.527014 -5.96046e-07
27 1 0.26135 0.0449538 0.093597 0 0.324482 8.34465e-07
28 1 0.76135 0.0449538 0.093597 0 0.324483 4.76837e-07
29 1 0.232192 0.211621 0.593597 0 -0.0031966 -4.76837e-07
30 1 0.732192 0.211621 0.593597 0 -0.00319767 -7.15256e-07
31 1 0.989482 0.169954 0.093597 0 -0.0090493 1.07288e-06
32 1 0.489482 0.169954 0.0935971 0 -0.00904965 2.38419e-07
ITEM: TIMESTEP
1
ITEM: NUMBER OF ATOMS
32
ITEM: BOX BOUNDS xy xz yz pp pp pp
-2.1013021469116211e-03 7.5160641074180603e+00 1.1194137930870056e+00
-4.1524946689605713e-02 2.2124402940273285e+01 -0.0000000000000000e+00
-1.4066457748413086e-02 5.1965324282646179e+00 0.0000000000000000e+00
ITEM: ATOMS id type xs ys zs fx fy fz
1 1 0.960323 0.33663 0.593597 0 0.00265563 0
2 1 0.460323 0.33663 0.593597 0 0.00265598 -4.76837e-07
3 1 0.217611 0.294968 0.0935971 0 0.0123416 2.38419e-07
4 1 0.717611 0.294968 0.0935971 0 0.0123411 5.96046e-07
5 1 0.188457 0.46162 0.593597 0 0.000338674 1.19209e-07
6 1 0.688457 0.46162 0.593597 0 0.000338554 -3.57628e-07
7 1 0.945746 0.419953 0.0935971 0 -0.00103247 -2.38419e-07
8 1 0.445746 0.419953 0.0935971 0 -0.00103271 0
9 1 0.916589 0.586621 0.593597 0 0.00102937 -1.19209e-07
10 1 0.416589 0.586621 0.593597 0 0.00102901 -1.19209e-07
11 1 0.144724 0.711607 0.593597 0 -0.0123409 -4.76837e-07
12 1 0.644724 0.711607 0.593597 0 -0.0123407 -3.57628e-07
13 1 0.902012 0.669944 0.0935971 0 -0.00265729 2.38419e-07
14 1 0.173878 0.544954 0.0935971 0 -0.000339866 0
15 1 0.673878 0.544954 0.0935971 0 -0.000339508 2.38419e-07
16 1 0.402012 0.669944 0.0935971 0 -0.00265741 5.96046e-07
17 1 0.87284 0.836695 0.593597 0 -0.097682 0
18 1 0.37284 0.836695 0.593597 0 -0.097682 -1.19209e-07
19 1 0.101456 0.958933 0.593597 0 0.0700828 0
20 1 0.601456 0.958933 0.593597 0 0.0700827 -1.19209e-07
21 1 0.130138 0.79498 0.0935971 0 -0.106502 2.38419e-07
22 1 0.630138 0.79498 0.0935971 0 -0.106502 0
23 1 0.859038 0.915589 0.0935971 0 -0.0425843 -1.19209e-07
24 1 0.359038 0.915589 0.093597 0 -0.0425853 3.57628e-07
25 1 0.00329678 0.0909851 0.593597 0 0.0425866 -2.38419e-07
26 1 0.503297 0.0909851 0.593597 0 0.0425864 -1.19209e-07
27 1 0.260879 0.0476411 0.093597 0 -0.0700803 4.76837e-07
28 1 0.760879 0.0476411 0.093597 0 -0.0700808 1.19209e-07
29 1 0.232197 0.211594 0.593597 0 0.106501 0
30 1 0.732197 0.211594 0.593597 0 0.106501 -1.19209e-07
31 1 0.989495 0.169879 0.0935971 0 0.0976843 1.19209e-07
32 1 0.489495 0.169879 0.0935971 0 0.0976841 -3.57628e-07
ITEM: TIMESTEP
2
ITEM: NUMBER OF ATOMS
32
ITEM: BOX BOUNDS xy xz yz pp pp pp
-2.1013021469116211e-03 7.5160641074180603e+00 1.1194137930870056e+00
-4.1524946689605713e-02 2.2124402940273285e+01 -0.0000000000000000e+00
-1.4066457748413086e-02 5.1965324282646179e+00 0.0000000000000000e+00
ITEM: ATOMS id type xs ys zs fx fy fz
1 1 0.960311 0.336698 0.593597 0 0.0586706 2.38419e-07
2 1 0.460311 0.336698 0.593597 0 0.0586705 7.15256e-07
3 1 0.217558 0.295272 0.0935971 0 0.0685748 -4.76837e-07
4 1 0.717558 0.295272 0.0935971 0 0.0685754 -4.76837e-07
5 1 0.188455 0.461628 0.593597 0 0.00349915 -2.38419e-07
6 1 0.688455 0.461628 0.593597 0 0.00349927 5.96046e-07
7 1 0.945751 0.419928 0.0935971 0 0.0149467 0
8 1 0.445751 0.419928 0.0935971 0 0.0149472 -3.57628e-07
9 1 0.916584 0.586646 0.593597 0 -0.0149471 1.19209e-07
10 1 0.416585 0.586646 0.593597 0 -0.0149463 2.38419e-07
11 1 0.144777 0.711302 0.593597 0 -0.0685755 8.34465e-07
12 1 0.644777 0.711302 0.593597 0 -0.0685756 5.96046e-07
13 1 0.902024 0.669877 0.0935971 0 -0.0586722 -3.57628e-07
14 1 0.17388 0.544946 0.0935971 0 -0.00350094 -3.57628e-07
15 1 0.67388 0.544946 0.0935971 0 -0.00350153 -3.57628e-07
16 1 0.402024 0.669877 0.0935971 0 -0.058672 -7.15256e-07
17 1 0.873255 0.834326 0.593597 0 0.0289297 0
18 1 0.373255 0.834326 0.593597 0 0.028929 4.76837e-07
19 1 0.101262 0.960039 0.593597 0 -0.000295997 0
20 1 0.601262 0.960039 0.593597 0 -0.000296116 2.38419e-07
21 1 0.130592 0.792385 0.0935971 0 -0.00317693 -3.57628e-07
22 1 0.630592 0.792385 0.0935971 0 -0.00317657 -2.38419e-07
23 1 0.859392 0.913566 0.0935971 0 -0.0133559 -1.19209e-07
24 1 0.359392 0.913566 0.0935971 0 -0.0133544 -2.38419e-07
25 1 0.00294278 0.0930086 0.593597 0 0.0133548 4.76837e-07
26 1 0.502943 0.0930086 0.593597 0 0.0133553 1.19209e-07
27 1 0.261073 0.0465349 0.0935971 0 0.000297666 -2.38419e-07
28 1 0.761073 0.0465349 0.0935971 0 0.000298738 -1.19209e-07
29 1 0.231743 0.214189 0.593597 0 0.00317788 0
30 1 0.731743 0.214189 0.593597 0 0.00317788 3.57628e-07
31 1 0.98908 0.172248 0.0935971 0 -0.028929 -3.57628e-07
32 1 0.48908 0.172248 0.093597 0 -0.0289285 0
ITEM: TIMESTEP
3
ITEM: NUMBER OF ATOMS
32
ITEM: BOX BOUNDS xy xz yz pp pp pp
-2.1013021469116211e-03 7.5160641074180603e+00 1.1194137930870056e+00
-4.1524946689605713e-02 2.2124402940273285e+01 -0.0000000000000000e+00
-1.4066457748413086e-02 5.1965324282646179e+00 0.0000000000000000e+00
ITEM: ATOMS id type xs ys zs fx fy fz
1 1 0.960061 0.338128 0.593597 0 0.00640905 -3.57628e-07
2 1 0.460061 0.338128 0.593597 0 0.00640893 -3.57628e-07
3 1 0.217251 0.297027 0.0935971 0 -0.00812387 5.96046e-07
4 1 0.717251 0.297027 0.0935971 0 -0.00812376 -2.38419e-07
5 1 0.18844 0.461715 0.593597 0 0.0184737 -2.38419e-07
6 1 0.68844 0.461715 0.593597 0 0.0184735 -4.76837e-07
7 1 0.94569 0.420277 0.0935971 0 0.0440843 3.57628e-07
8 1 0.44569 0.420277 0.0935971 0 0.0440843 4.76837e-07
9 1 0.916645 0.586297 0.593597 0 -0.0440838 -1.19209e-07
10 1 0.416646 0.586297 0.593597 0 -0.0440842 -2.38419e-07
11 1 0.145084 0.709547 0.593597 0 0.00812435 -3.57628e-07
12 1 0.645084 0.709547 0.593597 0 0.00812471 -2.38419e-07
13 1 0.902274 0.668446 0.0935971 0 -0.00640869 1.19209e-07
14 1 0.173895 0.544859 0.0935971 0 -0.0184758 4.76837e-07
15 1 0.673895 0.544859 0.0935971 0 -0.0184758 1.19209e-07
16 1 0.402274 0.668446 0.0935971 0 -0.00640821 0
17 1 0.873285 0.834153 0.593597 0 -0.00643981 -3.57628e-07
18 1 0.373285 0.834153 0.593597 0 -0.00643873 -3.57628e-07
19 1 0.101193 0.960437 0.593597 0 -0.00376797 -1.19209e-07
20 1 0.601193 0.960437 0.593597 0 -0.00376809 -1.19209e-07
21 1 0.130772 0.791359 0.0935971 0 -0.0142179 3.57628e-07
22 1 0.630772 0.791359 0.093597 0 -0.014218 4.76837e-07
23 1 0.859578 0.912505 0.093597 0 0.0245641 4.76837e-07
24 1 0.359578 0.912505 0.0935971 0 0.0245626 1.19209e-07
25 1 0.00275721 0.0940694 0.593597 0 -0.0245614 -1.19209e-07
26 1 0.502757 0.0940694 0.593597 0 -0.0245618 0
27 1 0.261143 0.0461371 0.0935971 0 0.00376785 0
28 1 0.761143 0.0461371 0.0935971 0 0.00376737 1.19209e-07
29 1 0.231564 0.215215 0.593597 0 0.0142174 -3.57628e-07
30 1 0.731564 0.215215 0.593597 0 0.0142173 -1.19209e-07
31 1 0.98905 0.172422 0.0935971 0 0.00643921 1.19209e-07
32 1 0.48905 0.172422 0.093597 0 0.00643897 3.57628e-07
ITEM: TIMESTEP
4
ITEM: NUMBER OF ATOMS
32
ITEM: BOX BOUNDS xy xz yz pp pp pp
-2.1013021469116211e-03 7.5160641074180603e+00 1.1194137930870056e+00
-4.1524946689605713e-02 2.2124402940273285e+01 -0.0000000000000000e+00
-1.4066457748413086e-02 5.1965324282646179e+00 0.0000000000000000e+00
ITEM: ATOMS id type xs ys zs fx fy fz
1 1 0.959989 0.338541 0.593597 0 0.0046078 -1.19209e-07
2 1 0.459989 0.338541 0.593597 0 0.00460804 1.19209e-07
3 1 0.217206 0.297285 0.0935971 0 0.00150955 -2.38419e-07
4 1 0.717206 0.297285 0.0935971 0 0.0015099 3.57628e-07
5 1 0.188387 0.462021 0.593597 0 -0.00790787 3.57628e-07
6 1 0.688387 0.462021 0.593597 0 -0.00790787 -1.19209e-07
7 1 0.945557 0.421037 0.0935971 0 0.00344086 -2.38419e-07
8 1 0.445557 0.421037 0.0935971 0 0.00344026 -1.19209e-07
9 1 0.916778 0.585538 0.593597 0 -0.00344157 0
10 1 0.416778 0.585538 0.593597 0 -0.00344157 0
11 1 0.145129 0.709289 0.593597 0 -0.00150979 -1.19209e-07
12 1 0.645129 0.709289 0.593597 0 -0.0015105 -1.19209e-07
13 1 0.902346 0.668034 0.0935971 0 -0.00460804 1.19209e-07
14 1 0.173948 0.544554 0.0935971 0 0.00790823 0
15 1 0.673948 0.544554 0.0935971 0 0.00790823 -1.19209e-07
16 1 0.402346 0.668034 0.0935971 0 -0.00460863 1.19209e-07
17 1 0.873309 0.834015 0.593597 0 -0.0042541 4.76837e-07
18 1 0.373309 0.834015 0.593597 0 -0.00425386 0
19 1 0.101188 0.960466 0.593597 0 -0.0129282 0
20 1 0.601188 0.960466 0.593597 0 -0.0129279 1.19209e-07
21 1 0.130849 0.790914 0.0935971 0 0.00447214 -1.19209e-07
22 1 0.630849 0.790914 0.0935971 0 0.00447214 -1.19209e-07
23 1 0.859552 0.912654 0.0935971 0 -0.000561595 -1.19209e-07
24 1 0.359552 0.912654 0.0935971 0 -0.000561357 -1.19209e-07
25 1 0.00278327 0.0939204 0.593597 0 0.000561833 0
26 1 0.502783 0.0939204 0.593597 0 0.000560641 2.38419e-07
27 1 0.261148 0.0461086 0.0935971 0 0.0129281 0
28 1 0.761148 0.0461086 0.0935971 0 0.0129286 -1.19209e-07
29 1 0.231486 0.21566 0.593597 0 -0.00447094 1.19209e-07
30 1 0.731486 0.21566 0.593597 0 -0.0044713 -3.57628e-07
31 1 0.989026 0.172559 0.0935971 0 0.0042547 2.38419e-07
32 1 0.489026 0.172559 0.0935971 0 0.0042541 -1.19209e-07
ITEM: TIMESTEP
5
ITEM: NUMBER OF ATOMS
32
ITEM: BOX BOUNDS xy xz yz pp pp pp
-2.1013021469116211e-03 7.5160641074180603e+00 1.1194137930870056e+00
-4.1524946689605713e-02 2.2124402940273285e+01 -0.0000000000000000e+00
-1.4066457748413086e-02 5.1965324282646179e+00 0.0000000000000000e+00
ITEM: ATOMS id type xs ys zs fx fy fz
1 1 0.959967 0.338664 0.593597 0 -0.00443304 0
2 1 0.459967 0.338664 0.593597 0 -0.00443256 -1.19209e-07
3 1 0.217197 0.297338 0.0935971 0 0.00350499 0
4 1 0.717197 0.297338 0.0935971 0 0.00350416 -2.38419e-07
5 1 0.188406 0.46191 0.593597 0 -0.000673532 -3.57628e-07
6 1 0.688406 0.46191 0.593597 0 -0.000673652 1.19209e-07
7 1 0.945533 0.421174 0.0935971 0 -0.00035274 2.38419e-07
8 1 0.445533 0.421174 0.0935971 0 -0.000351906 1.19209e-07
9 1 0.916803 0.5854 0.593597 0 0.00035274 3.57628e-07
10 1 0.416803 0.5854 0.593597 0 0.000352144 0
11 1 0.145138 0.709236 0.593597 0 -0.00350547 -1.19209e-07
12 1 0.645138 0.709236 0.593597 0 -0.00350451 -1.19209e-07
13 1 0.902368 0.66791 0.0935971 0 0.00443304 -1.19209e-07
14 1 0.173929 0.544665 0.0935971 0 0.000673413 -2.38419e-07
15 1 0.673929 0.544665 0.0935971 0 0.000673413 0
16 1 0.402368 0.66791 0.0935971 0 0.00443304 0
17 1 0.873325 0.833925 0.593597 0 -0.00472617 0
18 1 0.373325 0.833925 0.593597 0 -0.00472701 0
19 1 0.101228 0.960237 0.593597 0 0.000315547 0
20 1 0.601228 0.960237 0.593597 0 0.000314832 -1.19209e-07
21 1 0.130843 0.79095 0.0935971 0 -0.00160933 0
22 1 0.630843 0.79095 0.0935971 0 -0.00160921 2.38419e-07
23 1 0.859551 0.912659 0.0935971 0 0.00506735 0
24 1 0.359551 0.912659 0.0935971 0 0.00506747 1.19209e-07
25 1 0.00278411 0.0939156 0.593597 0 -0.00506699 0
26 1 0.502784 0.0939155 0.593597 0 -0.00506568 -3.57628e-07
27 1 0.261108 0.0463371 0.0935971 0 -0.000315189 0
28 1 0.761108 0.0463372 0.0935971 0 -0.000315309 1.19209e-07
29 1 0.231492 0.215625 0.593597 0 0.00160861 1.19209e-07
30 1 0.731492 0.215625 0.593597 0 0.00160849 2.38419e-07
31 1 0.98901 0.172649 0.0935971 0 0.00472689 -2.38419e-07
32 1 0.48901 0.172649 0.0935971 0 0.00472617 3.57628e-07
ITEM: TIMESTEP
6
ITEM: NUMBER OF ATOMS
32
ITEM: BOX BOUNDS xy xz yz pp pp pp
-2.1013021469116211e-03 7.5160641074180603e+00 1.1194137930870056e+00
-4.1524946689605713e-02 2.2124402940273285e+01 -0.0000000000000000e+00
-1.4066457748413086e-02 5.1965324282646179e+00 0.0000000000000000e+00
ITEM: ATOMS id type xs ys zs fx fy fz
1 1 0.959975 0.338618 0.593597 0 -0.00166357 0
2 1 0.459975 0.338619 0.593597 0 -0.00166428 -2.38419e-07
3 1 0.217182 0.29742 0.0935971 0 0.00196397 2.38419e-07
4 1 0.717182 0.29742 0.0935971 0 0.00196385 -1.19209e-07
5 1 0.188414 0.461863 0.593597 0 0.000881553 0
6 1 0.688414 0.461863 0.593597 0 0.000881553 0
7 1 0.945526 0.42121 0.0935971 0 3.44515e-05 0
8 1 0.445526 0.42121 0.0935971 0 3.43323e-05 0
9 1 0.916809 0.585365 0.593597 0 -3.48091e-05 -1.19209e-07
10 1 0.416809 0.585365 0.593597 0 -3.42131e-05 1.19209e-07
11 1 0.145153 0.709154 0.593597 0 -0.00196338 0
12 1 0.645153 0.709154 0.593597 0 -0.00196397 2.38419e-07
13 1 0.90236 0.667956 0.0935971 0 0.00166392 -1.19209e-07
14 1 0.173921 0.544711 0.0935971 0 -0.00088203 1.19209e-07
15 1 0.673921 0.544711 0.0935971 0 -0.000881791 1.19209e-07
16 1 0.40236 0.667956 0.0935971 0 0.00166416 -4.76837e-07
17 1 0.873345 0.833808 0.593597 0 -0.000236154 -2.38419e-07
18 1 0.373345 0.833808 0.593597 0 -0.000235677 1.19209e-07
19 1 0.101239 0.960173 0.593597 0 -0.000336289 0
20 1 0.601239 0.960173 0.593597 0 -0.000335336 0
21 1 0.130847 0.79093 0.0935971 0 0.00189388 1.19209e-07
22 1 0.630847 0.79093 0.0935971 0 0.00189388 -1.19209e-07
23 1 0.859534 0.912756 0.0935971 0 -0.00219297 2.38419e-07
24 1 0.359534 0.912756 0.0935971 0 -0.00219309 0
25 1 0.0028011 0.0938185 0.593597 0 0.0021925 0
26 1 0.502801 0.0938185 0.593597 0 0.00219166 2.38419e-07
27 1 0.261096 0.0464013 0.0935971 0 0.000337124 -1.19209e-07
28 1 0.761096 0.0464013 0.0935971 0 0.000336289 0
29 1 0.231489 0.215644 0.593597 0 -0.00189376 0
30 1 0.731489 0.215644 0.593597 0 -0.00189364 0
31 1 0.98899 0.172766 0.0935971 0 0.000235319 0
32 1 0.48899 0.172766 0.0935971 0 0.000236511 0
ITEM: TIMESTEP
7
ITEM: NUMBER OF ATOMS
32
ITEM: BOX BOUNDS xy xz yz pp pp pp
-2.1013021469116211e-03 7.5160641074180603e+00 1.1194137930870056e+00
-4.1524946689605713e-02 2.2124402940273285e+01 -0.0000000000000000e+00
-1.4066457748413086e-02 5.1965324282646179e+00 0.0000000000000000e+00
ITEM: ATOMS id type xs ys zs fx fy fz
1 1 0.95998 0.338588 0.593597 0 -9.94205e-05 0
2 1 0.45998 0.338588 0.593597 0 -9.9659e-05 3.57628e-07
3 1 0.217175 0.297461 0.0935971 0 -6.29425e-05 -2.38419e-07
4 1 0.717175 0.297461 0.0935971 0 -6.28233e-05 1.19209e-07
5 1 0.188413 0.461869 0.593597 0 -0.000288486 0
6 1 0.688413 0.461869 0.593597 0 -0.000288248 1.19209e-07
7 1 0.945525 0.421215 0.0935971 0 0.000166178 -2.38419e-07
8 1 0.445525 0.421215 0.0935971 0 0.000166178 -1.19209e-07
9 1 0.91681 0.585359 0.593597 0 -0.000166059 -2.38419e-07
10 1 0.41681 0.585359 0.593597 0 -0.00016582 0
11 1 0.14516 0.709114 0.593597 0 6.29425e-05 1.19209e-07
12 1 0.64516 0.709114 0.593597 0 6.29425e-05 -1.19209e-07
13 1 0.902355 0.667987 0.0935971 0 9.94205e-05 -1.19209e-07
14 1 0.173922 0.544705 0.0935971 0 0.000288248 -1.19209e-07
15 1 0.673922 0.544705 0.0935971 0 0.00028801 1.19209e-07
16 1 0.402355 0.667987 0.0935971 0 9.95398e-05 3.57628e-07
17 1 0.873349 0.833788 0.593597 0 -0.000283837 0
18 1 0.373349 0.833788 0.593597 0 -0.00028348 0
19 1 0.101241 0.960159 0.593597 0 0.0006634 1.19209e-07
20 1 0.601241 0.960159 0.593597 0 0.000662684 0
21 1 0.130842 0.790955 0.0935971 0 7.1764e-05 0
22 1 0.630842 0.790955 0.0935971 0 7.16448e-05 0
23 1 0.859537 0.912738 0.0935971 0 -0.000109076 0
24 1 0.359537 0.912738 0.0935971 0 -0.000109076 -1.19209e-07
25 1 0.00279795 0.0938365 0.593597 0 0.000108957 -1.19209e-07
26 1 0.502798 0.0938364 0.593597 0 0.000109553 -1.19209e-07
27 1 0.261094 0.0464154 0.0935971 0 -0.00066328 1.19209e-07
28 1 0.761094 0.0464154 0.0935971 0 -0.00066328 0
29 1 0.231493 0.215619 0.593597 0 -7.18832e-05 0
30 1 0.731493 0.215619 0.593597 0 -7.20024e-05 -1.19209e-07
31 1 0.988986 0.172786 0.0935971 0 0.000283837 2.38419e-07
32 1 0.488986 0.172786 0.0935971 0 0.000284076 0
ITEM: TIMESTEP
8
ITEM: NUMBER OF ATOMS
32
ITEM: BOX BOUNDS xy xz yz pp pp pp
-2.1013021469116211e-03 7.5160641074180603e+00 1.1194137930870056e+00
-4.1524946689605713e-02 2.2124402940273285e+01 -0.0000000000000000e+00
-1.4066457748413086e-02 5.1965324282646179e+00 0.0000000000000000e+00
ITEM: ATOMS id type xs ys zs fx fy fz
1 1 0.959981 0.338585 0.593597 0 -1.44243e-05 0
2 1 0.459981 0.338585 0.593597 0 -1.43051e-05 -3.57628e-07
3 1 0.217175 0.297462 0.0935971 0 2.30074e-05 2.38419e-07
4 1 0.717175 0.297461 0.0935971 0 2.28882e-05 -2.38419e-07
5 1 0.188414 0.461865 0.593597 0 -0.000110388 2.38419e-07
6 1 0.688414 0.461865 0.593597 0 -0.000110149 -2.38419e-07
7 1 0.945525 0.421218 0.0935971 0 6.96182e-05 0
8 1 0.445525 0.421218 0.0935971 0 6.92606e-05 1.19209e-07
9 1 0.91681 0.585356 0.593597 0 -6.92606e-05 -1.19209e-07
10 1 0.41681 0.585356 0.593597 0 -6.91414e-05 -1.19209e-07
11 1 0.14516 0.709113 0.593597 0 -2.30074e-05 0
12 1 0.64516 0.709113 0.593597 0 -2.30074e-05 0
13 1 0.902354 0.66799 0.0935971 0 1.44243e-05 1.19209e-07
14 1 0.173921 0.54471 0.0935971 0 0.000110388 0
15 1 0.673921 0.54471 0.0935971 0 0.000110388 0
16 1 0.402354 0.66799 0.0935971 0 1.43051e-05 1.19209e-07
17 1 0.87335 0.833783 0.593597 0 0.000148892 0
18 1 0.37335 0.833783 0.593597 0 0.000149012 0
19 1 0.101239 0.960169 0.593597 0 -2.25306e-05 0
20 1 0.60124 0.960169 0.593597 0 -2.14577e-05 0
21 1 0.130842 0.790957 0.0935971 0 -7.689e-05 1.19209e-07
22 1 0.630842 0.790957 0.0935971 0 -7.689e-05 -1.19209e-07
23 1 0.859538 0.912735 0.0935971 0 -0.000187874 -1.19209e-07
24 1 0.359538 0.912735 0.0935971 0 -0.000187755 1.19209e-07
25 1 0.0027975 0.0938391 0.593597 0 0.000187874 1.19209e-07
26 1 0.502797 0.0938391 0.593597 0 0.000187755 1.19209e-07
27 1 0.261096 0.0464052 0.0935971 0 2.22921e-05 0
28 1 0.761096 0.0464052 0.0935971 0 2.18153e-05 0
29 1 0.231493 0.215617 0.593597 0 7.70092e-05 1.19209e-07
30 1 0.731493 0.215617 0.593597 0 7.689e-05 3.57628e-07
31 1 0.988985 0.172792 0.0935971 0 -0.000149369 -1.19209e-07
32 1 0.488985 0.172792 0.0935971 0 -0.000149369 -3.57628e-07
ITEM: TIMESTEP
9
ITEM: NUMBER OF ATOMS
32
ITEM: BOX BOUNDS xy xz yz pp pp pp
-2.1013021469116211e-03 7.5160641074180603e+00 1.1194137930870056e+00
-4.1524946689605713e-02 2.2124402940273285e+01 -0.0000000000000000e+00
-1.4066457748413086e-02 5.1965324282646179e+00 0.0000000000000000e+00
ITEM: ATOMS id type xs ys zs fx fy fz
1 1 0.959981 0.338584 0.593597 0 1.22786e-05 0
2 1 0.459981 0.338584 0.593597 0 1.23978e-05 -1.19209e-07
3 1 0.217175 0.297462 0.0935971 0 4.52995e-06 -2.38419e-07
4 1 0.717175 0.297462 0.0935971 0 5.00679e-06 2.38419e-07
5 1 0.188415 0.461862 0.593597 0 1.65701e-05 -1.19209e-07
6 1 0.688415 0.461862 0.593597 0 1.60933e-05 0
7 1 0.945525 0.42122 0.0935971 0 2.55108e-05 1.19209e-07
8 1 0.445525 0.42122 0.0935971 0 2.6226e-05 0
9 1 0.91681 0.585354 0.593597 0 -2.65837e-05 1.19209e-07
10 1 0.416811 0.585354 0.593597 0 -2.69413e-05 1.19209e-07
11 1 0.14516 0.709112 0.593597 0 -4.41074e-06 1.19209e-07
12 1 0.64516 0.709112 0.593597 0 -4.64916e-06 1.19209e-07
13 1 0.902354 0.66799 0.0935971 0 -1.23978e-05 -1.19209e-07
14 1 0.173921 0.544712 0.0935971 0 -1.60933e-05 1.19209e-07
15 1 0.673921 0.544712 0.0935971 0 -1.5378e-05 -2.38419e-07
16 1 0.402354 0.66799 0.0935971 0 -1.23978e-05 -2.38419e-07
17 1 0.87335 0.833784 0.593597 0 1.44243e-05 0
18 1 0.373349 0.833784 0.593597 0 1.45435e-05 -2.38419e-07
19 1 0.101239 0.96017 0.593597 0 4.35114e-05 1.19209e-07
20 1 0.601239 0.96017 0.593597 0 4.31538e-05 2.38419e-07
21 1 0.130842 0.790956 0.0935971 0 -8.84533e-05 -1.19209e-07
22 1 0.630842 0.790956 0.0935971 0 -8.83341e-05 3.57628e-07
23 1 0.859538 0.912732 0.0935971 0 4.37498e-05 0
24 1 0.359538 0.912732 0.0935971 0 4.41074e-05 -2.38419e-07
25 1 0.00279688 0.0938426 0.593597 0 -4.3869e-05 1.19209e-07
26 1 0.502797 0.0938426 0.593597 0 -4.39882e-05 0
27 1 0.261096 0.0464043 0.0935971 0 -4.42266e-05 0
28 1 0.761096 0.0464043 0.0935971 0 -4.29153e-05 -1.19209e-07
29 1 0.231493 0.215618 0.593597 0 8.80957e-05 1.19209e-07
30 1 0.731493 0.215618 0.593597 0 8.88109e-05 -2.38419e-07
31 1 0.988986 0.17279 0.0935971 0 -1.40667e-05 0
32 1 0.488986 0.17279 0.0935971 0 -1.43051e-05 1.19209e-07
ITEM: TIMESTEP
10
ITEM: NUMBER OF ATOMS
32
ITEM: BOX BOUNDS xy xz yz pp pp pp
-2.1013021469116211e-03 7.5160641074180603e+00 1.1194137930870056e+00
-4.1524946689605713e-02 2.2124402940273285e+01 -0.0000000000000000e+00
-1.4066457748413086e-02 5.1965324282646179e+00 0.0000000000000000e+00
ITEM: ATOMS id type xs ys zs fx fy fz
1 1 0.959981 0.338584 0.593597 0 3.96967e-05 0
2 1 0.459981 0.338584 0.593597 0 3.95775e-05 3.57628e-07
3 1 0.217175 0.297462 0.0935971 0 1.27554e-05 0
4 1 0.717175 0.297462 0.0935971 0 1.34706e-05 -1.19209e-07
5 1 0.188415 0.461862 0.593597 0 1.58548e-05 0
6 1 0.688415 0.461862 0.593597 0 1.5974e-05 1.19209e-07
7 1 0.945524 0.421221 0.0935971 0 1.66893e-06 0
8 1 0.445524 0.421221 0.0935971 0 1.43051e-06 -1.19209e-07
9 1 0.916811 0.585354 0.593597 0 -1.07288e-06 0
10 1 0.416811 0.585354 0.593597 0 -8.34465e-07 -2.38419e-07
11 1 0.14516 0.709112 0.593597 0 -1.3113e-05 -2.38419e-07
12 1 0.64516 0.709112 0.593597 0 -1.28746e-05 0
13 1 0.902354 0.66799 0.0935971 0 -3.98159e-05 1.19209e-07
14 1 0.173921 0.544712 0.0935971 0 -1.64509e-05 2.38419e-07
15 1 0.673921 0.544712 0.0935971 0 -1.66893e-05 -1.19209e-07
16 1 0.402354 0.66799 0.0935971 0 -3.96967e-05 0
17 1 0.873349 0.833785 0.593597 0 -2.38419e-06 0
18 1 0.373349 0.833785 0.593597 0 -3.33786e-06 1.19209e-07
19 1 0.101239 0.960171 0.593597 0 -3.69549e-06 -1.19209e-07
20 1 0.601239 0.960171 0.593597 0 -4.05312e-06 -1.19209e-07
21 1 0.130842 0.790955 0.0935971 0 1.19209e-07 1.19209e-07
22 1 0.630842 0.790955 0.0935971 0 -2.38419e-07 -1.19209e-07
23 1 0.859538 0.912732 0.0935971 0 -1.45435e-05 0
24 1 0.359538 0.912732 0.0935971 0 -1.51396e-05 1.19209e-07
25 1 0.0027969 0.0938425 0.593597 0 1.46627e-05 -1.19209e-07
26 1 0.502797 0.0938425 0.593597 0 1.50204e-05 -1.19209e-07
27 1 0.261096 0.0464035 0.0935971 0 4.05312e-06 1.19209e-07
28 1 0.761096 0.0464035 0.0935971 0 3.57628e-06 2.38419e-07
29 1 0.231493 0.215619 0.593597 0 1.19209e-07 -2.38419e-07
30 1 0.731493 0.215619 0.593597 0 3.57628e-07 0
31 1 0.988986 0.17279 0.0935971 0 2.74181e-06 0
32 1 0.488986 0.17279 0.0935971 0 2.86102e-06 1.19209e-07
ITEM: TIMESTEP
11
ITEM: NUMBER OF ATOMS
32
ITEM: BOX BOUNDS xy xz yz pp pp pp
-2.1013021469116211e-03 7.5160641074180603e+00 1.1194137930870056e+00
-4.1524946689605713e-02 2.2124402940273285e+01 -0.0000000000000000e+00
-1.4066457748413086e-02 5.1965324282646179e+00 0.0000000000000000e+00
ITEM: ATOMS id type xs ys zs fx fy fz
1 1 0.959981 0.338585 0.593597 0 -6.4373e-06 0
2 1 0.459981 0.338585 0.593597 0 -6.07967e-06 -5.96046e-07
3 1 0.217175 0.297463 0.0935971 0 2.5034e-06 3.57628e-07
4 1 0.717175 0.297463 0.0935971 0 1.19209e-06 2.38419e-07
5 1 0.188414 0.461863 0.593597 0 4.88758e-06 0
6 1 0.688415 0.461863 0.593597 0 4.76837e-06 0
7 1 0.945524 0.421221 0.0935971 0 -5.96046e-07 -1.19209e-07
8 1 0.445524 0.421221 0.0935971 0 -8.34465e-07 1.19209e-07
9 1 0.916811 0.585354 0.593597 0 5.96046e-07 0
10 1 0.416811 0.585354 0.593597 0 4.76837e-07 2.38419e-07
11 1 0.14516 0.709112 0.593597 0 -2.02656e-06 3.57628e-07
12 1 0.64516 0.709112 0.593597 0 -2.38419e-06 0
13 1 0.902354 0.667989 0.0935971 0 6.19888e-06 -2.38419e-07
14 1 0.173921 0.544712 0.0935971 0 -4.52995e-06 -1.19209e-07
15 1 0.673921 0.544712 0.0935971 0 -4.64916e-06 0
16 1 0.402354 0.667989 0.0935971 0 6.19888e-06 -1.19209e-07
17 1 0.873349 0.833785 0.593597 0 -1.91927e-05 2.38419e-07
18 1 0.373349 0.833785 0.593597 0 -1.81198e-05 0
19 1 0.101239 0.960171 0.593597 0 -3.45707e-06 1.19209e-07
20 1 0.601239 0.960171 0.593597 0 -2.5034e-06 0
21 1 0.130842 0.790954 0.0935971 0 -8.82149e-06 -1.19209e-07
22 1 0.630842 0.790954 0.0935971 0 -8.22544e-06 -2.38419e-07
23 1 0.859538 0.912732 0.0935971 0 -3.93391e-06 0
24 1 0.359538 0.912732 0.0935971 0 -3.33786e-06 -1.19209e-07
25 1 0.00279684 0.0938428 0.593597 0 3.69549e-06 1.19209e-07
26 1 0.502797 0.0938428 0.593597 0 3.09944e-06 0
27 1 0.261096 0.0464034 0.0935971 0 2.98023e-06 -1.19209e-07
28 1 0.761096 0.0464034 0.0935971 0 3.69549e-06 0
29 1 0.231493 0.21562 0.593597 0 8.82149e-06 -1.19209e-07
30 1 0.731493 0.21562 0.593597 0 8.10623e-06 1.19209e-07
31 1 0.988986 0.172789 0.0935971 0 1.87159e-05 0
32 1 0.488986 0.172789 0.0935971 0 1.91927e-05 0
ITEM: TIMESTEP
12
ITEM: NUMBER OF ATOMS
32
ITEM: BOX BOUNDS xy xz yz pp pp pp
-2.1013021469116211e-03 7.5160641074180603e+00 1.1194137930870056e+00
-4.1524946689605713e-02 2.2124402940273285e+01 -0.0000000000000000e+00
-1.4066457748413086e-02 5.1965324282646179e+00 0.0000000000000000e+00
ITEM: ATOMS id type xs ys zs fx fy fz
1 1 0.959981 0.338585 0.593597 0 1.43051e-06 -1.19209e-07
2 1 0.459981 0.338585 0.593597 0 8.34465e-07 5.96046e-07
3 1 0.217175 0.297463 0.0935971 0 5.84126e-06 -4.76837e-07
4 1 0.717175 0.297463 0.0935971 0 5.72205e-06 -2.38419e-07
5 1 0.188414 0.461863 0.593597 0 -7.15256e-06 2.38419e-07
6 1 0.688415 0.461863 0.593597 0 -7.27177e-06 -2.38419e-07
7 1 0.945524 0.421221 0.0935971 0 -1.43051e-06 0
8 1 0.445524 0.421221 0.0935971 0 -1.66893e-06 -1.19209e-07
9 1 0.916811 0.585354 0.593597 0 1.07288e-06 0
10 1 0.416811 0.585354 0.593597 0 8.34465e-07 0
11 1 0.14516 0.709112 0.593597 0 -5.84126e-06 -1.19209e-07
12 1 0.64516 0.709112 0.593597 0 -5.36442e-06 0
13 1 0.902354 0.667989 0.0935971 0 -8.34465e-07 0
14 1 0.173921 0.544712 0.0935971 0 7.86781e-06 -2.38419e-07
15 1 0.673921 0.544712 0.0935971 0 7.51019e-06 3.57628e-07
16 1 0.402354 0.667989 0.0935971 0 -1.07288e-06 2.38419e-07
17 1 0.87335 0.833785 0.593597 0 -8.34465e-07 -5.96046e-07
18 1 0.373349 0.833785 0.593597 0 -1.19209e-06 -1.19209e-07
19 1 0.101239 0.960171 0.593597 0 -3.33786e-06 0
20 1 0.601239 0.960171 0.593597 0 -4.64916e-06 1.19209e-07
21 1 0.130842 0.790954 0.0935971 0 1.78814e-06 1.19209e-07
22 1 0.630842 0.790954 0.0935971 0 1.43051e-06 2.38419e-07
23 1 0.859538 0.912731 0.0935971 0 -3.57628e-06 2.38419e-07
24 1 0.359538 0.912731 0.0935971 0 -4.29153e-06 -1.19209e-07
25 1 0.00279681 0.093843 0.593597 0 4.17233e-06 0
26 1 0.502797 0.093843 0.593597 0 4.64916e-06 4.76837e-07
27 1 0.261096 0.0464034 0.0935971 0 4.41074e-06 -1.19209e-07
28 1 0.761096 0.0464035 0.0935971 0 3.69549e-06 -1.19209e-07
29 1 0.231493 0.21562 0.593597 0 -1.90735e-06 4.76837e-07
30 1 0.731493 0.21562 0.593597 0 -1.54972e-06 -3.57628e-07
31 1 0.988986 0.17279 0.0935971 0 7.15256e-07 0
32 1 0.488986 0.17279 0.0935971 0 0 -1.19209e-07
ITEM: TIMESTEP
13
ITEM: NUMBER OF ATOMS
32
ITEM: BOX BOUNDS xy xz yz pp pp pp
-2.1013021469116211e-03 7.5160641074180603e+00 1.1194137930870056e+00
-4.1524946689605713e-02 2.2124402940273285e+01 -0.0000000000000000e+00
-1.4066457748413086e-02 5.1965324282646179e+00 0.0000000000000000e+00
ITEM: ATOMS id type xs ys zs fx fy fz
1 1 0.959981 0.338585 0.593597 0 -1.54972e-06 0
2 1 0.459981 0.338585 0.593597 0 -1.43051e-06 0
3 1 0.217175 0.297463 0.0935971 0 1.19209e-06 -1.19209e-07
4 1 0.717175 0.297463 0.0935971 0 2.38419e-06 -1.19209e-07
5 1 0.188414 0.461863 0.593597 0 -1.43051e-06 0
6 1 0.688415 0.461863 0.593597 0 -1.3113e-06 0
7 1 0.945524 0.421221 0.0935971 0 3.45707e-06 0
8 1 0.445524 0.421221 0.0935971 0 4.05312e-06 0
9 1 0.916811 0.585354 0.593597 0 -3.33786e-06 -2.38419e-07
10 1 0.416811 0.585354 0.593597 0 -3.45707e-06 -1.19209e-07
11 1 0.14516 0.709112 0.593597 0 -2.14577e-06 -2.38419e-07
12 1 0.64516 0.709112 0.593597 0 -1.90735e-06 -1.19209e-07
13 1 0.902354 0.667989 0.0935971 0 1.54972e-06 3.57628e-07
14 1 0.173921 0.544712 0.0935971 0 9.53674e-07 0
15 1 0.673921 0.544712 0.0935971 0 9.53674e-07 0
16 1 0.402354 0.667989 0.0935971 0 1.66893e-06 1.19209e-07
17 1 0.87335 0.833784 0.593597 0 -3.57628e-07 0
18 1 0.373349 0.833784 0.593597 0 -2.38419e-07 0
19 1 0.101239 0.960171 0.593597 0 9.53674e-07 0
20 1 0.601239 0.960171 0.593597 0 8.34465e-07 1.19209e-07
21 1 0.130842 0.790954 0.0935971 0 -5.96046e-07 0
22 1 0.630842 0.790954 0.0935971 0 -8.34465e-07 1.19209e-07
23 1 0.859538 0.912731 0.0935971 0 2.14577e-06 0
24 1 0.359538 0.912731 0.093597 0 2.38419e-06 1.19209e-07
25 1 0.0027968 0.0938431 0.593597 0 -1.78814e-06 1.19209e-07
26 1 0.502797 0.0938431 0.593597 0 -1.66893e-06 0
27 1 0.261096 0.0464035 0.0935971 0 -1.43051e-06 0
28 1 0.761096 0.0464035 0.0935971 0 -1.3113e-06 -2.38419e-07
29 1 0.231493 0.21562 0.593597 0 5.96046e-07 -2.38419e-07
30 1 0.731493 0.21562 0.593597 0 5.96046e-07 1.19209e-07
31 1 0.988986 0.17279 0.0935971 0 4.76837e-07 1.19209e-07
32 1 0.488986 0.17279 0.0935971 0 5.96046e-07 2.38419e-07
ITEM: TIMESTEP
14
ITEM: NUMBER OF ATOMS
32
ITEM: BOX BOUNDS xy xz yz pp pp pp
-2.1013021469116211e-03 7.5160641074180603e+00 1.1194137930870056e+00
-4.1524946689605713e-02 2.2124402940273285e+01 -0.0000000000000000e+00
-1.4066457748413086e-02 5.1965324282646179e+00 0.0000000000000000e+00
ITEM: ATOMS id type xs ys zs fx fy fz
1 1 0.959981 0.338585 0.593597 0 2.38419e-07 0
2 1 0.459981 0.338585 0.593597 0 5.96046e-07 -4.76837e-07
3 1 0.217175 0.297463 0.0935971 0 3.57628e-07 1.19209e-07
4 1 0.717175 0.297463 0.0935971 0 -2.38419e-07 2.38419e-07
5 1 0.188414 0.461863 0.593597 0 1.19209e-06 0