ITEM: TIMESTEP
0
ITEM: NUMBER OF ATOMS
32
ITEM: BOX BOUNDS xy xz yz pp pp pp
-2.4071335792541504e-03 6.3992393016815186e+00 0.0000000000000000e+00
-9.1621279716491699e-03 5.6678331494331360e+00 0.0000000000000000e+00
5.4966151714324951e-02 2.0670420289039612e+01 1.3823986053466797e-01
ITEM: ATOMS id type xs ys zs fx fy fz
1 1 0.999986 0.664797 0.0597547 0 0 0.00973511
2 1 0.499986 0.664797 0.0597547 0 0 0.00973511
3 1 0.249986 0.164797 0.0597528 0 0 0.00981712
4 1 0.749986 0.164797 0.0597528 0 0 0.00981712
5 1 0.999986 0.658569 0.309759 0 0 -0.000123978
6 1 0.249986 0.495775 0.184759 0 0 7.82013e-05
7 1 0.749986 0.495775 0.184759 0 0 7.82013e-05
8 1 0.499986 0.658569 0.309759 0 0 -0.000123978
9 1 0.999986 0.995776 0.184758 0 0 0.000146866
10 1 0.249986 0.158568 0.309758 0 0 -6.29425e-05
11 1 0.499986 0.995776 0.184758 0 0 0.000146866
12 1 0.749986 0.158568 0.309758 0 0 -6.29425e-05
13 1 0.999986 0.652312 0.559748 0 0 7.24792e-05
14 1 0.499986 0.652312 0.559748 0 0 7.24792e-05
15 1 0.249986 0.152313 0.559748 0 0 6.29425e-05
16 1 0.749986 0.152313 0.559748 0 0 6.29425e-05
17 1 0.249986 0.489538 0.434754 0 0 -7.24792e-05
18 1 0.749986 0.489538 0.434754 0 0 -7.24792e-05
19 1 0.999986 0.989539 0.434754 0 0 -8.7738e-05
20 1 0.499986 0.989539 0.434754 0 0 -8.7738e-05
21 1 0.999986 0.646066 0.809743 0 0 -0.000137329
22 1 0.249986 0.483278 0.684743 0 0 6.48499e-05
23 1 0.499986 0.646066 0.809743 0 0 -0.000137329
24 1 0.749986 0.483278 0.684743 0 0 6.48499e-05
25 1 0.999986 0.983278 0.684742 0 0 0.000118256
26 1 0.249986 0.146066 0.809742 0 0 -0.000104904
27 1 0.749986 0.146066 0.809742 0 0 -0.000104904
28 1 0.499986 0.983278 0.684742 0 0 0.000118256
29 1 0.249986 0.477042 0.934748 0 0 -0.00978661
30 1 0.749986 0.477042 0.934748 0 0 -0.00978661
31 1 0.999986 0.977042 0.934746 0 0 -0.00971985
32 1 0.499986 0.977042 0.934746 0 0 -0.00971985
ITEM: TIMESTEP
1
ITEM: NUMBER OF ATOMS
32
ITEM: BOX BOUNDS xy xz yz pp pp pp
-2.4071335792541504e-03 6.3992393016815186e+00 0.0000000000000000e+00
-9.1621279716491699e-03 5.6678331494331360e+00 0.0000000000000000e+00
5.4966151714324951e-02 2.0670420289039612e+01 1.3823986053466797e-01
ITEM: ATOMS id type xs ys zs fx fy fz
1 1 0.999986 0.664794 0.0598598 0 0 -0.000160217
2 1 0.499986 0.664794 0.0598598 0 0 -0.000160217
3 1 0.249986 0.164794 0.0598588 0 0 -0.00012207
4 1 0.749986 0.164794 0.0598588 0 0 -0.00012207
5 1 0.999986 0.658569 0.309758 0 0 1.14441e-05
6 1 0.249986 0.495775 0.18476 0 0 0.00317192
7 1 0.749986 0.495775 0.18476 0 0 0.00317192
8 1 0.499986 0.658569 0.309758 0 0 1.14441e-05
9 1 0.999986 0.995776 0.184759 0 0 0.00319672
10 1 0.249986 0.158568 0.309757 0 0 4.3869e-05
11 1 0.499986 0.995776 0.184759 0 0 0.00319672
12 1 0.749986 0.158568 0.309757 0 0 4.3869e-05
13 1 0.999986 0.652312 0.559748 0 0 1.90735e-06
14 1 0.499986 0.652312 0.559748 0 0 1.90735e-06
15 1 0.249986 0.152313 0.559748 0 0 7.62939e-06
16 1 0.749986 0.152313 0.559748 0 0 7.62939e-06
17 1 0.249986 0.489538 0.434754 0 0 -1.14441e-05
18 1 0.749986 0.489538 0.434754 0 0 -1.14441e-05
19 1 0.999986 0.989539 0.434753 0 0 -7.62939e-06
20 1 0.499986 0.989539 0.434753 0 0 -7.62939e-06
21 1 0.999986 0.646066 0.809742 0 0 -0.00317955
22 1 0.249986 0.483278 0.684744 0 0 -5.91278e-05
23 1 0.499986 0.646066 0.809742 0 0 -0.00317955
24 1 0.749986 0.483278 0.684744 0 0 -5.91278e-05
25 1 0.999986 0.983278 0.684744 0 0 -3.24249e-05
26 1 0.249986 0.146066 0.809741 0 0 -0.00315285
27 1 0.749986 0.146066 0.809741 0 0 -0.00315285
28 1 0.499986 0.983278 0.684744 0 0 -3.24249e-05
29 1 0.249986 0.477045 0.934642 0 0 0.000133514
30 1 0.749986 0.477045 0.934642 0 0 0.000133514
31 1 0.999986 0.977044 0.934641 0 0 0.00015831
32 1 0.499986 0.977044 0.934641 0 0 0.00015831
ITEM: TIMESTEP
2
ITEM: NUMBER OF ATOMS
32
ITEM: BOX BOUNDS xy xz yz pp pp pp
-2.4071335792541504e-03 6.3992393016815186e+00 0.0000000000000000e+00
-9.1621279716491699e-03 5.6678331494331360e+00 0.0000000000000000e+00
5.4966151714324951e-02 2.0670420289039612e+01 1.3823986053466797e-01
ITEM: ATOMS id type xs ys zs fx fy fz
1 1 0.999986 0.664794 0.0598778 0 0 -5.72205e-05
2 1 0.499986 0.664794 0.0598778 0 0 -5.72205e-05
3 1 0.249986 0.164794 0.0598776 0 0 -6.67572e-05
4 1 0.749986 0.164794 0.0598776 0 0 -6.67572e-05
5 1 0.999986 0.658569 0.309758 0 0 0.00185585
6 1 0.249986 0.495774 0.184819 0 0 1.90735e-06
7 1 0.749986 0.495774 0.184819 0 0 1.90735e-06
8 1 0.499986 0.658569 0.309758 0 0 0.00185585
9 1 0.999986 0.995774 0.184819 0 0 9.53674e-06
10 1 0.249986 0.158568 0.309758 0 0 0.00185013
11 1 0.499986 0.995774 0.184819 0 0 9.53674e-06
12 1 0.749986 0.158568 0.309758 0 0 0.00185013
13 1 0.999986 0.652312 0.559748 0 0 -0.000112534
14 1 0.499986 0.652312 0.559748 0 0 -0.000112534
15 1 0.249986 0.152313 0.559749 0 0 -0.000104904
16 1 0.749986 0.152313 0.559749 0 0 -0.000104904
17 1 0.249986 0.489538 0.434753 0 0 8.2016e-05
18 1 0.749986 0.489538 0.434753 0 0 8.2016e-05
19 1 0.999986 0.989539 0.434753 0 0 9.91821e-05
20 1 0.499986 0.989539 0.434753 0 0 9.91821e-05
21 1 0.999986 0.646067 0.809683 0 0 -2.09808e-05
22 1 0.249986 0.483278 0.684743 0 0 -0.00182152
23 1 0.499986 0.646067 0.809683 0 0 -2.09808e-05
24 1 0.749986 0.483278 0.684743 0 0 -0.00182152
25 1 0.999986 0.983278 0.684743 0 0 -0.00182724
26 1 0.249986 0.146068 0.809683 0 0 -2.09808e-05
27 1 0.749986 0.146068 0.809683 0 0 -2.09808e-05
28 1 0.499986 0.983278 0.684743 0 0 -0.00182724
29 1 0.249986 0.477046 0.934624 0 0 6.10352e-05
30 1 0.749986 0.477046 0.934624 0 0 6.10352e-05
31 1 0.999986 0.977045 0.934623 0 0 7.24792e-05
32 1 0.499986 0.977045 0.934623 0 0 7.24792e-05
ITEM: TIMESTEP
3
ITEM: NUMBER OF ATOMS
32
ITEM: BOX BOUNDS xy xz yz pp pp pp
-2.4071335792541504e-03 6.3992393016815186e+00 0.0000000000000000e+00
-9.1621279716491699e-03 5.6678331494331360e+00 0.0000000000000000e+00
5.4966151714324951e-02 2.0670420289039612e+01 1.3823986053466797e-01
ITEM: ATOMS id type xs ys zs fx fy fz
1 1 0.999986 0.664793 0.0598838 0 0 0.0001297
2 1 0.499986 0.664793 0.0598838 0 0 0.0001297
3 1 0.249986 0.164794 0.0598838 0 0 0.000125885
4 1 0.749986 0.164794 0.0598838 0 0 0.000125885
5 1 0.999986 0.658568 0.309801 0 0 -8.7738e-05
6 1 0.249986 0.495773 0.184843 0 0 -3.8147e-06
7 1 0.749986 0.495773 0.184843 0 0 -3.8147e-06
8 1 0.499986 0.658568 0.309801 0 0 -8.7738e-05
9 1 0.999986 0.995773 0.184843 0 0 -3.24249e-05
10 1 0.249986 0.158567 0.309801 0 0 -9.15527e-05
11 1 0.499986 0.995773 0.184843 0 0 -3.24249e-05
12 1 0.749986 0.158567 0.309801 0 0 -9.15527e-05
13 1 0.999986 0.652312 0.559746 0 0 -0.00114822
14 1 0.499986 0.652312 0.559746 0 0 -0.00114822
15 1 0.249986 0.152313 0.559746 0 0 -0.00115204
16 1 0.749986 0.152313 0.559746 0 0 -0.00115204
17 1 0.249986 0.489538 0.434755 0 0 0.00117493
18 1 0.749986 0.489538 0.434755 0 0 0.00117493
19 1 0.999986 0.989539 0.434755 0 0 0.00116539
20 1 0.499986 0.989539 0.434755 0 0 0.00116539
21 1 0.999986 0.646068 0.809658 0 0 3.8147e-05
22 1 0.249986 0.48328 0.684701 0 0 6.29425e-05
23 1 0.499986 0.646068 0.809658 0 0 3.8147e-05
24 1 0.749986 0.48328 0.684701 0 0 6.29425e-05
25 1 0.999986 0.983279 0.684701 0 0 5.53131e-05
26 1 0.249986 0.146068 0.809659 0 0 2.86102e-05
27 1 0.749986 0.146068 0.809659 0 0 2.86102e-05
28 1 0.499986 0.983279 0.684701 0 0 5.53131e-05
29 1 0.249986 0.477046 0.934617 0 0 -0.000118256
30 1 0.749986 0.477046 0.934617 0 0 -0.000118256
31 1 0.999986 0.977045 0.934618 0 0 -0.000146866
32 1 0.499986 0.977045 0.934618 0 0 -0.000146866
ITEM: TIMESTEP
4
ITEM: NUMBER OF ATOMS
32
ITEM: BOX BOUNDS xy xz yz pp pp pp
-2.4071335792541504e-03 6.3992393016815186e+00 0.0000000000000000e+00
-9.1621279716491699e-03 5.6678331494331360e+00 0.0000000000000000e+00
5.4966151714324951e-02 2.0670420289039612e+01 1.3823986053466797e-01
ITEM: ATOMS id type xs ys zs fx fy fz
1 1 0.999986 0.664793 0.0598868 0 0 2.09808e-05
2 1 0.499986 0.664793 0.0598868 0 0 2.09808e-05
3 1 0.249986 0.164794 0.0598868 0 0 1.14441e-05
4 1 0.749986 0.164794 0.0598868 0 0 1.14441e-05
5 1 0.999986 0.658568 0.30981 0 0 -9.53674e-06
6 1 0.249986 0.495773 0.184848 0 0 3.43323e-05
7 1 0.749986 0.495773 0.184848 0 0 3.43323e-05
8 1 0.499986 0.658568 0.30981 0 0 -9.53674e-06
9 1 0.999986 0.995773 0.184848 0 0 4.19617e-05
10 1 0.249986 0.158567 0.30981 0 0 -1.33514e-05
11 1 0.499986 0.995773 0.184848 0 0 4.19617e-05
12 1 0.749986 0.158567 0.30981 0 0 -1.33514e-05
13 1 0.999986 0.652313 0.559731 0 0 -3.8147e-06
14 1 0.499986 0.652313 0.559731 0 0 -3.8147e-06
15 1 0.249986 0.152313 0.559731 0 0 -1.33514e-05
16 1 0.749986 0.152313 0.559731 0 0 -1.33514e-05
17 1 0.249986 0.489538 0.43477 0 0 1.90735e-05
18 1 0.749986 0.489538 0.43477 0 0 1.90735e-05
19 1 0.999986 0.989539 0.434771 0 0 -1.90735e-06
20 1 0.499986 0.989539 0.434771 0 0 -1.90735e-06
21 1 0.999986 0.646068 0.809653 0 0 -3.05176e-05
22 1 0.249986 0.48328 0.684692 0 0 9.53674e-06
23 1 0.499986 0.646068 0.809653 0 0 -3.05176e-05
24 1 0.749986 0.48328 0.684692 0 0 9.53674e-06
25 1 0.999986 0.983279 0.684692 0 0 1.90735e-06
26 1 0.249986 0.146068 0.809653 0 0 -3.43323e-05
27 1 0.749986 0.146068 0.809653 0 0 -3.43323e-05
28 1 0.499986 0.983279 0.684692 0 0 1.90735e-06
29 1 0.249986 0.477046 0.934614 0 0 -1.33514e-05
30 1 0.749986 0.477046 0.934614 0 0 -1.33514e-05
31 1 0.999986 0.977045 0.934615 0 0 -1.90735e-05
32 1 0.499986 0.977045 0.934615 0 0 -1.90735e-05
ITEM: TIMESTEP
5
ITEM: NUMBER OF ATOMS
32
ITEM: BOX BOUNDS xy xz yz pp pp pp
-2.4071335792541504e-03 6.3992393016815186e+00 0.0000000000000000e+00
-9.1621279716491699e-03 5.6678331494331360e+00 0.0000000000000000e+00
5.4966151714324951e-02 2.0670420289039612e+01 1.3823986053466797e-01
ITEM: ATOMS id type xs ys zs fx fy fz
1 1 0.999986 0.664793 0.0598868 0 0 2.09808e-05
2 1 0.499986 0.664793 0.0598868 0 0 2.09808e-05
3 1 0.249986 0.164794 0.0598868 0 0 1.14441e-05
4 1 0.749986 0.164794 0.0598868 0 0 1.14441e-05
5 1 0.999986 0.658568 0.30981 0 0 -9.53674e-06
6 1 0.249986 0.495773 0.184848 0 0 3.43323e-05
7 1 0.749986 0.495773 0.184848 0 0 3.43323e-05
8 1 0.499986 0.658568 0.30981 0 0 -9.53674e-06
9 1 0.999986 0.995773 0.184848 0 0 4.19617e-05
10 1 0.249986 0.158567 0.30981 0 0 -1.33514e-05
11 1 0.499986 0.995773 0.184848 0 0 4.19617e-05
12 1 0.749986 0.158567 0.30981 0 0 -1.33514e-05
13 1 0.999986 0.652313 0.559731 0 0 -3.8147e-06
14 1 0.499986 0.652313 0.559731 0 0 -3.8147e-06
15 1 0.249986 0.152313 0.559731 0 0 -1.33514e-05
16 1 0.749986 0.152313 0.559731 0 0 -1.33514e-05
17 1 0.249986 0.489538 0.43477 0 0 1.90735e-05
18 1 0.749986 0.489538 0.43477 0 0 1.90735e-05
19 1 0.999986 0.989539 0.434771 0 0 -1.90735e-06
20 1 0.499986 0.989539 0.434771 0 0 -1.90735e-06
21 1 0.999986 0.646068 0.809653 0 0 -3.05176e-05
22 1 0.249986 0.48328 0.684692 0 0 9.53674e-06
23 1 0.499986 0.646068 0.809653 0 0 -3.05176e-05
24 1 0.749986 0.48328 0.684692 0 0 9.53674e-06
25 1 0.999986 0.983279 0.684692 0 0 1.90735e-06
26 1 0.249986 0.146068 0.809653 0 0 -3.43323e-05
27 1 0.749986 0.146068 0.809653 0 0 -3.43323e-05
28 1 0.499986 0.983279 0.684692 0 0 1.90735e-06
29 1 0.249986 0.477046 0.934614 0 0 -1.33514e-05
30 1 0.749986 0.477046 0.934614 0 0 -1.33514e-05
31 1 0.999986 0.977045 0.934615 0 0 -1.90735e-05
32 1 0.499986 0.977045 0.934615 0 0 -1.90735e-05
