LAMMPS data file via write_data, version 4 May 2022, timestep = 105

32 atoms
3 atom types

-0.0009598731994628906 6.397792041301727 xlo xhi
-0.010525226593017578 5.530956387519836 ylo yhi
-0.05850505828857422 20.78389149904251 zlo zhi
-0 0 4.701312929391860 xy xz yz
Masses

1 24.305
2 65.40900000000001
3 88.90600000000001

Atoms # atomic

1 1 6.397703081773147 3.6837937127930878 1.1868428019728212 0 0 0
2 1 3.198326126706592 3.683793542098657 1.1868427819393568 0 0 0
3 1 1.5986385643996042 0.9130539144822242 1.186842328048436 0 0 0
4 1 4.798014750811372 0.9130531724329939 1.186842593276146 0 0 0
5 1 6.3977023920227385 3.683794178808631 6.397441577639188 0 0 0
6 1 1.5986388536826492 2.7602143663204757 3.792142248601253 0 0 0
7 1 4.798014271716913 2.7602149426073397 3.7921423949777293 0 0 0
8 1 3.1983263525280194 3.6837943468621637 6.397441494901746 0 0 0
9 1 6.397702270761537 5.53095450676981 3.792142312382065 0 -1 0
10 1 1.5986388730358874 0.9130537388203677 6.397442327661527 0 0 0
11 1 3.1983263388559813 5.530954669341172 3.7921426720101983 0 -1 0
12 1 4.798014136548214 0.9130535737827186 6.397442133995058 0 0 0
13 1 6.397702868348868 3.6837940278527412 11.608041152172945 0 0 0
14 1 3.1983260368520905 3.683793824237441 11.6080409842571 0 0 0
15 1 1.5986385272217967 0.913053470803273 11.608040889466766 0 0 0
16 1 4.7980143202402 0.9130531718117606 11.608040889482988 0 0 0
17 1 1.5986384070786355 2.7602142454665017 9.002741257155822 0 0 0
18 1 4.798015067765119 2.760214567950965 9.002741368772403 0 0 0
19 1 6.397702265576155 5.530955539589241 9.002741227145547 0 -1 0
20 1 3.198326446520786 5.530955267148622 9.002741188171798 0 -1 0
21 1 6.397702559998941 3.6837931364125884 16.81864021952431 0 0 0
22 1 1.5986385595919903 2.7602140430968136 14.213340383382212 0 0 0
23 1 3.1983267685570835 3.6837928806665468 16.818640004631202 0 0 0
24 1 4.798014400971387 2.7602138450745453 14.213340926569973 0 0 0
25 1 6.397702513293134 5.530954813478167 14.21334065863904 0 -1 0
26 1 1.5986385014900513 0.9130523151990366 16.81864002435772 0 0 0
27 1 4.798014393752568 0.9130531391097748 16.818640203166787 0 0 0
28 1 3.1983263343935153 5.530954389799663 14.21334080296727 0 -1 0
29 1 1.5986386855545185 2.7602139415694498 19.423939974465025 0 0 0
30 1 4.798014278930062 2.760214222146336 19.423939022317928 0 0 0
31 1 6.397702535848795 5.530954146339868 19.42393968715179 0 -1 0
32 1 3.1983263383556255 5.53095412154442 19.42393987147149 0 -1 0

Velocities

1 0 0 0
2 0 0 0
3 0 0 0
4 0 0 0
5 0 0 0
6 0 0 0
7 0 0 0
8 0 0 0
9 0 0 0
10 0 0 0
11 0 0 0
12 0 0 0
13 0 0 0
14 0 0 0
15 0 0 0
16 0 0 0
17 0 0 0
18 0 0 0
19 0 0 0
20 0 0 0
21 0 0 0
22 0 0 0
23 0 0 0
24 0 0 0
25 0 0 0
26 0 0 0
27 0 0 0
28 0 0 0
29 0 0 0
30 0 0 0
31 0 0 0
32 0 0 0
