ITEM: TIMESTEP
0
ITEM: NUMBER OF ATOMS
32
ITEM: BOX BOUNDS xy xz yz pp pp pp
-4.0532350540161133e-03 6.4008854031562805e+00 0.0000000000000000e+00
-9.1640949249267578e-03 9.6767917275428772e+00 0.0000000000000000e+00
-4.7960281372070312e-02 2.0773346722126007e+01 4.1471964716911316e+00
ITEM: ATOMS id type xs ys zs fx fy fz
1 1 0.999986 0.62142 0.0597509 0 0 0.0460758
2 1 0.499986 0.62142 0.0597509 0 0 0.0460758
3 1 0.249986 0.121419 0.0597519 0 0 0.0460491
4 1 0.749986 0.121419 0.0597519 0 0 0.0460491
5 1 0.999986 0.434242 0.309753 0 0 0.000457764
6 1 0.249986 0.362179 0.184753 0 0 0.00281143
7 1 0.749986 0.362179 0.184753 0 0 0.00281143
8 1 0.499986 0.434242 0.309753 0 0 0.000457764
9 1 0.999986 0.862177 0.184753 0 0 0.00283432
10 1 0.249986 0.934242 0.309753 0 0 0.00041008
11 1 0.499986 0.862177 0.184753 0 0 0.00283432
12 1 0.749986 0.934242 0.309753 0 0 0.00041008
13 1 0.999986 0.247041 0.559749 0 0 6.86646e-05
14 1 0.499986 0.247041 0.559749 0 0 6.86646e-05
15 1 0.249986 0.747039 0.55975 0 0 5.72205e-05
16 1 0.749986 0.747039 0.55975 0 0 5.72205e-05
17 1 0.249986 0.17499 0.434752 0 0 -6.86646e-05
18 1 0.749986 0.17499 0.434752 0 0 -6.86646e-05
19 1 0.999986 0.67499 0.434752 0 0 -4.57764e-05
20 1 0.499986 0.67499 0.434752 0 0 -4.57764e-05
21 1 0.999986 0.0598433 0.809748 0 0 -0.0028286
22 1 0.249986 0.987784 0.684748 0 0 -0.00043869
23 1 0.499986 0.0598433 0.809748 0 0 -0.0028286
24 1 0.749986 0.987784 0.684748 0 0 -0.00043869
25 1 0.999986 0.487784 0.684749 0 0 -0.000457764
26 1 0.249986 0.559844 0.809748 0 0 -0.00281906
27 1 0.749986 0.559844 0.809748 0 0 -0.00281906
28 1 0.499986 0.487784 0.684749 0 0 -0.000457764
29 1 0.249986 0.800599 0.934749 0 0 -0.0460472
30 1 0.749986 0.800599 0.934749 0 0 -0.0460472
31 1 0.999986 0.300599 0.93475 0 0 -0.0460587
32 1 0.499986 0.300599 0.93475 0 0 -0.0460587
ITEM: TIMESTEP
1
ITEM: NUMBER OF ATOMS
32
ITEM: BOX BOUNDS xy xz yz pp pp pp
-4.0532350540161133e-03 6.4008854031562805e+00 0.0000000000000000e+00
-9.1640949249267578e-03 9.6767917275428772e+00 0.0000000000000000e+00
-4.7960281372070312e-02 2.0773346722126007e+01 4.1471964716911316e+00
ITEM: ATOMS id type xs ys zs fx fy fz
1 1 0.999986 0.620969 0.0603533 0 0 -0.0025177
2 1 0.499986 0.620969 0.0603533 0 0 -0.0025177
3 1 0.249986 0.120969 0.060354 0 0 -0.00253296
4 1 0.749986 0.120969 0.060354 0 0 -0.00253296
5 1 0.999986 0.434237 0.309759 0 0 0.00197983
6 1 0.249986 0.362151 0.18479 0 0 0.0151978
7 1 0.749986 0.362151 0.18479 0 0 0.0151978
8 1 0.499986 0.434237 0.309759 0 0 0.00197983
9 1 0.999986 0.862149 0.18479 0 0 0.0152054
10 1 0.249986 0.934238 0.309759 0 0 0.00196838
11 1 0.499986 0.862149 0.18479 0 0 0.0152054
12 1 0.749986 0.934238 0.309759 0 0 0.00196838
13 1 0.999986 0.24704 0.55975 0 0 -0.000135422
14 1 0.499986 0.24704 0.55975 0 0 -0.000135422
15 1 0.249986 0.747039 0.55975 0 0 -0.000150681
16 1 0.749986 0.747039 0.55975 0 0 -0.000150681
17 1 0.249986 0.174991 0.434751 0 0 0.000137329
18 1 0.749986 0.174991 0.434751 0 0 0.000137329
19 1 0.999986 0.67499 0.434751 0 0 0.000144958
20 1 0.499986 0.67499 0.434751 0 0 0.000144958
21 1 0.999986 0.059871 0.809711 0 0 -0.015213
22 1 0.249986 0.987789 0.684742 0 0 -0.00196838
23 1 0.499986 0.059871 0.809711 0 0 -0.015213
24 1 0.749986 0.987789 0.684742 0 0 -0.00196838
25 1 0.999986 0.487789 0.684743 0 0 -0.0019722
26 1 0.249986 0.559871 0.809711 0 0 -0.0151997
27 1 0.749986 0.559871 0.809711 0 0 -0.0151997
28 1 0.499986 0.487789 0.684743 0 0 -0.0019722
29 1 0.249986 0.80105 0.934147 0 0 0.00254059
30 1 0.749986 0.80105 0.934147 0 0 0.00254059
31 1 0.999986 0.30105 0.934148 0 0 0.00251579
32 1 0.499986 0.30105 0.934148 0 0 0.00251579
ITEM: TIMESTEP
2
ITEM: NUMBER OF ATOMS
32
ITEM: BOX BOUNDS xy xz yz pp pp pp
-4.0532350540161133e-03 6.4008854031562805e+00 0.0000000000000000e+00
-9.1640949249267578e-03 9.6767917275428772e+00 0.0000000000000000e+00
-4.7960281372070312e-02 2.0773346722126007e+01 4.1471964716911316e+00
ITEM: ATOMS id type xs ys zs fx fy fz
1 1 0.999986 0.620893 0.0604552 0 0 -0.00174332
2 1 0.499986 0.620893 0.0604552 0 0 -0.00174332
3 1 0.249986 0.120893 0.0604555 0 0 -0.00174713
4 1 0.749986 0.120893 0.0604555 0 0 -0.00174713
5 1 0.999986 0.434201 0.309808 0 0 0.00866699
6 1 0.249986 0.361873 0.185162 0 0 -0.000650406
7 1 0.749986 0.361873 0.185162 0 0 -0.000650406
8 1 0.499986 0.434201 0.309808 0 0 0.00866699
9 1 0.999986 0.861871 0.185163 0 0 -0.000673294
10 1 0.249986 0.934201 0.309807 0 0 0.0086956
11 1 0.499986 0.861871 0.185163 0 0 -0.000673294
12 1 0.749986 0.934201 0.309807 0 0 0.0086956
13 1 0.999986 0.247043 0.559747 0 0 -0.00157356
14 1 0.499986 0.247043 0.559747 0 0 -0.00157356
15 1 0.249986 0.747041 0.559747 0 0 -0.00157166
16 1 0.749986 0.747041 0.559747 0 0 -0.00157166
17 1 0.249986 0.174988 0.434754 0 0 0.00157547
18 1 0.749986 0.174988 0.434754 0 0 0.00157547
19 1 0.999986 0.674988 0.434754 0 0 0.00156403
20 1 0.499986 0.674988 0.434754 0 0 0.00156403
21 1 0.999986 0.06015 0.809339 0 0 0.000679016
22 1 0.249986 0.987825 0.684694 0 0 -0.00867653
23 1 0.499986 0.06015 0.809339 0 0 0.000679016
24 1 0.749986 0.987825 0.684694 0 0 -0.00867653
25 1 0.999986 0.487825 0.684694 0 0 -0.00868416
26 1 0.249986 0.56015 0.809339 0 0 0.000658035
27 1 0.749986 0.56015 0.809339 0 0 0.000658035
28 1 0.499986 0.487825 0.684694 0 0 -0.00868416
29 1 0.249986 0.801126 0.934046 0 0 0.00174332
30 1 0.749986 0.801126 0.934046 0 0 0.00174332
31 1 0.999986 0.301126 0.934046 0 0 0.00173759
32 1 0.499986 0.301126 0.934046 0 0 0.00173759
ITEM: TIMESTEP
3
ITEM: NUMBER OF ATOMS
32
ITEM: BOX BOUNDS xy xz yz pp pp pp
-4.0532350540161133e-03 6.4008854031562805e+00 0.0000000000000000e+00
-9.1640949249267578e-03 9.6767917275428772e+00 0.0000000000000000e+00
-4.7960281372070312e-02 2.0773346722126007e+01 4.1471964716911316e+00
ITEM: ATOMS id type xs ys zs fx fy fz
1 1 0.999986 0.620903 0.0604418 0 0 0.00209236
2 1 0.499986 0.620903 0.0604418 0 0 0.00209236
3 1 0.249986 0.120903 0.0604418 0 0 0.00209236
4 1 0.749986 0.120903 0.0604418 0 0 0.00209236
5 1 0.999986 0.434018 0.310052 0 0 -0.000471115
6 1 0.249986 0.361796 0.185264 0 0 -0.000274658
7 1 0.749986 0.361796 0.185264 0 0 -0.000274658
8 1 0.499986 0.434018 0.310052 0 0 -0.000471115
9 1 0.999986 0.861795 0.185264 0 0 -0.000270844
10 1 0.249986 0.934018 0.310052 0 0 -0.000486374
11 1 0.499986 0.861795 0.185264 0 0 -0.000270844
12 1 0.749986 0.934018 0.310052 0 0 -0.000486374
13 1 0.999986 0.247074 0.559705 0 0 -0.00406647
14 1 0.499986 0.247074 0.559705 0 0 -0.00406647
15 1 0.249986 0.747073 0.559705 0 0 -0.00406075
16 1 0.749986 0.747073 0.559705 0 0 -0.00406075
17 1 0.249986 0.174957 0.434797 0 0 0.00406075
18 1 0.749986 0.174957 0.434797 0 0 0.00406075
19 1 0.999986 0.674956 0.434797 0 0 0.00406647
20 1 0.499986 0.674956 0.434797 0 0 0.00406647
21 1 0.999986 0.0602256 0.809238 0 0 0.000278473
22 1 0.249986 0.988008 0.68445 0 0 0.00047493
23 1 0.499986 0.0602256 0.809238 0 0 0.000278473
24 1 0.749986 0.988008 0.68445 0 0 0.00047493
25 1 0.999986 0.488008 0.68445 0 0 0.000480652
26 1 0.249986 0.560226 0.809237 0 0 0.000270844
27 1 0.749986 0.560226 0.809237 0 0 0.000270844
28 1 0.499986 0.488008 0.68445 0 0 0.000480652
29 1 0.249986 0.801115 0.93406 0 0 -0.00209999
30 1 0.749986 0.801115 0.93406 0 0 -0.00209999
31 1 0.999986 0.301116 0.934059 0 0 -0.00208664
32 1 0.499986 0.301116 0.934059 0 0 -0.00208664
ITEM: TIMESTEP
4
ITEM: NUMBER OF ATOMS
32
ITEM: BOX BOUNDS xy xz yz pp pp pp
-4.0532350540161133e-03 6.4008854031562805e+00 0.0000000000000000e+00
-9.1640949249267578e-03 9.6767917275428772e+00 0.0000000000000000e+00
-4.7960281372070312e-02 2.0773346722126007e+01 4.1471964716911316e+00
ITEM: ATOMS id type xs ys zs fx fy fz
1 1 0.999986 0.620882 0.0604695 0 0 0.000200272
2 1 0.499986 0.620882 0.0604695 0 0 0.000200272
3 1 0.249986 0.120882 0.0604694 0 0 0.000192642
4 1 0.749986 0.120882 0.0604694 0 0 0.000192642
5 1 0.999986 0.433996 0.310081 0 0 -0.000221252
6 1 0.249986 0.361788 0.185275 0 0 0.000591278
7 1 0.749986 0.361788 0.185275 0 0 0.000591278
8 1 0.499986 0.433996 0.310081 0 0 -0.000221252
9 1 0.999986 0.861787 0.185275 0 0 0.000608444
10 1 0.249986 0.933996 0.310081 0 0 -0.000232697
11 1 0.499986 0.861787 0.185275 0 0 0.000608444
12 1 0.749986 0.933996 0.310081 0 0 -0.000232697
13 1 0.999986 0.247122 0.559641 0 0 6.86646e-05
14 1 0.499986 0.247122 0.559641 0 0 6.86646e-05
15 1 0.249986 0.747121 0.559641 0 0 8.58307e-05
16 1 0.749986 0.747121 0.559641 0 0 8.58307e-05
17 1 0.249986 0.174909 0.434861 0 0 -7.43866e-05
18 1 0.749986 0.174909 0.434861 0 0 -7.43866e-05
19 1 0.999986 0.674908 0.434861 0 0 -7.82013e-05
20 1 0.499986 0.674908 0.434861 0 0 -7.82013e-05
21 1 0.999986 0.0602339 0.809227 0 0 -0.00060463
22 1 0.249986 0.98803 0.68442 0 0 0.000221252
23 1 0.499986 0.0602339 0.809227 0 0 -0.00060463
24 1 0.749986 0.98803 0.68442 0 0 0.000221252
25 1 0.999986 0.48803 0.68442 0 0 0.00022316
26 1 0.249986 0.560234 0.809226 0 0 -0.000595093
27 1 0.749986 0.560234 0.809226 0 0 -0.000595093
28 1 0.499986 0.48803 0.68442 0 0 0.00022316
29 1 0.249986 0.801136 0.934032 0 0 -0.000196457
30 1 0.749986 0.801136 0.934032 0 0 -0.000196457
31 1 0.999986 0.301137 0.934032 0 0 -0.000188828
32 1 0.499986 0.301137 0.934032 0 0 -0.000188828
ITEM: TIMESTEP
5
ITEM: NUMBER OF ATOMS
32
ITEM: BOX BOUNDS xy xz yz pp pp pp
-4.0532350540161133e-03 6.4008854031562805e+00 0.0000000000000000e+00
-9.1640949249267578e-03 9.6767917275428772e+00 0.0000000000000000e+00
-4.7960281372070312e-02 2.0773346722126007e+01 4.1471964716911316e+00
ITEM: ATOMS id type xs ys zs fx fy fz
1 1 0.999986 0.620879 0.0604736 0 0 0.000114441
2 1 0.499986 0.620879 0.0604736 0 0 0.000114441
3 1 0.249986 0.120879 0.0604734 0 0 0.000125885
4 1 0.749986 0.120879 0.0604734 0 0 0.000125885
5 1 0.999986 0.433998 0.310078 0 0 0.000196457
6 1 0.249986 0.36178 0.185285 0 0 8.39233e-05
7 1 0.749986 0.36178 0.185285 0 0 8.39233e-05
8 1 0.499986 0.433998 0.310078 0 0 0.000196457
9 1 0.999986 0.861779 0.185286 0 0 7.62939e-05
10 1 0.249986 0.933999 0.310078 0 0 0.000200272
11 1 0.499986 0.861779 0.185286 0 0 7.62939e-05
12 1 0.749986 0.933999 0.310078 0 0 0.000200272
13 1 0.999986 0.247123 0.559641 0 0 0.000162125
14 1 0.499986 0.247123 0.559641 0 0 0.000162125
15 1 0.249986 0.747121 0.559641 0 0 0.000150681
16 1 0.749986 0.747121 0.559641 0 0 0.000150681
17 1 0.249986 0.174909 0.434861 0 0 -0.00015831
18 1 0.749986 0.174909 0.434861 0 0 -0.00015831
19 1 0.999986 0.674908 0.434861 0 0 -0.000162125
20 1 0.499986 0.674908 0.434861 0 0 -0.000162125
21 1 0.999986 0.0602418 0.809216 0 0 -8.2016e-05
22 1 0.249986 0.988028 0.684423 0 0 -0.000202179
23 1 0.499986 0.0602418 0.809216 0 0 -8.2016e-05
24 1 0.749986 0.988028 0.684423 0 0 -0.000202179
25 1 0.999986 0.488028 0.684423 0 0 -0.000190735
26 1 0.249986 0.560242 0.809216 0 0 -8.01086e-05
27 1 0.749986 0.560242 0.809216 0 0 -8.01086e-05
28 1 0.499986 0.488028 0.684423 0 0 -0.000190735
29 1 0.249986 0.801139 0.934028 0 0 -0.000116348
30 1 0.749986 0.801139 0.934028 0 0 -0.000116348
31 1 0.999986 0.30114 0.934028 0 0 -0.000118256
32 1 0.499986 0.30114 0.934028 0 0 -0.000118256
ITEM: TIMESTEP
6
ITEM: NUMBER OF ATOMS
32
ITEM: BOX BOUNDS xy xz yz pp pp pp
-4.0532350540161133e-03 6.4008854031562805e+00 0.0000000000000000e+00
-9.1640949249267578e-03 9.6767917275428772e+00 0.0000000000000000e+00
-4.7960281372070312e-02 2.0773346722126007e+01 4.1471964716911316e+00
ITEM: ATOMS id type xs ys zs fx fy fz
1 1 0.999986 0.620877 0.0604759 0 0 -5.72205e-06
2 1 0.499986 0.620877 0.0604759 0 0 -5.72205e-06
3 1 0.249986 0.120877 0.0604759 0 0 0
4 1 0.749986 0.120877 0.0604759 0 0 0
5 1 0.999986 0.433996 0.310081 0 0 5.14984e-05
6 1 0.249986 0.361778 0.185288 0 0 7.62939e-05
7 1 0.749986 0.361778 0.185288 0 0 7.62939e-05
8 1 0.499986 0.433996 0.310081 0 0 5.14984e-05
9 1 0.999986 0.861777 0.185288 0 0 7.24792e-05
10 1 0.249986 0.933996 0.310081 0 0 4.95911e-05
11 1 0.499986 0.861777 0.185288 0 0 7.24792e-05
12 1 0.749986 0.933996 0.310081 0 0 4.95911e-05
13 1 0.999986 0.24712 0.559643 0 0 -0.000127792
14 1 0.499986 0.24712 0.559643 0 0 -0.000127792
15 1 0.249986 0.747119 0.559643 0 0 -0.000125885
16 1 0.749986 0.747119 0.559643 0 0 -0.000125885
17 1 0.249986 0.174911 0.434858 0 0 0.00012207
18 1 0.749986 0.174911 0.434858 0 0 0.00012207
19 1 0.999986 0.67491 0.434858 0 0 0.000135422
20 1 0.499986 0.67491 0.434858 0 0 0.000135422
21 1 0.999986 0.0602437 0.809213 0 0 -7.62939e-05
22 1 0.249986 0.98803 0.68442 0 0 -4.76837e-05
23 1 0.499986 0.0602437 0.809213 0 0 -7.62939e-05
24 1 0.749986 0.98803 0.68442 0 0 -4.76837e-05
25 1 0.999986 0.48803 0.684421 0 0 -5.34058e-05
26 1 0.249986 0.560244 0.809213 0 0 -8.01086e-05
27 1 0.749986 0.560244 0.809213 0 0 -8.01086e-05
28 1 0.499986 0.48803 0.684421 0 0 -5.34058e-05
29 1 0.249986 0.801141 0.934025 0 0 5.72205e-06
30 1 0.749986 0.801141 0.934025 0 0 5.72205e-06
31 1 0.999986 0.301142 0.934025 0 0 3.8147e-06
32 1 0.499986 0.301142 0.934025 0 0 3.8147e-06
ITEM: TIMESTEP
7
ITEM: NUMBER OF ATOMS
32
ITEM: BOX BOUNDS xy xz yz pp pp pp
-4.0532350540161133e-03 6.4008854031562805e+00 0.0000000000000000e+00
-9.1640949249267578e-03 9.6767917275428772e+00 0.0000000000000000e+00
-4.7960281372070312e-02 2.0773346722126007e+01 4.1471964716911316e+00
ITEM: ATOMS id type xs ys zs fx fy fz
1 1 0.999986 0.620877 0.0604759 0 0 -5.72205e-06
2 1 0.499986 0.620877 0.0604759 0 0 -5.72205e-06
3 1 0.249986 0.120877 0.0604759 0 0 0
4 1 0.749986 0.120877 0.0604759 0 0 0
5 1 0.999986 0.433996 0.310081 0 0 5.14984e-05
6 1 0.249986 0.361778 0.185288 0 0 7.62939e-05
7 1 0.749986 0.361778 0.185288 0 0 7.62939e-05
8 1 0.499986 0.433996 0.310081 0 0 5.14984e-05
9 1 0.999986 0.861777 0.185288 0 0 7.24792e-05
10 1 0.249986 0.933996 0.310081 0 0 4.95911e-05
11 1 0.499986 0.861777 0.185288 0 0 7.24792e-05
12 1 0.749986 0.933996 0.310081 0 0 4.95911e-05
13 1 0.999986 0.24712 0.559643 0 0 -0.000127792
14 1 0.499986 0.24712 0.559643 0 0 -0.000127792
15 1 0.249986 0.747119 0.559643 0 0 -0.000125885
16 1 0.749986 0.747119 0.559643 0 0 -0.000125885
17 1 0.249986 0.174911 0.434858 0 0 0.00012207
18 1 0.749986 0.174911 0.434858 0 0 0.00012207
19 1 0.999986 0.67491 0.434858 0 0 0.000135422
20 1 0.499986 0.67491 0.434858 0 0 0.000135422
21 1 0.999986 0.0602437 0.809213 0 0 -7.62939e-05
22 1 0.249986 0.98803 0.68442 0 0 -4.76837e-05
23 1 0.499986 0.0602437 0.809213 0 0 -7.62939e-05
24 1 0.749986 0.98803 0.68442 0 0 -4.76837e-05
25 1 0.999986 0.48803 0.684421 0 0 -5.34058e-05
26 1 0.249986 0.560244 0.809213 0 0 -8.01086e-05
27 1 0.749986 0.560244 0.809213 0 0 -8.01086e-05
28 1 0.499986 0.48803 0.684421 0 0 -5.34058e-05
29 1 0.249986 0.801141 0.934025 0 0 5.72205e-06
30 1 0.749986 0.801141 0.934025 0 0 5.72205e-06
31 1 0.999986 0.301142 0.934025 0 0 3.8147e-06
32 1 0.499986 0.301142 0.934025 0 0 3.8147e-06
