ITEM: TIMESTEP
0
ITEM: NUMBER OF ATOMS
32
ITEM: BOX BOUNDS xy xz yz pp pp pp
-4.0532350540161133e-03 6.4008854031562805e+00 0.0000000000000000e+00
-9.1640949249267578e-03 8.8473523855209351e+00 0.0000000000000000e+00
-4.7960281372070312e-02 2.0773346722126007e+01 3.3177571296691895e+00
ITEM: ATOMS id type xs ys zs fx fy fz
1 1 0.999986 0.630368 0.0597509 0 0 0.0667248
2 1 0.499986 0.630368 0.0597509 0 0 0.0667248
3 1 0.249986 0.130367 0.0597519 0 0 0.0666695
4 1 0.749986 0.130367 0.0597519 0 0 0.0666695
5 1 0.999986 0.480628 0.309753 0 0 0.0004673
6 1 0.249986 0.389846 0.184753 0 0 0.00365257
7 1 0.749986 0.389846 0.184753 0 0 0.00365257
8 1 0.499986 0.480628 0.309753 0 0 0.0004673
9 1 0.999986 0.889844 0.184753 0 0 0.00367928
10 1 0.249986 0.980628 0.309753 0 0 0.000417709
11 1 0.499986 0.889844 0.184753 0 0 0.00367928
12 1 0.749986 0.980628 0.309753 0 0 0.000417709
13 1 0.999986 0.330865 0.559749 0 0 6.10352e-05
14 1 0.499986 0.330865 0.559749 0 0 6.10352e-05
15 1 0.249986 0.830863 0.55975 0 0 4.95911e-05
16 1 0.749986 0.830863 0.55975 0 0 4.95911e-05
17 1 0.249986 0.240095 0.434752 0 0 -6.10352e-05
18 1 0.749986 0.240095 0.434752 0 0 -6.10352e-05
19 1 0.999986 0.740095 0.434752 0 0 -3.8147e-05
20 1 0.499986 0.740095 0.434752 0 0 -3.8147e-05
21 1 0.999986 0.181105 0.809748 0 0 -0.00367355
22 1 0.249986 0.0903268 0.684748 0 0 -0.000448227
23 1 0.499986 0.181105 0.809748 0 0 -0.00367355
24 1 0.749986 0.0903268 0.684748 0 0 -0.000448227
25 1 0.999986 0.590326 0.684749 0 0 -0.0004673
26 1 0.249986 0.681105 0.809748 0 0 -0.00365448
27 1 0.749986 0.681105 0.809748 0 0 -0.00365448
28 1 0.499986 0.590326 0.684749 0 0 -0.0004673
29 1 0.249986 0.940579 0.934749 0 0 -0.0666599
30 1 0.749986 0.940579 0.934749 0 0 -0.0666599
31 1 0.999986 0.44058 0.93475 0 0 -0.0667191
32 1 0.499986 0.44058 0.93475 0 0 -0.0667191
ITEM: TIMESTEP
1
ITEM: NUMBER OF ATOMS
32
ITEM: BOX BOUNDS xy xz yz pp pp pp
-4.0532350540161133e-03 6.4008854031562805e+00 0.0000000000000000e+00
-9.1640949249267578e-03 8.8473523855209351e+00 0.0000000000000000e+00
-4.7960281372070312e-02 2.0773346722126007e+01 3.3177571296691895e+00
ITEM: ATOMS id type xs ys zs fx fy fz
1 1 0.999986 0.62986 0.060598 0 0 -0.0041008
2 1 0.499986 0.62986 0.060598 0 0 -0.0041008
3 1 0.249986 0.12986 0.0605983 0 0 -0.00411797
4 1 0.749986 0.12986 0.0605983 0 0 -0.00411797
5 1 0.999986 0.480624 0.309759 0 0 0.00260735
6 1 0.249986 0.389818 0.1848 0 0 0.0222244
7 1 0.749986 0.389818 0.1848 0 0 0.0222244
8 1 0.499986 0.480624 0.309759 0 0 0.00260735
9 1 0.999986 0.889816 0.1848 0 0 0.0222187
10 1 0.249986 0.980625 0.309759 0 0 0.00260544
11 1 0.499986 0.889816 0.1848 0 0 0.0222187
12 1 0.749986 0.980625 0.309759 0 0 0.00260544
13 1 0.999986 0.330864 0.55975 0 0 -0.000125885
14 1 0.499986 0.330864 0.55975 0 0 -0.000125885
15 1 0.249986 0.830862 0.55975 0 0 -0.000123978
16 1 0.749986 0.830862 0.55975 0 0 -0.000123978
17 1 0.249986 0.240096 0.434751 0 0 0.000123978
18 1 0.749986 0.240096 0.434751 0 0 0.000123978
19 1 0.999986 0.740095 0.434751 0 0 0.000125885
20 1 0.499986 0.740095 0.434751 0 0 0.000125885
21 1 0.999986 0.181133 0.809702 0 0 -0.0222263
22 1 0.249986 0.0903302 0.684743 0 0 -0.00259972
23 1 0.499986 0.181133 0.809702 0 0 -0.0222263
24 1 0.749986 0.0903302 0.684743 0 0 -0.00259972
25 1 0.999986 0.59033 0.684743 0 0 -0.00261116
26 1 0.249986 0.681133 0.809702 0 0 -0.0222321
27 1 0.749986 0.681133 0.809702 0 0 -0.0222321
28 1 0.499986 0.59033 0.684743 0 0 -0.00261116
29 1 0.249986 0.941086 0.933903 0 0 0.00412369
30 1 0.749986 0.941086 0.933903 0 0 0.00412369
31 1 0.999986 0.441087 0.933903 0 0 0.00410843
32 1 0.499986 0.441087 0.933903 0 0 0.00410843
ITEM: TIMESTEP
2
ITEM: NUMBER OF ATOMS
32
ITEM: BOX BOUNDS xy xz yz pp pp pp
-4.0532350540161133e-03 6.4008854031562805e+00 0.0000000000000000e+00
-9.1640949249267578e-03 8.8473523855209351e+00 0.0000000000000000e+00
-4.7960281372070312e-02 2.0773346722126007e+01 3.3177571296691895e+00
ITEM: ATOMS id type xs ys zs fx fy fz
1 1 0.999986 0.629769 0.0607499 0 0 -0.00340271
2 1 0.499986 0.629769 0.0607499 0 0 -0.00340271
3 1 0.249986 0.12977 0.0607496 0 0 -0.0033741
4 1 0.749986 0.12977 0.0607496 0 0 -0.0033741
5 1 0.999986 0.480587 0.309821 0 0 0.0125656
6 1 0.249986 0.389499 0.185332 0 0 -0.00038147
7 1 0.749986 0.389499 0.185332 0 0 -0.00038147
8 1 0.499986 0.480587 0.309821 0 0 0.0125656
9 1 0.999986 0.889498 0.185332 0 0 -0.000396729
10 1 0.249986 0.980587 0.309821 0 0 0.0125809
11 1 0.499986 0.889498 0.185332 0 0 -0.000396729
12 1 0.749986 0.980587 0.309821 0 0 0.0125809
13 1 0.999986 0.330866 0.559747 0 0 -0.00217438
14 1 0.499986 0.330866 0.559747 0 0 -0.00217438
15 1 0.249986 0.830864 0.559748 0 0 -0.00218391
16 1 0.749986 0.830864 0.559748 0 0 -0.00218391
17 1 0.249986 0.240094 0.434754 0 0 0.00217628
18 1 0.749986 0.240094 0.434754 0 0 0.00217628
19 1 0.999986 0.740093 0.434754 0 0 0.00216866
20 1 0.499986 0.740093 0.434754 0 0 0.00216866
21 1 0.999986 0.181451 0.809169 0 0 0.000404358
22 1 0.249986 0.0903675 0.68468 0 0 -0.0125771
23 1 0.499986 0.181451 0.809169 0 0 0.000404358
24 1 0.749986 0.0903675 0.68468 0 0 -0.0125771
25 1 0.999986 0.590368 0.68468 0 0 -0.0125751
26 1 0.249986 0.681452 0.809169 0 0 0.000400543
27 1 0.749986 0.681452 0.809169 0 0 0.000400543
28 1 0.499986 0.590368 0.68468 0 0 -0.0125751
29 1 0.249986 0.941177 0.933752 0 0 0.00337791
30 1 0.749986 0.941177 0.933752 0 0 0.00337791
31 1 0.999986 0.441178 0.933751 0 0 0.00339127
32 1 0.499986 0.441178 0.933751 0 0 0.00339127
ITEM: TIMESTEP
3
ITEM: NUMBER OF ATOMS
32
ITEM: BOX BOUNDS xy xz yz pp pp pp
-4.0532350540161133e-03 6.4008854031562805e+00 0.0000000000000000e+00
-9.1640949249267578e-03 8.8473523855209351e+00 0.0000000000000000e+00
-4.7960281372070312e-02 2.0773346722126007e+01 3.3177571296691895e+00
ITEM: ATOMS id type xs ys zs fx fy fz
1 1 0.999986 0.629795 0.0607067 0 0 0.00412941
2 1 0.499986 0.629795 0.0607067 0 0 0.00412941
3 1 0.249986 0.129795 0.060707 0 0 0.00410461
4 1 0.749986 0.129795 0.060707 0 0 0.00410461
5 1 0.999986 0.480383 0.31016 0 0 -0.000185013
6 1 0.249986 0.389413 0.185476 0 0 -0.000587463
7 1 0.749986 0.389413 0.185476 0 0 -0.000587463
8 1 0.499986 0.480383 0.31016 0 0 -0.000185013
9 1 0.999986 0.889412 0.185475 0 0 -0.000564575
10 1 0.249986 0.980384 0.31016 0 0 -0.000196457
11 1 0.499986 0.889412 0.185475 0 0 -0.000564575
12 1 0.749986 0.980384 0.31016 0 0 -0.000196457
13 1 0.999986 0.330899 0.559691 0 0 -0.00581932
14 1 0.499986 0.330899 0.559691 0 0 -0.00581932
15 1 0.249986 0.830898 0.559691 0 0 -0.00581932
16 1 0.749986 0.830898 0.559691 0 0 -0.00581932
17 1 0.249986 0.24006 0.434811 0 0 0.00580597
18 1 0.749986 0.24006 0.434811 0 0 0.00580597
19 1 0.999986 0.74006 0.43481 0 0 0.00582886
20 1 0.499986 0.74006 0.43481 0 0 0.00582886
21 1 0.999986 0.181537 0.809026 0 0 0.000572205
22 1 0.249986 0.0905707 0.684341 0 0 0.000190735
23 1 0.499986 0.181537 0.809026 0 0 0.000572205
24 1 0.749986 0.0905707 0.684341 0 0 0.000190735
25 1 0.999986 0.590571 0.684341 0 0 0.00019455
26 1 0.249986 0.681537 0.809026 0 0 0.000576019
27 1 0.749986 0.681537 0.809026 0 0 0.000576019
28 1 0.499986 0.590571 0.684341 0 0 0.00019455
29 1 0.249986 0.941151 0.933795 0 0 -0.00412369
30 1 0.749986 0.941151 0.933795 0 0 -0.00412369
31 1 0.999986 0.441152 0.933794 0 0 -0.00410652
32 1 0.499986 0.441152 0.933794 0 0 -0.00410652
ITEM: TIMESTEP
4
ITEM: NUMBER OF ATOMS
32
ITEM: BOX BOUNDS xy xz yz pp pp pp
-4.0532350540161133e-03 6.4008854031562805e+00 0.0000000000000000e+00
-9.1640949249267578e-03 8.8473523855209351e+00 0.0000000000000000e+00
-4.7960281372070312e-02 2.0773346722126007e+01 3.3177571296691895e+00
ITEM: ATOMS id type xs ys zs fx fy fz
1 1 0.999986 0.629763 0.0607597 0 0 0.000337601
2 1 0.499986 0.629763 0.0607597 0 0 0.000337601
3 1 0.249986 0.129764 0.0607597 0 0 0.000337601
4 1 0.749986 0.129764 0.0607597 0 0 0.000337601
5 1 0.999986 0.480348 0.310219 0 0 -0.000528336
6 1 0.249986 0.389403 0.185493 0 0 0.0013485
7 1 0.749986 0.389403 0.185493 0 0 0.0013485
8 1 0.499986 0.480348 0.310219 0 0 -0.000528336
9 1 0.999986 0.889401 0.185493 0 0 0.00135612
10 1 0.249986 0.980349 0.310219 0 0 -0.000534058
11 1 0.499986 0.889401 0.185493 0 0 0.00135612
12 1 0.749986 0.980349 0.310219 0 0 -0.000534058
13 1 0.999986 0.330957 0.559595 0 0 7.24792e-05
14 1 0.499986 0.330957 0.559595 0 0 7.24792e-05
15 1 0.249986 0.830955 0.559595 0 0 7.43866e-05
16 1 0.749986 0.830955 0.559595 0 0 7.43866e-05
17 1 0.249986 0.240003 0.434906 0 0 -7.43866e-05
18 1 0.749986 0.240003 0.434906 0 0 -7.43866e-05
19 1 0.999986 0.740002 0.434906 0 0 -8.58307e-05
20 1 0.499986 0.740002 0.434906 0 0 -8.58307e-05
21 1 0.999986 0.181548 0.809009 0 0 -0.00136757
22 1 0.249986 0.0906057 0.684283 0 0 0.00053978
23 1 0.499986 0.181548 0.809009 0 0 -0.00136757
24 1 0.749986 0.0906057 0.684283 0 0 0.00053978
25 1 0.999986 0.590606 0.684283 0 0 0.000551224
26 1 0.249986 0.681548 0.809009 0 0 -0.00136948
27 1 0.749986 0.681548 0.809009 0 0 -0.00136948
28 1 0.499986 0.590606 0.684283 0 0 0.000551224
29 1 0.249986 0.941183 0.933742 0 0 -0.000322342
30 1 0.749986 0.941183 0.933742 0 0 -0.000322342
31 1 0.999986 0.441184 0.933742 0 0 -0.000335693
32 1 0.499986 0.441184 0.933742 0 0 -0.000335693
ITEM: TIMESTEP
5
ITEM: NUMBER OF ATOMS
32
ITEM: BOX BOUNDS xy xz yz pp pp pp
-4.0532350540161133e-03 6.4008854031562805e+00 0.0000000000000000e+00
-9.1640949249267578e-03 8.8473523855209351e+00 0.0000000000000000e+00
-4.7960281372070312e-02 2.0773346722126007e+01 3.3177571296691895e+00
ITEM: ATOMS id type xs ys zs fx fy fz
1 1 0.999986 0.629758 0.0607681 0 0 0.000238419
2 1 0.499986 0.629758 0.0607681 0 0 0.000238419
3 1 0.249986 0.129759 0.0607681 0 0 0.000234604
4 1 0.749986 0.129759 0.0607681 0 0 0.000234604
5 1 0.999986 0.480352 0.310212 0 0 0.000507355
6 1 0.249986 0.389388 0.185517 0 0 0.000108719
7 1 0.749986 0.389388 0.185517 0 0 0.000108719
8 1 0.499986 0.480352 0.310212 0 0 0.000507355
9 1 0.999986 0.889386 0.185517 0 0 0.000101089
10 1 0.249986 0.980353 0.310212 0 0 0.000509262
11 1 0.499986 0.889386 0.185517 0 0 0.000101089
12 1 0.749986 0.980353 0.310212 0 0 0.000509262
13 1 0.999986 0.330959 0.559592 0 0 0.000440598
14 1 0.499986 0.330959 0.559592 0 0 0.000440598
15 1 0.249986 0.830957 0.559592 0 0 0.000442505
16 1 0.749986 0.830957 0.559592 0 0 0.000442505
17 1 0.249986 0.240001 0.434909 0 0 -0.000429153
18 1 0.749986 0.240001 0.434909 0 0 -0.000429153
19 1 0.999986 0.74 0.434909 0 0 -0.000431061
20 1 0.499986 0.74 0.434909 0 0 -0.000431061
21 1 0.999986 0.181562 0.808984 0 0 -8.96454e-05
22 1 0.249986 0.0906016 0.684289 0 0 -0.000528336
23 1 0.499986 0.181562 0.808984 0 0 -8.96454e-05
24 1 0.749986 0.0906016 0.684289 0 0 -0.000528336
25 1 0.999986 0.590601 0.68429 0 0 -0.00053215
26 1 0.249986 0.681563 0.808984 0 0 -8.2016e-05
27 1 0.749986 0.681563 0.808984 0 0 -8.2016e-05
28 1 0.499986 0.590601 0.68429 0 0 -0.00053215
29 1 0.249986 0.941188 0.933734 0 0 -0.00025177
30 1 0.749986 0.941188 0.933734 0 0 -0.00025177
31 1 0.999986 0.441189 0.933733 0 0 -0.000238419
32 1 0.499986 0.441189 0.933733 0 0 -0.000238419
ITEM: TIMESTEP
6
ITEM: NUMBER OF ATOMS
32
ITEM: BOX BOUNDS xy xz yz pp pp pp
-4.0532350540161133e-03 6.4008854031562805e+00 0.0000000000000000e+00
-9.1640949249267578e-03 8.8473523855209351e+00 0.0000000000000000e+00
-4.7960281372070312e-02 2.0773346722126007e+01 3.3177571296691895e+00
ITEM: ATOMS id type xs ys zs fx fy fz
1 1 0.999986 0.629758 0.0607681 0 0 0.000238419
2 1 0.499986 0.629758 0.0607681 0 0 0.000238419
3 1 0.249986 0.129759 0.0607681 0 0 0.000234604
4 1 0.749986 0.129759 0.0607681 0 0 0.000234604
5 1 0.999986 0.480352 0.310212 0 0 0.000507355
6 1 0.249986 0.389388 0.185517 0 0 0.000108719
7 1 0.749986 0.389388 0.185517 0 0 0.000108719
8 1 0.499986 0.480352 0.310212 0 0 0.000507355
9 1 0.999986 0.889386 0.185517 0 0 0.000101089
10 1 0.249986 0.980353 0.310212 0 0 0.000509262
11 1 0.499986 0.889386 0.185517 0 0 0.000101089
12 1 0.749986 0.980353 0.310212 0 0 0.000509262
13 1 0.999986 0.330959 0.559592 0 0 0.000440598
14 1 0.499986 0.330959 0.559592 0 0 0.000440598
15 1 0.249986 0.830957 0.559592 0 0 0.000442505
16 1 0.749986 0.830957 0.559592 0 0 0.000442505
17 1 0.249986 0.240001 0.434909 0 0 -0.000429153
18 1 0.749986 0.240001 0.434909 0 0 -0.000429153
19 1 0.999986 0.74 0.434909 0 0 -0.000431061
20 1 0.499986 0.74 0.434909 0 0 -0.000431061
21 1 0.999986 0.181562 0.808984 0 0 -8.96454e-05
22 1 0.249986 0.0906016 0.684289 0 0 -0.000528336
23 1 0.499986 0.181562 0.808984 0 0 -8.96454e-05
24 1 0.749986 0.0906016 0.684289 0 0 -0.000528336
25 1 0.999986 0.590601 0.68429 0 0 -0.00053215
26 1 0.249986 0.681563 0.808984 0 0 -8.2016e-05
27 1 0.749986 0.681563 0.808984 0 0 -8.2016e-05
28 1 0.499986 0.590601 0.68429 0 0 -0.00053215
29 1 0.249986 0.941188 0.933734 0 0 -0.00025177
30 1 0.749986 0.941188 0.933734 0 0 -0.00025177
31 1 0.999986 0.441189 0.933733 0 0 -0.000238419
32 1 0.499986 0.441189 0.933733 0 0 -0.000238419
