ITEM: TIMESTEP
0
ITEM: NUMBER OF ATOMS
56
ITEM: BOX BOUNDS xy xz yz pp pp pp
-1.4018693566322327e+00 1.2203788340091705e+01 0.0000000000000000e+00
-8.4733366966247559e-03 5.5348814725875854e+00 -1.3831808567047119e+00
-2.9168844223022461e-02 1.9049128890037537e+01 0.0000000000000000e+00
ITEM: ATOMS id type xs ys zs fx fy fz
1 1 0.565051 4.41887e-05 0.132366 0 0.0223732 0.413815
2 1 0.315052 0.166624 0.132366 0 -0.0223961 0.413824
3 1 0.218627 2.39879e-05 0.275225 0 0.000917435 -0.000627518
4 1 0.968626 0.166644 0.275225 0 -0.000940323 -0.000623703
5 1 0.872149 1.9421e-05 0.418082 0 3.43323e-05 0.000297546
6 1 0.0650515 4.41295e-05 0.132366 0 0.0223732 0.413815
7 1 0.988236 0.500074 0.0609403 0 -0.0714436 0.438036
8 1 0.815052 0.166623 0.132366 0 -0.0223827 0.413811
9 1 0.738237 0.666593 0.0609403 0 0.0714626 0.438047
10 1 0.718628 2.39872e-05 0.275225 0 0.000915527 -0.000616074
11 1 0.622148 0.166647 0.418082 0 -3.05176e-05 0.000291824
12 1 0.52566 2.47556e-05 0.560942 0 -3.43323e-05 -0.000125885
13 1 0.27566 0.166643 0.560942 0 2.47955e-05 -0.000127792
14 1 0.17918 2.39811e-05 0.703801 0 -0.00022316 0.000694275
15 1 0.92918 0.166644 0.703801 0 0.000188828 0.000684738
16 1 0.832714 2.63435e-05 0.846651 0 0.00424194 -0.00221634
17 1 0.641856 0.500026 0.203802 0 0.00425911 0.00222969
18 1 0.468627 0.166645 0.275225 0 -0.000959396 -0.000619888
19 1 0.391857 0.66664 0.203802 0 -0.00423431 0.00223923
20 1 0.372149 2.01694e-05 0.418082 0 1.71661e-05 0.000297546
21 1 0.295389 0.500023 0.346651 0 -0.00019455 -0.000675201
22 1 0.122149 0.166648 0.418082 0 -3.62396e-05 0.000295639
23 1 0.045389 0.666642 0.346651 0 0.000236511 -0.000694275
24 1 0.0256603 2.49573e-05 0.560941 0 -3.8147e-05 -0.000118256
25 1 0.948908 0.500025 0.489511 0 -3.05176e-05 0.000112534
26 1 0.775662 0.166643 0.560941 0 2.47955e-05 -0.000112534
27 1 0.698909 0.666642 0.489511 0 3.62396e-05 0.000135422
28 1 0.488235 0.500073 0.0609404 0 -0.071434 0.438036
29 1 0.238236 0.666593 0.0609403 0 0.0714664 0.438038
30 1 0.141856 0.500026 0.203802 0 0.00426102 0.0022316
31 1 0.891856 0.666641 0.203802 0 -0.00425529 0.00224113
32 1 0.79539 0.500024 0.346651 0 -0.00022316 -0.000694275
33 1 0.582712 0.166641 0.846652 0 -0.00424576 -0.0022583
34 1 0.486333 7.47473e-05 0.989512 0 -0.0714684 -0.438028
35 1 0.236333 0.166594 0.989513 0 0.071434 -0.438044
36 1 0.679179 2.44315e-05 0.703801 0 -0.000232697 0.000686646
37 1 0.602418 0.50002 0.632371 0 3.05176e-05 -0.000314713
38 1 0.42918 0.166643 0.703801 0 0.000205994 0.000694275
39 1 0.35242 0.666647 0.632371 0 -2.47955e-05 -0.000299454
40 1 0.332712 2.63314e-05 0.846651 0 0.00425339 -0.00224304
41 1 0.255942 0.500023 0.775228 0 0.000930786 0.000627518
42 1 0.082712 0.166641 0.846651 0 -0.00425148 -0.00223923
43 1 0.00594169 0.666644 0.775228 0 -0.000923157 0.000608444
44 1 0.986333 7.37033e-05 0.989512 0 -0.0714436 -0.43803
45 1 0.909518 0.500043 0.918087 0 0.0223866 -0.413794
46 1 0.545389 0.666643 0.346651 0 0.000236511 -0.000686646
47 1 0.448908 0.500025 0.489511 0 -2.67029e-05 0.000116348
48 1 0.198908 0.666642 0.489511 0 4.00543e-05 0.000116348
49 1 0.102419 0.500019 0.632371 0 4.19617e-05 -0.000289917
50 1 0.85242 0.666647 0.63237 0 -1.14441e-05 -0.000274658
51 1 0.755943 0.500022 0.775228 0 0.000947952 0.000623703
52 1 0.736331 0.166594 0.989513 0 0.0714436 -0.43804
53 1 0.659517 0.666624 0.918087 0 -0.0223866 -0.413841
54 1 0.505942 0.666643 0.775228 0 -0.000928879 0.000627518
55 1 0.409517 0.500044 0.918087 0 0.0223923 -0.413822
56 1 0.159517 0.666624 0.918087 0 -0.022377 -0.413816
ITEM: TIMESTEP
1
ITEM: NUMBER OF ATOMS
56
ITEM: BOX BOUNDS xy xz yz pp pp pp
-1.4018693566322327e+00 1.2203788340091705e+01 0.0000000000000000e+00
-8.4733366966247559e-03 5.5348814725875854e+00 -1.3831808567047119e+00
-2.9168844223022461e-02 1.9049128890037537e+01 0.0000000000000000e+00
ITEM: ATOMS id type xs ys zs fx fy fz
1 1 0.565557 0.000875682 0.136835 0 -0.00260353 -0.000911713
2 1 0.315557 0.165791 0.136835 0 0.00260925 -0.000911713
3 1 0.218626 5.8084e-05 0.275218 0 -0.0149288 0.0844021
4 1 0.968626 0.166609 0.275218 0 0.0149326 0.0843925
5 1 0.872149 2.0697e-05 0.418085 0 -0.000684738 -0.000904083
6 1 0.0655572 0.000875623 0.136835 0 -0.00259972 -0.000911713
7 1 0.988771 0.497419 0.0656704 0 -0.0599308 -0.0226364
8 1 0.815558 0.165791 0.136834 0 0.00261497 -0.000904083
9 1 0.738772 0.669249 0.0656705 0 0.0599308 -0.0226498
10 1 0.718627 5.80124e-05 0.275218 0 -0.0149326 0.0843983
11 1 0.622148 0.166646 0.418085 0 0.000694275 -0.000907898
12 1 0.52566 2.34797e-05 0.56094 0 0.000108719 0.00248146
13 1 0.27566 0.166644 0.56094 0 -0.000114441 0.00248909
14 1 0.179181 1.56875e-05 0.703809 0 -0.00208664 -0.00419044
15 1 0.929181 0.166651 0.703809 0 0.00208664 -0.00419235
16 1 0.832711 0.000183994 0.846627 0 0.00199509 -0.105658
17 1 0.641858 0.500184 0.203826 0 0.00198936 0.105663
18 1 0.468626 0.166609 0.275218 0 0.0149288 0.084404
19 1 0.391859 0.666482 0.203826 0 -0.0019989 0.105673
20 1 0.37215 2.08074e-05 0.418085 0 -0.000694275 -0.000905991
21 1 0.295388 0.500016 0.346644 0 -0.00209618 0.00419044
22 1 0.122149 0.166647 0.418085 0 0.000688553 -0.000904083
23 1 0.0453881 0.666651 0.346644 0 0.00209808 0.00419044
24 1 0.0256602 2.35396e-05 0.56094 0 0.000114441 0.002491
25 1 0.948908 0.500024 0.489513 0 0.000116348 -0.00248718
26 1 0.775661 0.166644 0.56094 0 -0.00012207 0.00249481
27 1 0.698909 0.666643 0.489513 0 -0.000106812 -0.00248528
28 1 0.488771 0.497418 0.0656705 0 -0.0599194 -0.0226517
29 1 0.238771 0.669249 0.0656705 0 0.0599213 -0.022646
30 1 0.141859 0.500185 0.203826 0 0.00199318 0.105669
31 1 0.891859 0.666483 0.203826 0 -0.00200272 0.105669
32 1 0.795389 0.500016 0.346644 0 -0.00209808 0.00418854
33 1 0.582709 0.166483 0.846627 0 -0.00199509 -0.105682
34 1 0.485798 -0.00258135 0.984782 0 -0.0599327 0.022646
35 1 0.235798 0.169248 0.984782 0 0.0599327 0.0226364
36 1 0.67918 1.57834e-05 0.703809 0 -0.00209808 -0.00418091
37 1 0.602418 0.500021 0.632368 0 -0.000688553 0.000907898
38 1 0.429181 0.166651 0.703809 0 0.00209045 -0.00419044
39 1 0.352419 0.666646 0.632368 0 0.000694275 0.000905991
40 1 0.33271 0.000184407 0.846627 0 0.00199699 -0.105665
41 1 0.255943 0.500058 0.775234 0 -0.0149326 -0.0843945
42 1 0.0827093 0.166483 0.846627 0 -0.00199127 -0.105679
43 1 0.00594243 0.666609 0.775234 0 0.0149288 -0.0844002
44 1 0.985798 -0.00258147 0.984782 0 -0.059927 0.022646
45 1 0.909012 0.500875 0.913618 0 -0.00259399 0.000919342
46 1 0.545388 0.666651 0.346644 0 0.00209045 0.00418854
47 1 0.448908 0.500024 0.489513 0 0.000114441 -0.00249863
48 1 0.198908 0.666643 0.489513 0 -0.000108719 -0.00249863
49 1 0.102419 0.50002 0.632368 0 -0.000686646 0.000911713
50 1 0.85242 0.666646 0.632368 0 0.000692368 0.00091362
51 1 0.755944 0.500058 0.775235 0 -0.0149364 -0.0844002
52 1 0.735796 0.169249 0.984782 0 0.0599251 0.0226383
53 1 0.659011 0.665792 0.913618 0 0.00259781 0.00091362
54 1 0.505942 0.666609 0.775235 0 0.0149326 -0.0844059
55 1 0.409011 0.500876 0.913618 0 -0.00260544 0.000911713
56 1 0.159011 0.665792 0.913618 0 0.00259781 0.000917435
ITEM: TIMESTEP
2
ITEM: NUMBER OF ATOMS
56
ITEM: BOX BOUNDS xy xz yz pp pp pp
-1.4018693566322327e+00 1.2203788340091705e+01 0.0000000000000000e+00
-8.4733366966247559e-03 5.5348814725875854e+00 -1.3831808567047119e+00
-2.9168844223022461e-02 1.9049128890037537e+01 0.0000000000000000e+00
ITEM: ATOMS id type xs ys zs fx fy fz
1 1 0.565648 0.000797473 0.137647 0 -0.0237885 0.0183239
2 1 0.315649 0.16587 0.137647 0 0.0237675 0.0183296
3 1 0.218875 -0.00127598 0.277419 0 0.00643349 0.00660515
4 1 0.968875 0.167944 0.277419 0 -0.00643539 0.00660896
5 1 0.872147 -4.05464e-05 0.418062 0 -0.00657272 0.037365
6 1 0.0656491 0.000797757 0.137647 0 -0.0237865 0.0183296
7 1 0.988804 0.491541 0.0659648 0 -0.00747681 -0.00866508
8 1 0.81565 0.165871 0.137647 0 0.0237656 0.0183105
9 1 0.738806 0.675127 0.0659646 0 0.00748634 -0.00866127
10 1 0.718876 -0.00127641 0.277419 0 0.00644112 0.00659943
11 1 0.622146 0.166708 0.418062 0 0.00657082 0.0373535
12 1 0.525667 3.30027e-05 0.561005 0 -0.00201988 -0.00405502
13 1 0.275668 0.166634 0.561005 0 0.0020256 -0.00406837
14 1 0.179168 -0.000173222 0.703701 0 -0.00823212 -0.056488
15 1 0.929168 0.16684 0.703701 0 0.00822639 -0.0564842
16 1 0.832398 0.000392625 0.843866 0 -0.00797844 0.0160847
17 1 0.642171 0.500393 0.206587 0 -0.00797844 -0.0160904
18 1 0.468875 0.167943 0.277419 0 -0.00644112 0.00660515
19 1 0.392172 0.666274 0.206587 0 0.00798416 -0.0161037
20 1 0.372147 -4.14117e-05 0.418062 0 -0.00656319 0.0373516
21 1 0.2954 0.499826 0.346752 0 -0.00822067 0.056488
22 1 0.122147 0.166708 0.418062 0 0.00658035 0.0373592
23 1 0.0454003 0.666841 0.346752 0 0.00822258 0.0564823
24 1 0.0256675 3.35499e-05 0.561005 0 -0.0020256 -0.00406456
25 1 0.9489 0.500034 0.489448 0 -0.0020256 0.00406647
26 1 0.775669 0.166633 0.561005 0 0.00203705 -0.00406075
27 1 0.698902 0.666634 0.489448 0 0.00202179 0.00406265
28 1 0.488804 0.491542 0.0659645 0 -0.00748825 -0.00866318
29 1 0.238804 0.675126 0.0659646 0 0.00749016 -0.00866127
30 1 0.142172 0.500393 0.206587 0 -0.00798416 -0.0160904
31 1 0.892172 0.666274 0.206587 0 0.0079937 -0.0161037
32 1 0.795401 0.499826 0.346752 0 -0.00821686 0.0564919
33 1 0.582397 0.166274 0.843866 0 0.00797844 0.016098
34 1 0.485765 -0.00845958 0.984488 0 -0.00746727 0.00865555
35 1 0.235765 0.175126 0.984488 0 0.00748062 0.00867271
36 1 0.679167 -0.00017422 0.703701 0 -0.00821877 -0.0564938
37 1 0.60242 0.499959 0.632391 0 -0.00658035 -0.0373688
38 1 0.429169 0.16684 0.703701 0 0.00823402 -0.0564957
39 1 0.352422 0.666709 0.632391 0 0.00656319 -0.0373688
40 1 0.332397 0.000393289 0.843866 0 -0.00798225 0.0160961
41 1 0.255694 0.498723 0.773034 0 0.00643349 -0.00660324
42 1 0.0823968 0.166274 0.843866 0 0.0079689 0.0161057
43 1 0.00569339 0.667943 0.773034 0 -0.00643921 -0.00658417
44 1 0.985765 -0.00845902 0.984488 0 -0.0074749 0.00867653
45 1 0.90892 0.500798 0.912806 0 -0.0237923 -0.0183239
46 1 0.5454 0.666841 0.346752 0 0.00822258 0.0564899
47 1 0.448901 0.500034 0.489448 0 -0.00202751 0.00407219
48 1 0.198901 0.666634 0.489448 0 0.00202751 0.00407028
49 1 0.102422 0.499959 0.632391 0 -0.006567 -0.0373669
50 1 0.852423 0.666709 0.632391 0 0.00656319 -0.0373669
51 1 0.755695 0.498723 0.773034 0 0.00643921 -0.00659752
52 1 0.735763 0.175126 0.984488 0 0.00748825 0.00867271
53 1 0.658919 0.665869 0.912806 0 0.0237808 -0.0183353
54 1 0.505693 0.667943 0.773034 0 -0.00644302 -0.00658798
55 1 0.408919 0.500798 0.912806 0 -0.0237885 -0.0183334
56 1 0.15892 0.66587 0.912806 0 0.0237885 -0.0183411
ITEM: TIMESTEP
3
ITEM: NUMBER OF ATOMS
56
ITEM: BOX BOUNDS xy xz yz pp pp pp
-1.4018693566322327e+00 1.2203788340091705e+01 0.0000000000000000e+00
-8.4733366966247559e-03 5.5348814725875854e+00 -1.3831808567047119e+00
-2.9168844223022461e-02 1.9049128890037537e+01 0.0000000000000000e+00
ITEM: ATOMS id type xs ys zs fx fy fz
1 1 0.565752 -0.00197176 0.13856 0 0.000602722 0.000501633
2 1 0.315753 0.168637 0.13856 0 -0.000577927 0.000509262
3 1 0.218992 -0.00102671 0.278451 0 -0.00489235 0.00602722
4 1 0.968992 0.167694 0.278451 0 0.00489235 0.00603867
5 1 0.872287 -0.000820296 0.419304 0 -0.00103378 0.00914192
6 1 0.0657524 -0.00197113 0.13856 0 0.000600815 0.000513077
7 1 0.988784 0.488512 0.0657833 0 0.00283623 -0.005476
8 1 0.815753 0.168638 0.138559 0 -0.000585556 0.000522614
9 1 0.738785 0.678156 0.0657831 0 -0.00284958 -0.00549889
10 1 0.718993 -0.00102639 0.278451 0 -0.00489998 0.00604439
11 1 0.622286 0.167488 0.419304 0 0.00103569 0.00915718
12 1 0.525654 -0.000196174 0.560893 0 -0.00909805 -0.0160179
13 1 0.275655 0.166863 0.560893 0 0.0091095 -0.0160027
14 1 0.17895 -0.0011912 0.70177 0 0.00148582 0.00979805
15 1 0.92895 0.167857 0.70177 0 -0.00148201 0.00979805
16 1 0.832344 -0.000449561 0.843387 0 7.24792e-05 -0.00183105
17 1 0.642225 0.49955 0.207066 0 7.43866e-05 0.00183678
18 1 0.468992 0.167693 0.278451 0 0.00489998 0.00603104
19 1 0.392226 0.667116 0.207066 0 -8.7738e-05 0.00184441
20 1 0.372288 -0.000820423 0.419304 0 -0.00104523 0.00915527
21 1 0.295619 0.498809 0.348683 0 0.00148392 -0.00979996
22 1 0.122287 0.167489 0.419304 0 0.00103951 0.00914192
23 1 0.0456188 0.667859 0.348682 0 -0.0014801 -0.00978279
24 1 0.0256548 -0.000196107 0.560893 0 -0.00909615 -0.0159988
25 1 0.948913 0.499804 0.48956 0 -0.00909615 0.0160007
26 1 0.775656 0.166864 0.560893 0 0.00908661 -0.0160103
27 1 0.698914 0.666863 0.48956 0 0.00909996 0.0160103
28 1 0.488783 0.488512 0.0657829 0 0.0028286 -0.00548744
29 1 0.238784 0.678156 0.0657831 0 -0.00283623 -0.00549698
30 1 0.142226 0.49955 0.207066 0 7.43866e-05 0.00183678
31 1 0.892226 0.667117 0.207066 0 -9.34601e-05 0.00185013
32 1 0.79562 0.49881 0.348683 0 0.0014782 -0.00979805
33 1 0.582342 0.167116 0.843386 0 -7.82013e-05 -0.00182724
34 1 0.485785 -0.011487 0.98467 0 0.00283051 0.00548744
35 1 0.235785 0.178155 0.98467 0 -0.0028286 0.00548935
36 1 0.678949 -0.00119106 0.70177 0 0.00147057 0.00979424
37 1 0.60228 0.499178 0.631148 0 -0.00102425 -0.00914383
38 1 0.42895 0.167858 0.70177 0 -0.00149345 0.00980568
39 1 0.352281 0.667488 0.631148 0 0.00105095 -0.00912857
40 1 0.332343 -0.000449244 0.843387 0 6.48499e-05 -0.00184631
41 1 0.255577 0.498973 0.772002 0 -0.00489235 -0.00605202
42 1 0.0823426 0.167116 0.843386 0 -6.29425e-05 -0.00183678
43 1 0.00557663 0.667693 0.772002 0 0.00489235 -0.00606155
44 1 0.985785 -0.0114871 0.98467 0 0.00282669 0.00547409
45 1 0.908817 0.498029 0.911894 0 0.00060463 -0.000509262
46 1 0.545618 0.667858 0.348683 0 -0.0014801 -0.00979614
47 1 0.448913 0.499804 0.48956 0 -0.00909233 0.0159931
48 1 0.198913 0.666864 0.48956 0 0.00909424 0.0160027
49 1 0.102281 0.49918 0.631149 0 -0.00105667 -0.00913811
50 1 0.852282 0.667488 0.631149 0 0.00104141 -0.00914192
51 1 0.755578 0.498973 0.772002 0 -0.00489616 -0.00605011
52 1 0.735783 0.178156 0.98467 0 -0.00283623 0.00546837
53 1 0.658816 0.668638 0.911893 0 -0.000585556 -0.000492096
54 1 0.505577 0.667693 0.772002 0 0.00490379 -0.006073
55 1 0.408816 0.498028 0.911893 0 0.00060463 -0.000492096
56 1 0.158816 0.668639 0.911893 0 -0.00060463 -0.000484467
ITEM: TIMESTEP
4
ITEM: NUMBER OF ATOMS
56
ITEM: BOX BOUNDS xy xz yz pp pp pp
-1.4018693566322327e+00 1.2203788340091705e+01 0.0000000000000000e+00
-8.4733366966247559e-03 5.5348814725875854e+00 -1.3831808567047119e+00
-2.9168844223022461e-02 1.9049128890037537e+01 0.0000000000000000e+00
ITEM: ATOMS id type xs ys zs fx fy fz
1 1 0.565759 -0.00211277 0.138627 0 0.00247955 0.00238037
2 1 0.31576 0.168779 0.138627 0 -0.00247955 0.0023613
3 1 0.219011 -0.00130336 0.278622 0 -0.000520706 0.00330162
4 1 0.969011 0.167971 0.278622 0 0.000524521 0.0032959
5 1 0.872314 -0.000931976 0.419543 0 -0.00340462 -0.00207138
6 1 0.06576 -0.00211223 0.138627 0 0.00248528 0.00237274
7 1 0.988772 0.488488 0.0656765 0 0.00209808 0.000808716
8 1 0.815761 0.168779 0.138627 0 -0.00248718 0.00237083
9 1 0.738773 0.67818 0.0656759 0 -0.00209999 0.000829697
10 1 0.719012 -0.00130345 0.278622 0 -0.000518799 0.00329399
11 1 0.622313 0.1676 0.419543 0 0.00340843 -0.00206566
12 1 0.525622 -0.000754945 0.560607 0 -0.00367355 0.00190353
13 1 0.275623 0.167423 0.560607 0 0.00367165 0.00190544
14 1 0.178955 -0.00116742 0.701817 0 0.00022316 -0.000638962
15 1 0.928955 0.167834 0.701817 0 -0.000225067 -0.000644684
16 1 0.832337 -0.000499072 0.843324 0 -0.000675201 0.00207901
17 1 0.642232 0.499501 0.207129 0 -0.000673294 -0.00208473
18 1 0.469011 0.16797 0.278622 0 0.000522614 0.00328827
19 1 0.392233 0.667165 0.207129 0 0.000677109 -0.00207901
20 1 0.372315 -0.00093274 0.419543 0 -0.00340462 -0.00206757
21 1 0.295614 0.498833 0.348636 0 0.000219345 0.000638962
22 1 0.122314 0.167601 0.419543 0 0.00340271 -0.00206757
23 1 0.0456135 0.667835 0.348636 0 -0.000230789 0.000637054
24 1 0.0256226 -0.000754794 0.560608 0 -0.00367165 0.00190353
25 1 0.948945 0.499246 0.489845 0 -0.00368309 -0.00190544
26 1 0.775624 0.167422 0.560608 0 0.00368118 0.00190926
27 1 0.698947 0.667422 0.489846 0 0.00367165 -0.00190735
28 1 0.488771 0.488488 0.0656759 0 0.00210953 0.00082016
29 1 0.238772 0.67818 0.065676 0 -0.0021019 0.000827789
30 1 0.142233 0.499501 0.207129 0 -0.000671387 -0.00208282
31 1 0.892233 0.667166 0.207129 0 0.000675201 -0.00207329
32 1 0.795614 0.498833 0.348636 0 0.000225067 0.000638962
33 1 0.582335 0.167165 0.843324 0 0.000680923 0.00207138
34 1 0.485797 -0.0115113 0.984776 0 0.00208664 -0.000816345
35 1 0.235797 0.17818 0.984777 0 -0.00210571 -0.000818253
36 1 0.678954 -0.00116813 0.701817 0 0.000232697 -0.000637054
37 1 0.602253 0.499067 0.63091 0 -0.00341606 0.00206947
38 1 0.428955 0.167834 0.701817 0 -0.00022316 -0.000640869
39 1 0.352254 0.6676 0.63091 0 0.0033989 0.00206184
40 1 0.332336 -0.000499234 0.843324 0 -0.000671387 0.00208855
41 1 0.255557 0.498696 0.77183 0 -0.000514984 -0.00328827
42 1 0.0823355 0.167166 0.843324 0 0.000675201 0.00208282
43 1 0.00555724 0.66797 0.771831 0 0.000520706 -0.00329018
44 1 0.985798 -0.0115116 0.984777 0 0.00210381 -0.000814438
45 1 0.908809 0.497888 0.911826 0 0.00248337 -0.00237465
46 1 0.545613 0.667834 0.348636 0 -0.000225067 0.00063324
47 1 0.448946 0.499245 0.489845 0 -0.00367928 -0.0018959
48 1 0.198946 0.667423 0.489845 0 0.00368881 -0.00190544
49 1 0.102254 0.499067 0.63091 0 -0.00340462 0.00206184
50 1 0.852255 0.6676 0.63091 0 0.00340462 0.00207329
51 1 0.755558 0.498696 0.771831 0 -0.000518799 -0.00329208
52 1 0.735795 0.17818 0.984777 0 -0.00210381 -0.000814438
53 1 0.658808 0.668779 0.911826 0 -0.00248718 -0.00238609
54 1 0.505557 0.66797 0.77183 0 0.000514984 -0.00328636
55 1 0.408809 0.497887 0.911826 0 0.00248909 -0.00238228
56 1 0.158809 0.668779 0.911826 0 -0.00248337 -0.00237846
ITEM: TIMESTEP
5
ITEM: NUMBER OF ATOMS
56
ITEM: BOX BOUNDS xy xz yz pp pp pp
-1.4018693566322327e+00 1.2203788340091705e+01 0.0000000000000000e+00
-8.4733366966247559e-03 5.5348814725875854e+00 -1.3831808567047119e+00
-2.9168844223022461e-02 1.9049128890037537e+01 0.0000000000000000e+00
ITEM: ATOMS id type xs ys zs fx fy fz
1 1 0.565768 -0.00190022 0.138703 0 0.000318527 -0.000246048
2 1 0.315769 0.168567 0.138702 0 -0.000312805 -0.000217438
3 1 0.219025 -0.00139602 0.27874 0 0.000133514 -0.00078392
4 1 0.969024 0.168064 0.27874 0 -0.000143051 -0.000770569
5 1 0.872312 -0.00127169 0.419523 0 -0.000665665 0.00103188
6 1 0.0657686 -0.00189915 0.138703 0 0.000307083 -0.000234604
7 1 0.988772 0.488683 0.065682 0 0.0008564 -0.00110435
8 1 0.815769 0.168566 0.138702 0 -0.000310898 -0.000226974
9 1 0.738774 0.677984 0.065682 0 -0.000852585 -0.00111961
10 1 0.719026 -0.00139599 0.27874 0 0.000133514 -0.000778198
11 1 0.622311 0.16794 0.419523 0 0.000658035 0.00102425
12 1 0.525623 -0.00119021 0.560615 0 -0.000722885 0.000980377
13 1 0.275624 0.167858 0.560615 0 0.00071907 0.000972748
14 1 0.178954 -0.00114258 0.701807 0 -0.00115013 -1.52588e-05
15 1 0.928954 0.167809 0.701807 0 0.00115204 -7.62939e-06
16 1 0.832342 -0.000570734 0.843372 0 0.000764847 -0.00135994
17 1 0.642227 0.499429 0.207081 0 0.000761032 0.00137138
18 1 0.469024 0.168063 0.27874 0 -0.000135422 -0.000774384
19 1 0.392228 0.667237 0.207082 0 -0.000759125 0.00136375
20 1 0.372312 -0.00127255 0.419523 0 -0.00066185 0.00101852
21 1 0.295615 0.498858 0.348646 0 -0.00114822 2.86102e-05
22 1 0.122312 0.167941 0.419523 0 0.000663757 0.00102997
23 1 0.0456147 0.66781 0.348646 0 0.00116158 2.67029e-05
24 1 0.0256234 -0.00118986 0.560615 0 -0.000720978 0.000963211
25 1 0.948945 0.49881 0.489838 0 -0.000711441 -0.00097847
26 1 0.775625 0.167858 0.560615 0 0.000715256 0.000967026
27 1 0.698946 0.667857 0.489838 0 0.000720978 -0.000976562
28 1 0.488772 0.488683 0.0656817 0 0.000841141 -0.00111961
29 1 0.238772 0.677984 0.065682 0 -0.000852585 -0.00111771
30 1 0.142228 0.49943 0.207082 0 0.000762939 0.00136566
31 1 0.892228 0.667237 0.207082 0 -0.00075531 0.0013504
32 1 0.795615 0.498858 0.348646 0 -0.00115395 1.90735e-05
33 1 0.582341 0.167238 0.843371 0 -0.000766754 -0.00135803
34 1 0.485797 -0.0113177 0.984771 0 0.000864029 0.00111198
35 1 0.235797 0.177984 0.984771 0 -0.000850677 0.00110817
36 1 0.678953 -0.00114251 0.701807 0 -0.00115776 -2.47955e-05
37 1 0.602255 0.498727 0.63093 0 -0.000652313 -0.00102806
38 1 0.428954 0.167809 0.701807 0 0.0011425 -2.47955e-05
39 1 0.352257 0.66794 0.63093 0 0.000665665 -0.00101471
40 1 0.332341 -0.00057061 0.843371 0 0.000770569 -0.00136948
41 1 0.255544 0.498604 0.771713 0 0.0001297 0.000770569
42 1 0.0823408 0.167237 0.843371 0 -0.000766754 -0.00137138
43 1 0.00554396 0.668063 0.771713 0 -0.000133514 0.000778198
44 1 0.985797 -0.0113164 0.984771 0 0.000846863 0.00110245
45 1 0.908801 0.498101 0.911751 0 0.00030899 0.000232697
46 1 0.545614 0.667809 0.348646 0 0.00114822 2.67029e-05
47 1 0.448945 0.49881 0.489838 0 -0.000709534 -0.000986099
48 1 0.198945 0.667859 0.489838 0 0.000705719 -0.000972748
49 1 0.102256 0.498727 0.63093 0 -0.000656128 -0.00102425
50 1 0.852257 0.667939 0.63093 0 0.000663757 -0.00101662
51 1 0.755545 0.498603 0.771713 0 0.000137329 0.000772476
52 1 0.735795 0.177985 0.984771 0 -0.000850677 0.00110817
53 1 0.658799 0.668566 0.91175 0 -0.000305176 0.000246048
54 1 0.505544 0.668062 0.771713 0 -0.000139236 0.000764847
55 1 0.4088 0.498101 0.91175 0 0.000303268 0.000242233
56 1 0.1588 0.668567 0.91175 0 -0.000310898 0.000244141
ITEM: TIMESTEP
6
ITEM: NUMBER OF ATOMS
56
ITEM: BOX BOUNDS xy xz yz pp pp pp
-1.4018693566322327e+00 1.2203788340091705e+01 0.0000000000000000e+00
-8.4733366966247559e-03 5.5348814725875854e+00 -1.3831808567047119e+00
-2.9168844223022461e-02 1.9049128890037537e+01 0.0000000000000000e+00
ITEM: ATOMS id type xs ys zs fx fy fz
1 1 0.565768 -0.00184513 0.138707 0 -2.67029e-05 -0.000131607
2 1 0.315769 0.168512 0.138707 0 1.52588e-05 -0.000146866
3 1 0.219024 -0.00139715 0.278736 0 0.000123978 9.53674e-05
4 1 0.969024 0.168064 0.278736 0 -0.000110626 8.39233e-05
5 1 0.872315 -0.00137289 0.419546 0 6.48499e-05 0.000349045
6 1 0.0657691 -0.00184495 0.138707 0 -1.52588e-05 -0.000141144
7 1 0.988769 0.488781 0.0656558 0 0.000259399 0.000894547
8 1 0.81577 0.168512 0.138707 0 2.67029e-05 -0.000143051
9 1 0.738771 0.677887 0.0656554 0 -0.000265121 0.000904083
10 1 0.719025 -0.00139711 0.278736 0 0.000118256 9.15527e-05
11 1 0.622314 0.168041 0.419546 0 -6.10352e-05 0.000362396
12 1 0.525626 -0.00130896 0.56064 0 3.24249e-05 -0.000101089
13 1 0.275626 0.167976 0.56064 0 -3.24249e-05 -8.7738e-05
14 1 0.178954 -0.00123588 0.701805 0 -0.000465393 -0.000167847
15 1 0.928954 0.167902 0.701805 0 0.0004673 -0.000169754
16 1 0.832339 -0.00051604 0.843345 0 0.000326157 0.000152588
17 1 0.64223 0.499484 0.207108 0 0.000324249 -0.000160217
18 1 0.469024 0.168064 0.278736 0 -0.000123978 9.91821e-05
19 1 0.392231 0.667182 0.207109 0 -0.000329971 -0.000152588
20 1 0.372315 -0.00137345 0.419545 0 6.67572e-05 0.000360489
21 1 0.295615 0.498764 0.348648 0 -0.000465393 0.000160217
22 1 0.122315 0.168042 0.419546 0 -6.86646e-05 0.000350952
23 1 0.0456149 0.667904 0.348648 0 0.000463486 0.000148773
24 1 0.0256262 -0.00130843 0.56064 0 3.05176e-05 -8.01086e-05
25 1 0.948942 0.498692 0.489813 0 2.86102e-05 0.000102997
26 1 0.775627 0.167976 0.56064 0 -2.86102e-05 -8.39233e-05
27 1 0.698943 0.667976 0.489813 0 -2.86102e-05 9.15527e-05
28 1 0.488769 0.48878 0.0656552 0 0.00028038 0.000907898
29 1 0.238769 0.677887 0.0656555 0 -0.000261307 0.000905991
30 1 0.142231 0.499484 0.207109 0 0.000324249 -0.000152588
31 1 0.892231 0.667183 0.207108 0 -0.000337601 -0.000144958
32 1 0.795616 0.498764 0.348648 0 -0.000465393 0.00015831
33 1 0.582338 0.167183 0.843344 0 -0.000324249 0.000156403
34 1 0.4858 -0.0112193 0.984797 0 0.000261307 -0.000898361
35 1 0.2358 0.177887 0.984797 0 -0.000265121 -0.000900269
36 1 0.678953 -0.00123635 0.701805 0 -0.000461578 -0.000154495
37 1 0.602252 0.498626 0.630907 0 6.10352e-05 -0.000354767
38 1 0.428954 0.167902 0.701805 0 0.000469208 -0.000162125
39 1 0.352254 0.668041 0.630908 0 -6.29425e-05 -0.000364304
40 1 0.332338 -0.000515397 0.843344 0 0.000310898 0.000156403
41 1 0.255544 0.498602 0.771716 0 0.000118256 -8.39233e-05
42 1 0.0823378 0.167183 0.843344 0 -0.000318527 0.000164032
43 1 0.00554434 0.668064 0.771717 0 -0.000133514 -9.15527e-05
44 1 0.9858 -0.0112192 0.984797 0 0.000267029 -0.000894547
45 1 0.9088 0.498155 0.911746 0 -2.09808e-05 0.000137329
46 1 0.545614 0.667902 0.348648 0 0.000471115 0.00015831
47 1 0.448942 0.498692 0.489813 0 2.47955e-05 9.72748e-05
48 1 0.198942 0.667977 0.489813 0 -2.86102e-05 9.34601e-05
49 1 0.102254 0.498627 0.630907 0 6.29425e-05 -0.000354767
50 1 0.852255 0.66804 0.630908 0 -6.48499e-05 -0.000371933
51 1 0.755545 0.498603 0.771717 0 0.000125885 -8.7738e-05
52 1 0.735798 0.177887 0.984797 0 -0.000261307 -0.000894547
53 1 0.658799 0.668512 0.911746 0 1.52588e-05 0.000123978
54 1 0.505544 0.668063 0.771716 0 -0.000120163 -8.2016e-05
55 1 0.408799 0.498155 0.911746 0 -1.52588e-05 0.000131607
56 1 0.1588 0.668512 0.911746 0 2.28882e-05 0.000120163
ITEM: TIMESTEP
7
ITEM: NUMBER OF ATOMS
56
ITEM: BOX BOUNDS xy xz yz pp pp pp
-1.4018693566322327e+00 1.2203788340091705e+01 0.0000000000000000e+00
-8.4733366966247559e-03 5.5348814725875854e+00 -1.3831808567047119e+00
-2.9168844223022461e-02 1.9049128890037537e+01 0.0000000000000000e+00
ITEM: ATOMS id type xs ys zs fx fy fz
1 1 0.565768 -0.00183993 0.138705 0 0.000137329 -0.000240326
2 1 0.315769 0.168506 0.138705 0 -0.000133514 -0.000244141
3 1 0.219024 -0.00138858 0.278738 0 -3.43323e-05 0.000169754
4 1 0.969024 0.168056 0.278738 0 2.67029e-05 0.000164032
5 1 0.872316 -0.00138132 0.419556 0 -1.90735e-05 -9.53674e-06
6 1 0.0657689 -0.00183907 0.138705 0 0.000137329 -0.000244141
7 1 0.988771 0.488812 0.0656707 0 9.91821e-05 3.24249e-05
8 1 0.81577 0.168507 0.138705 0 -0.000143051 -0.000236511
9 1 0.738772 0.677856 0.0656705 0 -8.58307e-05 2.28882e-05
10 1 0.719025 -0.00138893 0.278738 0 -3.43323e-05 0.000173569
11 1 0.622315 0.168049 0.419556 0 1.71661e-05 -1.52588e-05
12 1 0.525626 -0.00132192 0.560641 0 0.000104904 -4.19617e-05
13 1 0.275626 0.167989 0.560641 0 -0.000106812 -4.95911e-05
14 1 0.178953 -0.0012806 0.701802 0 9.15527e-05 -0.000104904
15 1 0.928954 0.167947 0.701802 0 -9.72748e-05 -9.53674e-05
16 1 0.832339 -0.000486068 0.843344 0 -7.62939e-05 -0.000188828
17 1 0.64223 0.499513 0.207109 0 -8.2016e-05 0.000188828
18 1 0.469024 0.168055 0.278738 0 4.00543e-05 0.000160217
19 1 0.392231 0.667152 0.207109 0 8.2016e-05 0.000183105
20 1 0.372316 -0.00138171 0.419556 0 -1.71661e-05 -1.33514e-05
21 1 0.295615 0.49872 0.348651 0 9.34601e-05 9.72748e-05
22 1 0.122316 0.16805 0.419556 0 1.14441e-05 -1.14441e-05
23 1 0.0456153 0.667948 0.348651 0 -9.34601e-05 0.000114441
24 1 0.0256264 -0.0013215 0.560641 0 0.000106812 -5.14984e-05
25 1 0.948942 0.498679 0.489812 0 0.000110626 3.8147e-05
26 1 0.775628 0.167989 0.560642 0 -0.000108719 -4.95911e-05
27 1 0.698943 0.667989 0.489812 0 -0.000106812 4.3869e-05
28 1 0.488771 0.488812 0.0656703 0 9.15527e-05 3.43323e-05
29 1 0.238771 0.677856 0.0656706 0 -0.000102997 2.86102e-05
30 1 0.142231 0.499514 0.207109 0 -7.43866e-05 0.000181198
31 1 0.892231 0.667152 0.207109 0 8.39233e-05 0.000179291
32 1 0.795616 0.49872 0.348651 0 9.15527e-05 0.000114441
33 1 0.582338 0.167153 0.843344 0 7.62939e-05 -0.000192642
34 1 0.485798 -0.0111882 0.984782 0 9.34601e-05 -3.43323e-05
35 1 0.235798 0.177856 0.984782 0 -9.34601e-05 -3.05176e-05
36 1 0.678952 -0.00128087 0.701802 0 9.15527e-05 -0.000102997
37 1 0.602251 0.498618 0.630897 0 -1.14441e-05 1.14441e-05
38 1 0.428954 0.167947 0.701801 0 -8.96454e-05 -0.000101089
39 1 0.352253 0.668049 0.630897 0 7.62939e-06 3.8147e-06
40 1 0.332338 -0.000486431 0.843344 0 -7.82013e-05 -0.000192642
41 1 0.255544 0.498611 0.771715 0 -3.62396e-05 -0.000173569
42 1 0.0823378 0.167153 0.843344 0 7.43866e-05 -0.000188828
43 1 0.00554418 0.668055 0.771715 0 4.76837e-05 -0.000175476
44 1 0.985798 -0.011188 0.984783 0 9.34601e-05 -2.47955e-05
45 1 0.9088 0.498161 0.911748 0 0.000141144 0.000247955
46 1 0.545615 0.667948 0.348651 0 -9.15527e-05 0.000108719
47 1 0.448942 0.498679 0.489811 0 0.000112534 5.72205e-05
48 1 0.198942 0.66799 0.489812 0 -0.000106812 5.34058e-05
49 1 0.102253 0.498618 0.630897 0 -1.71661e-05 1.52588e-05
50 1 0.852254 0.668049 0.630897 0 1.14441e-05 5.72205e-06
51 1 0.755545 0.498611 0.771715 0 -4.00543e-05 -0.000169754
52 1 0.735796 0.177856 0.984782 0 -9.91821e-05 -3.05176e-05
53 1 0.658799 0.668506 0.911748 0 -0.000139236 0.000249863
54 1 0.505544 0.668055 0.771715 0 4.57764e-05 -0.000164032
55 1 0.4088 0.498161 0.911748 0 0.000137329 0.000246048
56 1 0.1588 0.668507 0.911748 0 -0.000139236 0.00025177
ITEM: TIMESTEP
8
ITEM: NUMBER OF ATOMS
56
ITEM: BOX BOUNDS xy xz yz pp pp pp
-1.4018693566322327e+00 1.2203788340091705e+01 0.0000000000000000e+00
-8.4733366966247559e-03 5.5348814725875854e+00 -1.3831808567047119e+00
-2.9168844223022461e-02 1.9049128890037537e+01 0.0000000000000000e+00
ITEM: ATOMS id type xs ys zs fx fy fz
1 1 0.565768 -0.00183993 0.138705 0 0.000137329 -0.000240326
2 1 0.315769 0.168506 0.138705 0 -0.000133514 -0.000244141
3 1 0.219024 -0.00138858 0.278738 0 -3.43323e-05 0.000169754
4 1 0.969024 0.168056 0.278738 0 2.67029e-05 0.000164032
5 1 0.872316 -0.00138132 0.419556 0 -1.90735e-05 -9.53674e-06
6 1 0.0657689 -0.00183907 0.138705 0 0.000137329 -0.000244141
7 1 0.988771 0.488812 0.0656707 0 9.91821e-05 3.24249e-05
8 1 0.81577 0.168507 0.138705 0 -0.000143051 -0.000236511
9 1 0.738772 0.677856 0.0656705 0 -8.58307e-05 2.28882e-05
10 1 0.719025 -0.00138893 0.278738 0 -3.43323e-05 0.000173569
11 1 0.622315 0.168049 0.419556 0 1.71661e-05 -1.52588e-05
12 1 0.525626 -0.00132192 0.560641 0 0.000104904 -4.19617e-05
13 1 0.275626 0.167989 0.560641 0 -0.000106812 -4.95911e-05
14 1 0.178953 -0.0012806 0.701802 0 9.15527e-05 -0.000104904
15 1 0.928954 0.167947 0.701802 0 -9.72748e-05 -9.53674e-05
16 1 0.832339 -0.000486068 0.843344 0 -7.62939e-05 -0.000188828
17 1 0.64223 0.499513 0.207109 0 -8.2016e-05 0.000188828
18 1 0.469024 0.168055 0.278738 0 4.00543e-05 0.000160217