LAMMPS (4 May 2022)
## variable
variable        temp            equal 400
variable        eql_step        equal 500000
variable        rd_seed         equal 2

variable        temp_damp       equal 0.2 # tau_NVT = timestep * 100
variable        t_step          equal 0.002
variable        rlx_step        equal 20000

variable        thermo_freq     equal 100
variable        dump_freq       equal 100

## units
dimension       3
boundary        p p p
units           metal
atom_style      atomic
neighbor        1.0 bin
neigh_modify    every 10 delay 0 check no

## data.lmp, potential
read_data       data.lmp
Reading data file ...
  orthogonal box = (0 0 0) to (26.16621 26.16621 25.2548)
  1 by 1 by 1 MPI processor grid
  reading atoms ...
  900 atoms
  read_data CPU = 0.002 seconds
pair_style      nvnmd model.pb
pair_coeff * *

## velocity, timestep
velocity        all create ${temp} ${rd_seed} loop geom
velocity        all create 400 ${rd_seed} loop geom
velocity        all create 400 2 loop geom
timestep        ${t_step}
timestep        0.002

## nvt-relax
fix             equil all nvt temp ${temp} ${temp} ${temp_damp}
fix             equil all nvt temp 400 ${temp} ${temp_damp}
fix             equil all nvt temp 400 400 ${temp_damp}
fix             equil all nvt temp 400 400 0.2
run             ${rlx_step}
run             20000
Generated 0 of 6 mixed pair_coeff terms from geometric mixing rule
Neighbor list info ...
  update every 10 steps, delay 0 steps, check no
  max neighbors/atom: 2000, page size: 100000
  master list distance cutoff = 8
  ghost atom cutoff = 8
  binsize = 4, bins = 7 7 7
  1 neighbor lists, perpetual/occasional/extra = 1 0 0
  (1) pair nvnmd, perpetual
      attributes: full, newton on
      pair build: full/bin/atomonly
      stencil: full/bin/3d
      bin: standard
Per MPI rank memory allocation (min/avg/max) = 3.057 | 3.057 | 3.057 Mbytes
   Step          Temp          E_pair         E_mol          TotEng         Press     
         0   400            201.17586      0              247.65781      16168.803    
     20000   414.56177      236.22406      0              284.39816      12519.698    
Loop time of 12.1037 on 1 procs for 20000 steps with 900 atoms

Performance: 285.533 ns/day, 0.084 hours/ns, 1652.392 timesteps/s
54.4% CPU use with 1 MPI tasks x no OpenMP threads

MPI task timing breakdown:
Section |  min time  |  avg time  |  max time  |%varavg| %total
---------------------------------------------------------------
Pair    | 7.715      | 7.715      | 7.715      |   0.0 | 63.74
Neigh   | 4.1022     | 4.1022     | 4.1022     |   0.0 | 33.89
Comm    | 0.13628    | 0.13628    | 0.13628    |   0.0 |  1.13
Output  | 1.4544e-05 | 1.4544e-05 | 1.4544e-05 |   0.0 |  0.00
Modify  | 0.12671    | 0.12671    | 0.12671    |   0.0 |  1.05
Other   |            | 0.02346    |            |       |  0.19

Nlocal:            900 ave         900 max         900 min
Histogram: 1 0 0 0 0 0 0 0 0 0
Nghost:           2782 ave        2782 max        2782 min
Histogram: 1 0 0 0 0 0 0 0 0 0
Neighs:              0 ave           0 max           0 min
Histogram: 1 0 0 0 0 0 0 0 0 0
FullNghs:       100374 ave      100374 max      100374 min
Histogram: 1 0 0 0 0 0 0 0 0 0

Total # of neighbors = 100374
Ave neighs/atom = 111.52667
Neighbor list builds = 2000
Dangerous builds not checked
unfix           equil

## nvt-equal
reset_timestep  0
fix             equil all nvt temp ${temp} ${temp} ${temp_damp}
fix             equil all nvt temp 400 ${temp} ${temp_damp}
fix             equil all nvt temp 400 400 ${temp_damp}
fix             equil all nvt temp 400 400 0.2
fix             com all recenter INIT INIT INIT

## thermo_style
thermo_style    custom step time temp ke etotal press
thermo          ${thermo_freq}
thermo          100
thermo_modify   flush yes
dump            1 all custom ${dump_freq} dump.lammpstraj id type x y z
dump            1 all custom 100 dump.lammpstraj id type x y z
run             500000
Generated 0 of 6 mixed pair_coeff terms from geometric mixing rule
Per MPI rank memory allocation (min/avg/max) = 4.341 | 4.341 | 4.341 Mbytes
   Step          Time           Temp          KinEng         TotEng         Press     
         0   0              414.56177      48.174097      284.39816      12519.698    
       100   0.2            414.15379      48.126687      284.68498      18732.841    
       200   0.4            400.06539      46.489546      285.93168      16947.278    
       300   0.6            403.30414      46.865906      288.12482      16601.164    
       400   0.8            408.04312      47.416598      287.92858      16826.114    
       500   1              403.51505      46.890414      284.77211      15918.093    
       600   1.2            407.09594      47.306531      283.89664      15809.853    
       700   1.4            392.04912      45.558018      284.28353      15184.985    
       800   1.6            401.44956      46.650395      285.86924      18485.051    
       900   1.8            403.60501      46.900868      288.563        15218.61     
      1000   2              421.48344      48.978429      290.25983      17788.969    
      1100   2.2            415.70165      48.306557      286.46365      15887.847    
      1200   2.4            388.14139      45.10392       284.65756      15909.89     
      1300   2.6            403.23627      46.858019      284.74804      16643.365    
      1400   2.8            403.60154      46.900465      285.90609      14330.283    
      1500   3              403.66865      46.908263      287.4498       16037.483    
      1600   3.2            405.54362      47.126143      287.5765       15826.71     
      1700   3.4            396.8425       46.115031      284.19397      14153.626    
      1800   3.6            393.51868      45.728788      282.9111       16601.705    
      1900   3.8            398.25321      46.278962      284.08887      16626.761    
      2000   4              401.09939      46.609702      286.02964      14933.821    
      2100   4.2            405.23464      47.090239      286.87207      17192.453    
      2200   4.4            398.16788      46.269047      284.24624      17020.276    
      2300   4.6            374.4748       43.515796      281.49582      16046.798    
      2400   4.8            387.54522      45.034642      283.14801      17070.387    
      2500   5              405.64149      47.137517      285.64524      16615.204    
      2600   5.2            413.14995      48.010037      286.68797      15392.275    
      2700   5.4            411.11129      47.773134      285.79696      15517.944    
      2800   5.6            389.14039      45.220009      282.96282      16795.964    
      2900   5.8            390.9108       45.425739      281.7382       14892.942    
      3000   6              395.83607      45.998079      282.79382      15793.678    
      3100   6.2            388.10996      45.100268      283.79817      16036.649    
      3200   6.4            392.32954      45.590603      284.74546      14024.852    
      3300   6.6            410.29272      47.678012      285.9246       17786.678    
      3400   6.8            406.47188      47.234012      286.91916      15975.114    
      3500   7              403.62347      46.903013      286.78119      14841.396    
      3600   7.2            390.75906      45.408106      283.69911      16510.687    
      3700   7.4            385.7143       44.82188       282.52798      15427.771    
      3800   7.6            398.73877      46.335387      283.62399      15979.013    
      3900   7.8            412.60391      47.946583      286.24903      16096.017    
      4000   8              407.19481      47.31802       287.08445      14628.145    
      4100   8.2            396.8951       46.121143      286.04873      15601.477    
      4200   8.4            400.9566       46.59311       284.58506      16226.395    
      4300   8.6            392.74508      45.638891      283.68334      15135.466    
      4400   8.8            406.27052      47.210613      284.33317      16792.935    
      4500   9              406.60916      47.249965      287.72207      15401.198    
      4600   9.2            419.03858      48.694324      288.12354      15522.682    
      4700   9.4            410.58614      47.712109      285.5987       15243.145    
      4800   9.6            398.94903      46.359821      284.35324      14949.562    
      4900   9.8            398.93415      46.358091      284.34758      16321.88     
      5000   10             398.96341      46.361491      285.97905      13859.231    
      5100   10.2           420.45822      48.859293      287.87521      16391.889    
      5200   10.4           421.57327      48.988867      288.34517      16861.637    
      5300   10.6           401.47869      46.653779      285.06364      14612.819    
      5400   10.8           400.50303      46.540403      283.27153      14205.89     
      5500   11             397.52484      46.194322      283.68738      14887.05     
      5600   11.2           399.24744      46.394497      286.08164      13965.571    
      5700   11.4           405.84173      47.160786      287.50041      15751.783    
      5800   11.6           402.36089      46.756295      286.86845      15984.293    
      5900   11.8           400.47604      46.537266      283.76314      13315.342    
      6000   12             383.27938      44.538931      282.7176       15388.312    
      6100   12.2           385.02097      44.741312      283.19474      15569.5      
      6200   12.4           406.66687      47.256671      284.77605      15672.57     
      6300   12.6           401.69597      46.679028      285.98935      15517.76     
      6400   12.8           418.05311      48.579807      286.73686      14657.076    
      6500   13             389.98038      45.31762       286.86634      15325.301    
      6600   13.2           399.11217      46.378778      285.0391       14398.581    
      6700   13.4           381.393        44.319724      282.94181      16727.228    
      6800   13.6           395.69506      45.981693      283.03176      14400.885    
      6900   13.8           404.72389      47.030887      285.50909      14283.852    
      7000   14             418.08352      48.583341      287.31284      17521.581    
      7100   14.2           398.54754      46.313165      286.99235      15727.148    
      7200   14.4           403.9805       46.944501      286.06267      15610.619    
      7300   14.6           396.37772      46.061022      285.22687      16097.187    
      7400   14.8           390.39427      45.365716      284.10393      15847.532    
      7500   15             405.02459      47.06583       283.09394      15426.018    
      7600   15.2           382.78754      44.481776      283.10944      15364.875    
      7700   15.4           413.45269      48.045216      286.0466       15160.767    
      7800   15.6           422.39057      49.083841      287.40032      15186.041    
      7900   15.8           418.34996      48.614303      286.59288      15055.959    
      8000   16             403.92843      46.938451      284.0324       14683.127    
      8100   16.2           388.4219       45.136517      282.28093      16204.25     
      8200   16.4           395.55533      45.965455      282.96896      14265.74     
      8300   16.6           380.10863      44.170474      284.2631       14731.161    
      8400   16.8           413.74315      48.078969      285.54935      15222.093    
      8500   17             402.02066      46.716759      287.04524      15935.893    
      8600   17.2           412.37697      47.920212      286.9919       16276.316    
      8700   17.4           401.67505      46.676597      285.19192      15368.952    
      8800   17.6           378.92421      44.032838      282.62166      15821.43     
      8900   17.8           370.31564      43.03248       278.80952      15628.99     
      9000   18             385.19535      44.761576      281.29606      14769.024    
      9100   18.2           399.08571      46.375703      284.34733      16316.714    
      9200   18.4           412.68329      47.955808      286.44649      13546.351    
      9300   18.6           404.50751      47.005743      287.4357       15962.304    
      9400   18.8           401.55846      46.663049      286.59444      14756.66     
      9500   19             384.89671      44.726873      284.04269      16520.718    
      9600   19.2           383.93775      44.615437      283.25577      15188.986    
      9700   19.4           390.48508      45.376268      284.50112      15646.527    
      9800   19.6           423.46559      49.208764      288.63351      15520.129    
      9900   19.8           410.14952      47.661372      288.10309      15514.017    
     10000   20             382.9593       44.501736      285.30578      16789.223    
     10100   20.2           402.77813      46.80478       284.12005      14839.833    
     10200   20.4           408.7661       47.500611      284.05567      16152.588    
     10300   20.6           393.00748      45.669384      285.12795      15264.266    
     10400   20.8           443.26403      51.50944       288.35091      15443.154    
     10500   21             416.24731      48.369964      288.06985      16524.886    
     10600   21.2           395.69807      45.982043      285.6712       13590.745    
     10700   21.4           415.25697      48.254883      284.75908      16105.59     
     10800   21.6           405.2695       47.09429       284.58938      15636.415    
     10900   21.8           408.35602      47.452959      285.12136      14120.477    
     11000   22             401.64296      46.672868      287.23978      15821.526    
     11100   22.2           419.96569      48.802058      289.45276      17377.323    
     11200   22.4           399.02735      46.368921      287.37096      14835.163    
     11300   22.6           409.65976      47.604459      285.24936      16017.066    
     11400   22.8           403.65206      46.906335      284.53412      16169.121    
     11500   23             394.09097      45.79529       284.0777       15379.193    
     11600   23.2           399.73716      46.451405      284.21473      16178.408    
     11700   23.4           406.77698      47.269466      286.08678      14809.323    
     11800   23.6           406.03706      47.183484      287.67493      14659.768    
     11900   23.8           395.18373      45.922274      287.50663      16428.363    
     12000   24             396.96746      46.129552      284.07348      16617.311    
     12100   24.2           390.29008      45.353608      283.29904      14498.305    
     12200   24.4           394.78451      45.875883      284.29756      15303.884    
     12300   24.6           396.70122      46.098613      286.03858      16740.878    
     12400   24.8           413.95068      48.103086      287.77425      14900.178    
     12500   25             429.12706      49.866654      290.75825      15882.062    
     12600   25.2           415.12013      48.238981      289.9208       15191.347    
     12700   25.4           405.14053      47.079302      286.54315      17228.609    
     12800   25.6           406.26908      47.210446      285.02806      16275.985    
     12900   25.8           413.73732      48.078291      284.48525      15913.792    
     13000   26             391.49397      45.493506      284.9567       13769.34     
     13100   26.2           415.28542      48.258189      287.2972       14272.073    
     13200   26.4           408.74141      47.497743      288.33482      16528.218    
     13300   26.6           408.52731      47.472863      285.39151      13527.806    
     13400   26.8           384.7267       44.707116      283.43881      15938.62     
     13500   27             391.4499       45.488384      283.83143      15966.243    
     13600   27.2           408.48405      47.467836      286.03282      13280.538    
     13700   27.4           411.00522      47.760808      287.55476      17647.028    
     13800   27.6           402.19671      46.737216      286.87967      16639.89     
     13900   27.8           403.51307      46.890184      285.68721      15019.566    
     14000   28             399.86172      46.465879      285.10803      15497.654    
     14100   28.2           398.22962      46.276221      285.04803      16304.536    
     14200   28.4           399.80026      46.458737      285.53858      14487.8      
     14300   28.6           409.34249      47.567591      287.56482      16837.327    
     14400   28.8           411.81403      47.854796      289.78669      14750.353    
     14500   29             409.11698      47.541386      287.88716      13074.14     
     14600   29.2           411.94497      47.870011      285.07986      15684.479    
     14700   29.4           386.88286      44.957673      284.22291      14905.837    
     14800   29.6           394.04785      45.79028       284.10312      15692.411    
     14900   29.8           408.23296      47.438658      285.33986      14793.928    
     15000   30             403.89673      46.934767      287.82517      15304.67     
     15100   30.2           403.02772      46.833784      288.38432      15228.762    
     15200   30.4           401.94344      46.707785      285.02635      16155.578    
     15300   30.6           390.34766      45.3603        283.61553      14822.845    
     15400   30.8           398.17518      46.269895      283.99016      15479.287    
     15500   31             406.14238      47.195722      285.53814      16428.16     
     15600   31.2           418.26799      48.604778      286.73108      14937.595    
     15700   31.4           401.91264      46.704206      287.32823      16386.849    
     15800   31.6           400.62924      46.555069      286.57495      16443.564    
     15900   31.8           394.33229      45.823332      284.04494      15289.818    
     16000   32             393.6502       45.74407       283.18923      16746.007    
     16100   32.2           389.37417      45.247175      284.35307      14521.397    
     16200   32.4           416.51365      48.400914      287.52104      16061.151    
     16300   32.6           411.82959      47.856604      287.55558      18679.863    
     16400   32.8           398.99478      46.365137      285.91733      14315.376    
     16500   33             410.96887      47.756584      284.88352      16336.198    
     16600   33.2           410.48709      47.700599      284.28825      15147.211    
     16700   33.4           404.16416      46.965843      284.6785       15312.703    
     16800   33.6           411.02322      47.7629        287.42038      15277.155    
     16900   33.8           421.46744      48.976569      289.14901      16980.293    
     17000   34             422.89205      49.142116      287.03277      14401.498    
     17100   34.2           399.96086      46.4774        284.99231      15057.994    
     17200   34.4           405.64281      47.13767       284.56329      15499.753    
     17300   34.6           394.10636      45.797079      284.86108      15136.142    
     17400   34.8           403.60746      46.901152      286.73833      16006.941    
     17500   35             405.92359      47.170298      289.03684      14602.805    
     17600   35.2           403.81147      46.924859      287.54054      16500.223    
     17700   35.4           399.41349      46.413792      284.94583      15485.673    
     17800   35.6           396.29946      46.051928      284.57359      15806.237    
     17900   35.8           404.69079      47.027041      285.402        15709.199    
     18000   36             409.40457      47.574805      286.60714      13982.116    
     18100   36.2           414.40889      48.156331      288.16684      15814.202    
     18200   36.4           401.02011      46.60049       288.40894      16328.156    
     18300   36.6           413.75347      48.080168      285.33113      14027.933    
     18400   36.8           399.77515      46.45582       283.74431      15392.901    
     18500   37             392.05197      45.558349      283.95008      14820.569    
     18600   37.2           406.55777      47.243993      285.55891      14105.229    
     18700   37.4           419.05524      48.69626       288.33055      15726.446    
     18800   37.6           401.9347       46.706769      287.70493      16821.074    
     18900   37.8           413.01093      47.993882      286.56117      15611.038    
     19000   38             402.88162      46.816806      285.16712      14674.452    
     19100   38.2           395.28676      45.934247      284.16046      17574.357    
     19200   38.4           388.81843      45.182595      283.78146      15796.334    
     19300   38.6           398.04856      46.255182      285.45275      15814.046    
     19400   38.8           399.42094      46.414659      287.58529      18170.069    
     19500   39             406.33382      47.217968      286.94747      15075.223    
     19600   39.2           403.71522      46.913675      284.3227       14709.169    
     19700   39.4           388.46692      45.141749      283.37464      15214.124    
     19800   39.6           387.21974      44.99682       284.04254      15094.585    
     19900   39.8           394.97841      45.898415      285.1008       13816.414    
     20000   40             388.05248      45.093588      285.39834      16702.741    
     20100   40.2           402.02192      46.716905      285.66485      15984.355    
     20200   40.4           403.07772      46.839595      285.57854      14380.5      
     20300   40.6           398.94168      46.358966      285.07363      15993.955    
     20400   40.8           411.57291      47.826777      285.16148      15024.001    
     20500   41             395.67174      45.978983      284.73475      15097.424    
     20600   41.2           408.39841      47.457884      284.72854      14616.531    
     20700   41.4           396.84046      46.114794      285.89767      14927.079    
     20800   41.6           418.51893      48.633938      287.73074      13713.515    
     20900   41.8           406.67522      47.257642      287.76335      15821.032    
     21000   42             394.22551      45.810924      284.59191      13744.512    
     21100   42.2           399.14473      46.382562      283.47826      14383.924    
     21200   42.4           390.51552      45.379805      284.27384      16445.636    
     21300   42.6           417.34534      48.497561      286.1271       14376.083    
     21400   42.8           410.03384      47.64793       287.72378      14836.996    
     21500   43             422.56883      49.104557      290.10632      15079.494    
     21600   43.2           417.03815      48.461865      290.58253      15370.042    
     21700   43.4           402.23498      46.741664      287.2035       14233.201    
     21800   43.6           392.82948      45.648699      285.26672      15555.663    
     21900   43.8           391.09579      45.447235      284.43901      14680.543    
     22000   44             387.13205      44.986629      284.21411      15420.835    
     22100   44.2           396.77756      46.107484      286.43683      16245.882    
     22200   44.4           419.26549      48.720692      288.4261       14718.914    
     22300   44.6           409.10501      47.539995      286.92019      14179.316    
     22400   44.8           402.22861      46.740923      284.56573      16440.824    
     22500   45             397.079        46.142514      284.35622      14673.486    
     22600   45.2           392.85291      45.651422      284.89576      14424.213    
     22700   45.4           400.69149      46.562302      286.21449      14579.366    
     22800   45.6           407.12259      47.309628      288.53749      14884.921    
     22900   45.8           408.01542      47.41338       289.01241      17450.514    
     23000   46             397.44193      46.184688      285.2088       13058.201    
     23100   46.2           395.17198      45.920908      284.14442      14693.119    
     23200   46.4           396.21283      46.041861      284.34514      16361.34     
     23300   46.6           392.36371      45.594574      286.19943      15458.479    
     23400   46.8           400.7387       46.567789      288.36545      16145.604    
     23500   47             416.49792      48.399086      287.3911       15397.295    
     23600   47.2           392.58228      45.619973      283.52758      15563.47     
     23700   47.4           395.97439      46.014152      283.81687      14594.951    
     23800   47.6           393.67294      45.746713      285.52767      15789.953    
     23900   47.8           404.90908      47.052408      287.49522      16236.338    
     24000   48             403.87507      46.932251      287.47912      16192.951    
     24100   48.2           392.69308      45.632848      284.82306      17793.733    
     24200   48.4           389.80946      45.297758      282.2985       15850.11     
     24300   48.6           396.27407      46.048977      282.98835      16129.147    
     24400   48.8           413.5268       48.053828      284.76604      15298.506    
     24500   49             389.78654      45.295094      286.04567      14891.6      
     24600   49.2           415.69294      48.305544      286.67831      16271.428    
     24700   49.4           392.1006       45.563999      285.27788      14257.798    
     24800   49.6           389.48735      45.260327      281.73339      15875.511    
     24900   49.8           381.24592      44.302633      282.85957      16129.592    
     25000   50             402.97972      46.828206      285.40518      13378.403    
     25100   50.2           419.10551      48.702101      286.5895       15131.839    
     25200   50.4           422.08331      49.048136      286.73262      15738.479    
     25300   50.6           387.75931      45.05952       284.58924      14527.751    
     25400   50.8           396.15596      46.035252      281.99743      14312.93     
     25500   51             393.57879      45.735772      282.83356      15007.97     
     25600   51.2           404.17029      46.966556      284.37346      15148.299    
     25700   51.4           393.12449      45.682981      285.54972      15923.235    
     25800   51.6           408.70509      47.493522      286.19864      15896.341    
     25900   51.8           400.15569      46.50004       286.53706      13934.239    
     26000   52             413.85253      48.09168       287.50691      17006.276    
     26100   52.2           416.79128      48.433176      287.40897      14543.004    
     26200   52.4           393.86202      45.768685      285.01741      15672.277    
     26300   52.6           378.2623       43.955922      283.40477      16686.953    
     26400   52.8           385.79479      44.831233      283.95062      13697.318    
     26500   53             418.10214      48.585505      286.81425      15571.611    
     26600   53.2           395.46517      45.954978      288.5187       15726.214    
     26700   53.4           413.50928      48.051792      287.23505      14794.908    
     26800   53.6           399.33466      46.404633      285.45058      15379.994    
     26900   53.8           386.66693      44.932581      284.44849      15070.268    
     27000   54             387.81721      45.066249      284.95881      15080.692    
     27100   54.2           404.6272       47.019651      288.73235      14841.58     
     27200   54.4           402.05661      46.720936      289.4216       15671.339    
     27300   54.6           405.19271      47.085366      287.0762       14078.431    
     27400   54.8           393.2566       45.698332      285.27398      13338.084    
     27500   55             398.71932      46.333127      285.03654      14535.418    
     27600   55.2           394.94559      45.894601      286.03082      15900.514    
     27700   55.4           404.47229      47.001651      289.11362      15771.744    
     27800   55.6           419.08925      48.700212      289.37056      14078.815    
     27900   55.8           407.95025      47.405806      286.53986      15399.76     
     28000   56             404.47147      47.001555      285.61799      16510.768    
     28100   56.2           383.02578      44.509462      284.83344      14775.279    
     28200   56.4           412.11408      47.889663      284.62613      16430.899    
     28300   56.6           402.53358      46.776363      285.04865      14483.356    
     28400   56.8           412.53383      47.93844       286.77627      16814.72     
     28500   57             414.85537      48.208214      288.5586       16891.995    
     28600   57.2           412.73261      47.961539      287.688        12977.706    
     28700   57.4           415.42741      48.274688      284.1049       16670.158    
     28800   57.6           400.03379      46.485875      283.82025      16397.302    
     28900   57.8           398.33995      46.289043      285.01239      16262.107    
     29000   58             419.71183      48.772558      286.26828      16511.842    
     29100   58.2           418.44033      48.624804      287.35244      16875.273    
     29200   58.4           406.09864      47.19064       287.74832      16941.045    
     29300   58.6           383.96705      44.618841      285.79334      16249.792    
     29400   58.8           398.58362      46.317358      283.93048      16546.837    
     29500   59             391.69348      45.51669       283.66483      14603.573    
     29600   59.2           427.56923      49.685627      286.19123      16905.062    
     29700   59.4           407.22732      47.321798      288.62167      17014.117    
     29800   59.6           415.47681      48.280429      287.98209      15712.433    
     29900   59.8           416.20748      48.365336      286.18332      17951.17     
     30000   60             396.02136      46.019611      284.91571      14912.515    
     30100   60.2           398.50353      46.308051      284.7101       16881.041    
     30200   60.4           397.47626      46.188678      284.80303      17188.152    
     30300   60.6           404.55105      47.010803      284.06005      13834.919    
     30400   60.8           391.9077       45.541584      283.21864      15967.135    
     30500   61             394.81949      45.879947      284.04401      14473.86     
     30600   61.2           399.99483      46.481347      286.14171      15415.139    
     30700   61.4           418.08647      48.583684      287.26775      17371.717    
     30800   61.6           403.18356      46.851893      286.0459       15771.19     
     30900   61.8           385.89411      44.842775      282.77922      16254.971    
     31000   62             382.99199      44.505534      282.89494      15877.376    
     31100   62.2           400.94715      46.592011      284.608        14904.753    
     31200   62.4           400.35987      46.523767      286.01082      16740.92     
     31300   62.6           397.7641       46.222126      285.97999      16597.295    
     31400   62.8           405.65417      47.13899       285.33755      17151.832    
     31500   63             396.01549      46.018929      284.61164      15606.615    
     31600   63.2           403.13303      46.846022      284.53216      16040.098    
     31700   63.4           399.6768       46.44439       286.40524      14834.159    
     31800   63.6           424.72436      49.355039      288.31794      16410.055    
     31900   63.8           406.65865      47.255715      287.22678      15947.484    
     32000   64             399.13479      46.381407      284.54976      15158.056    
     32100   64.2           396.56056      46.082269      284.07206      16403.618    
     32200   64.4           409.62898      47.600883      284.81993      17931.762    
     32300   64.6           417.48482      48.513769      285.32741      14670.693    
     32400   64.8           412.4062       47.923609      285.42263      14899.005    
     32500   65             395.00475      45.901475      284.37197      15394.163    
     32600   65.2           393.37585      45.71219       283.40746      15457.135    
     32700   65.4           382.43795      44.441152      284.12241      13844.662    
     32800   65.6           397.06066      46.140383      286.48201      15613.303    
     32900   65.8           402.53884      46.776974      286.92402      16147.679    
     33000   66             410.84917      47.742674      284.42021      14083.238    
     33100   66.2           386.96188      44.966855      282.1865       15076.754    
     33200   66.4           385.50451      44.797502      283.0087       13963.772    
     33300   66.6           404.25327      46.976198      284.96255      15692.744    
     33400   66.8           407.56711      47.361283      286.27087      16526.386    
     33500   67             398.45588      46.302513      286.30996      14362.223    
     33600   67.2           402.866        46.814992      284.15403      16057.969    
     33700   67.4           384.90698      44.728066      281.45942      17131.307    
     33800   67.6           390.80209      45.413107      282.9178       16054.065    
     33900   67.8           398.49338      46.306872      285.07538      16324.917    
     34000   68             402.72483      46.798587      286.09862      15835.875    
     34100   68.2           413.17161      48.012553      285.87021      14546.996    
     34200   68.4           387.52562      45.032365      283.88485      14944.038    
     34300   68.6           377.39215      43.854806      280.79742      15841.281    
     34400   68.8           387.41537      45.019552      281.36034      14427.909    
     34500   69             398.67888      46.328428      282.87344      16198.319    
     34600   69.2           389.68734      45.283567      284.6193       14964.758    
     34700   69.4           404.64766      47.022029      285.98778      15482.471    
     34800   69.6           403.6          46.900285      286.46192      17146.096    
     34900   69.8           404.85275      47.045862      286.13464      15282.972    
     35000   70             394.42195      45.833752      283.64419      14915.422    
     35100   70.2           385.72382      44.822986      282.6692       15550.177    
     35200   70.4           406.12434      47.193627      284.21797      14713.167    
     35300   70.6           413.13806      48.008655      287.12628      15651.929    
     35400   70.8           415.91885      48.331796      287.14307      16393.731    
     35500   71             399.78516      46.456983      285.81715      14171.625    
     35600   71.2           394.54153      45.847647      284.07294      15904.199    
     35700   71.4           394.77395      45.874655      282.58875      13886.94     
     35800   71.6           379.94543      44.151509      280.58294      14402.718    
     35900   71.8           386.25361      44.884551      281.45268      15327.267    
     36000   72             394.8625       45.884946      284.67432      15683.326    
     36100   72.2           400.51674      46.541996      286.18631      15123.365    
     36200   72.4           409.66297      47.604833      286.7138       15036.414    
     36300   72.6           406.01581      47.181014      285.76256      17136.544    
     36400   72.8           389.25104      45.232867      283.29783      14037.934    
     36500   73             387.76644      45.060348      282.36746      15662.504    
     36600   73.2           402.86202      46.814529      285.30949      14167.939    
     36700   73.4           404.65972      47.02343       287.29507      14650.492    
     36800   73.6           410.10581      47.656293      286.4022       17570.664    
     36900   73.8           393.20304      45.692108      284.51821      15949.709    
     37000   74             396.63579      46.09101       283.40991      15145.25     
     37100   74.2           394.15965      45.803271      283.41729      14441.543    
     37200   74.4           403.82797      46.926777      286.53654      15524.543    
     37300   74.6           404.25583      46.976496      288.02478      15338.589    
     37400   74.8           404.19974      46.969979      286.56253      15312.419    
     37500   75             374.55378      43.524973      284.1729       16330.971    
     37600   75.2           385.20826      44.763076      283.89602      14561.123    
     37700   75.4           404.55785      47.011593      284.81772      15853.35     
     37800   75.6           412.09         47.886865      285.90709      13724.624    
     37900   75.8           417.37867      48.501434      289.38306      16550.16     
     38000   76             416.3868       48.386174      290.315        15893.464    
     38100   76.2           411.58553      47.828243      287.73757      16800.546    
     38200   76.4           407.46403      47.349304      285.82691      16619.289    
     38300   76.6           415.14382      48.241734      284.64418      14642.346    
     38400   76.8           402.40339      46.761233      284.90511      15304.403    
     38500   77             402.50446      46.772979      287.78905      15583.826    
     38600   77.2           406.44932      47.231391      289.01485      16716.722    
     38700   77.4           410.29373      47.678129      287.7002       15258.353    
     38800   77.6           404.00377      46.947206      286.52263      16332.551    
     38900   77.8           405.60506      47.133284      285.61646      16983.658    
     39000   78             392.73763      45.638026      284.47881      14736.525    
     39100   78.2           396.87837      46.119199      284.43475      15293.485    
     39200   78.4           404.45902      47.000109      286.16323      15803.807    
     39300   78.6           413.57696      48.059657      287.75471      13057.393    
     39400   78.8           408.59934      47.481233      287.39415      15833.833    
     39500   79             394.17888      45.805505      284.82324      17697.994    
     39600   79.2           395.70277      45.98259       283.62324      14640.422    
     39700   79.4           387.71072      45.053874      284.2983       15194.136    
     39800   79.6           398.03228      46.253289      286.30775      15547.27     
     39900   79.8           418.19234      48.595986      288.3857       13778.542    
     40000   80             437.32869      50.819724      292.625        16691.54     
     40100   80.2           434.16761      50.452391      290.39278      14794.833    
     40200   80.4           403.19605      46.853344      287.27466      16061.892    
     40300   80.6           402.16416      46.733434      285.06379      15384.568    
     40400   80.8           391.56543      45.50181       284.00174      15597.398    
     40500   81             385.49969      44.796941      284.90292      15404.008    
     40600   81.2           414.31385      48.145287      287.46741      18639.068    
     40700   81.4           409.82127      47.623228      288.18535      13580.449    
     40800   81.6           399.95764      46.477026      285.78752      16854.646    
     40900   81.8           408.3564       47.453002      283.78201      15839.724    
     41000   82             388.85591      45.18695       284.67383      14966.311    
     41100   82.2           404.10858      46.959386      286.603        17084.943    
     41200   82.4           414.00785      48.109729      288.08555      15499.785    
     41300   82.6           406.69149      47.259531      287.08792      14413.373    
     41400   82.8           392.25488      45.581927      284.10192      15417.941    
     41500   83             378.56224      43.990776      283.79456      15580.23     
     41600   83.2           399.04344      46.370791      284.90905      13906.034    
     41700   83.4           392.83502      45.649343      286.28724      16113.046    
     41800   83.6           404.40329      46.993631      286.92235      15616.721    
     41900   83.8           400.07109      46.490209      286.26013      15378.148    
     42000   84             377.90797      43.914747      282.39007      15829.822    
     42100   84.2           378.27545      43.95745       281.85652      16563.894    
     42200   84.4           399.11728      46.379372      284.31906      15190.934    
     42300   84.6           395.97746      46.014509      285.91868      15938.862    
     42400   84.8           393.88896      45.771816      286.94154      15658.573    
     42500   85             415.15603      48.243152      287.25719      15257.823    
     42600   85.2           391.73117      45.521069      284.93877      16770.662    
     42700   85.4           392.38713      45.597295      282.76671      15408.988    
     42800   85.6           397.02377      46.136096      283.78593      15202.351    
     42900   85.8           407.11952      47.309271      286.05494      17690.367    
     43000   86             411.89729      47.864471      286.92472      14083.017    
     43100   86.2           404.55684      47.011475      286.47418      17054.407    
     43200   86.4           405.5885       47.131359      285.72897      17046.349    
     43300   86.6           402.31878      46.751401      285.25535      16412.91     
     43400   86.8           386.6228       44.927452      283.2493       17174.139    
     43500   87             379.39593      44.087654      281.40481      16187.831    
     43600   87.2           391.07943      45.445334      283.25131      16927.069    
     43700   87.4           400.02736      46.485128      285.7727       17835.782    
     43800   87.6           379.45585      44.094617      286.30361      17071.7      
     43900   87.8           404.37341      46.99016       286.63324      17904.332    
     44000   88             414.70508      48.19075       285.42238      16123.609    
     44100   88.2           381.53196      44.335872      282.72739      16467.329    
     44200   88.4           372.58637      43.296351      283.0652       15751.302    
     44300   88.6           397.29097      46.167146      285.66798      15298.106    
     44400   88.8           410.01367      47.645585      286.38246      17736.444    
     44500   89             397.42901      46.183187      286.04406      14887.976    
     44600   89.2           385.78179      44.829723      285.54463      13985.629    
     44700   89.4           403.68723      46.910422      285.96572      16234.037    
     44800   89.6           405.46774      47.117326      287.53593      15599.237    
     44900   89.8           394.52905      45.846197      288.11596      16201.24     
     45000   90             399.79631      46.458279      285.77596      17232.411    
     45100   90.2           391.58938      45.504594      283.77169      14919.639    
     45200   90.4           391.1577       45.45443       284.29321      16383.837    
     45300   90.6           398.26308      46.280109      285.64223      14848.41     
     45400   90.8           404.42141      46.995738      287.69945      15172.444    
     45500   91             432.65401      50.276503      291.23415      16473.049    
     45600   91.2           409.83665      47.625015      291.56837      17503.728    
     45700   91.4           410.5666       47.709838      288.41577      16435.184    
     45800   91.6           397.20454      46.157102      286.69664      15493.415    
     45900   91.8           396.27498      46.049083      284.67299      15850.806    
     46000   92             397.93138      46.241564      283.43509      15942.843    
     46100   92.2           380.47256      44.212764      283.84183      15401.375    
     46200   92.4           402.12712      46.72913       286.69067      14771.238    
     46300   92.6           420.1047       48.818213      288.22882      15255.607    
     46400   92.8           410.32013      47.681198      287.03534      15528.975    
     46500   93             406.71898      47.262726      285.73166      13862.957    
     46600   93.2           400.803        46.575261      285.35918      14780.609    
     46700   93.4           391.49987      45.494192      284.72021      16086.686    
     46800   93.6           384.44657      44.674564      283.77798      14485.987    
     46900   93.8           395.04147      45.905743      282.88579      15493.943    
     47000   94             396.85273      46.11622       284.06162      16299.454    
     47100   94.2           408.07186      47.419938      286.35427      16379.017    
     47200   94.4           415.98499      48.339482      287.43657      15569.865    
     47300   94.6           402.78583      46.805675      285.95742      17150.569    
     47400   94.8           384.21704      44.647891      282.73436      15078.95     
     47500   95             381.30916      44.309981      282.91076      16400.364    
     47600   95.2           398.6973       46.330568      284.54097      16094.764    
     47700   95.4           412.42014      47.925229      285.95698      16145.377    
     47800   95.6           405.64548      47.137981      285.9234       14878.479    
     47900   95.8           388.57505      45.154313      285.35475      16220.591    
     48000   96             402.60398      46.784544      285.04418      16364.112    
     48100   96.2           415.07246      48.233442      284.82141      16267.336    
     48200   96.4           384.02746      44.625861      284.49043      17511.256    
     48300   96.6           385.44204      44.790242      285.89753      15809.469    
     48400   96.8           425.91483      49.493378      289.08425      17102.005    
     48500   97             393.13784      45.684532      288.74099      19134.758    
     48600   97.2           390.81735      45.41488       286.61326      16937.149    
     48700   97.4           402.44999      46.766649      285.46339      17068.678    
     48800   97.6           393.23949      45.696344      285.01903      15561.009    
     48900   97.8           409.99598      47.64353       285.63194      17743.954    
     49000   98             389.11214      45.216725      286.74015      14812.387    
     49100   98.2           404.36186      46.988817      288.33755      15834.772    
     49200   98.4           399.77854      46.456213      287.5038       16771.135    
     49300   98.6           401.57002      46.664393      284.80048      14460.112    
     49400   98.8           401.20926      46.62247       283.91619      15933.494    
     49500   99             404.78874      47.038424      284.28964      15552.691    
     49600   99.2           417.06064      48.464477      287.0419       14471.725    
     49700   99.4           426.22555      49.529485      289.42448      16786.721    
     49800   99.6           421.76804      49.0115        288.02998      15459.239    
     49900   99.8           411.42785      47.80992       285.97368      14874.073    
     50000   100            388.24079      45.115471      284.14822      16620.935    
     50100   100.2          400.16123      46.500684      283.72357      15197.323    
     50200   100.4          390.9296       45.427924      283.94951      16199.777    
     50300   100.6          418.48052      48.629475      286.84029      14815.631    
     50400   100.8          405.66878      47.140689      287.68948      16459.32     
     50500   101            410.93519      47.75267       285.55513      15674.845    
     50600   101.2          397.0733       46.141852      283.49084      16054.172    
     50700   101.4          391.08155      45.44558       283.39361      14895.454    
     50800   101.6          406.50983      47.238423      284.62883      17076.285    
     50900   101.8          402.42592      46.763851      286.28145      16940.572    
     51000   102            418.19623      48.596438      288.03612      16704.097    
     51100   102.2          422.28524      49.071601      290.2428       16320.143    
     51200   102.4          403.00113      46.830694      287.84564      17393.315    
     51300   102.6          402.04152      46.719183      285.19904      15894.968    
     51400   102.8          402.21376      46.739198      283.80086      14480.299    
     51500   103            388.47827      45.143067      283.33625      16500.38     
     51600   103.2          401.31041      46.634225      284.56267      15163.204    
     51700   103.4          413.21189      48.017234      287.42382      15895.78     
     51800   103.6          411.33753      47.799424      287.68653      17144.848    
     51900   103.8          399.01686      46.367702      285.19327      15659.184    
     52000   104            408.5978       47.481054      284.23455      15216.033    
     52100   104.2          397.62489      46.205949      284.31004      16443.113    
     52200   104.4          401.42594      46.647649      284.78467      14974.246    
     52300   104.6          393.19242      45.690874      286.91824      16393.593    
     52400   104.8          400.17883      46.502729      288.98912      16944.799    
     52500   105            407.24888      47.324304      287.4387       14842.805    
     52600   105.2          400.39785      46.52818       284.83269      16293.794    
     52700   105.4          395.98309      46.015163      284.64467      16302.555    
     52800   105.6          412.62948      47.949555      285.72714      15358.015    
     52900   105.8          409.99091      47.64294       286.43144      17254.311    
     53000   106            414.41626      48.157188      285.8127       15765.974    
     53100   106.2          375.13816      43.592882      283.10172      14742.915    
     53200   106.4          389.16635      45.223026      282.67767      17365.158    
     53300   106.6          405.02153      47.065474      284.97779      13947.485    
     53400   106.8          407.60244      47.365388      286.68756      15325.568    
     53500   107            388.54307      45.150597      286.29874      17612.904    
     53600   107.2          395.80813      45.994832      285.45152      14050.765    
     53700   107.4          385.78813      44.83046       283.98093      14609.117    
     53800   107.6          394.33517      45.823667      282.23927      15711.284    
     53900   107.8          384.08833      44.632935      281.0953       13665.68     
     54000   108            384.30078      44.657623      283.94282      15893.165    
     54100   108.2          411.77628      47.850409      286.07437      16737.794    
     54200   108.4          402.51415      46.774105      286.31069      14078.93     
     54300   108.6          402.07189      46.722712      286.7698       15638.868    
     54400   108.8          404.0854       46.956692      286.26669      15677.751    
     54500   109            394.17584      45.805152      283.57872      14206.014    
     54600   109.2          400.4365       46.532672      282.66807      15205.311    
     54700   109.4          391.56183      45.501392      284.31228      15041.854    
     54800   109.6          404.1625       46.96565       286.80216      14904.088    
     54900   109.8          407.6959       47.376249      286.56115      14161.858    
     55000   110            398.49976      46.307613      285.45769      15498.809    
     55100   110.2          389.31167      45.239912      284.23141      14619.986    
     55200   110.4          377.36828      43.852032      282.93258      15742.683    
     55300   110.6          380.73314      44.243045      281.62382      15121.081    
     55400   110.8          375.82435      43.67262       282.80373      12301.956    
     55500   111            410.84896      47.74265       285.80532      14810.967    
     55600   111.2          411.77854      47.850672      286.45589      16610.34     
     55700   111.4          403.38847      46.875705      285.91631      14456.796    
     55800   111.6          392.62516      45.624956      283.4735       15373.909    
     55900   111.8          394.36714      45.827382      281.99688      14186.687    
     56000   112            398.05874      46.256364      284.06792      16833.43     
     56100   112.2          399.58613      46.433855      285.84891      15731.087    
     56200   112.4          391.91344      45.54225       285.59008      16579.888    
     56300   112.6          386.85454      44.954381      284.96605      15132.891    
     56400   112.8          404.45495      46.999635      283.35715      18015.66     
     56500   113            395.78162      45.991752      282.19834      15238.617    
     56600   113.2          401.97206      46.711111      283.9782       15046.658    
     56700   113.4          415.03078      48.228597      286.92129      16788.14     
     56800   113.6          407.64234      47.370025      286.57364      13368.182    
     56900   113.8          401.40775      46.645535      284.49045      17033.025    
     57000   114            395.14434      45.917697      283.00195      14846.604    
     57100   114.2          393.56421      45.734078      283.456        15174.242    
     57200   114.4          396.46218      46.070837      284.64114      15468.222    
     57300   114.6          391.02742      45.43929       285.04915      15033.763    
     57400   114.8          399.80607      46.459413      285.90145      16389.234    
     57500   115            398.89034      46.353         286.48146      14810.053    
     57600   115.2          383.2358       44.533867      286.66599      15927.822    
     57700   115.4          412.60928      47.947208      285.82639      15936.17     
     57800   115.6          384.35501      44.663924      283.77276      15869.572    
     57900   115.8          388.36508      45.129914      282.84873      14242.151    
     58000   116            409.09207      47.538491      284.45231      15977.883    
     58100   116.2          429.80497      49.945431      287.352        16707.852    
     58200   116.4          403.72152      46.914407      287.13001      13850.027    
     58300   116.6          399.0259       46.368753      285.74515      16623.66     
     58400   116.8          408.91119      47.517472      284.35125      15445.59     
     58500   117            394.73067      45.869627      284.37919      15866.255    
     58600   117.2          398.16276      46.268452      284.59696      16359.827    
     58700   117.4          402.16546      46.733585      284.94157      14367.892    
     58800   117.6          403.69818      46.911695      285.68972      17954.035    
     58900   117.8          412.5408       47.939251      287.19965      15474.514    
     59000   118            418.40031      48.620154      288.88712      14559.976    
     59100   118.2          422.03145      49.04211       287.6325       16093.861    
     59200   118.4          396.93668      46.125975      284.50197      14222.711    
     59300   118.6          378.1463       43.942442      283.98405      15379.887    
     59400   118.8          391.3193       45.473208      285.79974      15084.926    
     59500   119            400.23768      46.509568      287.41894      15664.734    
     59600   119.2          416.92865      48.44914       286.99136      14739.951    
     59700   119.4          389.73828      45.289486      283.14196      14951.129    
     59800   119.6          389.87613      45.305505      281.93824      15331.511    
     59900   119.8          405.53887      47.125592      284.16082      14939.978    
     60000   120            386.73114      44.940041      286.31327      15266.17     
     60100   120.2          411.23951      47.788034      287.40187      15593.577    
     60200   120.4          391.40177      45.482792      285.78398      14644.859    
     60300   120.6          388.27797      45.119791      283.54482      14991.759    
     60400   120.8          396.44307      46.068616      283.52502      16006.996    
     60500   121            380.11483      44.171194      283.93443      16253.864    
     60600   121.2          385.647        44.81406       284.91232      15772.067    
     60700   121.4          431.72676      50.168752      286.559        13909.882    
     60800   121.6          381.96987      44.386759      287.22514      15296.108    
     60900   121.8          421.80154      49.015394      286.13876      14549.803    
     61000   122            393.15562      45.686598      283.39518      16113.722    
     61100   122.2          377.72815      43.89385       283.32369      16962.694    
     61200   122.4          406.22657      47.205506      285.30904      15684.619    
     61300   122.6          401.89776      46.702477      287.40991      17285.54     
     61400   122.8          402.34487      46.754434      286.90337      15548.057    
     61500   123            410.45856      47.697283      285.87606      15953.155    
     61600   123.2          397.98783      46.248124      285.31803      14533.675    
     61700   123.4          400.57592      46.548873      285.16716      16751.28     
     61800   123.6          402.89037      46.817823      285.17688      15302.882    
     61900   123.8          407.77697      47.38567       286.61071      16464.765    
     62000   124            421.04231      48.927167      288.41969      16869.47     
     62100   124.2          415.31819      48.261997      287.6557       15580.871    
     62200   124.4          405.16628      47.082295      284.93022      15061.046    
     62300   124.6          387.86216      45.071472      284.32153      16232.924    
     62400   124.8          401.83942      46.695698      285.3308       16521.754    
     62500   125            409.47073      47.582493      286.32994      14486.263    
     62600   125.2          420.88759      48.909188      289.24695      15706.616    
     62700   125.4          417.2972       48.491967      290.68509      15342.896    
     62800   125.6          416.23615      48.368668      287.70526      14971.529    
     62900   125.8          405.29917      47.097737      285.87444      14879.876    
     63000   126            400.85881      46.581747      284.72768      14862.84     
     63100   126.2          385.97726      44.852437      283.97124      15103.21     
     63200   126.4          394.63981      45.859067      285.43663      15634.867    
     63300   126.6          411.08141      47.769662      288.52659      15283.026    
     63400   126.8          404.84188      47.044598      287.87699      14616.9      
     63500   127            407.08899      47.305724      285.80327      15485.693    
     63600   127.2          410.04542      47.649275      284.97201      14541.523    
     63700   127.4          402.35518      46.755631      285.05367      15408.373    
     63800   127.6          385.62336      44.811313      285.62474      15678.293    
     63900   127.8          407.44225      47.346774      287.35891      14207.365    
     64000   128            438.61713      50.969447      291.21506      15757.957    
     64100   128.2          417.95108      48.567951      289.9811       15907.741    
     64200   128.4          411.26735      47.791269      287.53219      15320.539    
     64300   128.6          398.10552      46.261801      286.19341      14605.734    
     64400   128.8          397.27398      46.165171      285.19037      15657.682    
     64500   129            395.06844      45.908877      283.97515      15035.522    
     64600   129.2          374.34369      43.500559      282.47534      16321.54     
     64700   129.4          389.48676      45.260258      282.8295       14444.166    
     64800   129.6          408.55803      47.476433      285.69677      14895.795    
     64900   129.8          417.80164      48.550585      287.34262      15095.351    
     65000   130            397.95404      46.244198      287.02413      15745.995    
     65100   130.2          402.62296      46.786749      284.47411      15197.933    
     65200   130.4          394.07948      45.793955      283.01239      14801.117    
     65300   130.6          385.47398      44.793953      283.84612      15395.442    
     65400   130.8          400.42522      46.531361      285.57175      15446.495    
     65500   131            408.9125       47.517624      286.96143      15855.544    
     65600   131.2          399.39208      46.411305      287.14674      16259.609    
     65700   131.4          401.85416      46.697411      285.77581      16209.475    
     65800   131.6          373.40206      43.391138      281.72364      15071.618    
     65900   131.8          379.15172      44.059277      282.69346      16577.606    
     66000   132            388.27867      45.119873      285.19922      16196.005    
     66100   132.2          392.07772      45.561341      286.53189      14503.492    
     66200   132.4          411.81768      47.85522       286.67479      16575.656    
     66300   132.6          393.15783      45.686854      284.62847      14799.656    
     66400   132.8          378.52361      43.986287      282.0292       16628.464    
     66500   133            389.08036      45.213033      282.76317      16473.653    
     66600   133.2          397.04703      46.138798      284.52228      15235.564    
     66700   133.4          400.74627      46.568669      285.3765       14135.516    
     66800   133.6          419.27315      48.721583      286.57526      17430.326    
     66900   133.8          407.59636      47.364682      286.94158      15341.958    
     67000   134            412.14496      47.893252      285.49278      16305.621    
     67100   134.2          378.38857      43.970595      282.64083      15707.956    
     67200   134.4          384.71773      44.706073      282.39474      15384.238    
     67300   134.6          394.55298      45.848978      284.65407      16713.855    
     67400   134.8          400.11207      46.494972      286.15295      15942.974    
     67500   135            403.62781      46.903517      285.94904      15937.497    
     67600   135.2          391.90957      45.541801      285.25829      16982.465    
     67700   135.4          390.74347      45.406294      284.36794      13759.486    
     67800   135.6          390.75914      45.408115      283.32774      12739.79     
     67900   135.8          395.14218      45.917446      283.49534      17968.587    
     68000   136            402.11744      46.728005      286.14414      15494.04     
     68100   136.2          419.01186      48.691219      287.50185      16339.844    
     68200   136.4          401.40024      46.644663      286.95849      16058.449    
     68300   136.6          399.04679      46.37118       283.79897      14393.966    
     68400   136.8          382.52553      44.45133       282.60239      14369.663    
     68500   137            402.04901      46.720053      283.94647      15684.635    
     68600   137.2          398.64246      46.324195      286.00014      16237.206    
     68700   137.4          396.77341      46.107003      286.7747       15691.689    
     68800   137.6          402.96523      46.826522      285.97567      16156.578    
     68900   137.8          377.75571      43.897054      282.732        14548.418    
     69000   138            378.23445      43.952686      281.3693       16214.787    
     69100   138.2          387.78475      45.062476      282.95327      14912.504    
     69200   138.4          396.38806      46.062223      284.6138       15395.586    
     69300   138.6          408.34873      47.452111      286.01551      17897.737    
     69400   138.8          407.52976      47.356943      286.79679      14072.508    
     69500   139            411.16027      47.778826      288.00658      15513.424    
     69600   139.2          414.71658      48.192087      288.1598       16562.938    
     69700   139.4          400.24507      46.510427      285.54638      15330.063    
     69800   139.6          395.97323      46.014018      283.81001      15236.289    
     69900   139.8          396.12987      46.03222       283.56055      16135.901    
     70000   140            410.25291      47.673386      285.45396      14452.548    
     70100   140.2          408.8561       47.51107       288.43401      14639.248    
     70200   140.4          408.47309      47.466563      287.66132      15946.633    
     70300   140.6          394.81643      45.879593      285.95391      15763.283    
     70400   140.8          397.55983      46.198389      284.64728      15280.09     
     70500   141            389.39204      45.249252      284.63408      15783.962    
     70600   141.2          392.11492      45.565663      285.24327      13615.722    
     70700   141.4          399.0913       46.376353      285.8666       17374.133    
     70800   141.6          402.55272      46.778586      285.98452      15357.188    
     70900   141.8          409.21213      47.552442      285.6495       16746.927    
     71000   142            380.80747      44.251682      285.04537      16586.15     
     71100   142.2          385.02469      44.741744      282.91029      14595.143    
     71200   142.4          387.92589      45.078878      282.4414       15780.391    
     71300   142.6          381.99966      44.390221      284.71         17291.608    
     71400   142.8          388.65242      45.163304      286.66678      15056.109    
     71500   143            387.30712      45.006973      286.9318       17273.887    
     71600   143.2          410.77774      47.734374      286.23967      16833.35     
     71700   143.4          380.84581      44.256138      283.13509      13589.824    
     71800   143.6          383.82849      44.60274       281.70175      17159.152    
     71900   143.8          378.1093       43.938142      283.05953      15235.312    
     72000   144            386.1087       44.867711      284.43825      15030.06     
     72100   144.2          397.31946      46.170456      286.2442       15124.591    
     72200   144.4          417.90376      48.562452      287.35707      14756.176    
     72300   144.6          417.79341      48.549629      287.26667      14591.895    
     72400   144.8          387.09611      44.982453      284.0348       15312.286    
     72500   145            390.86886      45.420865      282.71767      15633.793    
     72600   145.2          398.3234       46.28712       284.46631      14043.087    
     72700   145.4          402.31262      46.750686      286.34007      17546.422    
     72800   145.6          399.88928      46.469082      286.58469      15142.904    
     72900   145.8          410.23679      47.671513      286.02685      15676.457    
     73000   146            394.88387      45.887429      283.93768      15140.05     
     73100   146.2          366.15787      42.549328      281.0517       15325.204    
     73200   146.4          403.52032      46.891027      282.44106      14091.19     
     73300   146.6          397.45265      46.185934      284.18782      14732.081    
     73400   146.8          401.91984      46.705043      285.57216      15683.255    
     73500   147            403.24603      46.859153      286.3064       14164.698    
     73600   147.2          409.54798      47.59147       286.55611      17026.524    
     73700   147.4          406.92881      47.28711       284.98223      15124.622    
     73800   147.6          372.91597      43.334652      283.02497      14655.886    
     73900   147.8          400.93488      46.590585      283.09824      17365.361    
     74000   148            412.35313      47.917442      285.92099      16446.794    
     74100   148.2          420.69936      48.887314      287.32314      16331.015    
     74200   148.4          397.02267      46.135967      286.55547      16577.884    
     74300   148.6          412.58223      47.944065      285.58207      15128.136    
     74400   148.8          384.21173      44.647274      283.75554      15739.776    
     74500   149            377.84554      43.907492      280.8629       14063.036    
     74600   149.2          390.12118      45.333981      282.32425      14748.845    
     74700   149.4          401.09598      46.609307      284.50058      15007.729    
     74800   149.6          403.88787      46.933737      285.41912      16660.882    
     74900   149.8          409.31701      47.56463       286.22306      15238.111    
     75000   150            413.79597      48.085107      286.95099      15065.09     
     75100   150.2          397.2813       46.166022      286.56374      15886.75     
     75200   150.4          386.85646      44.954605      284.5181       16118.165    
     75300   150.6          379.6524       44.117458      283.34491      17252.635    
     75400   150.8          409.23491      47.55509       284.49388      14415.949    
     75500   151            414.16816      48.128357      287.85658      15242.366    
     75600   151.2          406.05939      47.186079      287.78897      16383.863    
     75700   151.4          397.41944      46.182075      286.09802      15311.524    
     75800   151.6          388.63588      45.161382      284.67786      15496.157    
     75900   151.8          400.33932      46.521379      284.82338      15036.966    
     76000   152            412.21494      47.901383      285.48198      15128.015    
     76100   152.2          397.91358      46.239495      285.76094      14921.407    
     76200   152.4          380.99796      44.273819      285.92459      16961.109    
     76300   152.6          402.15137      46.731948      286.42949      16684.389    
     76400   152.8          407.56762      47.361343      286.43245      15796.02     
     76500   153            386.93832      44.964117      284.65519      17791.237    
     76600   153.2          391.78968      45.527869      283.39448      15911.302    
     76700   153.4          402.35053      46.755091      284.19243      14460.59     
     76800   153.6          408.33174      47.450137      287.39256      14173.052    
     76900   153.8          411.03183      47.763901      288.19732      16112.797    
     77000   154            402.68723      46.794217      287.21653      14265.199    
     77100   154.2          394.63018      45.857949      285.26636      15383.684    
     77200   154.4          381.39867      44.320383      284.13896      15013.566    
     77300   154.6          390.73494      45.405303      285.46248      15488.233    
     77400   154.8          411.57971      47.827567      289.60588      15123.78     
     77500   155            415.51904      48.285336      288.90211      15540.897    
     77600   155.2          407.58208      47.363022      286.13512      15634.711    
     77700   155.4          405.3716       47.106155      284.18226      15527.374    
     77800   155.6          403.12196      46.844735      283.64862      16487.867    
     77900   155.8          399.48124      46.421666      285.35506      15563.913    
     78000   156            405.48706      47.119571      288.20677      15061.385    
     78100   156.2          412.55355      47.940732      287.88247      13973.537    
     78200   156.4          410.56561      47.709724      286.14447      14676.793    
     78300   156.6          397.11615      46.14683       284.70007      15651.714    
     78400   156.8          391.29407      45.470276      284.22678      15118.718    
     78500   157            398.96118      46.361232      284.89608      14700.877    
     78600   157.2          422.90973      49.14417       288.15814      15238.831    
     78700   157.4          413.93077      48.100771      290.01089      15063.826    
     78800   157.6          402.82104      46.809767      287.83542      15336.014    
     78900   157.8          398.89701      46.353775      285.75098      14742.518    
     79000   158            394.98496      45.899176      284.60187      14832.364    
     79100   158.2          403.08418      46.840345      284.30716      14284.974    
     79200   158.4          393.26533      45.699347      285.77685      15101.795    
     79300   158.6          401.8492       46.696834      288.55563      15518.971    
     79400   158.8          410.15107      47.661552      288.19329      14118.751    
     79500   159            400.49513      46.539485      285.3079       14165.416    
     79600   159.2          391.55469      45.500562      284.4938       13737.335    
     79700   159.4          406.58975      47.24771       285.22513      13982.352    
     79800   159.6          405.49527      47.120525      286.34654      16041.799    
     79900   159.8          408.26751      47.442674      287.10058      13843.874    
     80000   160            402.00808      46.715297      286.44291      16165.135    
     80100   160.2          417.16063      48.476097      284.88815      13471.468    
     80200   160.4          380.09888      44.169342      282.79649      14651.277    
     80300   160.6          386.87524      44.956787      283.34537      16307.287    
     80400   160.8          400.49212      46.539135      286.44051      16082.328    
     80500   161            401.43989      46.649271      287.13599      14457.378    
     80600   161.2          400.26845      46.513143      286.22503      16700.317    
     80700   161.4          398.89341      46.353357      284.75518      15323.37     
     80800   161.6          390.4328       45.370192      283.22889      14682.782    
     80900   161.8          382.08449      44.400078      280.97614      14459.468    
     81000   162            374.75809      43.548716      278.96943      13856.925    
     81100   162.2          388.34795      45.127923      281.22282      14950.285    
     81200   162.4          399.08284      46.37537       284.01233      14539.636    
     81300   162.6          397.27667      46.165483      285.31047      15629.809    
     81400   162.8          413.34641      48.032866      286.3338       15045.684    
     81500   163            405.30912      47.098894      286.26697      14882.241    
     81600   163.2          393.26137      45.698887      283.67189      14746.618    
     81700   163.4          389.08872      45.214004      282.22554      14866.711    
     81800   163.6          384.72402      44.706805      283.60788      14908.899    
     81900   163.8          400.20579      46.505862      285.53949      14455.249    
     82000   164            402.40895      46.761879      285.80343      12931.108    
     82100   164.2          399.74417      46.45222       285.849        16762.923    
     82200   164.4          394.31703      45.821559      285.79363      13858.938    
     82300   164.6          407.64294      47.370095      287.395        15640.84     
     82400   164.8          408.94042      47.520868      288.26155      16064.135    
     82500   165            408.05568      47.418057      287.06329      14278.808    
     82600   165.2          393.65554      45.744691      284.36521      15849.801    
     82700   165.4          398.40583      46.296698      284.02615      16344.806    
     82800   165.6          396.6897       46.097275      285.06399      15434.257    
     82900   165.8          405.14816      47.08019       287.44355      16611.732    
     83000   166            423.43381      49.205071      291.14058      14007.34     
     83100   166.2          416.10901      48.353893      289.93535      14658.277    
     83200   166.4          410.02019      47.646343      287.35976      15371.199    
     83300   166.6          392.33015      45.590674      285.36952      17545.102    
     83400   166.8          393.94596      45.778439      284.43232      14067.771    
     83500   167            388.44978      45.139756      284.86208      15804.271    
     83600   167.2          418.98893      48.688554      288.07409      14617.995    
     83700   167.4          420.20145      48.829455      288.9929       16107.972    
     83800   167.6          409.48871      47.584582      287.42315      17723.186    
     83900   167.8          388.07603      45.096325      285.67164      16196.139    
     84000   168            394.35082      45.825486      285.64722      15073.768    
     84100   168.2          393.86504      45.769036      286.02558      15662.286    
     84200   168.4          405.59841      47.132511      286.14137      14621.693    
     84300   168.6          394.87579      45.88649       286.58255      15975.634    
     84400   168.8          421.39409      48.968045      287.76578      14538.521    
     84500   169            405.36812      47.10575       287.61748      16225.929    
     84600   169.2          377.36381      43.851513      285.72999      15548.357    
     84700   169.4          399.02264      46.368374      283.82156      15509.417    
     84800   169.6          383.10166      44.518278      283.63084      16486.806    
     84900   169.8          401.88147      46.700584      287.1832       15913.042    
     85000   170            397.54947      46.197185      288.40337      15608.405    
     85100   170.2          397.28238      46.166147      286.43279      15524.83     
     85200   170.4          393.46459      45.722501      284.53353      15029.555    
     85300   170.6          401.06245      46.60541       283.99719      15366.514    
     85400   170.8          408.58129      47.479136      285.44159      14484.984    
     85500   171            416.645        48.416178      288.72177      16955.607    
     85600   171.2          410.63151      47.717382      288.32219      15501.361    
     85700   171.4          401.39442      46.643987      286.68034      15039.919    
     85800   171.6          405.34691      47.103285      285.30195      14501.941    
     85900   171.8          415.65764      48.301443      284.83458      15137.898    
     86000   172            399.87679      46.467631      286.05595      16345.545    
     86100   172.2          407.2908       47.329175      289.40757      15777.466    
     86200   172.4          421.06627      48.929951      288.96811      15973.215    
     86300   172.6          397.99171      46.248576      286.31169      14708.782    
     86400   172.8          381.34183      44.313778      285.09778      16075.021    
     86500   173            401.96638      46.710451      285.28695      13973.106    
     86600   173.2          418.88539      48.676523      286.40414      15696.663    
     86700   173.4          423.32769      49.192739      288.83382      15442.455    
     86800   173.6          415.03589      48.229192      290.34309      14422.565    
     86900   173.8          402.11844      46.728121      287.36959      14801.404    
     87000   174            399.78755      46.45726       285.1053       15660.074    
[...]
    478600   957.2          405.75077      47.150216      285.31165      15691.149    
    478700   957.4          393.41364      45.716581      284.43406      14557.393    
    478800   957.6          375.90506      43.681999      282.77293      15766.64     
    478900   957.8          400.14512      46.498811      283.01818      17020.343    
    479000   958            398.561        46.314729      285.74557      16233.143    
    479100   958.2          407.83956      47.392943      287.15014      17795.307    
    479200   958.4          417.87917      48.559595      286.3456       15765.364    
    479300   958.6          396.13574      46.032902      285.05157      17136.083    
    479400   958.8          384.41184      44.670529      283.07417      16857.756    
    479500   959            364.84887      42.397216      280.27747      16174.858    
    479600   959.2          391.16754      45.455573      281.82982      15829.026    
    479700   959.4          388.24197      45.115608      284.255        16398.441    
    479800   959.6          398.87845      46.351619      285.87258      15732.583    
    479900   959.8          422.99993      49.154653      287.23273      16591.545    
    480000   960            405.08161      47.072456      287.65964      16992.181    
    480100   960.2          391.10577      45.448395      286.04343      16215.154    
    480200   960.4          389.44255      45.255121      283.62302      15771.394    
    480300   960.6          377.5394       43.871917      283.19041      16875.955    
    480400   960.8          403.41084      46.878304      285.59654      14876.815    
    480500   961            392.82011      45.64761       288.03148      14132.56     
    480600   961.2          412.86578      47.977014      287.64247      15431.655    
    480700   961.4          398.06458      46.257043      286.06381      13821.51     
    480800   961.6          394.52601      45.845844      284.41819      15188.589    
    480900   961.8          409.49544      47.585364      284.04808      15389.691    
    481000   962            383.56281      44.571867      285.46668      16336.17     
    481100   962.2          406.34866      47.219693      288.18126      15432.98     
    481200   962.4          414.16241      48.127689      287.84209      16270.604    
    481300   962.6          392.60606      45.622736      285.33276      15578.77     
    481400   962.8          389.58983      45.272236      284.56525      14401.594    
    481500   963            385.7444       44.825378      285.07643      16969.009    
    481600   963.2          416.56646      48.407051      287.21696      14592.127    
    481700   963.4          405.77389      47.152902      290.05981      16247.795    
    481800   963.6          406.98761      47.293943      288.33725      16970.362    
    481900   963.8          400.80175      46.575115      286.10929      14488.774    
    482000   964            386.04066      44.859804      284.78516      14349.519    
    482100   964.2          401.43985      46.649266      284.53283      15793.421    
    482200   964.4          407.88654      47.398403      285.67036      14143.813    
    482300   964.6          420.4104       48.853736      288.86809      16411.493    
    482400   964.8          407.25589      47.325118      288.7538       15910.445    
    482500   965            407.39387      47.341152      286.18139      14574.139    
    482600   965.2          416.94592      48.451147      285.44438      16359.759    
    482700   965.4          403.17971      46.851446      285.33916      13875.205    
    482800   965.6          397.29247      46.16732       285.56132      16439.85     
    482900   965.8          409.77955      47.618379      286.36297      15938.097    
    483000   966            406.07186      47.187528      287.63926      15837.391    
    483100   966.2          412.9691       47.989021      287.74174      16980.05     
    483200   966.4          398.16426      46.268626      285.07718      15176.145    
    483300   966.6          394.08677      45.794802      283.5692       15768.056    
    483400   966.8          383.03754      44.510828      284.16081      15453.577    
    483500   967            406.44749      47.231177      286.21025      14975.734    
    483600   967.2          411.15785      47.778544      286.67581      14366.621    
    483700   967.4          401.52432      46.659081      286.24728      16442.726    
    483800   967.6          402.18274      46.735593      285.32334      14181.421    
    483900   967.8          397.44623      46.185188      284.07723      15661.588    
    484000   968            406.94146      47.288579      284.13613      15194.007    
    484100   968.2          411.33426      47.799044      287.21052      14443.485    
    484200   968.4          406.22585      47.205422      288.26738      15222.813    
    484300   968.6          401.01767      46.600206      286.69438      14966.82     
    484400   968.8          403.07208      46.838939      284.60403      13491.742    
    484500   969            404.03761      46.951138      284.68634      16502.343    
    484600   969.2          393.84405      45.766597      285.28044      15210.06     
    484700   969.4          397.51525      46.193208      286.0165       15799.589    
    484800   969.6          397.97838      46.247026      286.50378      17854.36     
    484900   969.8          394.07214      45.793102      285.77938      14347.29     
    485000   970            393.13501      45.684203      281.69992      16507.873    
    485100   970.2          383.68307      44.585841      281.94264      16508.806    
    485200   970.4          396.22056      46.042759      284.37548      14838.247    
    485300   970.6          396.36257      46.059261      286.10896      17478.699    
    485400   970.8          400.65978      46.558618      286.43294      15117.824    
    485500   971            401.83898      46.695646      285.3394       16087.497    
    485600   971.2          383.03274      44.51027       282.46182      15656.699    
    485700   971.4          392.06858      45.560278      280.96905      15244.525    
    485800   971.6          386.89466      44.959044      282.85008      15233.08     
    485900   971.8          391.03214      45.439839      284.60612      14064.367    
    486000   972            399.65991      46.442429      285.86648      15373.599    
    486100   972.2          409.81446      47.622437      287.32858      14778.05     
    486200   972.4          394.22605      45.810987      286.69302      15483.582    
    486300   972.6          396.50734      46.076084      284.03728      14787.719    
    486400   972.8          399.92285      46.472983      283.16274      14000.547    
    486500   973            393.24141      45.696567      283.84598      16418.45     
    486600   973.2          392.86222      45.652503      284.85682      14340.624    
    486700   973.4          410.77631      47.734208      285.39836      14582.027    
    486800   973.6          383.69066      44.586723      285.86688      14975.971    
    486900   973.8          396.65149      46.092835      286.65627      14146.63     
    487000   974            399.18991      46.387812      288.82014      15285.895    
    487100   974.2          418.8086       48.667599      289.28937      15146.34     
    487200   974.4          394.14158      45.801171      285.76523      15474.446    
    487300   974.6          400.73262      46.567083      284.36766      13309.657    
    487400   974.8          404.59775      47.016229      284.79705      16023.923    
    487500   975            396.1064       46.029493      286.33741      15248.088    
    487600   975.2          407.48871      47.352172      288.59189      15465.689    
    487700   975.4          409.26184      47.558219      288.49284      16430.438    
    487800   975.6          391.6251       45.508744      284.60206      13392.988    
    487900   975.8          387.82621      45.067295      283.79854      16118.242    
    488000   976            393.12929      45.683538      285.21247      14729.872    
    488100   976.2          405.76238      47.151565      287.53067      14316.113    
    488200   976.4          402.33411      46.753184      288.16858      16817.438    
    488300   976.6          404.82536      47.042679      287.57433      14467.961    
    488400   976.8          410.47093      47.698721      286.91667      15991.432    
    488500   977            403.48082      46.886436      286.80903      16006.287    
    488600   977.2          400.84115      46.579693      286.2714       15178.841    
    488700   977.4          405.47842      47.118567      285.03666      14052.088    
    488800   977.6          376.81217      43.78741       282.29898      15934.701    
    488900   977.8          378.0418       43.930298      282.69534      14147.885    
    489000   978            406.87358      47.280691      285.23615      16084.449    
    489100   978.2          378.67883      44.004324      285.73937      14939.987    
    489200   978.4          411.85756      47.859854      286.72884      16323.027    
    489300   978.6          401.44728      46.65013       286.88306      16994.368    
    489400   978.8          414.19635      48.131633      285.88619      15967.8      
    489500   979            400.29432      46.516149      283.88067      16915.86     
    489600   979.2          400.91563      46.588348      282.8738       16309.284    
    489700   979.4          397.30065      46.168271      284.5528       15512.709    
    489800   979.6          396.9897       46.132137      287.46536      16043.55     
    489900   979.8          412.12152      47.890528      287.30377      16235.404    
    490000   980            390.98535      45.434402      285.60291      13998.176    
    490100   980.2          396.7642       46.105932      283.83526      16944.024    
    490200   980.4          399.37945      46.409838      283.18365      13705.372    
    490300   980.6          397.95065      46.243804      283.81993      16639.402    
    490400   980.8          391.23854      45.463823      286.42638      14310.505    
    490500   981            405.00006      47.062979      287.71409      16019.772    
    490600   981.2          402.68247      46.793665      286.87837      13343.554    
    490700   981.4          384.97425      44.735883      284.25321      14496.334    
    490800   981.6          379.09925      44.053179      283.79175      15843.091    
    490900   981.8          411.77627      47.850408      285.31604      16048.972    
    491000   982            419.19129      48.712069      286.15599      14584.382    
    491100   982.2          385.51571      44.798803      286.38409      17307.485    
    491200   982.4          396.82694      46.113223      286.45959      16540.983    
    491300   982.6          402.82228      46.80991       284.5857       13588.495    
    491400   982.8          378.8313       44.022043      282.00666      16290.009    
    491500   983            380.42645      44.207407      282.91333      15202.849    
    491600   983.2          398.82887      46.345857      284.99786      15758.834    
    491700   983.4          409.45905      47.581136      285.74477      16135.978    
    491800   983.6          415.19834      48.248069      286.12702      15121.915    
    491900   983.8          404.85791      47.046461      286.32233      15969.869    
    492000   984            411.12929      47.775226      286.66767      15436.139    
    492100   984.2          391.58559      45.504153      286.91734      15422.045    
    492200   984.4          417.9894       48.572404      286.98093      14040.875    
    492300   984.6          407.27271      47.327073      286.05526      16007.052    
    492400   984.8          381.8461       44.372377      284.16218      15622.413    
    492500   985            388.21983      45.113035      283.3646       14391.275    
    492600   985.2          398.77845      46.339998      286.45842      16118.582    
    492700   985.4          399.16245      46.38462       288.0928       15579.262    
    492800   985.6          402.87405      46.815927      287.64386      13381.395    
    492900   985.8          400.67526      46.560417      285.81837      16604.356    
    493000   986            402.91176      46.820308      283.62338      15207.4      
    493100   986.2          371.64471      43.186925      283.77733      14874.451    
    493200   986.4          380.33661      44.196967      284.96249      15326.963    
    493300   986.6          407.58442      47.363295      285.4872       14783.97     
    493400   986.8          405.85141      47.16191       285.75992      16744.112    
    493500   987            418.06642      48.581354      286.87124      14741.289    
    493600   987.2          416.73281      48.426382      288.27101      16911.545    
    493700   987.4          424.94649      49.380851      288.65183      14414.212    
    493800   987.6          395.99494      46.016541      285.91892      16972.582    
    493900   987.8          388.27749      45.119735      284.25852      14940.236    
    494000   988            404.77001      47.036247      284.56083      14938.111    
    494100   988.2          414.5984       48.178353      287.1286       17479.55     
    494200   988.4          416.26739      48.372299      288.80218      15762.486    
    494300   988.6          385.43898      44.789887      287.90141      16890.451    
    494400   988.8          396.42496      46.066511      286.50553      16030.499    
    494500   989            386.82366      44.950793      284.83357      15746.291    
    494600   989.2          399.97837      46.479434      284.34115      16575.957    
    494700   989.4          401.94701      46.7082        286.23056      17184.692    
    494800   989.6          417.05385      48.463689      289.11386      14287.588    
    494900   989.8          409.58572      47.595855      288.14568      15985.818    
    495000   990            399.27694      46.397925      285.96746      14287.174    
    495100   990.2          405.99347      47.178419      285.11966      16815.527    
    495200   990.4          403.06054      46.837598      285.62256      15744.42     
    495300   990.6          411.20621      47.784165      288.4333       14772.921    
    495400   990.8          410.97661      47.757483      291.098        15761.803    
    495500   991            419.06697      48.697623      289.14486      15881.576    
    495600   991.2          404.05662      46.953348      286.56967      14676.885    
    495700   991.4          405.48055      47.118815      284.97445      15184.669    
    495800   991.6          400.33984      46.521439      284.18164      16997.54     
    495900   991.8          385.56021      44.803974      284.98478      14916.344    
    496000   992            409.05262      47.533907      288.25065      17166.871    
    496100   992.2          406.49564      47.236773      288.71621      15054.207    
    496200   992.4          416.14865      48.3585        286.97542      15496.402    
    496300   992.6          399.81468      46.460413      285.79405      15736.817    
    496400   992.8          396.13863      46.033238      285.7844       15975.714    
    496500   993            389.01015      45.204875      286.13713      15618.91     
    496600   993.2          398.71423      46.332535      286.93938      16525.344    
    496700   993.4          412.14586      47.893356      290.03108      14873.266    
    496800   993.6          420.97416      48.919248      290.19282      15727.935    
    496900   993.8          412.3639       47.918693      287.30995      16162.199    
    497000   994            405.76257      47.151587      286.13655      15582.255    
    497100   994.2          401.47948      46.653871      285.58975      15482.494    
    497200   994.4          401.86882      46.699114      285.61734      15672.599    
    497300   994.6          408.90917      47.517237      287.09643      13834.926    
    497400   994.8          404.05896      46.95362       289.39885      16805.974    
    497500   995            406.69495      47.259933      288.82633      15728.76     
    497600   995.2          393.22665      45.694851      285.65559      14974.842    
    497700   995.4          392.58395      45.620166      285.16576      16385.412    
    497800   995.6          389.54907      45.2675        285.68135      14988.723    
    497900   995.8          418.92608      48.681251      287.01885      16163.72     
    498000   996            410.51876      47.70428       288.34377      15559.132    
    498100   996.2          412.62615      47.949169      289.81525      15688.223    
    498200   996.4          394.48676      45.841282      287.67941      16892.579    
    498300   996.6          393.34866      45.70903       285.20579      14560.042    
    498400   996.8          402.36164      46.756382      284.77703      14915.18     
    498500   997            404.60936      47.017578      286.36907      17578.993    
    498600   997.2          432.83309      50.297313      288.52897      15217.051    
    498700   997.4          408.54504      47.474923      287.8928       15307.548    
    498800   997.6          394.96659      45.897041      283.855        16745.339    
    498900   997.8          389.01572      45.205522      282.71287      14949.139    
    499000   998            393.64172      45.743085      285.07744      15948.226    
    499100   998.2          416.12656      48.355932      287.04478      16133.332    
    499200   998.4          433.90703      50.42211       287.14819      15524.163    
    499300   998.6          393.66706      45.74603       284.59146      15276.833    
    499400   998.8          395.66565      45.978276      283.13286      17949.637    
    499500   999            381.43516      44.324623      283.62017      16149.285    
    499600   999.2          392.48655      45.608849      285.11413      14613.232    
    499700   999.4          401.21516      46.623155      285.87316      15944.004    
    499800   999.6          395.24219      45.929067      286.59439      16396.28     
    499900   999.8          424.25759      49.300798      286.71933      14170.564    
    500000   1000           383.51234      44.566002      284.48892      16020.614    
Loop time of 328.783 on 1 procs for 500000 steps with 900 atoms

Performance: 262.787 ns/day, 0.091 hours/ns, 1520.760 timesteps/s
54.4% CPU use with 1 MPI tasks x no OpenMP threads

MPI task timing breakdown:
Section |  min time  |  avg time  |  max time  |%varavg| %total
---------------------------------------------------------------
Pair    | 209.54     | 209.54     | 209.54     |   0.0 | 63.73
Neigh   | 107.02     | 107.02     | 107.02     |   0.0 | 32.55
Comm    | 3.874      | 3.874      | 3.874      |   0.0 |  1.18
Output  | 2.1442     | 2.1442     | 2.1442     |   0.0 |  0.65
Modify  | 5.5188     | 5.5188     | 5.5188     |   0.0 |  1.68
Other   |            | 0.6844     |            |       |  0.21

Nlocal:            900 ave         900 max         900 min
Histogram: 1 0 0 0 0 0 0 0 0 0
Nghost:           2788 ave        2788 max        2788 min
Histogram: 1 0 0 0 0 0 0 0 0 0
Neighs:              0 ave           0 max           0 min
Histogram: 1 0 0 0 0 0 0 0 0 0
FullNghs:       100356 ave      100356 max      100356 min
Histogram: 1 0 0 0 0 0 0 0 0 0

Total # of neighbors = 100356
Ave neighs/atom = 111.50667
Neighbor list builds = 50000
Dangerous builds not checked

Total wall time: 0:05:47
