LAMMPS data file via write_data, version 4 May 2022, timestep = 69

32 atoms
3 atom types

-0.003476262092590332 6.398025274276733 xlo xhi
-0.042732179164886475 22.125610172748566 ylo yhi
0.015788495540618896 5.166677474975586 zlo zhi
2.719160741567611 4.410743713378906e-06 -0.0001500844955444336 xy xz yz
Masses

1 24.305
2 65.40900000000001
3 88.90600000000001

Atoms # atomic

1 1 0.1195287451517378 7.418594016775904 3.0733419572608915 0 0 0
2 1 3.320279584129014 7.418594733689199 3.0733415699333175 0 0 0
3 1 1.719902046704052 6.496843090971489 0.49789767903482196 0 0 0
4 1 4.920651553519301 6.496844904287058 0.49789703506754823 0 0 0
5 1 1.7199055894077826 10.18968057935025 3.0733424365304276 0 0 0
6 1 4.920656806022431 10.189681723267332 3.073342448043497 0 0 0
7 1 0.11952820158615711 9.267944575762918 0.497893655746963 0 0 0
8 1 3.3202780281518938 9.267943934733488 0.4978944709142328 0 0 0
9 1 0.11953426292547387 12.960696464629862 3.073342155870109 0 0 0
10 1 3.320281992296263 12.960695680243644 3.0733420398884173 0 0 0
11 1 1.719908510630389 15.731663971106274 3.0733425260396348 0 0 0
12 1 4.920659527657386 15.731664018297176 3.0733437145287104 0 0 0
13 1 0.11953193456419504 14.810039536690534 0.4978943850355886 0 0 0
14 1 1.7199042710281203 12.039018304804664 0.4978970666112593 0 0 0
15 1 4.920656161925897 12.039017557802895 0.49789707936124833 0 0 0
16 1 3.3202812374930453 14.810038733583555 0.49789575149301135 0 0 0
17 1 0.11953623856716819 18.5026461367612 3.0733397783761784 0 0 0
18 1 3.32028681341288 18.502646940156016 3.073339407566814 0 0 0
19 1 1.7199129524916978 21.2736774603389 3.0733390886438308 0 0 0
20 1 4.9206635733354664 21.273678590074724 3.073339593428757 0 0 0
21 1 1.7199084068097192 17.581041148481933 0.4978955464592615 0 0 0
22 1 4.920659742168324 17.581041217234443 0.4978963427984544 0 0 0
23 1 0.11953613604600226 20.351984720861573 0.49789718458320176 0 0 0
24 1 3.320284729678621 20.351984656576604 0.4978974722899534 0 0 0
25 1 0.11952562753862814 1.8763978009153979 3.0733419493451692 0 0 0
26 1 3.3202756103847566 1.8763986532685837 3.073342741954057 0 0 0
27 1 1.7198977500991077 0.9546766828388978 0.49789706845331916 0 0 0
28 1 4.920648640647397 0.9546763474207646 0.4978970871581941 0 0 0
29 1 1.7199026781831472 4.647497452927451 3.073341598215645 0 0 0
30 1 4.920653241801378 4.647496720367989 3.0733416044837054 0 0 0
31 1 0.11952578809881595 3.725741857263381 0.4978958748489132 0 0 0
32 1 3.3202736091606666 3.7257424035637188 0.49789625263169246 0 0 0

Velocities

1 0 0 0
2 0 0 0
3 0 0 0
4 0 0 0
5 0 0 0
6 0 0 0
7 0 0 0
8 0 0 0
9 0 0 0
10 0 0 0
11 0 0 0
12 0 0 0
13 0 0 0
14 0 0 0
15 0 0 0
16 0 0 0
17 0 0 0
18 0 0 0
19 0 0 0
20 0 0 0
21 0 0 0
22 0 0 0
23 0 0 0
24 0 0 0
25 0 0 0
26 0 0 0
27 0 0 0
28 0 0 0
29 0 0 0
30 0 0 0
31 0 0 0
32 0 0 0
