ITEM: TIMESTEP
0
ITEM: NUMBER OF ATOMS
32
ITEM: BOX BOUNDS xy xz yz pp pp pp
-4.7826766967773438e-03 7.4392231106758118e+00 1.0398914217948914e+00
-3.7661075592041016e-02 2.2120539069175720e+01 0.0000000000000000e+00
-1.1393904685974121e-02 5.1938598752021790e+00 0.0000000000000000e+00
ITEM: ATOMS id type xs ys zs fx fy fz
1 1 0.964566 0.336542 0.593597 0 0.000846863 5.72205e-06
2 1 0.464567 0.336542 0.593597 0 0.000843048 5.72205e-06
3 1 0.221307 0.295033 0.0935973 0 -0.00149345 -5.72205e-06
4 1 0.721307 0.295033 0.0935973 0 -0.00149345 -3.8147e-06
5 1 0.194269 0.461543 0.593597 0 0.000917435 0
6 1 0.694269 0.461543 0.593597 0 0.000921249 5.72205e-06
7 1 0.951009 0.420037 0.0935973 0 -0.00134087 -7.62939e-06
8 1 0.451009 0.420037 0.0935973 0 -0.00134087 -3.8147e-06
9 1 0.923971 0.586543 0.593597 0 0.00127602 0
10 1 0.423972 0.586543 0.593597 0 0.00127411 0
11 1 0.153675 0.711539 0.593597 0 0.00158119 7.62939e-06
12 1 0.653675 0.711539 0.593597 0 0.00157738 3.8147e-06
13 1 0.910413 0.670042 0.0935972 0 -0.00107956 -3.8147e-06
14 1 0.180711 0.545043 0.0935972 0 -0.00102425 0
15 1 0.680711 0.545043 0.0935972 0 -0.00102043 0
16 1 0.410413 0.670042 0.0935972 0 -0.00108337 -7.62939e-06
17 1 0.883379 0.836533 0.593597 0 0.0104809 1.90735e-06
18 1 0.383379 0.836533 0.593597 0 0.010479 0
19 1 0.113082 0.961533 0.593597 0 -0.289213 1.90735e-06
20 1 0.613082 0.961533 0.593597 0 -0.289213 0
21 1 0.140117 0.795035 0.0935971 0 0.00121498 0
22 1 0.640117 0.795035 0.0935971 0 0.00121307 -1.90735e-06
23 1 0.86982 0.920032 0.0935971 0 -0.485212 0
24 1 0.36982 0.920032 0.0935971 0 -0.485212 -1.90735e-06
25 1 0.00516174 0.0865377 0.593597 0 0.48498 0
26 1 0.505162 0.0865377 0.593597 0 0.484983 0
27 1 0.261902 0.045031 0.093597 0 0.289555 0
28 1 0.761902 0.045031 0.093597 0 0.289551 0
29 1 0.234864 0.211541 0.593597 0 -0.00122452 1.90735e-06
30 1 0.734864 0.211541 0.593597 0 -0.00121498 1.90735e-06
31 1 0.991604 0.170031 0.093597 0 -0.0102654 0
32 1 0.491605 0.170031 0.093597 0 -0.0102615 0
ITEM: TIMESTEP
1
ITEM: NUMBER OF ATOMS
32
ITEM: BOX BOUNDS xy xz yz pp pp pp
-4.7826766967773438e-03 7.4392231106758118e+00 1.0398914217948914e+00
-3.7661075592041016e-02 2.2120539069175720e+01 0.0000000000000000e+00
-1.1393904685974121e-02 5.1938598752021790e+00 0.0000000000000000e+00
ITEM: ATOMS id type xs ys zs fx fy fz
1 1 0.964565 0.33655 0.593597 0 0.00015831 -3.8147e-06
2 1 0.464565 0.33655 0.593597 0 0.000160217 -1.90735e-06
3 1 0.221309 0.295019 0.0935971 0 0.000419617 0
4 1 0.721309 0.295019 0.0935971 0 0.000415802 0
5 1 0.194268 0.461551 0.593597 0 0.00129128 -1.90735e-06
6 1 0.694268 0.461551 0.593597 0 0.00129509 -3.8147e-06
7 1 0.95101 0.420026 0.093597 0 -0.00177002 1.90735e-06
8 1 0.451011 0.420026 0.0935971 0 -0.0017662 3.8147e-06
9 1 0.92397 0.586555 0.593597 0 0.00171471 3.8147e-06
10 1 0.42397 0.586555 0.593597 0 0.00170898 -1.90735e-06
11 1 0.153673 0.711553 0.593597 0 -0.000337601 0
12 1 0.653673 0.711553 0.593597 0 -0.000343323 -5.72205e-06
13 1 0.910415 0.670033 0.0935971 0 -0.000310898 0
14 1 0.180712 0.545034 0.0935972 0 -0.00142097 0
15 1 0.680712 0.545034 0.0935972 0 -0.00143433 0
16 1 0.410415 0.670033 0.0935969 0 -0.000312805 7.62939e-06
17 1 0.883363 0.836626 0.593597 0 -0.0883179 0
18 1 0.383364 0.836626 0.593597 0 -0.0883141 1.90735e-06
19 1 0.113497 0.958975 0.593597 0 0.0706272 -1.90735e-06
20 1 0.613497 0.958975 0.593597 0 0.0706348 1.90735e-06
21 1 0.140116 0.795045 0.0935971 0 -0.10006 -1.90735e-06
22 1 0.640116 0.795045 0.093597 0 -0.100069 0
23 1 0.870517 0.915741 0.0935971 0 -0.0403957 -1.90735e-06
24 1 0.370517 0.915741 0.093597 0 -0.0403957 1.90735e-06
25 1 0.00446528 0.0908268 0.593597 0 0.0405788 0
26 1 0.504466 0.0908268 0.593597 0 0.040575 0
27 1 0.261486 0.0475918 0.093597 0 -0.0705986 0
28 1 0.761486 0.0475917 0.093597 0 -0.0706005 0
29 1 0.234866 0.21153 0.593597 0 0.0999374 -1.90735e-06
30 1 0.734866 0.21153 0.593597 0 0.0999374 0
31 1 0.991619 0.16994 0.093597 0 0.0884953 1.90735e-06
32 1 0.491619 0.16994 0.093597 0 0.0884972 1.90735e-06
ITEM: TIMESTEP
2
ITEM: NUMBER OF ATOMS
32
ITEM: BOX BOUNDS xy xz yz pp pp pp
-4.7826766967773438e-03 7.4392231106758118e+00 1.0398914217948914e+00
-3.7661075592041016e-02 2.2120539069175720e+01 0.0000000000000000e+00
-1.1393904685974121e-02 5.1938598752021790e+00 0.0000000000000000e+00
ITEM: ATOMS id type xs ys zs fx fy fz
1 1 0.964564 0.336556 0.593597 0 0.0501022 0
2 1 0.464565 0.336556 0.593597 0 0.0501022 7.62939e-06
3 1 0.221308 0.295027 0.093597 0 0.0624847 -3.8147e-06
4 1 0.721308 0.295027 0.0935971 0 0.0624866 -1.90735e-06
5 1 0.194263 0.461584 0.593597 0 0.000171661 5.72205e-06
6 1 0.694263 0.461584 0.593597 0 0.000171661 3.8147e-06
7 1 0.951018 0.41998 0.0935971 0 0.00123596 0
8 1 0.451018 0.41998 0.0935975 0 0.00122833 -9.53674e-06
9 1 0.923962 0.586599 0.593597 0 -0.0012722 -3.8147e-06
10 1 0.423963 0.586599 0.593597 0 -0.00126266 7.62939e-06
11 1 0.153674 0.711548 0.593597 0 -0.0625153 0
12 1 0.653674 0.711548 0.593597 0 -0.0625057 1.14441e-05
13 1 0.910416 0.670023 0.093597 0 -0.0501957 -1.90735e-06
14 1 0.180718 0.544997 0.0935972 0 -0.000278473 -3.8147e-06
15 1 0.680718 0.544997 0.0935972 0 -0.000257492 -3.8147e-06
16 1 0.410417 0.670023 0.0935976 0 -0.0501919 -5.72205e-06
17 1 0.883709 0.834495 0.593597 0 0.026474 -3.8147e-06
18 1 0.38371 0.834495 0.593597 0 0.0264721 0
19 1 0.113312 0.960115 0.593597 0 0.00475502 1.90735e-06
20 1 0.613312 0.960115 0.593597 0 0.00475883 -1.90735e-06
21 1 0.140511 0.792611 0.0935969 0 -0.0118408 5.72205e-06
22 1 0.640511 0.79261 0.093597 0 -0.0118313 -5.72205e-06
23 1 0.870835 0.913784 0.0935969 0 -0.0113869 3.8147e-06
24 1 0.370835 0.913784 0.0935972 0 -0.0113869 -3.8147e-06
25 1 0.00414687 0.0927877 0.593597 0 0.0112934 1.90735e-06
26 1 0.504147 0.0927876 0.593597 0 0.0113049 0
27 1 0.261671 0.0464528 0.093597 0 -0.00458527 0
28 1 0.761671 0.0464527 0.093597 0 -0.00458145 0
29 1 0.234471 0.213962 0.593597 0 0.0119667 3.8147e-06
30 1 0.734471 0.213962 0.593597 0 0.0119591 5.72205e-06
31 1 0.991272 0.172075 0.0935972 0 -0.0264339 -5.72205e-06
32 1 0.491273 0.172075 0.0935972 0 -0.0264416 -3.8147e-06
ITEM: TIMESTEP
3
ITEM: NUMBER OF ATOMS
32
ITEM: BOX BOUNDS xy xz yz pp pp pp
-4.7826766967773438e-03 7.4392231106758118e+00 1.0398914217948914e+00
-3.7661075592041016e-02 2.2120539069175720e+01 0.0000000000000000e+00
-1.1393904685974121e-02 5.1938598752021790e+00 0.0000000000000000e+00
ITEM: ATOMS id type xs ys zs fx fy fz
1 1 0.96436 0.337812 0.593597 0 0.0105076 1.90735e-06
2 1 0.464361 0.337812 0.593598 0 0.0105057 -1.52588e-05
3 1 0.221054 0.296593 0.0935966 0 -0.00605774 7.62939e-06
4 1 0.721054 0.296593 0.0935969 0 -0.00605774 9.53674e-06
5 1 0.19426 0.461599 0.593597 0 0.0217705 -1.14441e-05
6 1 0.69426 0.461599 0.593597 0 0.0217628 -5.72205e-06
7 1 0.951015 0.419996 0.0935972 0 0.0415974 1.90735e-06
8 1 0.451016 0.419996 0.0935966 0 0.041605 1.52588e-05
9 1 0.923965 0.586582 0.593597 0 -0.0416794 -1.90735e-06
10 1 0.423966 0.586582 0.593598 0 -0.0416832 -7.62939e-06
11 1 0.153928 0.709981 0.593597 0 0.00608063 -3.8147e-06
12 1 0.653928 0.709981 0.593598 0 0.00608635 -1.14441e-05
13 1 0.910621 0.668763 0.0935968 0 -0.0104523 9.53674e-06
14 1 0.180721 0.544978 0.0935968 0 -0.0218086 7.62939e-06
15 1 0.680721 0.544978 0.0935968 0 -0.0218182 5.72205e-06
16 1 0.410621 0.668763 0.0935973 0 -0.0104523 3.8147e-06
17 1 0.883714 0.834465 0.593597 0 -0.00660706 7.62939e-06
18 1 0.383715 0.834465 0.593597 0 -0.00661659 -7.62939e-06
19 1 0.113232 0.960605 0.593597 0 -0.0050354 -1.90735e-06
20 1 0.613232 0.960606 0.593597 0 -0.00503731 1.90735e-06
21 1 0.140688 0.791522 0.0935974 0 -0.0112724 -5.72205e-06
22 1 0.640688 0.791522 0.0935964 0 -0.0112762 9.53674e-06
23 1 0.870984 0.912862 0.0935972 0 0.0144806 -7.62939e-06
24 1 0.370985 0.912862 0.0935969 0 0.0144806 7.62939e-06
25 1 0.00399735 0.0937085 0.593597 0 -0.0142727 -5.72205e-06
26 1 0.503998 0.0937087 0.593597 0 -0.0142727 -1.90735e-06
27 1 0.26175 0.0459674 0.093597 0 0.00497246 0
28 1 0.76175 0.0459674 0.093597 0 0.00497437 0
29 1 0.234294 0.215053 0.593597 0 0.0111732 -5.72205e-06
30 1 0.734294 0.215053 0.593598 0 0.0111771 -1.52588e-05
31 1 0.991267 0.172108 0.0935967 0 0.00661659 1.33514e-05
32 1 0.491267 0.172108 0.0935969 0 0.00660896 5.72205e-06
ITEM: TIMESTEP
4
ITEM: NUMBER OF ATOMS
32
ITEM: BOX BOUNDS xy xz yz pp pp pp
-4.7826766967773438e-03 7.4392231106758118e+00 1.0398914217948914e+00
-3.7661075592041016e-02 2.2120539069175720e+01 0.0000000000000000e+00
-1.1393904685974121e-02 5.1938598752021790e+00 0.0000000000000000e+00
ITEM: ATOMS id type xs ys zs fx fy fz
1 1 0.964263 0.338408 0.593597 0 0.00743866 7.62939e-06
2 1 0.464264 0.338408 0.593597 0 0.00743866 9.53674e-06
3 1 0.220996 0.296947 0.0935971 0 0.00233459 -3.8147e-06
4 1 0.720996 0.296947 0.0935977 0 0.00234222 -9.53674e-06
5 1 0.194188 0.462046 0.593597 0 -0.00774956 1.52588e-05
6 1 0.694188 0.462046 0.593597 0 -0.00775146 7.62939e-06
7 1 0.950877 0.420846 0.0935974 0 0.00272369 -7.62939e-06
8 1 0.450878 0.420846 0.0935977 0 0.00272942 -1.14441e-05
9 1 0.924104 0.585729 0.593597 0 -0.00273705 7.62939e-06
10 1 0.424104 0.585729 0.593597 0 -0.00273514 5.72205e-06
11 1 0.153986 0.709628 0.593597 0 -0.00237846 1.14441e-05
12 1 0.653986 0.709628 0.593597 0 -0.00238609 1.90735e-06
13 1 0.910718 0.668167 0.0935976 0 -0.00745773 -7.62939e-06
14 1 0.180794 0.544529 0.0935973 0 0.00774384 -1.71661e-05
15 1 0.680794 0.544529 0.0935972 0 0.00774002 -5.72205e-06
16 1 0.410718 0.668167 0.0935975 0 -0.00746155 -3.8147e-06
17 1 0.883738 0.834321 0.593597 0 -0.00659943 -3.8147e-06
18 1 0.383738 0.834321 0.593597 0 -0.00658989 7.62939e-06
19 1 0.113225 0.960652 0.593597 0 -0.0113258 0
20 1 0.613225 0.960653 0.593597 0 -0.0113411 0
21 1 0.140779 0.790961 0.0935971 0 0.00643539 -3.8147e-06
22 1 0.640779 0.790961 0.093597 0 0.00644684 -3.8147e-06
23 1 0.870982 0.912875 0.0935967 0 -0.00335503 9.53674e-06
24 1 0.370983 0.912875 0.0935974 0 -0.00336266 -9.53674e-06
25 1 0.0039989 0.093699 0.593597 0 0.00327873 7.62939e-06
26 1 0.503999 0.0936992 0.593597 0 0.00327301 5.72205e-06
27 1 0.261757 0.0459206 0.093597 0 0.0114021 -3.8147e-06
28 1 0.761757 0.0459206 0.093597 0 0.0114021 -1.90735e-06
29 1 0.234203 0.215612 0.593597 0 -0.00636101 5.72205e-06
30 1 0.734203 0.215612 0.593597 0 -0.00634956 1.14441e-05
31 1 0.991243 0.172253 0.0935976 0 0.0065918 -1.33514e-05
32 1 0.491244 0.172253 0.0935972 0 0.00662041 -7.62939e-06
ITEM: TIMESTEP
5
ITEM: NUMBER OF ATOMS
32
ITEM: BOX BOUNDS xy xz yz pp pp pp
-4.7826766967773438e-03 7.4392231106758118e+00 1.0398914217948914e+00
-3.7661075592041016e-02 2.2120539069175720e+01 0.0000000000000000e+00
-1.1393904685974121e-02 5.1938598752021790e+00 0.0000000000000000e+00
ITEM: ATOMS id type xs ys zs fx fy fz
1 1 0.964232 0.338601 0.593597 0 -0.00411415 -3.8147e-06
2 1 0.464232 0.338601 0.593597 0 -0.00411606 -5.72205e-06
3 1 0.220983 0.297026 0.0935969 0 0.00376892 3.8147e-06
4 1 0.720983 0.297026 0.0935971 0 0.00376892 3.8147e-06
5 1 0.194201 0.461963 0.593598 0 -0.00138855 -9.53674e-06
6 1 0.694201 0.461963 0.593597 0 -0.00139046 -1.90735e-06
7 1 0.950854 0.420987 0.0935968 0 0.000362396 7.62939e-06
8 1 0.450855 0.420987 0.0935969 0 0.000354767 1.90735e-06
9 1 0.924127 0.585588 0.593597 0 -0.000370026 -1.14441e-05
10 1 0.424127 0.585588 0.593597 0 -0.000375748 -7.62939e-06
11 1 0.153999 0.709548 0.593598 0 -0.00376511 -1.52588e-05
12 1 0.653999 0.709548 0.593597 0 -0.00377083 0
13 1 0.910749 0.667974 0.0935971 0 0.00412369 3.8147e-06
14 1 0.180781 0.544612 0.0935961 0 0.00137901 1.33514e-05
15 1 0.680781 0.544612 0.0935968 0 0.00138855 7.62939e-06
16 1 0.410749 0.667974 0.0935972 0 0.0041275 5.72205e-06
17 1 0.883759 0.834193 0.593597 0 -0.00552368 -1.90735e-06
18 1 0.383759 0.834193 0.593597 0 -0.00552559 -3.8147e-06
19 1 0.113255 0.960464 0.593597 0 -7.24792e-05 1.90735e-06
20 1 0.613255 0.960464 0.593597 0 -7.24792e-05 0
21 1 0.140771 0.791009 0.0935968 0 -0.00291824 7.62939e-06
22 1 0.640771 0.791009 0.0935968 0 -0.00291824 3.8147e-06
23 1 0.870991 0.912819 0.0935973 0 0.0050621 -5.72205e-06
24 1 0.370992 0.912819 0.0935968 0 0.00507736 5.72205e-06
25 1 0.00398998 0.0937539 0.593597 0 -0.00501251 -5.72205e-06
26 1 0.50399 0.0937541 0.593597 0 -0.00501823 -5.72205e-06
27 1 0.261727 0.0461101 0.0935967 0 5.34058e-05 5.72205e-06
28 1 0.761727 0.0461101 0.0935969 0 5.53131e-05 5.72205e-06
29 1 0.234211 0.215565 0.593597 0 0.00289536 -3.8147e-06
30 1 0.734211 0.215566 0.593597 0 0.00288582 -5.72205e-06
31 1 0.991223 0.172381 0.0935968 0 0.0055294 5.72205e-06
32 1 0.491223 0.172382 0.0935967 0 0.00551987 3.8147e-06
ITEM: TIMESTEP
6
ITEM: NUMBER OF ATOMS
32
ITEM: BOX BOUNDS xy xz yz pp pp pp
-4.7826766967773438e-03 7.4392231106758118e+00 1.0398914217948914e+00
-3.7661075592041016e-02 2.2120539069175720e+01 0.0000000000000000e+00
-1.1393904685974121e-02 5.1938598752021790e+00 0.0000000000000000e+00
ITEM: ATOMS id type xs ys zs fx fy fz
1 1 0.964235 0.338584 0.593597 0 -0.00270653 0
2 1 0.464235 0.338584 0.593597 0 -0.00270271 1.90735e-06
3 1 0.220964 0.297144 0.0935972 0 0.00289726 0
4 1 0.720964 0.297144 0.0935972 0 0.00289154 1.90735e-06
5 1 0.194212 0.461898 0.593597 0 0.000957489 -1.90735e-06
6 1 0.694212 0.461898 0.593597 0 0.000961304 1.90735e-06
7 1 0.950844 0.421051 0.0935974 0 0.000516891 -3.8147e-06
8 1 0.450844 0.421051 0.0935968 0 0.000518799 5.72205e-06
9 1 0.924137 0.585523 0.593597 0 -0.000509262 1.14441e-05
10 1 0.424138 0.585523 0.593597 0 -0.000511169 1.33514e-05
11 1 0.154018 0.70943 0.593597 0 -0.00288582 1.14441e-05
12 1 0.654018 0.70943 0.593597 0 -0.00288582 1.90735e-06
13 1 0.910746 0.66799 0.0935973 0 0.00270271 -9.53674e-06
14 1 0.18077 0.544676 0.093597 0 -0.000967026 -1.90735e-06
15 1 0.68077 0.544676 0.0935974 0 -0.000974655 -1.33514e-05
16 1 0.410747 0.667991 0.0935977 0 0.00270462 -1.71661e-05
17 1 0.883787 0.834015 0.593597 0 0.00069046 5.72205e-06
18 1 0.383788 0.834015 0.593597 0 0.000692368 7.62939e-06
19 1 0.113268 0.960387 0.593597 0 -0.000667572 -1.90735e-06
20 1 0.613268 0.960387 0.593597 0 -0.000671387 0
21 1 0.140779 0.790961 0.0935974 0 0.000963211 -7.62939e-06
22 1 0.640779 0.790961 0.0935971 0 0.000946045 -1.90735e-06
23 1 0.870976 0.912913 0.093597 0 -0.00266838 1.90735e-06
24 1 0.370976 0.912913 0.0935971 0 -0.00268173 -3.8147e-06
25 1 0.00400501 0.0936614 0.593597 0 0.00267601 3.8147e-06
26 1 0.504005 0.0936614 0.593597 0 0.00267029 7.62939e-06
27 1 0.261714 0.0461872 0.0935972 0 0.000673294 -1.90735e-06
28 1 0.761714 0.0461873 0.0935974 0 0.000671387 -1.90735e-06
29 1 0.234203 0.215613 0.593597 0 -0.00094986 1.90735e-06
30 1 0.734203 0.215613 0.593597 0 -0.000957489 0
31 1 0.991194 0.172559 0.093597 0 -0.000688553 -3.8147e-06
32 1 0.491194 0.172559 0.0935969 0 -0.000705719 -7.62939e-06
ITEM: TIMESTEP
7
ITEM: NUMBER OF ATOMS
32
ITEM: BOX BOUNDS xy xz yz pp pp pp
-4.7826766967773438e-03 7.4392231106758118e+00 1.0398914217948914e+00
-3.7661075592041016e-02 2.2120539069175720e+01 0.0000000000000000e+00
-1.1393904685974121e-02 5.1938598752021790e+00 0.0000000000000000e+00
ITEM: ATOMS id type xs ys zs fx fy fz
1 1 0.964242 0.338539 0.593597 0 2.67029e-05 0
2 1 0.464243 0.338538 0.593597 0 2.86102e-05 0
3 1 0.220953 0.297211 0.0935972 0 0.000114441 -1.90735e-06
4 1 0.720953 0.297211 0.0935973 0 0.000114441 -1.90735e-06
5 1 0.194211 0.461902 0.593597 0 -0.000591278 3.8147e-06
6 1 0.694211 0.461902 0.593597 0 -0.000577927 -3.8147e-06
7 1 0.950841 0.421071 0.0935972 0 0.000392914 1.90735e-06
8 1 0.450841 0.421071 0.0935972 0 0.000394821 -1.90735e-06
9 1 0.92414 0.585504 0.593597 0 -0.000402451 -9.53674e-06
10 1 0.424141 0.585504 0.593598 0 -0.000394821 -2.09808e-05
11 1 0.154028 0.709364 0.593597 0 -0.000114441 -1.90735e-06
12 1 0.654028 0.709364 0.593597 0 -0.000110626 -3.8147e-06
13 1 0.910739 0.668036 0.0935967 0 -3.05176e-05 7.62939e-06
14 1 0.180771 0.544672 0.093597 0 0.000598907 5.72205e-06
15 1 0.680771 0.544672 0.0935966 0 0.000583649 1.52588e-05
16 1 0.410739 0.668036 0.0935966 0 -3.62396e-05 7.62939e-06
17 1 0.883791 0.833995 0.593597 0 -0.000143051 0
18 1 0.383791 0.833995 0.593597 0 -0.000146866 -5.72205e-06
19 1 0.113272 0.960363 0.593597 0 0.00102997 0
20 1 0.613272 0.960363 0.593597 0 0.00104141 -5.72205e-06
21 1 0.140778 0.790968 0.093597 0 0.000179291 1.90735e-06
22 1 0.640778 0.790968 0.093597 0 0.00018692 1.90735e-06
23 1 0.87098 0.912887 0.0935971 0 -0.00028801 1.90735e-06
24 1 0.370981 0.912887 0.0935969 0 -0.000289917 5.72205e-06
25 1 0.00400082 0.0936872 0.593597 0 0.000286102 0
26 1 0.504001 0.0936871 0.593597 0 0.00028801 -3.8147e-06
27 1 0.26171 0.0462115 0.0935971 0 -0.00102997 0
28 1 0.76171 0.0462115 0.0935973 0 -0.00104141 0
29 1 0.234204 0.215606 0.593597 0 -0.000183105 -1.90735e-06
30 1 0.734204 0.215606 0.593597 0 -0.000167847 -1.90735e-06
31 1 0.99119 0.17258 0.0935968 0 0.000135422 0
32 1 0.491191 0.17258 0.0935964 0 0.000146866 1.14441e-05
ITEM: TIMESTEP
8
ITEM: NUMBER OF ATOMS
32
ITEM: BOX BOUNDS xy xz yz pp pp pp
-4.7826766967773438e-03 7.4392231106758118e+00 1.0398914217948914e+00
-3.7661075592041016e-02 2.2120539069175720e+01 0.0000000000000000e+00
-1.1393904685974121e-02 5.1938598752021790e+00 0.0000000000000000e+00
ITEM: ATOMS id type xs ys zs fx fy fz
1 1 0.964243 0.338535 0.593597 0 1.52588e-05 -1.90735e-06
2 1 0.464243 0.338535 0.593597 0 3.8147e-06 0
3 1 0.220952 0.297219 0.0935971 0 -8.2016e-05 1.90735e-06
4 1 0.720952 0.297219 0.0935972 0 -8.39233e-05 0
5 1 0.194213 0.46189 0.593597 0 -0.000101089 1.90735e-06
6 1 0.694213 0.46189 0.593597 0 -0.000118256 3.8147e-06
7 1 0.950839 0.421081 0.0935973 0 0.000217438 -1.90735e-06
8 1 0.450839 0.421081 0.0935971 0 0.000209808 1.90735e-06
9 1 0.924142 0.585493 0.593596 0 -0.000219345 1.71661e-05
10 1 0.424142 0.585493 0.593596 0 -0.000221252 2.09808e-05
11 1 0.15403 0.709356 0.593597 0 7.62939e-05 3.8147e-06
12 1 0.65403 0.709356 0.593597 0 8.2016e-05 7.62939e-06
13 1 0.910738 0.668039 0.0935973 0 5.72205e-06 -9.53674e-06
14 1 0.180769 0.544685 0.0935975 0 0.000102997 -1.52588e-05
15 1 0.680769 0.544684 0.0935979 0 0.000116348 -2.09808e-05
16 1 0.410739 0.668039 0.0935972 0 3.8147e-06 -9.53674e-06
17 1 0.883791 0.83399 0.593597 0 0.000183105 0
18 1 0.383792 0.83399 0.593597 0 0.000185013 1.90735e-06
19 1 0.113268 0.960382 0.593597 0 -0.000106812 3.8147e-06
20 1 0.613268 0.960383 0.593597 0 -0.000114441 5.72205e-06
21 1 0.140777 0.790972 0.0935972 0 -0.00028038 0
22 1 0.640777 0.790972 0.0935972 0 -0.000289917 -1.90735e-06
23 1 0.870982 0.912879 0.0935973 0 -0.000137329 -3.8147e-06
24 1 0.370982 0.912879 0.0935974 0 -0.0001297 -7.62939e-06
25 1 0.00399947 0.0936954 0.593597 0 0.000127792 -1.90735e-06
26 1 0.504 0.0936954 0.593597 0 0.000141144 3.8147e-06
27 1 0.261713 0.0461919 0.0935971 0 0.000108719 -1.90735e-06
28 1 0.761713 0.0461917 0.0935973 0 0.000116348 0
29 1 0.234205 0.215602 0.593597 0 0.000286102 1.90735e-06
30 1 0.734205 0.215602 0.593597 0 0.00028038 5.72205e-06
31 1 0.99119 0.172584 0.0935968 0 -0.00018692 5.72205e-06
32 1 0.49119 0.172585 0.0935974 0 -0.000190735 -1.14441e-05
ITEM: TIMESTEP
9
ITEM: NUMBER OF ATOMS
32
ITEM: BOX BOUNDS xy xz yz pp pp pp
-4.7826766967773438e-03 7.4392231106758118e+00 1.0398914217948914e+00
-3.7661075592041016e-02 2.2120539069175720e+01 0.0000000000000000e+00
-1.1393904685974121e-02 5.1938598752021790e+00 0.0000000000000000e+00
ITEM: ATOMS id type xs ys zs fx fy fz
1 1 0.964243 0.338535 0.593597 0 8.01086e-05 -1.90735e-06
2 1 0.464243 0.338535 0.593597 0 9.53674e-05 1.90735e-06
3 1 0.220952 0.297218 0.0935972 0 6.48499e-05 -3.8147e-06
4 1 0.720952 0.297218 0.0935972 0 6.48499e-05 0
5 1 0.194213 0.461886 0.593597 0 -1.14441e-05 -7.62939e-06
6 1 0.694214 0.461886 0.593597 0 -3.8147e-06 -5.72205e-06
7 1 0.950838 0.421086 0.0935972 0 1.52588e-05 3.8147e-06
8 1 0.450839 0.421086 0.0935972 0 2.09808e-05 1.90735e-06
9 1 0.924143 0.585488 0.593598 0 -7.62939e-06 -1.33514e-05
10 1 0.424143 0.585488 0.593597 0 -9.53674e-06 -1.71661e-05
11 1 0.15403 0.709356 0.593597 0 -5.72205e-05 -3.8147e-06
12 1 0.65403 0.709356 0.593597 0 -5.91278e-05 -7.62939e-06
13 1 0.910738 0.66804 0.0935966 0 -9.34601e-05 1.33514e-05
14 1 0.180768 0.544688 0.0935963 0 3.8147e-06 1.33514e-05
15 1 0.680768 0.544688 0.0935963 0 -3.8147e-06 1.33514e-05
16 1 0.410739 0.66804 0.0935965 0 -9.72748e-05 7.62939e-06
17 1 0.883791 0.833993 0.593597 0 5.72205e-06 -3.8147e-06
18 1 0.383791 0.833993 0.593597 0 9.53674e-06 -1.90735e-06
19 1 0.113268 0.960383 0.593597 0 1.90735e-05 -1.90735e-06
20 1 0.613268 0.960383 0.593597 0 2.86102e-05 -3.8147e-06
21 1 0.140778 0.790967 0.0935972 0 -6.48499e-05 0
22 1 0.640778 0.790967 0.0935971 0 -5.72205e-05 3.8147e-06
23 1 0.870982 0.912875 0.093597 0 4.3869e-05 0
24 1 0.370983 0.912875 0.0935968 0 3.24249e-05 5.72205e-06
25 1 0.0039989 0.093699 0.593597 0 -3.24249e-05 1.90735e-06
26 1 0.503999 0.0936992 0.593597 0 -4.00543e-05 -5.72205e-06
27 1 0.261713 0.0461916 0.093597 0 -2.28882e-05 1.90735e-06
28 1 0.761713 0.0461916 0.0935973 0 -2.86102e-05 -3.8147e-06
29 1 0.234204 0.215607 0.593597 0 4.57764e-05 1.90735e-06
30 1 0.734204 0.215607 0.593597 0 3.8147e-05 -1.90735e-06
31 1 0.99119 0.172581 0.0935972 0 1.33514e-05 3.8147e-06
32 1 0.49119 0.172581 0.0935966 0 7.62939e-06 9.53674e-06
ITEM: TIMESTEP
10
ITEM: NUMBER OF ATOMS
32
ITEM: BOX BOUNDS xy xz yz pp pp pp
-4.7826766967773438e-03 7.4392231106758118e+00 1.0398914217948914e+00
-3.7661075592041016e-02 2.2120539069175720e+01 0.0000000000000000e+00
-1.1393904685974121e-02 5.1938598752021790e+00 0.0000000000000000e+00
ITEM: ATOMS id type xs ys zs fx fy fz
1 1 0.964243 0.338535 0.593597 0 8.01086e-05 -1.90735e-06
2 1 0.464243 0.338535 0.593597 0 9.53674e-05 1.90735e-06
3 1 0.220952 0.297218 0.0935972 0 6.48499e-05 -3.8147e-06
4 1 0.720952 0.297218 0.0935972 0 6.48499e-05 0
5 1 0.194213 0.461886 0.593597 0 -1.14441e-05 -7.62939e-06
6 1 0.694214 0.461886 0.593597 0 -3.8147e-06 -5.72205e-06
7 1 0.950838 0.421086 0.0935972 0 1.52588e-05 3.8147e-06
8 1 0.450839 0.421086 0.0935972 0 2.09808e-05 1.90735e-06
9 1 0.924143 0.585488 0.593598 0 -7.62939e-06 -1.33514e-05
10 1 0.424143 0.585488 0.593597 0 -9.53674e-06 -1.71661e-05
11 1 0.15403 0.709356 0.593597 0 -5.72205e-05 -3.8147e-06
12 1 0.65403 0.709356 0.593597 0 -5.91278e-05 -7.62939e-06
13 1 0.910738 0.66804 0.0935966 0 -9.34601e-05 1.33514e-05
14 1 0.180768 0.544688 0.0935963 0 3.8147e-06 1.33514e-05
15 1 0.680768 0.544688 0.0935963 0 -3.8147e-06 1.33514e-05
16 1 0.410739 0.66804 0.0935965 0 -9.72748e-05 7.62939e-06
17 1 0.883791 0.833993 0.593597 0 5.72205e-06 -3.8147e-06
18 1 0.383791 0.833993 0.593597 0 9.53674e-06 -1.90735e-06
19 1 0.113268 0.960383 0.593597 0 1.90735e-05 -1.90735e-06
20 1 0.613268 0.960383 0.593597 0 2.86102e-05 -3.8147e-06
21 1 0.140778 0.790967 0.0935972 0 -6.48499e-05 0
22 1 0.640778 0.790967 0.0935971 0 -5.72205e-05 3.8147e-06
23 1 0.870982 0.912875 0.093597 0 4.3869e-05 0
24 1 0.370983 0.912875 0.0935968 0 3.24249e-05 5.72205e-06
25 1 0.0039989 0.093699 0.593597 0 -3.24249e-05 1.90735e-06
26 1 0.503999 0.0936992 0.593597 0 -4.00543e-05 -5.72205e-06
27 1 0.261713 0.0461916 0.093597 0 -2.28882e-05 1.90735e-06
28 1 0.761713 0.0461916 0.0935973 0 -2.86102e-05 -3.8147e-06
29 1 0.234204 0.215607 0.593597 0 4.57764e-05 1.90735e-06
30 1 0.734204 0.215607 0.593597 0 3.8147e-05 -1.90735e-06
31 1 0.99119 0.172581 0.0935972 0 1.33514e-05 3.8147e-06
32 1 0.49119 0.172581 0.0935966 0 7.62939e-06 9.53674e-06
