ITEM: TIMESTEP
0
ITEM: NUMBER OF ATOMS
48
ITEM: BOX BOUNDS xy xz yz pp pp pp
-5.1485439868292913e+00 8.5889536499827912e+00 2.5120357483981479e+00
-2.3252728783138264e-03 9.4515407374878730e+00 -5.1569485181446506e+00
9.2526380721303085e-04 1.9516202358592782e+01 2.0640487290955647e-01
ITEM: ATOMS id type xs ys zs fx fy fz
1 1 0.948317 0.167048 0.0318988 0 0 2.97424
2 1 0.502851 0.074165 0.0529524 0 0 0.0398785
3 1 0.594428 0.12485 0.656954 0 0 -0.00732164
4 1 0.802459 0.948828 0.927931 0 0 -2.97424
5 1 0.478052 0.157077 0.80274 0 0 -0.00318883
6 1 0.247925 0.0417114 0.906878 0 0 -0.0398793
7 1 0.923396 0.249755 0.781855 0 0 -0.0234988
8 1 0.932373 0.208448 0.407115 0 0 -0.00183201
9 1 0.149228 0.0322453 0.677678 0 0 0.00709018
10 1 0.818403 0.240762 0.552715 0 0 0.0018334
11 1 0.82738 0.199455 0.177975 0 0 0.0234999
12 1 0.601547 0.083631 0.282152 0 0 -0.00709036
13 1 0.272724 0.292133 0.15709 0 0 0.0031894
14 1 0.487194 0.115898 0.427787 0 0 0.000176626
15 1 0.948317 0.500382 0.0318988 0 0 2.97424
16 1 0.502851 0.407498 0.0529524 0 0 0.0398788
17 1 0.594428 0.458184 0.656954 0 0 -0.00732136
18 1 0.802459 0.282161 0.927931 0 0 -2.97424
19 1 0.478052 0.49041 0.80274 0 0 -0.00318846
20 1 0.247925 0.375045 0.906878 0 0 -0.0398795
21 1 0.923396 0.583088 0.781855 0 0 -0.023499
22 1 0.263581 0.333312 0.532044 0 0 -0.000176157
23 1 0.932373 0.541781 0.407115 0 0 -0.00183189
24 1 0.149228 0.365579 0.677678 0 0 0.0070896
25 1 0.818403 0.574095 0.552715 0 0 0.00183296
26 1 0.156347 0.324359 0.302876 0 0 0.00732133
27 1 0.82738 0.532788 0.177975 0 0 0.0234992
28 1 0.601548 0.416964 0.282152 0 0 -0.00709017
29 1 0.272724 0.625466 0.15709 0 0 0.00318731
30 1 0.487194 0.449231 0.427787 0 0 0.000175654
31 1 0.948316 0.833715 0.0318988 0 0 2.97424
32 1 0.502851 0.740832 0.0529524 0 0 0.039878
33 1 0.594428 0.791517 0.656954 0 0 -0.00732215
34 1 0.802459 0.615495 0.927931 0 0 -2.97424
35 1 0.478052 0.823743 0.80274 0 0 -0.00318869
36 1 0.247925 0.708378 0.906878 0 0 -0.0398792
37 1 0.923396 0.916422 0.781855 0 0 -0.0234988
38 1 0.263581 0.666645 0.532044 0 0 -0.000176068
39 1 0.932372 0.875115 0.407115 0 0 -0.00183205
40 1 0.149228 0.698912 0.677678 0 0 0.00708976
41 1 0.818403 0.907428 0.552715 0 0 0.0018303
42 1 0.156347 0.657693 0.302876 0 0 0.00732368
43 1 0.82738 0.866121 0.177975 0 0 0.0235001
44 1 0.601547 0.750298 0.282152 0 0 -0.00708935
45 1 0.272724 0.9588 0.15709 0 0 0.00318871
46 1 0.487194 0.782564 0.427787 0 0 0.00017625
47 1 0.263581 0.999979 0.532044 0 0 -0.000176738
48 1 0.156347 0.991026 0.302876 0 0 0.00732174
ITEM: TIMESTEP
11
ITEM: NUMBER OF ATOMS
48
ITEM: BOX BOUNDS xy xz yz pp pp pp
-5.1485439868292913e+00 8.5889536499827912e+00 2.5120357483981479e+00
-2.3252728783138264e-03 9.4515407374878730e+00 -5.1569485181446506e+00
9.2526380721303085e-04 1.9516202358592782e+01 2.0640487290955647e-01
ITEM: ATOMS id type xs ys zs fx fy fz
1 1 0.961426 0.166708 0.0471601 0 0 0.000154791
2 1 0.504953 0.0741104 0.0554003 0 0 7.3914e-05
3 1 0.590797 0.124945 0.652727 0 0 -7.101e-05
4 1 0.789349 0.949169 0.91267 0 0 -0.000153362
5 1 0.472121 0.157231 0.795836 0 0 -5.63469e-05
6 1 0.245822 0.041766 0.90443 0 0 -7.48141e-05
7 1 0.917797 0.249901 0.775338 0 0 -0.000498697
8 1 0.933367 0.208422 0.408273 0 0 -0.000453126
9 1 0.146012 0.0323289 0.673934 0 0 -9.10241e-05
10 1 0.817408 0.240787 0.551557 0 0 0.000454777
11 1 0.832979 0.199309 0.184493 0 0 0.000500948
12 1 0.604763 0.0835475 0.285896 0 0 9.02587e-05
13 1 0.278654 0.291979 0.163994 0 0 5.63158e-05
14 1 0.488485 0.115864 0.429289 0 0 -0.000531329
15 1 0.961426 0.500041 0.0471601 0 0 0.000158326
16 1 0.504953 0.407444 0.0554003 0 0 7.40764e-05
17 1 0.590797 0.458278 0.652727 0 0 -7.02085e-05
18 1 0.789349 0.282502 0.91267 0 0 -0.00015363
19 1 0.472121 0.490564 0.795836 0 0 -5.80828e-05
20 1 0.245822 0.375099 0.90443 0 0 -7.47673e-05
21 1 0.917797 0.583234 0.775338 0 0 -0.000496905
22 1 0.262291 0.333346 0.530542 0 0 0.00053196
23 1 0.933367 0.541755 0.408273 0 0 -0.000452955
24 1 0.146012 0.365662 0.673934 0 0 -9.05458e-05
25 1 0.817408 0.574121 0.551557 0 0 0.000454709
26 1 0.159978 0.324265 0.307103 0 0 6.75747e-05
27 1 0.832979 0.532642 0.184493 0 0 0.000500314
28 1 0.604763 0.416881 0.285896 0 0 8.8721e-05
29 1 0.278654 0.625312 0.163994 0 0 5.77068e-05
30 1 0.488485 0.449197 0.429289 0 0 -0.000531193
31 1 0.961426 0.833374 0.0471601 0 0 0.000154259
32 1 0.504953 0.740777 0.0554003 0 0 7.37022e-05
33 1 0.590797 0.791611 0.652727 0 0 -6.88408e-05
34 1 0.789349 0.615835 0.91267 0 0 -0.000160054
35 1 0.472121 0.823897 0.795836 0 0 -5.60616e-05
36 1 0.245822 0.708433 0.90443 0 0 -7.41431e-05
37 1 0.917797 0.916567 0.775338 0 0 -0.000499138
38 1 0.262291 0.666679 0.530542 0 0 0.000531663
39 1 0.933367 0.875089 0.408273 0 0 -0.00045453
40 1 0.146012 0.698996 0.673934 0 0 -9.07659e-05
41 1 0.817408 0.907454 0.551557 0 0 0.000454678
42 1 0.159978 0.657598 0.307103 0 0 6.77364e-05
43 1 0.832979 0.865976 0.184493 0 0 0.000499949
44 1 0.604763 0.750214 0.285896 0 0 8.89674e-05
45 1 0.278654 0.958646 0.163994 0 0 5.83788e-05
46 1 0.488485 0.782531 0.429289 0 0 -0.00053078
47 1 0.262291 1.00001 0.530542 0 0 0.000531787
48 1 0.159978 0.990932 0.307103 0 0 6.7515e-05
