ITEM: TIMESTEP
0
ITEM: NUMBER OF ATOMS
48
ITEM: BOX BOUNDS xy xz yz pp pp pp
-3.4969350695610046e+00 8.6109705567359924e+00 2.5110912919044495e+00
-1.0506033897399902e-02 9.6185076832771301e+00 -3.4823782444000244e+00
-2.6944518089294434e-02 1.9544072151184082e+01 3.6519104242324829e-01
ITEM: ATOMS id type xs ys zs fx fy fz
2 1 0.489306 0.0752984 0.0528317 0 0 0.435829
3 1 0.408595 0.123911 0.656998 0 0 -0.000393152
5 1 0.251181 0.158632 0.802832 0 0 0.00589728
12 1 0.527657 0.0822446 0.281998 0 0 0.00164557
13 1 0.234011 0.290578 0.156998 0 0 -0.00589728
14 1 0.370244 0.116965 0.427832 0 0 -1.80006e-05
16 1 0.489306 0.408632 0.0528317 0 0 0.435829
17 1 0.408595 0.457245 0.656998 0 0 -0.00039351
19 1 0.251181 0.491965 0.802832 0 0 0.00589693
22 1 0.114949 0.332245 0.531998 0 0 1.89543e-05
26 1 0.0765981 0.325298 0.302832 0 0 0.000393033
28 1 0.527657 0.415578 0.281998 0 0 0.00164545
29 1 0.234011 0.623911 0.156998 0 0 -0.00589752
30 1 0.370244 0.450298 0.427832 0 0 -1.85966e-05
32 1 0.489306 0.741965 0.0528317 0 0 0.43583
33 1 0.408595 0.790578 0.656998 0 0 -0.000393152
35 1 0.251181 0.825298 0.802832 0 0 0.00589752
38 1 0.114949 0.665578 0.531998 0 0 1.77622e-05
42 1 0.076598 0.658632 0.302832 0 0 0.000393391
44 1 0.527657 0.748911 0.281998 0 0 0.00164533
45 1 0.234011 0.957245 0.156998 0 0 -0.00589764
46 1 0.370244 0.783632 0.427832 0 0 -1.80006e-05
47 1 0.114949 0.998911 0.531998 0 0 1.8239e-05
48 1 0.076598 0.991965 0.302832 0 0 0.00039351
1 1 0.940365 0.165578 0.0319985 0 0 0.779485
4 1 0.544827 0.950298 0.927832 0 0 -0.779483
6 1 0.995886 0.040578 0.906998 0 0 -0.435831
7 1 0.70224 0.248911 0.781998 0 0 -0.00308049
8 1 0.821303 0.207245 0.406998 0 0 0.00109529
9 1 0.957536 0.0336318 0.677832 0 0 -0.00164533
10 1 0.66389 0.241965 0.552832 0 0 -0.00109494
11 1 0.782952 0.200298 0.177832 0 0 0.00308049
15 1 0.940366 0.498911 0.0319984 0 0 0.779485
18 1 0.544827 0.283632 0.927832 0 0 -0.779484
20 1 0.995886 0.373911 0.906998 0 0 -0.43583
21 1 0.70224 0.582245 0.781998 0 0 -0.00308073
23 1 0.821303 0.540578 0.406998 0 0 0.00109529
24 1 0.957536 0.366965 0.677832 0 0 -0.00164533
25 1 0.66389 0.575298 0.552832 0 0 -0.00109541
27 1 0.782952 0.533632 0.177832 0 0 0.00307977
31 1 0.940365 0.832245 0.0319985 0 0 0.779484
34 1 0.544827 0.616965 0.927832 0 0 -0.779484
36 1 0.995886 0.707245 0.906998 0 0 -0.43583
37 1 0.70224 0.915578 0.781998 0 0 -0.00308096
39 1 0.821303 0.873911 0.406998 0 0 0.00109553
40 1 0.957536 0.700298 0.677832 0 0 -0.00164461
41 1 0.66389 0.908632 0.552832 0 0 -0.00109625
43 1 0.782952 0.866965 0.177832 0 0 0.00308037
ITEM: TIMESTEP
1
ITEM: NUMBER OF ATOMS
48
ITEM: BOX BOUNDS xy xz yz pp pp pp
-3.4969350695610046e+00 8.6109705567359924e+00 2.5110912919044495e+00
-1.0506033897399902e-02 9.6185076832771301e+00 -3.4823782444000244e+00
-2.6944518089294434e-02 1.9544072151184082e+01 3.6519104242324829e-01
ITEM: ATOMS id type xs ys zs fx fy fz
2 1 0.49098 0.0751858 0.0556886 0 0 0.0623069
3 1 0.408593 0.123911 0.656996 0 0 -0.0096395
5 1 0.251204 0.15863 0.80287 0 0 -0.0998021
12 1 0.527663 0.0822442 0.282009 0 0 0.00904393
13 1 0.233989 0.290579 0.15696 0 0 0.099802
14 1 0.370244 0.116965 0.427832 0 0 -0.00146544
16 1 0.49098 0.408519 0.0556886 0 0 0.0623069
17 1 0.408593 0.457245 0.656996 0 0 -0.00963962
19 1 0.251204 0.491964 0.80287 0 0 -0.099802
22 1 0.114949 0.332245 0.531999 0 0 0.00146616
26 1 0.0765996 0.325298 0.302834 0 0 0.00963926
28 1 0.527663 0.415578 0.282009 0 0 0.00904393
29 1 0.233989 0.623913 0.15696 0 0 0.0998018
30 1 0.370244 0.450298 0.427832 0 0 -0.0014658
32 1 0.49098 0.741852 0.0556886 0 0 0.062307
33 1 0.408593 0.790578 0.656996 0 0 -0.00963962
35 1 0.251204 0.825297 0.80287 0 0 -0.0998019
38 1 0.114949 0.665578 0.531999 0 0 0.00146604
42 1 0.0765996 0.658632 0.302834 0 0 0.0096395
44 1 0.527663 0.748911 0.282009 0 0 0.00904441
45 1 0.233989 0.957246 0.15696 0 0 0.0998021
46 1 0.370244 0.783632 0.427832 0 0 -0.00146556
47 1 0.114949 0.998911 0.531999 0 0 0.00146556
48 1 0.0765996 0.991965 0.302834 0 0 0.0096395
1 1 0.943358 0.165377 0.037108 0 0 0.170639
4 1 0.541834 0.9505 0.922722 0 0 -0.170639
6 1 0.994213 0.0406906 0.904142 0 0 -0.062307
7 1 0.702229 0.248912 0.781978 0 0 -0.1002
8 1 0.821307 0.207244 0.407006 0 0 -0.00125158
9 1 0.957529 0.0336322 0.677821 0 0 -0.00904429
10 1 0.663886 0.241965 0.552825 0 0 0.00125134
11 1 0.782964 0.200298 0.177852 0 0 0.100201
15 1 0.943358 0.49871 0.037108 0 0 0.170639
18 1 0.541834 0.283833 0.922722 0 0 -0.170639
20 1 0.994213 0.374024 0.904142 0 0 -0.0623071
21 1 0.702229 0.582245 0.781978 0 0 -0.100201
23 1 0.821307 0.540578 0.407006 0 0 -0.00125146
24 1 0.957529 0.366966 0.677821 0 0 -0.00904369
25 1 0.663886 0.575299 0.552825 0 0 0.0012511
27 1 0.782964 0.533631 0.177852 0 0 0.1002
31 1 0.943358 0.832043 0.037108 0 0 0.170639
34 1 0.541834 0.617167 0.922722 0 0 -0.170639
36 1 0.994213 0.707357 0.904142 0 0 -0.0623069
37 1 0.702229 0.915579 0.781978 0 0 -0.100201
39 1 0.821307 0.873911 0.407006 0 0 -0.00125098
40 1 0.957529 0.700299 0.677821 0 0 -0.00904357
41 1 0.663886 0.908632 0.552825 0 0 0.00125098
43 1 0.782964 0.866964 0.177852 0 0 0.100201
ITEM: TIMESTEP
2
ITEM: NUMBER OF ATOMS
48
ITEM: BOX BOUNDS xy xz yz pp pp pp
-3.4969350695610046e+00 8.6109705567359924e+00 2.5110912919044495e+00
-1.0506033897399902e-02 9.6185076832771301e+00 -3.4823782444000244e+00
-2.6944518089294434e-02 1.9544072151184082e+01 3.6519104242324829e-01
ITEM: ATOMS id type xs ys zs fx fy fz
2 1 0.491679 0.0751387 0.056882 0 0 -0.0503093
3 1 0.408485 0.123919 0.656811 0 0 -0.0478237
5 1 0.250084 0.158706 0.800959 0 0 -0.0692012
12 1 0.527765 0.0822374 0.282182 0 0 0.047246
13 1 0.235108 0.290504 0.158871 0 0 0.0692012
14 1 0.370227 0.116966 0.427804 0 0 0.00860107
16 1 0.491679 0.408472 0.056882 0 0 -0.0503095
17 1 0.408485 0.457252 0.656811 0 0 -0.0478233
19 1 0.250084 0.492039 0.800959 0 0 -0.0692011
22 1 0.114965 0.332244 0.532027 0 0 -0.00860143
26 1 0.0767077 0.325291 0.303019 0 0 0.0478238
28 1 0.527765 0.415571 0.282182 0 0 0.047246
29 1 0.235108 0.623837 0.158871 0 0 0.0692014
30 1 0.370227 0.4503 0.427804 0 0 0.00860131
32 1 0.491679 0.741805 0.056882 0 0 -0.0503093
33 1 0.408485 0.790585 0.656811 0 0 -0.0478235
35 1 0.250084 0.825372 0.800959 0 0 -0.0692012
38 1 0.114965 0.665577 0.532027 0 0 -0.00860143
42 1 0.0767077 0.658624 0.303019 0 0 0.0478233
44 1 0.527765 0.748904 0.282182 0 0 0.0472459
45 1 0.235108 0.957171 0.158871 0 0 0.0692011
46 1 0.370227 0.783633 0.427804 0 0 0.00860143
47 1 0.114965 0.99891 0.532027 0 0 -0.00860143
48 1 0.0767077 0.991958 0.303019 0 0 0.0478237
1 1 0.945273 0.165248 0.0403763 0 0 -0.0785052
4 1 0.53992 0.950629 0.919454 0 0 0.0785055
6 1 0.993514 0.0407376 0.902948 0 0 0.0503094
7 1 0.701104 0.248988 0.780059 0 0 -0.0612973
8 1 0.821293 0.207245 0.406982 0 0 0.00637078
9 1 0.957428 0.033639 0.677648 0 0 -0.0472457
10 1 0.6639 0.241964 0.552848 0 0 -0.00637078
11 1 0.784088 0.200222 0.179771 0 0 0.0612969
15 1 0.945273 0.498581 0.0403763 0 0 -0.0785054
18 1 0.53992 0.283962 0.919454 0 0 0.078505
20 1 0.993514 0.374071 0.902948 0 0 0.0503098
21 1 0.701105 0.582321 0.780059 0 0 -0.0612968
23 1 0.821293 0.540579 0.406982 0 0 0.00637066
24 1 0.957428 0.366972 0.677648 0 0 -0.0472459
25 1 0.6639 0.575298 0.552848 0 0 -0.00637043
27 1 0.784088 0.533555 0.179771 0 0 0.0612969
31 1 0.945273 0.831914 0.0403763 0 0 -0.0785052
34 1 0.53992 0.617295 0.919454 0 0 0.0785049
36 1 0.993514 0.707404 0.902948 0 0 0.0503093
37 1 0.701104 0.915654 0.780059 0 0 -0.0612975
39 1 0.821293 0.873912 0.406982 0 0 0.00637102
40 1 0.957428 0.700306 0.677648 0 0 -0.0472461
41 1 0.6639 0.908631 0.552848 0 0 -0.00637066
43 1 0.784088 0.866889 0.179771 0 0 0.0612971
ITEM: TIMESTEP
3
ITEM: NUMBER OF ATOMS
48
ITEM: BOX BOUNDS xy xz yz pp pp pp
-3.4969350695610046e+00 8.6109705567359924e+00 2.5110912919044495e+00
-1.0506033897399902e-02 9.6185076832771301e+00 -3.4823782444000244e+00
-2.6944518089294434e-02 1.9544072151184082e+01 3.6519104242324829e-01
ITEM: ATOMS id type xs ys zs fx fy fz
2 1 0.491444 0.0751546 0.0564809 0 0 0.0186299
3 1 0.407917 0.123957 0.655842 0 0 -0.0531838
5 1 0.248833 0.15879 0.798822 0 0 0.0274305
12 1 0.528324 0.0821997 0.283136 0 0 0.0513111
13 1 0.23636 0.29042 0.161008 0 0 -0.0274304
14 1 0.370314 0.11696 0.427951 0 0 0.0245869
16 1 0.491444 0.408488 0.0564809 0 0 0.0186297
17 1 0.407917 0.45729 0.655842 0 0 -0.0531839
19 1 0.248833 0.492123 0.798822 0 0 0.0274305
22 1 0.114879 0.332249 0.53188 0 0 -0.0245875
26 1 0.0772757 0.325253 0.303989 0 0 0.0531839
28 1 0.528324 0.415533 0.283136 0 0 0.051311
29 1 0.23636 0.623753 0.161008 0 0 -0.0274302
30 1 0.370314 0.450294 0.427951 0 0 0.0245873
32 1 0.491444 0.741821 0.0564809 0 0 0.018629
33 1 0.407917 0.790624 0.655842 0 0 -0.0531839
35 1 0.248833 0.825456 0.798822 0 0 0.0274305
38 1 0.114879 0.665583 0.53188 0 0 -0.0245869
42 1 0.0772757 0.658586 0.303989 0 0 0.0531843
44 1 0.528324 0.748866 0.283136 0 0 0.051311
45 1 0.23636 0.957087 0.161008 0 0 -0.0274303
46 1 0.370314 0.783627 0.427951 0 0 0.0245867
47 1 0.114879 0.998916 0.53188 0 0 -0.0245866
48 1 0.0772757 0.991919 0.303989 0 0 0.0531842
1 1 0.945273 0.165248 0.0403776 0 0 -0.00321507
4 1 0.539919 0.950629 0.919453 0 0 0.00321496
6 1 0.993749 0.0407218 0.903349 0 0 -0.0186298
7 1 0.699937 0.249066 0.778066 0 0 0.0290905
8 1 0.821356 0.207241 0.407089 0 0 0.0208341
9 1 0.956869 0.0336766 0.676694 0 0 -0.0513114
10 1 0.663837 0.241969 0.552741 0 0 -0.0208337
11 1 0.785256 0.200143 0.181765 0 0 -0.0290905
15 1 0.945273 0.498581 0.0403776 0 0 -0.00321531
18 1 0.539919 0.283962 0.919453 0 0 0.00321484
20 1 0.993749 0.374055 0.903349 0 0 -0.0186293
21 1 0.699937 0.5824 0.778066 0 0 0.0290908
23 1 0.821356 0.540574 0.407089 0 0 0.020834
24 1 0.956869 0.36701 0.676694 0 0 -0.0513111
25 1 0.663837 0.575302 0.552741 0 0 -0.020834
27 1 0.785256 0.533477 0.181765 0 0 -0.0290903
31 1 0.945273 0.831914 0.0403776 0 0 -0.00321531
34 1 0.539919 0.617295 0.919453 0 0 0.00321507
36 1 0.993749 0.707388 0.903349 0 0 -0.0186296
37 1 0.699937 0.915733 0.778066 0 0 0.0290906
39 1 0.821356 0.873908 0.407089 0 0 0.0208333
40 1 0.956869 0.700343 0.676694 0 0 -0.0513111
41 1 0.663837 0.908635 0.552741 0 0 -0.0208338
43 1 0.785256 0.86681 0.181765 0 0 -0.0290908
ITEM: TIMESTEP
4
ITEM: NUMBER OF ATOMS
48
ITEM: BOX BOUNDS xy xz yz pp pp pp
-3.4969350695610046e+00 8.6109705567359924e+00 2.5110912919044495e+00
-1.0506033897399902e-02 9.6185076832771301e+00 -3.4823782444000244e+00
-2.6944518089294434e-02 1.9544072151184082e+01 3.6519104242324829e-01
ITEM: ATOMS id type xs ys zs fx fy fz
2 1 0.491587 0.0751449 0.0567255 0 0 0.0157324
3 1 0.407008 0.124018 0.654289 0 0 0.00778067
5 1 0.248678 0.1588 0.798558 0 0 0.00150526
12 1 0.529205 0.0821404 0.284641 0 0 -0.00850451
13 1 0.236515 0.290409 0.161272 0 0 -0.00150514
14 1 0.370663 0.116937 0.428547 0 0 0.0182068
16 1 0.491587 0.408478 0.0567255 0 0 0.0157326
17 1 0.407008 0.457351 0.654289 0 0 0.00778067
19 1 0.248678 0.492134 0.798558 0 0 0.00150514
22 1 0.11453 0.332273 0.531284 0 0 -0.0182065
26 1 0.0781849 0.325192 0.305541 0 0 -0.00778067
28 1 0.529205 0.415474 0.284641 0 0 -0.00850451
29 1 0.236515 0.623743 0.161272 0 0 -0.00150526
30 1 0.370663 0.45027 0.428547 0 0 0.0182068
32 1 0.491587 0.741812 0.0567255 0 0 0.0157328
33 1 0.407008 0.790685 0.654289 0 0 0.00778079
35 1 0.248678 0.825467 0.798558 0 0 0.0015049
38 1 0.11453 0.665606 0.531284 0 0 -0.018207
42 1 0.0781849 0.658525 0.305541 0 0 -0.00778079
44 1 0.529205 0.748807 0.284641 0 0 -0.00850439
45 1 0.236515 0.957076 0.161272 0 0 -0.00150537
46 1 0.370663 0.783604 0.428547 0 0 0.018207
47 1 0.11453 0.99894 0.531284 0 0 -0.0182068
48 1 0.0781849 0.991858 0.305541 0 0 -0.00778115
1 1 0.945233 0.16525 0.040308 0 0 0.00390446
4 1 0.53996 0.950626 0.919522 0 0 -0.00390458
6 1 0.993606 0.0407315 0.903105 0 0 -0.0157326
7 1 0.699837 0.249073 0.777895 0 0 -0.0019784
8 1 0.821648 0.207221 0.407587 0 0 0.0156201
9 1 0.955987 0.0337359 0.675189 0 0 0.00850475
10 1 0.663545 0.241988 0.552243 0 0 -0.0156201
11 1 0.785355 0.200137 0.181935 0 0 0.00197864
15 1 0.945233 0.498584 0.040308 0 0 0.00390553
18 1 0.53996 0.283959 0.919522 0 0 -0.00390446
20 1 0.993606 0.374065 0.903105 0 0 -0.0157334
21 1 0.699837 0.582406 0.777895 0 0 -0.00197816
23 1 0.821648 0.540555 0.407587 0 0 0.0156201
24 1 0.955988 0.367069 0.675189 0 0 0.00850391
25 1 0.663545 0.575322 0.552243 0 0 -0.01562
27 1 0.785355 0.53347 0.181935 0 0 0.00197792
31 1 0.945233 0.831917 0.040308 0 0 0.0039047
34 1 0.53996 0.617293 0.919522 0 0 -0.0039047
36 1 0.993606 0.707398 0.903105 0 0 -0.0157329
37 1 0.699837 0.91574 0.777895 0 0 -0.00197792
39 1 0.821648 0.873888 0.407587 0 0 0.0156202
40 1 0.955988 0.700403 0.675189 0 0 0.00850427
41 1 0.663545 0.908655 0.552243 0 0 -0.01562
43 1 0.785355 0.866803 0.181935 0 0 0.00197875
ITEM: TIMESTEP
5
ITEM: NUMBER OF ATOMS
48
ITEM: BOX BOUNDS xy xz yz pp pp pp
-3.4969350695610046e+00 8.6109705567359924e+00 2.5110912919044495e+00
-1.0506033897399902e-02 9.6185076832771301e+00 -3.4823782444000244e+00
-2.6944518089294434e-02 1.9544072151184082e+01 3.6519104242324829e-01
ITEM: ATOMS id type xs ys zs fx fy fz
2 1 0.491711 0.0751366 0.0569369 0 0 0.004704
3 1 0.407016 0.124018 0.654304 0 0 0.000762701
5 1 0.248681 0.1588 0.798562 0 0 -0.00128055
12 1 0.52919 0.0821414 0.284615 0 0 -0.00128007
13 1 0.236512 0.29041 0.161268 0 0 0.00128031
14 1 0.370816 0.116927 0.428808 0 0 -0.00121605
16 1 0.491711 0.40847 0.0569368 0 0 0.00470436
17 1 0.407016 0.457351 0.654304 0 0 0.000762463
19 1 0.248681 0.492133 0.798562 0 0 -0.00128055
22 1 0.114377 0.332283 0.531022 0 0 0.00121629
26 1 0.0781766 0.325192 0.305527 0 0 -0.000762701
28 1 0.52919 0.415475 0.284615 0 0 -0.00127995
29 1 0.236512 0.623743 0.161268 0 0 0.00128031
30 1 0.370816 0.45026 0.428808 0 0 -0.00121677
32 1 0.491711 0.741803 0.0569368 0 0 0.00470448
33 1 0.407016 0.790684 0.654304 0 0 0.000762343
35 1 0.248681 0.825467 0.798562 0 0 -0.00128043
38 1 0.114377 0.665616 0.531022 0 0 0.00121641
42 1 0.0781765 0.658525 0.305527 0 0 -0.000762463
44 1 0.52919 0.748808 0.284615 0 0 -0.00128019
45 1 0.236512 0.957076 0.161268 0 0 0.00128031
46 1 0.370816 0.783593 0.428808 0 0 -0.00121605
47 1 0.114377 0.99895 0.531022 0 0 0.00121617
48 1 0.0781765 0.991859 0.305527 0 0 -0.000762343
1 1 0.945259 0.165249 0.0403535 0 0 -0.00505531
4 1 0.539933 0.950628 0.919477 0 0 0.00505531
6 1 0.993482 0.0407398 0.902893 0 0 -0.004704
7 1 0.699817 0.249074 0.777861 0 0 -0.00371265
8 1 0.821779 0.207213 0.407811 0 0 -0.00228417
9 1 0.956003 0.0337349 0.675215 0 0 0.00128019
10 1 0.663414 0.241997 0.552019 0 0 0.00228405
11 1 0.785375 0.200135 0.181969 0 0 0.00371242
15 1 0.945259 0.498582 0.0403535 0 0 -0.00505567
18 1 0.539933 0.283961 0.919477 0 0 0.00505519
20 1 0.993482 0.374073 0.902893 0 0 -0.00470388
21 1 0.699817 0.582408 0.777861 0 0 -0.00371265
23 1 0.821779 0.540546 0.407811 0 0 -0.00228405
24 1 0.956003 0.367068 0.675215 0 0 0.00128019
25 1 0.663414 0.57533 0.552019 0 0 0.00228417
27 1 0.785375 0.533469 0.181969 0 0 0.00371313
31 1 0.945259 0.831915 0.0403535 0 0 -0.00505543
34 1 0.539933 0.617294 0.919477 0 0 0.00505519
36 1 0.993482 0.707406 0.902893 0 0 -0.00470388
37 1 0.699817 0.915741 0.777861 0 0 -0.00371277
39 1 0.821779 0.873879 0.407811 0 0 -0.00228369
40 1 0.956003 0.700402 0.675215 0 0 0.00128019
41 1 0.663414 0.908664 0.552019 0 0 0.00228369
43 1 0.785375 0.866802 0.181969 0 0 0.00371242
ITEM: TIMESTEP
6
ITEM: NUMBER OF ATOMS
48
ITEM: BOX BOUNDS xy xz yz pp pp pp
-3.4969350695610046e+00 8.6109705567359924e+00 2.5110912919044495e+00
-1.0506033897399902e-02 9.6185076832771301e+00 -3.4823782444000244e+00
-2.6944518089294434e-02 1.9544072151184082e+01 3.6519104242324829e-01
ITEM: ATOMS id type xs ys zs fx fy fz
2 1 0.49179 0.0751312 0.0570726 0 0 0.00295556
3 1 0.407028 0.124017 0.654323 0 0 -0.00162339
5 1 0.248663 0.158801 0.798532 0 0 0.00171709
12 1 0.52917 0.0821428 0.284582 0 0 0.00121641
13 1 0.23653 0.290408 0.161298 0 0 -0.00171709
14 1 0.370815 0.116927 0.428806 0 0 -0.00110865
16 1 0.49179 0.408465 0.0570726 0 0 0.00295556
17 1 0.407028 0.45735 0.654323 0 0 -0.00162315
19 1 0.248663 0.492135 0.798532 0 0 0.00171721
22 1 0.114378 0.332283 0.531024 0 0 0.00110853
26 1 0.0781649 0.325193 0.305507 0 0 0.00162351
28 1 0.52917 0.415476 0.284582 0 0 0.00121605
29 1 0.23653 0.623742 0.161298 0 0 -0.00171709
30 1 0.370815 0.45026 0.428806 0 0 -0.00110793
32 1 0.49179 0.741798 0.0570726 0 0 0.0029552
33 1 0.407028 0.790683 0.654323 0 0 -0.00162292
35 1 0.248663 0.825468 0.798532 0 0 0.00171709
38 1 0.114378 0.665616 0.531024 0 0 0.00110793
42 1 0.0781649 0.658526 0.305507 0 0 0.00162292
44 1 0.52917 0.748809 0.284582 0 0 0.00121629
45 1 0.23653 0.957075 0.161298 0 0 -0.00171721
46 1 0.370815 0.783593 0.428806 0 0 -0.00110853
47 1 0.114378 0.99895 0.531024 0 0 0.00110841
48 1 0.0781649 0.99186 0.305507 0 0 0.0016228
1 1 0.94519 0.165253 0.0402361 0 0 0.00165474
4 1 0.540002 0.950623 0.919594 0 0 -0.00165474
6 1 0.993402 0.0407452 0.902758 0 0 -0.00295568
7 1 0.699763 0.249078 0.777768 0 0 0.0012238
8 1 0.82176 0.207214 0.407779 0 0 -0.000850558
9 1 0.956022 0.0337336 0.675248 0 0 -0.00121665
10 1 0.663432 0.241996 0.552051 0 0 0.000850677
11 1 0.78543 0.200132 0.182062 0 0 -0.00122321
15 1 0.945191 0.498587 0.0402361 0 0 0.00165462
18 1 0.540002 0.283956 0.919594 0 0 -0.00165403
20 1 0.993402 0.374078 0.902758 0 0 -0.00295591
21 1 0.699763 0.582411 0.777768 0 0 0.00122333
23 1 0.82176 0.540547 0.407779 0 0 -0.000850916
24 1 0.956022 0.367067 0.675248 0 0 -0.00121665
25 1 0.663432 0.575329 0.552051 0 0 0.000850439
27 1 0.78543 0.533465 0.182062 0 0 -0.00122356
31 1 0.94519 0.83192 0.0402361 0 0 0.00165498
34 1 0.540002 0.61729 0.919594 0 0 -0.00165427
36 1 0.993402 0.707412 0.902758 0 0 -0.00295591
37 1 0.699763 0.915745 0.777768 0 0 0.00122356
39 1 0.82176 0.87388 0.407779 0 0 -0.000851154
40 1 0.956022 0.7004 0.675248 0 0 -0.00121629
41 1 0.663432 0.908663 0.552051 0 0 0.000851631
43 1 0.78543 0.866798 0.182062 0 0 -0.00122285
ITEM: TIMESTEP
7
ITEM: NUMBER OF ATOMS
48
ITEM: BOX BOUNDS xy xz yz pp pp pp
-3.4969350695610046e+00 8.6109705567359924e+00 2.5110912919044495e+00
-1.0506033897399902e-02 9.6185076832771301e+00 -3.4823782444000244e+00
-2.6944518089294434e-02 1.9544072151184082e+01 3.6519104242324829e-01
ITEM: ATOMS id type xs ys zs fx fy fz
2 1 0.491824 0.0751289 0.0571305 0 0 5.14984e-05
3 1 0.407018 0.124017 0.654307 0 0 -0.000356793
5 1 0.248672 0.158801 0.798548 0 0 6.61612e-05
12 1 0.529176 0.0821424 0.284591 0 0 0.000201821
13 1 0.23652 0.290409 0.161282 0 0 -6.58035e-05
14 1 0.370806 0.116927 0.428792 0 0 0.000247955
16 1 0.491824 0.408462 0.0571305 0 0 5.14984e-05
17 1 0.407018 0.457351 0.654307 0 0 -0.000357032
19 1 0.248672 0.492134 0.798548 0 0 6.63996e-05
22 1 0.114386 0.332283 0.531038 0 0 -0.000247836
26 1 0.0781747 0.325192 0.305523 0 0 0.000357032
28 1 0.529176 0.415476 0.284591 0 0 0.000201702
29 1 0.23652 0.623742 0.161282 0 0 -6.59227e-05
30 1 0.370806 0.450261 0.428792 0 0 0.000247955
32 1 0.491824 0.741796 0.0571305 0 0 5.16176e-05
33 1 0.407018 0.790684 0.654307 0 0 -0.000357032
35 1 0.248672 0.825467 0.798548 0 0 6.62804e-05
38 1 0.114386 0.665616 0.531038 0 0 -0.000247955
42 1 0.0781747 0.658526 0.305523 0 0 0.000357032
44 1 0.529176 0.748809 0.284591 0 0 0.000201821
45 1 0.23652 0.957076 0.161282 0 0 -6.56843e-05
46 1 0.370806 0.783594 0.428792 0 0 0.000247359
47 1 0.114386 0.998949 0.531038 0 0 -0.000247717
48 1 0.0781747 0.991859 0.305523 0 0 0.000357151
1 1 0.945191 0.165253 0.0402376 0 0 -0.000246286
4 1 0.540001 0.950623 0.919593 0 0 0.000246286
6 1 0.993368 0.0407474 0.9027 0 0 -5.1856e-05
7 1 0.699763 0.249078 0.777768 0 0 8.66652e-05
8 1 0.821751 0.207214 0.407764 0 0 0.000534177
9 1 0.956017 0.033734 0.675239 0 0 -0.000201702
10 1 0.663442 0.241995 0.552066 0 0 -0.000534296
11 1 0.78543 0.200132 0.182062 0 0 -8.64267e-05
15 1 0.945191 0.498586 0.0402376 0 0 -0.000246525
18 1 0.540001 0.283957 0.919593 0 0 0.000246406
20 1 0.993368 0.374081 0.9027 0 0 -5.1856e-05
21 1 0.699763 0.582411 0.777768 0 0 8.66652e-05
23 1 0.821751 0.540548 0.407764 0 0 0.000534296
24 1 0.956017 0.367067 0.675239 0 0 -0.000201702
25 1 0.663442 0.575329 0.552066 0 0 -0.000533938
27 1 0.78543 0.533465 0.182062 0 0 -8.72612e-05
31 1 0.945191 0.83192 0.0402376 0 0 -0.000246763
34 1 0.540001 0.61729 0.919593 0 0 0.000246406
36 1 0.993368 0.707414 0.9027 0 0 -5.16176e-05
37 1 0.699763 0.915745 0.777768 0 0 8.66652e-05
39 1 0.821751 0.873881 0.407764 0 0 0.000534415
40 1 0.956017 0.700401 0.675239 0 0 -0.000202179
41 1 0.663442 0.908662 0.552066 0 0 -0.000534177
43 1 0.78543 0.866798 0.182062 0 0 -8.69036e-05
ITEM: TIMESTEP
8
ITEM: NUMBER OF ATOMS
48
ITEM: BOX BOUNDS xy xz yz pp pp pp
-3.4969350695610046e+00 8.6109705567359924e+00 2.5110912919044495e+00
-1.0506033897399902e-02 9.6185076832771301e+00 -3.4823782444000244e+00
-2.6944518089294434e-02 1.9544072151184082e+01 3.6519104242324829e-01
ITEM: ATOMS id type xs ys zs fx fy fz
2 1 0.491826 0.0751288 0.0571339 0 0 -1.0252e-05
3 1 0.407013 0.124018 0.654299 0 0 -6.42538e-05
5 1 0.248674 0.158801 0.79855 0 0 -0.000146508
12 1 0.529178 0.0821422 0.284596 0 0 0.000106692
13 1 0.236519 0.290409 0.16128 0 0 0.000146031
14 1 0.370809 0.116927 0.428797 0 0 -1.5378e-05
16 1 0.491826 0.408462 0.0571339 0 0 -9.89437e-06
17 1 0.407013 0.457351 0.654299 0 0 -6.38962e-05
19 1 0.248674 0.492134 0.79855 0 0 -0.000147223
22 1 0.114384 0.332283 0.531034 0 0 1.52588e-05
26 1 0.0781793 0.325192 0.305531 0 0 6.40154e-05
28 1 0.529178 0.415476 0.284596 0 0 0.000106454
29 1 0.236519 0.623742 0.16128 0 0 0.000146031
30 1 0.370809 0.45026 0.428797 0 0 -1.5378e-05
32 1 0.491826 0.741795 0.0571339 0 0 -1.00136e-05
33 1 0.407013 0.790684 0.654299 0 0 -6.3777e-05
35 1 0.248674 0.825467 0.79855 0 0 -0.000146866
38 1 0.114384 0.665616 0.531034 0 0 1.56164e-05
42 1 0.0781793 0.658525 0.305531 0 0 6.38962e-05
44 1 0.529178 0.748809 0.284596 0 0 0.000106335
45 1 0.236519 0.957076 0.16128 0 0 0.000146031
46 1 0.370809 0.783594 0.428797 0 0 -1.4782e-05
47 1 0.114384 0.998949 0.531034 0 0 1.51396e-05
48 1 0.0781793 0.991859 0.305531 0 0 6.3777e-05
1 1 0.945188 0.165253 0.0402327 0 0 -1.39475e-05
4 1 0.540004 0.950623 0.919597 0 0 1.41859e-05
6 1 0.993366 0.0407476 0.902696 0 0 1.0252e-05
7 1 0.699764 0.249078 0.77777 0 0 -0.000152469
8 1 0.821757 0.207214 0.407774 0 0 -3.75509e-05
9 1 0.956014 0.0337341 0.675234 0 0 -0.000106573
10 1 0.663436 0.241996 0.552056 0 0 3.74317e-05
11 1 0.785429 0.200132 0.18206 0 0 0.000152946
15 1 0.945189 0.498587 0.0402327 0 0 -1.35899e-05
18 1 0.540004 0.283956 0.919597 0 0 1.38283e-05
20 1 0.993366 0.374081 0.902696 0 0 1.03712e-05
21 1 0.699764 0.582411 0.77777 0 0 -0.000152707
23 1 0.821757 0.540547 0.407774 0 0 -3.74317e-05
24 1 0.956014 0.367067 0.675234 0 0 -0.000106335
25 1 0.663436 0.575329 0.552056 0 0 3.70741e-05
27 1 0.785429 0.533465 0.18206 0 0 0.000152946
31 1 0.945188 0.83192 0.0402327 0 0 -1.35899e-05
34 1 0.540004 0.61729 0.919597 0 0 1.39475e-05
36 1 0.993366 0.707414 0.902696 0 0 1.01328e-05
37 1 0.699764 0.915745 0.77777 0 0 -0.000152826
39 1 0.821757 0.873881 0.407774 0 0 -3.73125e-05
40 1 0.956014 0.700401 0.675234 0 0 -0.000106215
41 1 0.663436 0.908662 0.552056 0 0 3.74317e-05
43 1 0.785429 0.866798 0.18206 0 0 0.000152946
ITEM: TIMESTEP
9
ITEM: NUMBER OF ATOMS
48
ITEM: BOX BOUNDS xy xz yz pp pp pp
-3.4969350695610046e+00 8.6109705567359924e+00 2.5110912919044495e+00
-1.0506033897399902e-02 9.6185076832771301e+00 -3.4823782444000244e+00
-2.6944518089294434e-02 1.9544072151184082e+01 3.6519104242324829e-01
ITEM: ATOMS id type xs ys zs fx fy fz
2 1 0.491826 0.0751288 0.0571341 0 0 0.000109434
3 1 0.407012 0.124018 0.654296 0 0 -1.74046e-05
5 1 0.248671 0.158801 0.798546 0 0 -7.27177e-06
12 1 0.529181 0.0821421 0.2846 0 0 1.65701e-05
13 1 0.236521 0.290409 0.161284 0 0 7.86781e-06
14 1 0.370809 0.116927 0.428797 0 0 5.22137e-05
16 1 0.491826 0.408462 0.0571341 0 0 0.000108838
17 1 0.407012 0.457351 0.654296 0 0 -1.78814e-05
19 1 0.248671 0.492134 0.798546 0 0 -6.55651e-06
22 1 0.114383 0.332283 0.531033 0 0 -5.1856e-05
26 1 0.0781811 0.325192 0.305534 0 0 1.74046e-05
28 1 0.529181 0.415475 0.2846 0 0 1.72853e-05
29 1 0.236521 0.623742 0.161284 0 0 7.98702e-06
30 1 0.370809 0.45026 0.428797 0 0 5.19753e-05
32 1 0.491826 0.741795 0.0571341 0 0 0.000109315
33 1 0.407012 0.790685 0.654296 0 0 -1.77622e-05
35 1 0.248671 0.825467 0.798546 0 0 -6.67572e-06
38 1 0.114383 0.665616 0.531033 0 0 -5.24521e-05
42 1 0.0781811 0.658525 0.305534 0 0 1.77622e-05
44 1 0.529181 0.748809 0.2846 0 0 1.74046e-05
45 1 0.236521 0.957076 0.161284 0 0 7.7486e-06
46 1 0.370809 0.783594 0.428797 0 0 5.13792e-05
47 1 0.114383 0.998949 0.531033 0 0 -5.20945e-05
48 1 0.0781811 0.991859 0.305534 0 0 1.80006e-05
1 1 0.945188 0.165253 0.0402316 0 0 0.000184536
4 1 0.540005 0.950623 0.919599 0 0 -0.00018549
6 1 0.993366 0.0407476 0.902696 0 0 -0.000108719
7 1 0.699761 0.249078 0.777766 0 0 -6.79493e-06
8 1 0.821757 0.207214 0.407774 0 0 1.28746e-05
9 1 0.956012 0.0337343 0.675231 0 0 -1.69277e-05
10 1 0.663435 0.241996 0.552056 0 0 -1.27554e-05
11 1 0.785431 0.200132 0.182064 0 0 5.72205e-06
15 1 0.945188 0.498587 0.0402316 0 0 0.000184536
18 1 0.540005 0.283956 0.919599 0 0 -0.000184655
20 1 0.993366 0.374081 0.902696 0 0 -0.000109434
21 1 0.699761 0.582412 0.777766 0 0 -6.07967e-06
23 1 0.821757 0.540547 0.407774 0 0 1.27554e-05
24 1 0.956012 0.367068 0.675231 0 0 -1.70469e-05
25 1 0.663435 0.575329 0.552056 0 0 -1.26362e-05
27 1 0.785431 0.533465 0.182064 0 0 6.31809e-06
31 1 0.945188 0.83192 0.0402316 0 0 0.000184417
34 1 0.540005 0.61729 0.919599 0 0 -0.000185013
36 1 0.993366 0.707414 0.902696 0 0 -0.000109315
37 1 0.699761 0.915745 0.777766 0 0 -5.84126e-06
39 1 0.821757 0.873881 0.407774 0 0 1.22786e-05
40 1 0.956012 0.700401 0.675231 0 0 -1.71661e-05
41 1 0.663435 0.908662 0.552056 0 0 -1.26362e-05
43 1 0.785431 0.866798 0.182064 0 0 5.84126e-06
ITEM: TIMESTEP
10
ITEM: NUMBER OF ATOMS
48
ITEM: BOX BOUNDS xy xz yz pp pp pp
-3.4969350695610046e+00 8.6109705567359924e+00 2.5110912919044495e+00
-1.0506033897399902e-02 9.6185076832771301e+00 -3.4823782444000244e+00
-2.6944518089294434e-02 1.9544072151184082e+01 3.6519104242324829e-01
ITEM: ATOMS id type xs ys zs fx fy fz
2 1 0.491827 0.0751287 0.057136 0 0 -6.31809e-06
3 1 0.40701 0.124018 0.654294 0 0 -7.15256e-07
5 1 0.24867 0.158801 0.798544 0 0 -1.07288e-05
12 1 0.529182 0.082142 0.284602 0 0 -2.2769e-05
13 1 0.236522 0.290409 0.161286 0 0 1.0848e-05
14 1 0.37081 0.116927 0.428798 0 0 3.39746e-05
16 1 0.491827 0.408462 0.057136 0 0 -6.79493e-06
17 1 0.407011 0.457351 0.654294 0 0 -8.34465e-07
19 1 0.24867 0.492134 0.798544 0 0 -9.89437e-06
22 1 0.114383 0.332283 0.531032 0 0 -3.42131e-05
26 1 0.0781821 0.325192 0.305536 0 0 1.07288e-06
28 1 0.529182 0.415475 0.284602 0 0 -2.26498e-05
29 1 0.236522 0.623742 0.161286 0 0 1.10865e-05
30 1 0.37081 0.45026 0.428798 0 0 3.40939e-05
32 1 0.491827 0.741795 0.0571361 0 0 -6.79493e-06
33 1 0.407011 0.790685 0.654294 0 0 -1.19209e-06
35 1 0.24867 0.825467 0.798544 0 0 -1.07288e-05
38 1 0.114383 0.665616 0.531032 0 0 -3.40939e-05
42 1 0.0781821 0.658525 0.305536 0 0 8.34465e-07
44 1 0.529182 0.748809 0.284602 0 0 -2.26498e-05
45 1 0.236522 0.957076 0.161286 0 0 1.09673e-05
46 1 0.37081 0.783594 0.428798 0 0 3.39746e-05
47 1 0.114383 0.998949 0.531032 0 0 -3.38554e-05
48 1 0.0781821 0.991858 0.305536 0 0 1.07288e-06
1 1 0.945189 0.165253 0.0402342 0 0 -4.29153e-06
4 1 0.540003 0.950623 0.919596 0 0 4.64916e-06
6 1 0.993365 0.0407477 0.902694 0 0 6.19888e-06
7 1 0.69976 0.249078 0.777764 0 0 -5.00679e-06
8 1 0.821758 0.207214 0.407775 0 0 1.72853e-05
9 1 0.956011 0.0337344 0.675229 0 0 2.25306e-05
10 1 0.663435 0.241996 0.552055 0 0 -1.74046e-05
11 1 0.785433 0.200131 0.182066 0 0 4.76837e-06
15 1 0.945189 0.498587 0.0402342 0 0 -5.00679e-06
18 1 0.540003 0.283956 0.919596 0 0 4.64916e-06
20 1 0.993365 0.374081 0.902694 0 0 6.31809e-06
21 1 0.69976 0.582412 0.777764 0 0 -5.00679e-06
23 1 0.821758 0.540547 0.407775 0 0 1.72853e-05
24 1 0.956011 0.367068 0.675229 0 0 2.24113e-05
25 1 0.663435 0.575329 0.552055 0 0 -1.71661e-05
27 1 0.785433 0.533465 0.182066 0 0 4.76837e-06
31 1 0.945189 0.83192 0.0402342 0 0 -4.88758e-06
34 1 0.540003 0.61729 0.919596 0 0 5.00679e-06
36 1 0.993365 0.707414 0.902694 0 0 6.67572e-06
37 1 0.69976 0.915745 0.777764 0 0 -4.64916e-06
39 1 0.821758 0.873881 0.407775 0 0 1.74046e-05
40 1 0.956011 0.700401 0.675229 0 0 2.22921e-05
41 1 0.663435 0.908662 0.552055 0 0 -1.75238e-05
43 1 0.785433 0.866798 0.182066 0 0 5.00679e-06
ITEM: TIMESTEP
11
ITEM: NUMBER OF ATOMS
48
ITEM: BOX BOUNDS xy xz yz pp pp pp
-3.4969350695610046e+00 8.6109705567359924e+00 2.5110912919044495e+00
-1.0506033897399902e-02 9.6185076832771301e+00 -3.4823782444000244e+00
-2.6944518089294434e-02 1.9544072151184082e+01 3.6519104242324829e-01
ITEM: ATOMS id type xs ys zs fx fy fz
2 1 0.491827 0.0751287 0.057136 0 0 -2.26498e-06
3 1 0.40701 0.124018 0.654294 0 0 -9.41753e-06
5 1 0.24867 0.158801 0.798544 0 0 4.76837e-07
12 1 0.529182 0.082142 0.284601 0 0 -3.57628e-07
13 1 0.236523 0.290409 0.161286 0 0 -5.96046e-07
14 1 0.37081 0.116927 0.428798 0 0 1.90735e-06
16 1 0.491827 0.408462 0.057136 0 0 -2.02656e-06
17 1 0.40701 0.457351 0.654294 0 0 -9.29832e-06
19 1 0.24867 0.492134 0.798544 0 0 4.76837e-07
22 1 0.114383 0.332283 0.531032 0 0 -1.66893e-06
26 1 0.0781822 0.325192 0.305536 0 0 9.29832e-06
28 1 0.529182 0.415475 0.284601 0 0 -5.96046e-07
29 1 0.236523 0.623742 0.161286 0 0 -5.96046e-07
30 1 0.37081 0.45026 0.428798 0 0 1.90735e-06
32 1 0.491827 0.741795 0.057136 0 0 -2.14577e-06
33 1 0.40701 0.790685 0.654294 0 0 -9.29832e-06
35 1 0.24867 0.825467 0.798544 0 0 3.57628e-07
38 1 0.114383 0.665616 0.531032 0 0 -2.14577e-06
42 1 0.0781821 0.658525 0.305536 0 0 9.77516e-06
44 1 0.529182 0.748809 0.284601 0 0 -5.96046e-07
45 1 0.236523 0.957076 0.161286 0 0 -5.96046e-07
46 1 0.37081 0.783594 0.428798 0 0 1.54972e-06
47 1 0.114383 0.998949 0.531032 0 0 -1.90735e-06