LAMMPS (4 May 2022)


units           metal
boundary        p p p
atom_style      atomic

neighbor        1.0 bin
neigh_modify    every 10 delay 0 check no

read_data       ./crd.lmp
Reading data file ...
  orthogonal box = (0 0 0) to (12.359372 12.359372 12.359372)
  1 by 2 by 2 MPI processor grid
  reading atoms ...
  64 atoms
  read_data CPU = 0.000 seconds
replicate       2 2 2
Replicating atoms ...
  orthogonal box = (0 0 0) to (24.718744 24.718744 24.718744)
  1 by 2 by 2 MPI processor grid
  512 atoms
  replicate CPU = 0.000 seconds

#pair_style      deepmd ./frozen_model.pb
# pair_style      deepmd ./graph.003.pb ./graph.002.pb ./graph.001.pb ./graph.000.pb  out_freq 100 out_file model_devi.out
pair_style      nvnmd model.pb
pair_coeff      * *

variable        run0    equal   5000
variable        run1    equal   250
variable        run2    equal   5000
variable        run3    equal   100
variable        run4    equal   1000
variable        run5    equal   10000

variable        temp1   equal   300.0
variable        temp2   equal   1800.0
variable        temp3   equal   1000.0
variable        temp4   equal   600.0

variable        dt          equal       2e-3
variable        tau         equal       ${dt}*100
variable        tau         equal       0.002*100
variable        showt   equal   100
variable        dumpt   equal   1

velocity        all create ${temp1} 123456789
velocity        all create 300 123456789
timestep        ${dt}
timestep        0.002
thermo_style    custom step pe ke etotal temp press vol
thermo          ${showt}
thermo          100

#### s1-crystal-300K
label		crystal
fix             0 all nvt temp ${temp1} ${temp1} ${tau}
fix             0 all nvt temp 300 ${temp1} ${tau}
fix             0 all nvt temp 300 300 ${tau}
fix             0 all nvt temp 300 300 0.2
dump            1 all custom ${dumpt} crystal.dump id type x y z
dump            1 all custom 1 crystal.dump id type x y z
run             ${run0}
run             5000
Generated 0 of 1 mixed pair_coeff terms from geometric mixing rule
Neighbor list info ...
  update every 10 steps, delay 0 steps, check no
  max neighbors/atom: 2000, page size: 100000
  master list distance cutoff = 8
  ghost atom cutoff = 8
  binsize = 4, bins = 7 7 7
  1 neighbor lists, perpetual/occasional/extra = 1 0 0
  (1) pair nvnmd, perpetual
      attributes: full, newton on
      pair build: full/bin/atomonly
      stencil: full/bin/3d
      bin: standard
Per MPI rank memory allocation (min/avg/max) = 3.868 | 3.868 | 3.868 Mbytes
   Step         PotEng         KinEng         TotEng          Temp          Press          Volume    
         0   204.41926      19.81558       224.23484      300           -36969.029      15103.555    
       100   212.04134      13.946555      225.9879       211.1453      -24209.197      15103.555    
       200   214.5145       14.836462      229.35096      224.61814     -21983.594      15103.555    
       300   217.05386      16.122883      233.17675      244.09404     -26638.621      15103.555    
       400   217.67448      19.324248      236.99873      292.56143     -23914.47       15103.555    
       500   220.44992      19.766924      240.21684      299.26337     -21770.55       15103.555    
       600   221.51182      20.313496      241.82532      307.53825     -22870.678      15103.555    
       700   220.07883      21.079212      241.15804      319.13088     -21923.766      15103.555    
       800   219.6063       19.870507      239.4768       300.83157     -23843.097      15103.555    
       900   218.50416      19.486272      237.99044      295.0144      -23706.891      15103.555    
      1000   218.13438      18.714684      236.84906      283.33287     -22926.463      15103.555    
      1100   217.55981      19.936843      237.49666      301.83588     -23444.511      15103.555    
      1200   219.46751      19.831542      239.29906      300.24165     -23140.141      15103.555    
      1300   220.11269      20.336282      240.44897      307.88322     -21784.956      15103.555    
      1400   220.41636      19.426061      239.84242      294.10284     -23014.618      15103.555    
      1500   218.37725      20.426652      238.8039       309.25138     -23384.572      15103.555    
      1600   219.18741      18.256753      237.44416      276.39997     -23582.342      15103.555    
      1700   218.51999      19.050434      237.57042      288.416       -23071.624      15103.555    
      1800   219.08445      19.797729      238.88218      299.72974     -23686.94       15103.555    
      1900   219.91261      20.02017       239.93278      303.0974      -23828.226      15103.555    
      2000   220.08441      20.134713      240.21912      304.83154     -21642.703      15103.555    
      2100   219.25547      19.812245      239.06772      299.94951     -23235.373      15103.555    
      2200   219.05741      18.920692      237.9781       286.45174     -22522.888      15103.555    
      2300   219.70216      18.598764      238.30093      281.57788     -22613.787      15103.555    
      2400   218.39413      20.421466      238.8156       309.17288     -22726.591      15103.555    
      2500   218.93701      20.098043      239.03505      304.27638     -23418.802      15103.555    
      2600   219.21555      19.94441       239.15996      301.95043     -22983.911      15103.555    
      2700   219.27396      19.445699      238.71965      294.40015     -23404.541      15103.555    
      2800   218.43798      19.319012      237.75699      292.48215     -22899.628      15103.555    
      2900   217.68559      19.267056      236.95264      291.69557     -23862.709      15103.555    
      3000   218.87543      18.780713      237.65614      284.33252     -23239.833      15103.555    
      3100   219.80196      19.772718      239.57468      299.35109     -22564.086      15103.555    
      3200   219.71956      20.007269      239.72682      302.9021      -23182.751      15103.555    
      3300   218.18528      20.851703      239.03699      315.68649     -23367.631      15103.555    
      3400   218.88649      19.047152      237.93364      288.36631     -22996.71       15103.555    
      3500   218.10032      20.083683      238.184        304.05897     -24051.732      15103.555    
      3600   220.83316      19.259162      240.09233      291.57605     -23114.976      15103.555    
      3700   220.02809      20.586877      240.61497      311.67713     -22250.865      15103.555    
      3800   219.73439      20.042403      239.77679      303.434       -23060.509      15103.555    
      3900   219.28945      19.517806      238.80726      295.49181     -22936.529      15103.555    
      4000   219.43655      18.978855      238.4154       287.33231     -22829.081      15103.555    
      4100   218.10809      20.139576      238.24767      304.90517     -23174.041      15103.555    
      4200   219.14483      18.510558      237.65539      280.24248     -22758.401      15103.555    
      4300   218.7148       19.960916      238.67571      302.20033     -22283.263      15103.555    
      4400   220.00992      20.013362      240.02329      302.99433     -22999.975      15103.555    
      4500   220.69661      19.965323      240.66193      302.26705     -22291.499      15103.555    
      4600   220.87158      18.719201      239.59079      283.40125     -22945.543      15103.555    
      4700   218.80944      20.08406       238.8935       304.06468     -22203.467      15103.555    
      4800   219.64919      19.144157      238.79334      289.83492     -22823.284      15103.555    
      4900   218.491        20.757421      239.24842      314.2591      -22346.86       15103.555    
      5000   219.59405      18.850509      238.44456      285.38921     -23681.863      15103.555    
Loop time of 3.57785 on 4 procs for 5000 steps with 512 atoms

Performance: 241.486 ns/day, 0.099 hours/ns, 1397.488 timesteps/s
84.8% CPU use with 4 MPI tasks x no OpenMP threads

MPI task timing breakdown:
Section |  min time  |  avg time  |  max time  |%varavg| %total
---------------------------------------------------------------
Pair    | 0.80301    | 1.6129     | 2.4119     |  47.2 | 45.08
Neigh   | 0.13089    | 0.13254    | 0.1355     |   0.5 |  3.70
Comm    | 0.14193    | 0.95338    | 1.7162     |  60.8 | 26.65
Output  | 0.80274    | 0.85382    | 0.90009    |   3.8 | 23.86
Modify  | 0.019887   | 0.020211   | 0.020724   |   0.2 |  0.56
Other   |            | 0.00502    |            |       |  0.14

Nlocal:            128 ave         128 max         128 min
Histogram: 4 0 0 0 0 0 0 0 0 0
Nghost:        1231.25 ave        1236 max        1226 min
Histogram: 1 0 0 0 0 1 1 0 0 1
Neighs:              0 ave           0 max           0 min
Histogram: 4 0 0 0 0 0 0 0 0 0
FullNghs:        10203 ave       10209 max       10190 min
Histogram: 1 0 0 0 0 0 0 0 2 1

Total # of neighbors = 40812
Ave neighs/atom = 79.710938
Neighbor list builds = 500
Dangerous builds not checked
write_restart	s1-crystal.restart
System init for write_restart ...
Generated 0 of 1 mixed pair_coeff terms from geometric mixing rule
unfix           0
undump		1


#### s2-melt-2000K
## increase temperature:
variable	i loop 100
variable        t1    equal   ${temp1}
variable        t1    equal   300
label		melt
variable        t1    equal   ${t1}+50
variable        t1    equal   300+50
variable        t2    equal   ${t1}+50
variable        t2    equal   350+50
fix             1 all nvt temp ${t1} ${t1} ${tau}
fix             1 all nvt temp 350 ${t1} ${tau}
fix             1 all nvt temp 350 350 ${tau}
fix             1 all nvt temp 350 350 0.2
run             ${run1}
run             250
Generated 0 of 1 mixed pair_coeff terms from geometric mixing rule
Per MPI rank memory allocation (min/avg/max) = 2.613 | 2.613 | 2.613 Mbytes
   Step         PotEng         KinEng         TotEng          Temp          Press          Volume    
      5000   219.59405      18.850509      238.44456      285.38921     -23681.863      15103.555    
      5100   220.56685      19.951706      240.51856      302.06089     -23103.348      15103.555    
      5200   221.0632       21.829003      242.8922       330.48242     -23288.473      15103.555    
      5250   222.06299      22.043657      244.10665      333.73219     -22453.104      15103.555    
Loop time of 0.127888 on 4 procs for 250 steps with 512 atoms

Performance: 337.797 ns/day, 0.071 hours/ns, 1954.842 timesteps/s
81.1% CPU use with 4 MPI tasks x no OpenMP threads

MPI task timing breakdown:
Section |  min time  |  avg time  |  max time  |%varavg| %total
---------------------------------------------------------------
Pair    | 0.037461   | 0.076133   | 0.11462    |  10.4 | 59.53
Neigh   | 0.006514   | 0.006631   | 0.0068459  |   0.2 |  5.19
Comm    | 0.0055731  | 0.043979   | 0.082673   |  13.7 | 34.39
Output  | 3.5913e-05 | 4.5497e-05 | 7.1756e-05 |   0.0 |  0.04
Modify  | 0.00085492 | 0.0008685  | 0.00089695 |   0.0 |  0.68
Other   |            | 0.0002303  |            |       |  0.18

Nlocal:            128 ave         128 max         128 min
Histogram: 4 0 0 0 0 0 0 0 0 0
Nghost:         1224.5 ave        1227 max        1222 min
Histogram: 2 0 0 0 0 0 0 0 0 2
Neighs:              0 ave           0 max           0 min
Histogram: 4 0 0 0 0 0 0 0 0 0
FullNghs:        10205 ave       10210 max       10191 min
Histogram: 1 0 0 0 0 0 0 0 0 3

Total # of neighbors = 40820
Ave neighs/atom = 79.726562
Neighbor list builds = 25
Dangerous builds not checked
unfix           1
if		"${t2} == ${temp2}" then 		"jump SELF liquid" else		"next i" 		"jump SELF melt"
next i
jump SELF melt
variable        t1    equal   ${t1}+50
variable        t1    equal   350+50
variable        t2    equal   ${t1}+50
variable        t2    equal   400+50
fix             1 all nvt temp ${t1} ${t1} ${tau}
fix             1 all nvt temp 400 ${t1} ${tau}
fix             1 all nvt temp 400 400 ${tau}
fix             1 all nvt temp 400 400 0.2
run             ${run1}
run             250
Generated 0 of 1 mixed pair_coeff terms from geometric mixing rule
Per MPI rank memory allocation (min/avg/max) = 2.613 | 2.613 | 2.613 Mbytes
   Step         PotEng         KinEng         TotEng          Temp          Press          Volume    
      5250   222.06299      22.043657      244.10665      333.73219     -22453.104      15103.555    
      5300   221.49112      23.524796      245.01592      356.15605     -23008.229      15103.555    
      5400   224.11905      23.584992      247.70404      357.0674      -21756.939      15103.555    
      5500   225.75754      24.790771      250.54831      375.32241     -21156.737      15103.555    
Loop time of 0.131372 on 4 procs for 250 steps with 512 atoms

Performance: 328.838 ns/day, 0.073 hours/ns, 1902.999 timesteps/s
80.6% CPU use with 4 MPI tasks x no OpenMP threads

MPI task timing breakdown:
Section |  min time  |  avg time  |  max time  |%varavg| %total
---------------------------------------------------------------
Pair    | 0.039872   | 0.079296   | 0.11846    |  10.4 | 60.36
Neigh   | 0.0063028  | 0.0064617  | 0.0066091  |   0.1 |  4.92
Comm    | 0.0053383  | 0.044456   | 0.083831   |  14.0 | 33.84
Output  | 3.8281e-05 | 4.1943e-05 | 5.2056e-05 |   0.0 |  0.03
Modify  | 0.00086371 | 0.00088656 | 0.00090639 |   0.0 |  0.67
Other   |            | 0.0002303  |            |       |  0.18

Nlocal:            128 ave         128 max         128 min
Histogram: 4 0 0 0 0 0 0 0 0 0
Nghost:        1236.25 ave        1245 max        1228 min
Histogram: 1 0 1 0 0 0 1 0 0 1
Neighs:              0 ave           0 max           0 min
Histogram: 4 0 0 0 0 0 0 0 0 0
FullNghs:      10182.5 ave       10191 max       10169 min
Histogram: 1 0 0 0 0 0 1 1 0 1

Total # of neighbors = 40730
Ave neighs/atom = 79.550781
Neighbor list builds = 25
Dangerous builds not checked
unfix           1
if		"${t2} == ${temp2}" then 		"jump SELF liquid" else		"next i" 		"jump SELF melt"
next i
jump SELF melt
variable        t1    equal   ${t1}+50
variable        t1    equal   400+50
variable        t2    equal   ${t1}+50
variable        t2    equal   450+50
fix             1 all nvt temp ${t1} ${t1} ${tau}
fix             1 all nvt temp 450 ${t1} ${tau}
fix             1 all nvt temp 450 450 ${tau}
fix             1 all nvt temp 450 450 0.2
run             ${run1}
run             250
Generated 0 of 1 mixed pair_coeff terms from geometric mixing rule
Per MPI rank memory allocation (min/avg/max) = 2.613 | 2.613 | 2.613 Mbytes
   Step         PotEng         KinEng         TotEng          Temp          Press          Volume    
      5500   225.75754      24.790771      250.54831      375.32241     -21156.737      15103.555    
      5600   227.8617       25.388947      253.25064      384.37855     -21443.748      15103.555    
      5700   227.05733      29.536843      256.59417      447.17605     -20947.212      15103.555    
      5750   229.59664      28.439972      258.03661      430.56986     -21306.168      15103.555    
Loop time of 0.130559 on 4 procs for 250 steps with 512 atoms

Performance: 330.885 ns/day, 0.073 hours/ns, 1914.845 timesteps/s
79.9% CPU use with 4 MPI tasks x no OpenMP threads

MPI task timing breakdown:
Section |  min time  |  avg time  |  max time  |%varavg| %total
---------------------------------------------------------------
Pair    | 0.038545   | 0.077454   | 0.11714    |  10.5 | 59.32
Neigh   | 0.0066442  | 0.006787   | 0.006986   |   0.2 |  5.20
Comm    | 0.005478   | 0.045127   | 0.084093   |  13.8 | 34.56
Output  | 4.0573e-05 | 4.4467e-05 | 5.5587e-05 |   0.0 |  0.03
Modify  | 0.00086634 | 0.00091453 | 0.00098415 |   0.0 |  0.70
Other   |            | 0.0002327  |            |       |  0.18

Nlocal:            128 ave         128 max         128 min
Histogram: 4 0 0 0 0 0 0 0 0 0
Nghost:         1214.5 ave        1225 max        1206 min
Histogram: 2 0 0 0 0 0 0 1 0 1
Neighs:              0 ave           0 max           0 min
Histogram: 4 0 0 0 0 0 0 0 0 0
FullNghs:      10148.5 ave       10169 max       10129 min
Histogram: 1 0 0 0 1 1 0 0 0 1

Total # of neighbors = 40594
Ave neighs/atom = 79.285156
Neighbor list builds = 25
Dangerous builds not checked
unfix           1
if		"${t2} == ${temp2}" then 		"jump SELF liquid" else		"next i" 		"jump SELF melt"
next i
jump SELF melt
variable        t1    equal   ${t1}+50
variable        t1    equal   450+50
variable        t2    equal   ${t1}+50
variable        t2    equal   500+50
fix             1 all nvt temp ${t1} ${t1} ${tau}
fix             1 all nvt temp 500 ${t1} ${tau}
fix             1 all nvt temp 500 500 ${tau}
fix             1 all nvt temp 500 500 0.2
run             ${run1}
run             250
Generated 0 of 1 mixed pair_coeff terms from geometric mixing rule
Per MPI rank memory allocation (min/avg/max) = 2.613 | 2.613 | 2.613 Mbytes
   Step         PotEng         KinEng         TotEng          Temp          Press          Volume    
      5750   229.59664      28.439972      258.03661      430.56986     -21306.168      15103.555    
      5800   230.19912      28.896588      259.0957       437.48285     -20964.46       15103.555    
      5900   231.60168      30.942855      262.54454      468.46252     -21490.196      15103.555    
      6000   234.7999       31.07208       265.87198      470.41893     -18973.656      15103.555    
Loop time of 0.128028 on 4 procs for 250 steps with 512 atoms

Performance: 337.425 ns/day, 0.071 hours/ns, 1952.692 timesteps/s
81.6% CPU use with 4 MPI tasks x no OpenMP threads

MPI task timing breakdown:
Section |  min time  |  avg time  |  max time  |%varavg| %total
---------------------------------------------------------------
Pair    | 0.037696   | 0.076125   | 0.11452    |  10.4 | 59.46
Neigh   | 0.0069268  | 0.0070086  | 0.0071766  |   0.1 |  5.47
Comm    | 0.0053699  | 0.043721   | 0.08223    |  13.7 | 34.15
Output  | 3.8374e-05 | 4.1977e-05 | 5.1646e-05 |   0.0 |  0.03
Modify  | 0.00087506 | 0.00090422 | 0.00096043 |   0.0 |  0.71
Other   |            | 0.0002274  |            |       |  0.18

Nlocal:            128 ave         128 max         128 min
Histogram: 4 0 0 0 0 0 0 0 0 0
Nghost:         1207.5 ave        1214 max        1197 min
Histogram: 1 0 0 0 0 1 0 0 0 2
Neighs:              0 ave           0 max           0 min
Histogram: 4 0 0 0 0 0 0 0 0 0
FullNghs:        10126 ave       10144 max       10110 min
Histogram: 1 0 0 0 2 0 0 0 0 1

Total # of neighbors = 40504
Ave neighs/atom = 79.109375
Neighbor list builds = 25
Dangerous builds not checked
unfix           1
if		"${t2} == ${temp2}" then 		"jump SELF liquid" else		"next i" 		"jump SELF melt"
next i
jump SELF melt
variable        t1    equal   ${t1}+50
variable        t1    equal   500+50
variable        t2    equal   ${t1}+50
variable        t2    equal   550+50
fix             1 all nvt temp ${t1} ${t1} ${tau}
fix             1 all nvt temp 550 ${t1} ${tau}
fix             1 all nvt temp 550 550 ${tau}
fix             1 all nvt temp 550 550 0.2
run             ${run1}
run             250
Generated 0 of 1 mixed pair_coeff terms from geometric mixing rule
Per MPI rank memory allocation (min/avg/max) = 2.613 | 2.613 | 2.613 Mbytes
   Step         PotEng         KinEng         TotEng          Temp          Press          Volume    
      6000   234.7999       31.07208       265.87198      470.41893     -18973.656      15103.555    
      6100   235.95575      32.961822      268.91757      499.02888     -19457.753      15103.555    
      6200   239.49725      32.448613      271.94586      491.25908     -18408.5        15103.555    
      6250   239.02376      34.888127      273.91189      528.19236     -18341.673      15103.555    
Loop time of 0.131495 on 4 procs for 250 steps with 512 atoms

Performance: 328.529 ns/day, 0.073 hours/ns, 1901.210 timesteps/s
83.2% CPU use with 4 MPI tasks x no OpenMP threads

MPI task timing breakdown:
Section |  min time  |  avg time  |  max time  |%varavg| %total
---------------------------------------------------------------
Pair    | 0.037044   | 0.076511   | 0.1175     |  10.8 | 58.19
Neigh   | 0.007317   | 0.0074237  | 0.0076194  |   0.1 |  5.65
Comm    | 0.0054234  | 0.046374   | 0.085944   |  13.9 | 35.27
Output  | 3.94e-05   | 4.2916e-05 | 5.2957e-05 |   0.0 |  0.03
Modify  | 0.00088562 | 0.00091424 | 0.00096563 |   0.0 |  0.70
Other   |            | 0.0002287  |            |       |  0.17

Nlocal:            128 ave         128 max         128 min
Histogram: 4 0 0 0 0 0 0 0 0 0
Nghost:        1188.25 ave        1201 max        1180 min
Histogram: 1 0 2 0 0 0 0 0 0 1
Neighs:              0 ave           0 max           0 min
Histogram: 4 0 0 0 0 0 0 0 0 0
FullNghs:        10079 ave       10108 max       10047 min
Histogram: 1 0 0 1 0 0 0 1 0 1

Total # of neighbors = 40316
Ave neighs/atom = 78.742188
Neighbor list builds = 25
Dangerous builds not checked
unfix           1
if		"${t2} == ${temp2}" then 		"jump SELF liquid" else		"next i" 		"jump SELF melt"
next i
jump SELF melt
variable        t1    equal   ${t1}+50
variable        t1    equal   550+50
variable        t2    equal   ${t1}+50
variable        t2    equal   600+50
fix             1 all nvt temp ${t1} ${t1} ${tau}
fix             1 all nvt temp 600 ${t1} ${tau}
fix             1 all nvt temp 600 600 ${tau}
fix             1 all nvt temp 600 600 0.2
run             ${run1}
run             250
Generated 0 of 1 mixed pair_coeff terms from geometric mixing rule
Per MPI rank memory allocation (min/avg/max) = 2.613 | 2.613 | 2.613 Mbytes
   Step         PotEng         KinEng         TotEng          Temp          Press          Volume    
      6250   239.02376      34.888127      273.91189      528.19236     -18341.673      15103.555    
      6300   240.90187      34.006872      274.90874      514.85051     -18560.94       15103.555    
      6400   241.28117      37.42167       278.70284      566.5492      -16849.962      15103.555    
      6500   241.55047      40.52601       282.07648      613.54767     -17574.564      15103.555    
Loop time of 0.136386 on 4 procs for 250 steps with 512 atoms

Performance: 316.748 ns/day, 0.076 hours/ns, 1833.035 timesteps/s
79.8% CPU use with 4 MPI tasks x no OpenMP threads

MPI task timing breakdown:
Section |  min time  |  avg time  |  max time  |%varavg| %total
---------------------------------------------------------------
Pair    | 0.040653   | 0.081655   | 0.12221    |  10.6 | 59.87
Neigh   | 0.0074196  | 0.0075771  | 0.0077807  |   0.2 |  5.56
Comm    | 0.005401   | 0.045962   | 0.08713    |  14.2 | 33.70
Output  | 4.0639e-05 | 4.96e-05   | 7.5438e-05 |   0.0 |  0.04
Modify  | 0.00088284 | 0.00090567 | 0.00094778 |   0.0 |  0.66
Other   |            | 0.0002368  |            |       |  0.17

Nlocal:            128 ave         128 max         128 min
Histogram: 4 0 0 0 0 0 0 0 0 0
Nghost:        1189.75 ave        1202 max        1183 min
Histogram: 2 0 0 1 0 0 0 0 0 1
Neighs:              0 ave           0 max           0 min
Histogram: 4 0 0 0 0 0 0 0 0 0
FullNghs:      10051.5 ave       10065 max       10042 min
Histogram: 1 1 0 0 0 1 0 0 0 1

Total # of neighbors = 40206
Ave neighs/atom = 78.527344
Neighbor list builds = 25
Dangerous builds not checked
unfix           1
if		"${t2} == ${temp2}" then 		"jump SELF liquid" else		"next i" 		"jump SELF melt"
next i
jump SELF melt
variable        t1    equal   ${t1}+50
variable        t1    equal   600+50
variable        t2    equal   ${t1}+50
variable        t2    equal   650+50
fix             1 all nvt temp ${t1} ${t1} ${tau}
fix             1 all nvt temp 650 ${t1} ${tau}
fix             1 all nvt temp 650 650 ${tau}
fix             1 all nvt temp 650 650 0.2
run             ${run1}
run             250
Generated 0 of 1 mixed pair_coeff terms from geometric mixing rule
Per MPI rank memory allocation (min/avg/max) = 2.613 | 2.613 | 2.613 Mbytes
   Step         PotEng         KinEng         TotEng          Temp          Press          Volume    
      6500   241.55047      40.52601       282.07648      613.54767     -17574.564      15103.555    
      6600   244.14514      41.085887      285.23103      622.02398     -15171.811      15103.555    
      6700   248.07754      39.896075      287.97361      604.0107      -15490.266      15103.555    
      6750   245.58473      44.275684      289.86041      670.31624     -15962.786      15103.555    
Loop time of 0.130708 on 4 procs for 250 steps with 512 atoms

Performance: 330.509 ns/day, 0.073 hours/ns, 1912.667 timesteps/s
80.1% CPU use with 4 MPI tasks x no OpenMP threads

MPI task timing breakdown:
Section |  min time  |  avg time  |  max time  |%varavg| %total
---------------------------------------------------------------
Pair    | 0.037736   | 0.076858   | 0.11619    |  10.5 | 58.80
Neigh   | 0.0076384  | 0.0078086  | 0.0079104  |   0.1 |  5.97
Comm    | 0.0054309  | 0.044851   | 0.084191   |  13.8 | 34.31
Output  | 3.8375e-05 | 4.7697e-05 | 7.426e-05  |   0.0 |  0.04
Modify  | 0.00085216 | 0.0009174  | 0.00095983 |   0.0 |  0.70
Other   |            | 0.0002248  |            |       |  0.17

Nlocal:            128 ave         128 max         128 min
Histogram: 4 0 0 0 0 0 0 0 0 0
Nghost:        1169.25 ave        1175 max        1165 min
Histogram: 1 1 0 0 0 0 1 0 0 1
Neighs:              0 ave           0 max           0 min
Histogram: 4 0 0 0 0 0 0 0 0 0
FullNghs:      10011.5 ave       10026 max        9979 min
Histogram: 1 0 0 0 0 0 0 1 0 2

Total # of neighbors = 40046
Ave neighs/atom = 78.214844
Neighbor list builds = 25
Dangerous builds not checked
unfix           1
if		"${t2} == ${temp2}" then 		"jump SELF liquid" else		"next i" 		"jump SELF melt"
next i
jump SELF melt
variable        t1    equal   ${t1}+50
variable        t1    equal   650+50
variable        t2    equal   ${t1}+50
variable        t2    equal   700+50
fix             1 all nvt temp ${t1} ${t1} ${tau}
fix             1 all nvt temp 700 ${t1} ${tau}
fix             1 all nvt temp 700 700 ${tau}
fix             1 all nvt temp 700 700 0.2
run             ${run1}
run             250
Generated 0 of 1 mixed pair_coeff terms from geometric mixing rule
Per MPI rank memory allocation (min/avg/max) = 2.613 | 2.613 | 2.613 Mbytes
   Step         PotEng         KinEng         TotEng          Temp          Press          Volume    
      6750   245.58473      44.275684      289.86041      670.31624     -15962.786      15103.555    
      6800   248.18393      42.188489      290.37242      638.71694     -15911.271      15103.555    
      6900   248.1413       46.594421      294.73572      705.42099     -15460.404      15103.555    
      7000   250.9895       46.139188      297.12869      698.52895     -14619.419      15103.555    
Loop time of 0.128245 on 4 procs for 250 steps with 512 atoms

Performance: 336.855 ns/day, 0.071 hours/ns, 1949.395 timesteps/s
81.3% CPU use with 4 MPI tasks x no OpenMP threads

MPI task timing breakdown:
Section |  min time  |  avg time  |  max time  |%varavg| %total
---------------------------------------------------------------
Pair    | 0.037248   | 0.075337   | 0.11339    |  10.3 | 58.74
Neigh   | 0.0080837  | 0.0082103  | 0.0084708  |   0.2 |  6.40
Comm    | 0.0054012  | 0.043463   | 0.081717   |  13.6 | 33.89
Output  | 3.6701e-05 | 5.4446e-05 | 0.00010687 |   0.0 |  0.04
Modify  | 0.00086975 | 0.00093674 | 0.00097771 |   0.0 |  0.73
Other   |            | 0.0002437  |            |       |  0.19

Nlocal:            128 ave         128 max         128 min
Histogram: 4 0 0 0 0 0 0 0 0 0
Nghost:        1178.25 ave        1189 max        1174 min
Histogram: 2 1 0 0 0 0 0 0 0 1
Neighs:              0 ave           0 max           0 min
Histogram: 4 0 0 0 0 0 0 0 0 0
FullNghs:         9998 ave       10018 max        9982 min
Histogram: 1 1 0 0 0 1 0 0 0 1

Total # of neighbors = 39992
Ave neighs/atom = 78.109375
Neighbor list builds = 25
Dangerous builds not checked
unfix           1
if		"${t2} == ${temp2}" then 		"jump SELF liquid" else		"next i" 		"jump SELF melt"
next i
jump SELF melt
variable        t1    equal   ${t1}+50
variable        t1    equal   700+50
variable        t2    equal   ${t1}+50
variable        t2    equal   750+50
fix             1 all nvt temp ${t1} ${t1} ${tau}
fix             1 all nvt temp 750 ${t1} ${tau}
fix             1 all nvt temp 750 750 ${tau}
fix             1 all nvt temp 750 750 0.2
run             ${run1}
run             250
Generated 0 of 1 mixed pair_coeff terms from geometric mixing rule
Per MPI rank memory allocation (min/avg/max) = 2.613 | 2.613 | 2.613 Mbytes
   Step         PotEng         KinEng         TotEng          Temp          Press          Volume    
      7000   250.9895       46.139188      297.12869      698.52895     -14619.419      15103.555    
      7100   250.54242      49.730155      300.27257      752.89475     -16060.435      15103.555    
      7200   255.60913      47.698406      303.30754      722.13489     -13654.533      15103.555    
      7250   254.94767      49.486919      304.43459      749.21226     -13367.281      15103.555    
Loop time of 0.132959 on 4 procs for 250 steps with 512 atoms

Performance: 324.913 ns/day, 0.074 hours/ns, 1880.285 timesteps/s
81.6% CPU use with 4 MPI tasks x no OpenMP threads

MPI task timing breakdown:
Section |  min time  |  avg time  |  max time  |%varavg| %total
---------------------------------------------------------------
Pair    | 0.039095   | 0.078807   | 0.11814    |  10.5 | 59.27
Neigh   | 0.0083316  | 0.0083677  | 0.0084271  |   0.0 |  6.29
Comm    | 0.0052823  | 0.044596   | 0.084363   |  14.0 | 33.54
Output  | 3.6929e-05 | 4.6218e-05 | 7.1628e-05 |   0.0 |  0.03
Modify  | 0.00087503 | 0.00091566 | 0.00093434 |   0.0 |  0.69
Other   |            | 0.000225   |            |       |  0.17

Nlocal:            128 ave         128 max         128 min
Histogram: 4 0 0 0 0 0 0 0 0 0
Nghost:        1165.25 ave        1178 max        1151 min
Histogram: 1 1 0 0 0 0 0 0 0 2
Neighs:              0 ave           0 max           0 min
Histogram: 4 0 0 0 0 0 0 0 0 0
FullNghs:       9959.5 ave        9994 max        9899 min
Histogram: 1 0 0 0 0 0 1 0 0 2

Total # of neighbors = 39838
Ave neighs/atom = 77.808594
Neighbor list builds = 25
Dangerous builds not checked
unfix           1
if		"${t2} == ${temp2}" then 		"jump SELF liquid" else		"next i" 		"jump SELF melt"
next i
jump SELF melt
variable        t1    equal   ${t1}+50
variable        t1    equal   750+50
variable        t2    equal   ${t1}+50
variable        t2    equal   800+50
fix             1 all nvt temp ${t1} ${t1} ${tau}
fix             1 all nvt temp 800 ${t1} ${tau}
fix             1 all nvt temp 800 800 ${tau}
fix             1 all nvt temp 800 800 0.2
run             ${run1}
run             250
Generated 0 of 1 mixed pair_coeff terms from geometric mixing rule
Per MPI rank memory allocation (min/avg/max) = 2.613 | 2.613 | 2.613 Mbytes
   Step         PotEng         KinEng         TotEng          Temp          Press          Volume    
      7250   254.94767      49.486919      304.43459      749.21226     -13367.281      15103.555    
      7300   254.74039      50.541556      305.28194      765.17905     -11105.643      15103.555    
      7400   255.56861      53.957904      309.52652      816.90119     -11568.564      15103.555    
      7500   257.91448      52.823297      310.73777      799.7237      -11432.837      15103.555    
Loop time of 0.129965 on 4 procs for 250 steps with 512 atoms

Performance: 332.396 ns/day, 0.072 hours/ns, 1923.590 timesteps/s
81.1% CPU use with 4 MPI tasks x no OpenMP threads

MPI task timing breakdown:
Section |  min time  |  avg time  |  max time  |%varavg| %total
---------------------------------------------------------------
Pair    | 0.037399   | 0.076168   | 0.11501    |  10.5 | 58.61
Neigh   | 0.0083332  | 0.0084647  | 0.0086335  |   0.1 |  6.51
Comm    | 0.0053435  | 0.044161   | 0.082968   |  13.8 | 33.98
Output  | 3.5375e-05 | 4.0136e-05 | 5.0823e-05 |   0.0 |  0.03
Modify  | 0.00088849 | 0.00090719 | 0.00095509 |   0.0 |  0.70
Other   |            | 0.0002246  |            |       |  0.17

Nlocal:            128 ave         128 max         128 min
Histogram: 4 0 0 0 0 0 0 0 0 0
Nghost:        1146.75 ave        1150 max        1141 min
Histogram: 1 0 0 0 0 0 1 0 1 1
Neighs:              0 ave           0 max           0 min
Histogram: 4 0 0 0 0 0 0 0 0 0
FullNghs:       9903.5 ave        9928 max        9855 min
Histogram: 1 0 0 0 0 0 1 0 0 2

Total # of neighbors = 39614
Ave neighs/atom = 77.371094
Neighbor list builds = 25
Dangerous builds not checked
unfix           1
if		"${t2} == ${temp2}" then 		"jump SELF liquid" else		"next i" 		"jump SELF melt"
next i
jump SELF melt
variable        t1    equal   ${t1}+50
variable        t1    equal   800+50
variable        t2    equal   ${t1}+50
variable        t2    equal   850+50
fix             1 all nvt temp ${t1} ${t1} ${tau}
fix             1 all nvt temp 850 ${t1} ${tau}
fix             1 all nvt temp 850 850 ${tau}
fix             1 all nvt temp 850 850 0.2
run             ${run1}
run             250
Generated 0 of 1 mixed pair_coeff terms from geometric mixing rule
Per MPI rank memory allocation (min/avg/max) = 2.613 | 2.613 | 2.613 Mbytes
   Step         PotEng         KinEng         TotEng          Temp          Press          Volume    
      7500   257.91448      52.823297      310.73777      799.7237      -11432.837      15103.555    
      7600   259.46689      54.341861      313.80875      822.71416     -11130.916      15103.555    
      7700   261.03193      56.488878      317.52081      855.21913     -11546.667      15103.555    
      7750   261.91354      56.496734      318.41027      855.33807     -10630.313      15103.555    
Loop time of 0.131836 on 4 procs for 250 steps with 512 atoms

Performance: 327.679 ns/day, 0.073 hours/ns, 1896.290 timesteps/s
81.8% CPU use with 4 MPI tasks x no OpenMP threads

MPI task timing breakdown:
Section |  min time  |  avg time  |  max time  |%varavg| %total
---------------------------------------------------------------
Pair    | 0.040084   | 0.078718   | 0.11698    |  10.2 | 59.71
Neigh   | 0.0084415  | 0.0085723  | 0.0087603  |   0.1 |  6.50
Comm    | 0.0052321  | 0.0434     | 0.082012   |  13.7 | 32.92
Output  | 3.7831e-05 | 4.1871e-05 | 5.2736e-05 |   0.0 |  0.03
Modify  | 0.00086427 | 0.00088362 | 0.00092189 |   0.0 |  0.67
Other   |            | 0.0002204  |            |       |  0.17

Nlocal:            128 ave         128 max         128 min
Histogram: 4 0 0 0 0 0 0 0 0 0
Nghost:         1176.5 ave        1194 max        1164 min
Histogram: 2 0 0 0 0 0 1 0 0 1
Neighs:              0 ave           0 max           0 min
Histogram: 4 0 0 0 0 0 0 0 0 0
FullNghs:         9917 ave        9993 max        9846 min
Histogram: 2 0 0 0 0 0 0 0 1 1

Total # of neighbors = 39668
Ave neighs/atom = 77.476562
Neighbor list builds = 25
Dangerous builds not checked
unfix           1
if		"${t2} == ${temp2}" then 		"jump SELF liquid" else		"next i" 		"jump SELF melt"
next i
jump SELF melt
variable        t1    equal   ${t1}+50
variable        t1    equal   850+50
variable        t2    equal   ${t1}+50
variable        t2    equal   900+50
fix             1 all nvt temp ${t1} ${t1} ${tau}
fix             1 all nvt temp 900 ${t1} ${tau}
fix             1 all nvt temp 900 900 ${tau}
fix             1 all nvt temp 900 900 0.2
run             ${run1}
run             250
Generated 0 of 1 mixed pair_coeff terms from geometric mixing rule
Per MPI rank memory allocation (min/avg/max) = 2.613 | 2.613 | 2.613 Mbytes
   Step         PotEng         KinEng         TotEng          Temp          Press          Volume    
      7750   261.91354      56.496734      318.41027      855.33807     -10630.313      15103.555    
      7800   263.44364      55.667262      319.1109       842.7802      -9808.3255      15103.555    
      7900   261.90855      62.032718      323.94126      939.15066     -9825.772       15103.555    
      8000   264.21748      61.368636      325.58611      929.09673     -7742.4376      15103.555    
Loop time of 0.129325 on 4 procs for 250 steps with 512 atoms

Performance: 334.042 ns/day, 0.072 hours/ns, 1933.112 timesteps/s
82.7% CPU use with 4 MPI tasks x no OpenMP threads

MPI task timing breakdown:
Section |  min time  |  avg time  |  max time  |%varavg| %total
---------------------------------------------------------------
Pair    | 0.037405   | 0.076075   | 0.1145     |  10.4 | 58.82
Neigh   | 0.0084727  | 0.0086239  | 0.0087231  |   0.1 |  6.67
Comm    | 0.0052344  | 0.043473   | 0.082081   |  13.8 | 33.62
Output  | 3.8086e-05 | 4.9655e-05 | 8.0857e-05 |   0.0 |  0.04
Modify  | 0.00085448 | 0.00087653 | 0.00091543 |   0.0 |  0.68
Other   |            | 0.0002267  |            |       |  0.18

Nlocal:            128 ave         128 max         128 min
Histogram: 4 0 0 0 0 0 0 0 0 0
Nghost:        1153.75 ave        1156 max        1149 min
Histogram: 1 0 0 0 0 0 0 1 0 2
Neighs:              0 ave           0 max           0 min
Histogram: 4 0 0 0 0 0 0 0 0 0
FullNghs:         9890 ave        9924 max        9866 min
Histogram: 1 0 1 0 1 0 0 0 0 1

Total # of neighbors = 39560
Ave neighs/atom = 77.265625
Neighbor list builds = 25
Dangerous builds not checked
unfix           1
if		"${t2} == ${temp2}" then 		"jump SELF liquid" else		"next i" 		"jump SELF melt"
next i
jump SELF melt
variable        t1    equal   ${t1}+50
variable        t1    equal   900+50
variable        t2    equal   ${t1}+50
variable        t2    equal   950+50
fix             1 all nvt temp ${t1} ${t1} ${tau}
fix             1 all nvt temp 950 ${t1} ${tau}
fix             1 all nvt temp 950 950 ${tau}
fix             1 all nvt temp 950 950 0.2
run             ${run1}
run             250
Generated 0 of 1 mixed pair_coeff terms from geometric mixing rule
Per MPI rank memory allocation (min/avg/max) = 2.613 | 2.613 | 2.613 Mbytes
   Step         PotEng         KinEng         TotEng          Temp          Press          Volume    
      8000   264.21748      61.368636      325.58611      929.09673     -7742.4376      15103.555    
      8100   267.89556      60.037119      327.93268      908.9381      -9044.313       15103.555    
      8200   270.80719      61.461594      332.26878      930.50408     -6408.1645      15103.555    
      8250   269.74249      63.089507      332.832        955.15004     -7232.8933      15103.555    
Loop time of 0.131635 on 4 procs for 250 steps with 512 atoms

Performance: 328.181 ns/day, 0.073 hours/ns, 1899.195 timesteps/s
78.8% CPU use with 4 MPI tasks x no OpenMP threads

MPI task timing breakdown:
Section |  min time  |  avg time  |  max time  |%varavg| %total
---------------------------------------------------------------
Pair    | 0.038834   | 0.078192   | 0.11696    |  10.4 | 59.40
Neigh   | 0.008393   | 0.0085337  | 0.0086578  |   0.1 |  6.48
Comm    | 0.0051655  | 0.043772   | 0.083065   |  13.9 | 33.25
Output  | 3.6572e-05 | 4.0876e-05 | 5.0834e-05 |   0.0 |  0.03
Modify  | 0.00086166 | 0.000875   | 0.00091361 |   0.0 |  0.66
Other   |            | 0.0002211  |            |       |  0.17

Nlocal:            128 ave         128 max         128 min
Histogram: 4 0 0 0 0 0 0 0 0 0
Nghost:         1155.5 ave        1163 max        1147 min
Histogram: 1 0 1 0 0 0 0 0 1 1
Neighs:              0 ave           0 max           0 min
Histogram: 4 0 0 0 0 0 0 0 0 0
FullNghs:       9870.5 ave        9915 max        9841 min
Histogram: 1 1 0 0 1 0 0 0 0 1

Total # of neighbors = 39482
Ave neighs/atom = 77.113281
Neighbor list builds = 25
Dangerous builds not checked
unfix           1
if		"${t2} == ${temp2}" then 		"jump SELF liquid" else		"next i" 		"jump SELF melt"
next i
jump SELF melt
variable        t1    equal   ${t1}+50
variable        t1    equal   950+50
variable        t2    equal   ${t1}+50
variable        t2    equal   1000+50
fix             1 all nvt temp ${t1} ${t1} ${tau}
fix             1 all nvt temp 1000 ${t1} ${tau}
fix             1 all nvt temp 1000 1000 ${tau}
fix             1 all nvt temp 1000 1000 0.2
run             ${run1}
run             250
Generated 0 of 1 mixed pair_coeff terms from geometric mixing rule
Per MPI rank memory allocation (min/avg/max) = 2.613 | 2.613 | 2.613 Mbytes
   Step         PotEng         KinEng         TotEng          Temp          Press          Volume    
      8250   269.74249      63.089507      332.832        955.15004     -7232.8933      15103.555    
      8300   270.73819      62.755498      333.49369      950.09327     -7364.5024      15103.555    
      8400   271.57343      66.784583      338.35801      1011.092      -6396.092       15103.555    
      8500   273.32178      66.494215      339.81599      1006.696      -7075.1584      15103.555    
Loop time of 0.131147 on 4 procs for 250 steps with 512 atoms

Performance: 329.402 ns/day, 0.073 hours/ns, 1906.264 timesteps/s
81.2% CPU use with 4 MPI tasks x no OpenMP threads

MPI task timing breakdown:
Section |  min time  |  avg time  |  max time  |%varavg| %total
---------------------------------------------------------------
Pair    | 0.037838   | 0.077371   | 0.11605    |  10.5 | 59.00
Neigh   | 0.0086687  | 0.0087224  | 0.0087723  |   0.1 |  6.65
Comm    | 0.0052938  | 0.043907   | 0.083396   |  13.9 | 33.48
Output  | 3.8434e-05 | 4.3177e-05 | 5.4195e-05 |   0.0 |  0.03
Modify  | 0.00086402 | 0.00087783 | 0.00090266 |   0.0 |  0.67
Other   |            | 0.000225   |            |       |  0.17

Nlocal:            128 ave         128 max         128 min
Histogram: 4 0 0 0 0 0 0 0 0 0
Nghost:           1151 ave        1164 max        1136 min
Histogram: 1 0 0 1 0 0 0 0 1 1
Neighs:              0 ave           0 max           0 min
Histogram: 4 0 0 0 0 0 0 0 0 0
FullNghs:       9869.5 ave        9918 max        9811 min
Histogram: 1 0 0 1 0 0 0 0 1 1

Total # of neighbors = 39478
Ave neighs/atom = 77.105469
Neighbor list builds = 25
Dangerous builds not checked
unfix           1
if		"${t2} == ${temp2}" then 		"jump SELF liquid" else		"next i" 		"jump SELF melt"
next i
jump SELF melt
variable        t1    equal   ${t1}+50
variable        t1    equal   1000+50
variable        t2    equal   ${t1}+50
variable        t2    equal   1050+50
fix             1 all nvt temp ${t1} ${t1} ${tau}
fix             1 all nvt temp 1050 ${t1} ${tau}
fix             1 all nvt temp 1050 1050 ${tau}
fix             1 all nvt temp 1050 1050 0.2
run             ${run1}
run             250
Generated 0 of 1 mixed pair_coeff terms from geometric mixing rule
Per MPI rank memory allocation (min/avg/max) = 2.613 | 2.613 | 2.613 Mbytes
   Step         PotEng         KinEng         TotEng          Temp          Press          Volume    
      8500   273.32178      66.494215      339.81599      1006.696      -7075.1584      15103.555    
      8600   276.12959      65.622399      341.75199      993.49701     -7212.3237      15103.555    
      8700   275.51198      72.388048      347.90002      1095.9262     -5267.9933      15103.555    
      8750   279.87744      68.355645      348.23308      1034.8773     -5250.2129      15103.555    
Loop time of 0.130392 on 4 procs for 250 steps with 512 atoms

Performance: 331.308 ns/day, 0.072 hours/ns, 1917.292 timesteps/s
81.3% CPU use with 4 MPI tasks x no OpenMP threads

MPI task timing breakdown:
Section |  min time  |  avg time  |  max time  |%varavg| %total
---------------------------------------------------------------
Pair    | 0.036344   | 0.07572    | 0.1152     |  10.7 | 58.07
Neigh   | 0.0086885  | 0.008788   | 0.0089076  |   0.1 |  6.74
Comm    | 0.0052114  | 0.044725   | 0.084176   |  13.9 | 34.30
Output  | 4.0802e-05 | 4.3825e-05 | 5.2811e-05 |   0.0 |  0.03
Modify  | 0.00086984 | 0.00089587 | 0.00092539 |   0.0 |  0.69
Other   |            | 0.0002199  |            |       |  0.17

Nlocal:            128 ave         128 max         128 min
Histogram: 4 0 0 0 0 0 0 0 0 0
Nghost:        1141.25 ave        1150 max        1133 min
Histogram: 1 1 0 0 0 0 0 0 1 1
Neighs:              0 ave           0 max           0 min
Histogram: 4 0 0 0 0 0 0 0 0 0
FullNghs:       9822.5 ave        9857 max        9805 min
Histogram: 1 1 1 0 0 0 0 0 0 1

Total # of neighbors = 39290
Ave neighs/atom = 76.738281
Neighbor list builds = 25
Dangerous builds not checked
unfix           1
if		"${t2} == ${temp2}" then 		"jump SELF liquid" else		"next i" 		"jump SELF melt"
next i
jump SELF melt
variable        t1    equal   ${t1}+50
variable        t1    equal   1050+50
variable        t2    equal   ${t1}+50
variable        t2    equal   1100+50
fix             1 all nvt temp ${t1} ${t1} ${tau}
fix             1 all nvt temp 1100 ${t1} ${tau}
fix             1 all nvt temp 1100 1100 ${tau}
fix             1 all nvt temp 1100 1100 0.2
run             ${run1}
run             250
Generated 0 of 1 mixed pair_coeff terms from geometric mixing rule
Per MPI rank memory allocation (min/avg/max) = 2.613 | 2.613 | 2.613 Mbytes
   Step         PotEng         KinEng         TotEng          Temp          Press          Volume    
      8750   279.87744      68.355645      348.23308      1034.8773     -5250.2129      15103.555    
      8800   275.8975       73.015396      348.91289      1105.424      -4379.6187      15103.555    
      8900   278.42792      73.914773      352.34269      1119.0403     -4264.4046      15103.555    
      9000   280.71396      77.728041      358.442        1176.7716     -2632.669       15103.555    
Loop time of 0.132738 on 4 procs for 250 steps with 512 atoms

Performance: 325.453 ns/day, 0.074 hours/ns, 1883.408 timesteps/s
81.7% CPU use with 4 MPI tasks x no OpenMP threads

MPI task timing breakdown:
Section |  min time  |  avg time  |  max time  |%varavg| %total
---------------------------------------------------------------
Pair    | 0.039912   | 0.078591   | 0.11737    |  10.3 | 59.21
Neigh   | 0.0089299  | 0.0089781  | 0.0090917  |   0.1 |  6.76
Comm    | 0.005261   | 0.043975   | 0.082705   |  13.8 | 33.13
Output  | 3.9563e-05 | 5.051e-05  | 8.194e-05  |   0.0 |  0.04
Modify  | 0.00087649 | 0.00090223 | 0.00095279 |   0.0 |  0.68
Other   |            | 0.000241   |            |       |  0.18

Nlocal:            128 ave         128 max         128 min
Histogram: 4 0 0 0 0 0 0 0 0 0
Nghost:        1146.75 ave        1170 max        1131 min
Histogram: 1 0 1 1 0 0 0 0 0 1
Neighs:              0 ave           0 max           0 min
Histogram: 4 0 0 0 0 0 0 0 0 0
FullNghs:         9811 ave        9869 max        9777 min
Histogram: 1 0 2 0 0 0 0 0 0 1

Total # of neighbors = 39244
Ave neighs/atom = 76.648438
Neighbor list builds = 25
Dangerous builds not checked
unfix           1
if		"${t2} == ${temp2}" then 		"jump SELF liquid" else		"next i" 		"jump SELF melt"
next i
jump SELF melt
variable        t1    equal   ${t1}+50
variable        t1    equal   1100+50
variable        t2    equal   ${t1}+50
variable        t2    equal   1150+50
fix             1 all nvt temp ${t1} ${t1} ${tau}
fix             1 all nvt temp 1150 ${t1} ${tau}
fix             1 all nvt temp 1150 1150 ${tau}
fix             1 all nvt temp 1150 1150 0.2
run             ${run1}
run             250
Generated 0 of 1 mixed pair_coeff terms from geometric mixing rule
Per MPI rank memory allocation (min/avg/max) = 2.613 | 2.613 | 2.613 Mbytes
   Step         PotEng         KinEng         TotEng          Temp          Press          Volume    
      9000   280.71396      77.728041      358.442        1176.7716     -2632.669       15103.555    
      9100   280.06388      78.612161      358.67604      1190.1568     -4973.6516      15103.555    
      9200   280.81026      76.279041      357.0893       1154.8343     -3453.97        15103.555    
      9250   279.98734      74.693677      354.68102      1130.8325     -3261.9809      15103.555    
Loop time of 0.130236 on 4 procs for 250 steps with 512 atoms

Performance: 331.705 ns/day, 0.072 hours/ns, 1919.589 timesteps/s
79.0% CPU use with 4 MPI tasks x no OpenMP threads

MPI task timing breakdown:
Section |  min time  |  avg time  |  max time  |%varavg| %total
---------------------------------------------------------------
Pair    | 0.037084   | 0.076226   | 0.11486    |  10.5 | 58.53
Neigh   | 0.0088321  | 0.0088908  | 0.0089522  |   0.0 |  6.83
Comm    | 0.0052906  | 0.043905   | 0.083086   |  13.9 | 33.71
Output  | 4.0397e-05 | 4.5138e-05 | 5.7023e-05 |   0.0 |  0.03
Modify  | 0.0009116  | 0.00095124 | 0.0010122  |   0.0 |  0.73
Other   |            | 0.0002178  |            |       |  0.17

Nlocal:            128 ave         128 max         128 min
Histogram: 4 0 0 0 0 0 0 0 0 0
Nghost:        1121.75 ave        1161 max        1096 min
Histogram: 1 1 0 0 1 0 0 0 0 1
Neighs:              0 ave           0 max           0 min
Histogram: 4 0 0 0 0 0 0 0 0 0
FullNghs:       9804.5 ave        9906 max        9754 min
Histogram: 1 1 1 0 0 0 0 0 0 1

Total # of neighbors = 39218
Ave neighs/atom = 76.597656
Neighbor list builds = 25
Dangerous builds not checked
unfix           1
if		"${t2} == ${temp2}" then 		"jump SELF liquid" else		"next i" 		"jump SELF melt"
next i
jump SELF melt
variable        t1    equal   ${t1}+50
variable        t1    equal   1150+50
variable        t2    equal   ${t1}+50
variable        t2    equal   1200+50
fix             1 all nvt temp ${t1} ${t1} ${tau}
fix             1 all nvt temp 1200 ${t1} ${tau}
fix             1 all nvt temp 1200 1200 ${tau}
fix             1 all nvt temp 1200 1200 0.2
run             ${run1}
run             250
Generated 0 of 1 mixed pair_coeff terms from geometric mixing rule
Per MPI rank memory allocation (min/avg/max) = 2.613 | 2.613 | 2.613 Mbytes
   Step         PotEng         KinEng         TotEng          Temp          Press          Volume    
      9250   279.98734      74.693677      354.68102      1130.8325     -3261.9809      15103.555    
      9300   285.4971       70.350001      355.8471       1065.071      -505.03998      15103.555    
      9400   283.27191      79.298868      362.57077      1200.5533     -2035.7498      15103.555    
      9500   286.05313      78.272282      364.32541      1185.0112     -1005.5895      15103.555    
Loop time of 0.13329 on 4 procs for 250 steps with 512 atoms

Performance: 324.105 ns/day, 0.074 hours/ns, 1875.606 timesteps/s
82.4% CPU use with 4 MPI tasks x no OpenMP threads

MPI task timing breakdown:
Section |  min time  |  avg time  |  max time  |%varavg| %total
---------------------------------------------------------------
Pair    | 0.040044   | 0.079182   | 0.11793    |  10.3 | 59.41
Neigh   | 0.0089947  | 0.0090331  | 0.0091112  |   0.0 |  6.78
Comm    | 0.0052074  | 0.043927   | 0.083111   |  13.8 | 32.96
Output  | 4.0826e-05 | 4.5193e-05 | 5.7068e-05 |   0.0 |  0.03
Modify  | 0.00085096 | 0.0008827  | 0.00090642 |   0.0 |  0.66
Other   |            | 0.0002199  |            |       |  0.16

Nlocal:            128 ave         128 max         128 min
Histogram: 4 0 0 0 0 0 0 0 0 0
Nghost:        1122.75 ave        1148 max        1103 min
Histogram: 1 1 0 0 0 0 1 0 0 1
Neighs:              0 ave           0 max           0 min
Histogram: 4 0 0 0 0 0 0 0 0 0
FullNghs:       9774.5 ave        9850 max        9673 min
Histogram: 1 0 0 1 0 0 0 0 0 2

Total # of neighbors = 39098
Ave neighs/atom = 76.363281
Neighbor list builds = 25
Dangerous builds not checked
unfix           1
if		"${t2} == ${temp2}" then 		"jump SELF liquid" else		"next i" 		"jump SELF melt"
next i
jump SELF melt
variable        t1    equal   ${t1}+50
variable        t1    equal   1200+50
variable        t2    equal   ${t1}+50
variable        t2    equal   1250+50
fix             1 all nvt temp ${t1} ${t1} ${tau}
fix             1 all nvt temp 1250 ${t1} ${tau}
fix             1 all nvt temp 1250 1250 ${tau}
fix             1 all nvt temp 1250 1250 0.2
run             ${run1}
run             250
Generated 0 of 1 mixed pair_coeff terms from geometric mixing rule
Per MPI rank memory allocation (min/avg/max) = 2.613 | 2.613 | 2.613 Mbytes
   Step         PotEng         KinEng         TotEng          Temp          Press          Volume    
      9500   286.05313      78.272282      364.32541      1185.0112     -1005.5895      15103.555    
      9600   287.19568      82.054039      369.24972      1242.2655      696.44181      15103.555    
      9700   288.99059      84.006907      372.99749      1271.8311     -119.18268      15103.555    
      9750   292.41689      81.076311      373.4932       1227.4631     -1325.1857      15103.555    
Loop time of 0.131368 on 4 procs for 250 steps with 512 atoms

Performance: 328.847 ns/day, 0.073 hours/ns, 1903.050 timesteps/s
80.4% CPU use with 4 MPI tasks x no OpenMP threads

MPI task timing breakdown:
Section |  min time  |  avg time  |  max time  |%varavg| %total
---------------------------------------------------------------
Pair    | 0.036502   | 0.075953   | 0.116      |  10.7 | 57.82
Neigh   | 0.0089448  | 0.009088   | 0.0092309  |   0.1 |  6.92
Comm    | 0.0051031  | 0.045165   | 0.08465    |  13.9 | 34.38
Output  | 3.671e-05  | 4.0964e-05 | 5.0768e-05 |   0.0 |  0.03
Modify  | 0.00087607 | 0.00090694 | 0.00094389 |   0.0 |  0.69
Other   |            | 0.0002141  |            |       |  0.16

Nlocal:            128 ave         128 max         128 min
Histogram: 4 0 0 0 0 0 0 0 0 0
Nghost:        1134.25 ave        1151 max        1121 min
Histogram: 1 0 0 1 1 0 0 0 0 1
Neighs:              0 ave           0 max           0 min
Histogram: 4 0 0 0 0 0 0 0 0 0
FullNghs:       9783.5 ave        9868 max        9702 min
Histogram: 1 0 0 1 0 0 1 0 0 1

Total # of neighbors = 39134
Ave neighs/atom = 76.433594
Neighbor list builds = 25
Dangerous builds not checked
unfix           1
if		"${t2} == ${temp2}" then 		"jump SELF liquid" else		"next i" 		"jump SELF melt"
next i
jump SELF melt
variable        t1    equal   ${t1}+50
variable        t1    equal   1250+50
variable        t2    equal   ${t1}+50
variable        t2    equal   1300+50
fix             1 all nvt temp ${t1} ${t1} ${tau}
fix             1 all nvt temp 1300 ${t1} ${tau}
fix             1 all nvt temp 1300 1300 ${tau}
fix             1 all nvt temp 1300 1300 0.2
run             ${run1}
run             250
Generated 0 of 1 mixed pair_coeff terms from geometric mixing rule
Per MPI rank memory allocation (min/avg/max) = 2.613 | 2.613 | 2.613 Mbytes
   Step         PotEng         KinEng         TotEng          Temp          Press          Volume    
      9750   292.41689      81.076311      373.4932       1227.4631     -1325.1857      15103.555    
      9800   289.93752      84.658424      374.59594      1281.6949      2949.217       15103.555    
      9900   294.82852      84.036814      378.86534      1272.2839      2499.6369      15103.555    
     10000   297.98472      88.292765      386.27748      1336.7173      2771.5961      15103.555    
Loop time of 0.129653 on 4 procs for 250 steps with 512 atoms

Performance: 333.197 ns/day, 0.072 hours/ns, 1928.221 timesteps/s
81.2% CPU use with 4 MPI tasks x no OpenMP threads

MPI task timing breakdown:
Section |  min time  |  avg time  |  max time  |%varavg| %total
---------------------------------------------------------------
Pair    | 0.037284   | 0.07573    | 0.11407    |  10.4 | 58.41
Neigh   | 0.0090786  | 0.0091991  | 0.0093125  |   0.1 |  7.10
Comm    | 0.0052242  | 0.043533   | 0.081968   |  13.7 | 33.58
Output  | 3.6181e-05 | 3.9206e-05 | 4.8135e-05 |   0.0 |  0.03
Modify  | 0.00089376 | 0.00093679 | 0.00095633 |   0.0 |  0.72
Other   |            | 0.0002153  |            |       |  0.17

Nlocal:            128 ave         128 max         128 min
Histogram: 4 0 0 0 0 0 0 0 0 0
Nghost:        1118.25 ave        1140 max        1100 min
Histogram: 1 1 0 0 0 0 1 0 0 1
Neighs:              0 ave           0 max           0 min
Histogram: 4 0 0 0 0 0 0 0 0 0
FullNghs:       9695.5 ave        9750 max        9644 min
Histogram: 1 1 0 0 0 0 0 0 1 1

Total # of neighbors = 38782
Ave neighs/atom = 75.746094
Neighbor list builds = 25
Dangerous builds not checked
unfix           1
if		"${t2} == ${temp2}" then 		"jump SELF liquid" else		"next i" 		"jump SELF melt"
next i
jump SELF melt
variable        t1    equal   ${t1}+50
variable        t1    equal   1300+50
variable        t2    equal   ${t1}+50
variable        t2    equal   1350+50
fix             1 all nvt temp ${t1} ${t1} ${tau}
fix             1 all nvt temp 1350 ${t1} ${tau}
fix             1 all nvt temp 1350 1350 ${tau}
fix             1 all nvt temp 1350 1350 0.2
run             ${run1}
run             250
Generated 0 of 1 mixed pair_coeff terms from geometric mixing rule
Per MPI rank memory allocation (min/avg/max) = 2.613 | 2.613 | 2.613 Mbytes
   Step         PotEng         KinEng         TotEng          Temp          Press          Volume    
     10000   297.98472      88.292765      386.27748      1336.7173      2771.5961      15103.555    
     10100   300.40609      88.338684      388.74478      1337.4125      2593.3254      15103.555    
     10200   305.60034      89.832019      395.43236      1360.021       6986.4105      15103.555    
     10250   304.88758      93.166154      398.05373      1410.4985      3411.5572      15103.555    
Loop time of 0.131036 on 4 procs for 250 steps with 512 atoms

Performance: 329.680 ns/day, 0.073 hours/ns, 1907.872 timesteps/s
82.6% CPU use with 4 MPI tasks x no OpenMP threads

MPI task timing breakdown:
Section |  min time  |  avg time  |  max time  |%varavg| %total
---------------------------------------------------------------
Pair    | 0.036678   | 0.075823   | 0.11511    |  10.6 | 57.86
Neigh   | 0.0092956  | 0.0093116  | 0.0093257  |   0.0 |  7.11
Comm    | 0.0054365  | 0.044598   | 0.083637   |  13.8 | 34.03
Output  | 3.9266e-05 | 4.3423e-05 | 5.4946e-05 |   0.0 |  0.03
Modify  | 0.00092718 | 0.0010413  | 0.0011593  |   0.3 |  0.79
Other   |            | 0.0002189  |            |       |  0.17

Nlocal:            128 ave         128 max         128 min
Histogram: 4 0 0 0 0 0 0 0 0 0
Nghost:        1106.75 ave        1121 max        1090 min
Histogram: 1 0 0 0 0 1 1 0 0 1
Neighs:              0 ave           0 max           0 min
Histogram: 4 0 0 0 0 0 0 0 0 0
FullNghs:       9677.5 ave        9718 max        9610 min
Histogram: 1 0 0 0 0 0 1 0 1 1

Total # of neighbors = 38710
Ave neighs/atom = 75.605469
Neighbor list builds = 25
Dangerous builds not checked
unfix           1
if		"${t2} == ${temp2}" then 		"jump SELF liquid" else		"next i" 		"jump SELF melt"
next i
jump SELF melt
variable        t1    equal   ${t1}+50
variable        t1    equal   1350+50
variable        t2    equal   ${t1}+50
variable        t2    equal   1400+50
fix             1 all nvt temp ${t1} ${t1} ${tau}
fix             1 all nvt temp 1400 ${t1} ${tau}
fix             1 all nvt temp 1400 1400 ${tau}
fix             1 all nvt temp 1400 1400 0.2
run             ${run1}
run             250
Generated 0 of 1 mixed pair_coeff terms from geometric mixing rule
Per MPI rank memory allocation (min/avg/max) = 2.613 | 2.613 | 2.613 Mbytes
   Step         PotEng         KinEng         TotEng          Temp          Press          Volume    
     10250   304.88758      93.166154      398.05373      1410.4985      3411.5572      15103.555    
     10300   303.6211       94.718931      398.34004      1434.0069      5180.3334      15103.555    
     10400   310.48922      88.530219      399.01944      1340.3123      7154.5569      15103.555    
     10500   318.61802      88.741632      407.35966      1343.513       5334.8152      15103.555    
Loop time of 0.13035 on 4 procs for 250 steps with 512 atoms

Performance: 331.414 ns/day, 0.072 hours/ns, 1917.907 timesteps/s
79.6% CPU use with 4 MPI tasks x no OpenMP threads

MPI task timing breakdown:
Section |  min time  |  avg time  |  max time  |%varavg| %total
---------------------------------------------------------------
Pair    | 0.036268   | 0.075499   | 0.11456    |  10.6 | 57.92
Neigh   | 0.0093407  | 0.0094268  | 0.0095304  |   0.1 |  7.23
Comm    | 0.0052717  | 0.044243   | 0.083574   |  13.9 | 33.94
Output  | 3.8691e-05 | 4.2228e-05 | 5.1809e-05 |   0.0 |  0.03
Modify  | 0.00089331 | 0.0009205  | 0.00095968 |   0.0 |  0.71
Other   |            | 0.0002189  |            |       |  0.17

Nlocal:            128 ave         130 max         126 min
Histogram: 1 0 0 0 0 2 0 0 0 1
Nghost:        1080.25 ave        1084 max        1077 min
Histogram: 1 1 0 0 0 0 0 1 0 1
Neighs:              0 ave           0 max           0 min
Histogram: 4 0 0 0 0 0 0 0 0 0
FullNghs:         9598 ave        9699 max        9418 min
Histogram: 1 0 0 0 0 0 0 1 1 1

Total # of neighbors = 38392
Ave neighs/atom = 74.984375
Neighbor list builds = 25
Dangerous builds not checked
unfix           1
if		"${t2} == ${temp2}" then 		"jump SELF liquid" else		"next i" 		"jump SELF melt"
next i
jump SELF melt
variable        t1    equal   ${t1}+50
variable        t1    equal   1400+50
variable        t2    equal   ${t1}+50
variable        t2    equal   1450+50
fix             1 all nvt temp ${t1} ${t1} ${tau}
fix             1 all nvt temp 1450 ${t1} ${tau}
fix             1 all nvt temp 1450 1450 ${tau}
fix             1 all nvt temp 1450 1450 0.2
run             ${run1}
run             250
Generated 0 of 1 mixed pair_coeff terms from geometric mixing rule
Per MPI rank memory allocation (min/avg/max) = 2.613 | 2.613 | 2.613 Mbytes
   Step         PotEng         KinEng         TotEng          Temp          Press          Volume    
     10500   318.61802      88.741632      407.35966      1343.513       5334.8152      15103.555    
     10600   319.36023      93.263549      412.62378      1411.973       8801.8522      15103.555    
     10700   323.16183      95.447559      418.60939      1445.0381      8623.1022      15103.555    
     10750   320.16658      99.304256      419.47084      1503.4269      8623.8766      15103.555    
Loop time of 0.129997 on 4 procs for 250 steps with 512 atoms

Performance: 332.315 ns/day, 0.072 hours/ns, 1923.117 timesteps/s
80.6% CPU use with 4 MPI tasks x no OpenMP threads

MPI task timing breakdown:
Section |  min time  |  avg time  |  max time  |%varavg| %total
---------------------------------------------------------------
Pair    | 0.037561   | 0.076199   | 0.11437    |  10.4 | 58.62
Neigh   | 0.0093502  | 0.0094091  | 0.0094358  |   0.0 |  7.24
Comm    | 0.0051203  | 0.043222   | 0.081849   |  13.7 | 33.25
Output  | 3.5905e-05 | 3.9689e-05 | 4.8311e-05 |   0.0 |  0.03
Modify  | 0.00089801 | 0.0009138  | 0.00093455 |   0.0 |  0.70
Other   |            | 0.0002139  |            |       |  0.16

Nlocal:            128 ave         129 max         127 min
Histogram: 1 0 0 0 0 2 0 0 0 1
Nghost:         1099.5 ave        1116 max        1087 min
Histogram: 1 0 1 0 0 1 0 0 0 1
Neighs:              0 ave           0 max           0 min
Histogram: 4 0 0 0 0 0 0 0 0 0
FullNghs:         9588 ave        9672 max        9512 min
Histogram: 1 0 0 1 0 1 0 0 0 1

Total # of neighbors = 38352
Ave neighs/atom = 74.90625
Neighbor list builds = 25
Dangerous builds not checked
unfix           1
if		"${t2} == ${temp2}" then 		"jump SELF liquid" else		"next i" 		"jump SELF melt"
next i
jump SELF melt
variable        t1    equal   ${t1}+50
variable        t1    equal   1450+50
variable        t2    equal   ${t1}+50
variable        t2    equal   1500+50
fix             1 all nvt temp ${t1} ${t1} ${tau}
fix             1 all nvt temp 1500 ${t1} ${tau}
fix             1 all nvt temp 1500 1500 ${tau}
fix             1 all nvt temp 1500 1500 0.2
run             ${run1}
run             250
Generated 0 of 1 mixed pair_coeff terms from geometric mixing rule
Per MPI rank memory allocation (min/avg/max) = 2.613 | 2.613 | 2.613 Mbytes
   Step         PotEng         KinEng         TotEng          Temp          Press          Volume    
     10750   320.16658      99.304256      419.47084      1503.4269      8623.8766      15103.555    
     10800   322.28856      97.640898      419.92945      1478.2444      10904.271      15103.555    
     10900   325.28762      99.231192      424.51881      1502.3208      9833.0439      15103.555    
     11000   341.47926      92.044557      433.52382      1393.518       12439.035      15103.555    
Loop time of 0.129855 on 4 procs for 250 steps with 512 atoms

Performance: 332.680 ns/day, 0.072 hours/ns, 1925.229 timesteps/s
81.8% CPU use with 4 MPI tasks x no OpenMP threads

MPI task timing breakdown:
Section |  min time  |  avg time  |  max time  |%varavg| %total
---------------------------------------------------------------
Pair    | 0.036698   | 0.075506   | 0.11424    |  10.5 | 58.15
Neigh   | 0.0093283  | 0.0094113  | 0.0095012  |   0.1 |  7.25
Comm    | 0.0051165  | 0.043778   | 0.08262    |  13.8 | 33.71
Output  | 4.038e-05  | 4.4145e-05 | 5.4772e-05 |   0.0 |  0.03
Modify  | 0.00086938 | 0.00090271 | 0.00093295 |   0.0 |  0.70
Other   |            | 0.0002126  |            |       |  0.16

Nlocal:            128 ave         129 max         127 min
Histogram: 1 0 0 0 0 2 0 0 0 1
Nghost:         1071.5 ave        1092 max        1049 min
Histogram: 1 0 1 0 0 0 0 0 1 1
Neighs:              0 ave           0 max           0 min
Histogram: 4 0 0 0 0 0 0 0 0 0
FullNghs:         9476 ave        9614 max        9405 min
Histogram: 1 1 1 0 0 0 0 0 0 1

Total # of neighbors = 37904
Ave neighs/atom = 74.03125
Neighbor list builds = 25
Dangerous builds not checked
unfix           1
if		"${t2} == ${temp2}" then 		"jump SELF liquid" else		"next i" 		"jump SELF melt"
next i
jump SELF melt
variable        t1    equal   ${t1}+50
variable        t1    equal   1500+50
variable        t2    equal   ${t1}+50
variable        t2    equal   1550+50
fix             1 all nvt temp ${t1} ${t1} ${tau}
fix             1 all nvt temp 1550 ${t1} ${tau}
fix             1 all nvt temp 1550 1550 ${tau}
fix             1 all nvt temp 1550 1550 0.2
run             ${run1}
run             250
Generated 0 of 1 mixed pair_coeff terms from geometric mixing rule
Per MPI rank memory allocation (min/avg/max) = 2.613 | 2.613 | 2.613 Mbytes
   Step         PotEng         KinEng         TotEng          Temp          Press          Volume    
     11000   341.47926      92.044557      433.52382      1393.518       12439.035      15103.555    
     11100   343.54904      97.053991      440.60303      1469.3588      10131.37       15103.555    
     11200   349.80322      97.41641       447.21963      1474.8457      12108.571      15103.555    
     11250   350.05942      100.40984      450.46926      1520.165       9171.3713      15103.555    
Loop time of 0.1292 on 4 procs for 250 steps with 512 atoms

Performance: 334.366 ns/day, 0.072 hours/ns, 1934.990 timesteps/s
76.6% CPU use with 4 MPI tasks x no OpenMP threads

MPI task timing breakdown:
Section |  min time  |  avg time  |  max time  |%varavg| %total
---------------------------------------------------------------
Pair    | 0.036574   | 0.075164   | 0.11372    |  10.5 | 58.18
Neigh   | 0.0093112  | 0.0093724  | 0.0093957  |   0.0 |  7.25
Comm    | 0.0049579  | 0.04347    | 0.082082   |  13.8 | 33.65
Output  | 4.1302e-05 | 4.5469e-05 | 5.6606e-05 |   0.0 |  0.04
Modify  | 0.000882   | 0.00093874 | 0.00097716 |   0.0 |  0.73
Other   |            | 0.000209   |            |       |  0.16

Nlocal:            128 ave         130 max         127 min
Histogram: 2 0 0 1 0 0 0 0 0 1
Nghost:        1038.25 ave        1052 max        1026 min
Histogram: 2 0 0 0 0 0 0 0 1 1
Neighs:              0 ave           0 max           0 min
Histogram: 4 0 0 0 0 0 0 0 0 0
FullNghs:         9405 ave        9469 max        9259 min
Histogram: 1 0 0 0 0 0 0 0 1 2

Total # of neighbors = 37620
Ave neighs/atom = 73.476562
Neighbor list builds = 25
Dangerous builds not checked
unfix           1
if		"${t2} == ${temp2}" then 		"jump SELF liquid" else		"next i" 		"jump SELF melt"
next i
jump SELF melt
variable        t1    equal   ${t1}+50
variable        t1    equal   1550+50
variable        t2    equal   ${t1}+50
variable        t2    equal   1600+50
fix             1 all nvt temp ${t1} ${t1} ${tau}
fix             1 all nvt temp 1600 ${t1} ${tau}
fix             1 all nvt temp 1600 1600 ${tau}
fix             1 all nvt temp 1600 1600 0.2
run             ${run1}
run             250
Generated 0 of 1 mixed pair_coeff terms from geometric mixing rule
Per MPI rank memory allocation (min/avg/max) = 2.613 | 2.613 | 2.613 Mbytes
   Step         PotEng         KinEng         TotEng          Temp          Press          Volume    
     11250   350.05942      100.40984      450.46926      1520.165       9171.3713      15103.555    
     11300   351.9332       100.11445      452.04764      1515.6929      13043.98       15103.555    
     11400   363.83597      98.356043      462.19201      1489.0714      9863.4634      15103.555    
     11500   373.78692      97.529595      471.31652      1476.5593      10101.342      15103.555    
Loop time of 0.128583 on 4 procs for 250 steps with 512 atoms

Performance: 335.971 ns/day, 0.071 hours/ns, 1944.276 timesteps/s
79.4% CPU use with 4 MPI tasks x no OpenMP threads

MPI task timing breakdown:
Section |  min time  |  avg time  |  max time  |%varavg| %total
---------------------------------------------------------------
Pair    | 0.036196   | 0.074652   | 0.11312    |  10.5 | 58.06
Neigh   | 0.0092201  | 0.0094194  | 0.0095926  |   0.2 |  7.33
Comm    | 0.0050138  | 0.043378   | 0.082057   |  13.8 | 33.74
Output  | 3.8698e-05 | 4.2506e-05 | 5.2772e-05 |   0.0 |  0.03
Modify  | 0.00085714 | 0.00088297 | 0.00092542 |   0.0 |  0.69
Other   |            | 0.0002075  |            |       |  0.16

Nlocal:            128 ave         132 max         125 min
Histogram: 1 1 0 0 0 1 0 0 0 1
Nghost:         1038.5 ave        1047 max        1022 min
Histogram: 1 0 0 0 0 0 0 1 0 2
Neighs:              0 ave           0 max           0 min
Histogram: 4 0 0 0 0 0 0 0 0 0
FullNghs:       9275.5 ave        9575 max        9049 min
Histogram: 1 1 0 0 0 0 1 0 0 1

Total # of neighbors = 37102
Ave neighs/atom = 72.464844
Neighbor list builds = 25
Dangerous builds not checked
unfix           1
if		"${t2} == ${temp2}" then 		"jump SELF liquid" else		"next i" 		"jump SELF melt"
next i
jump SELF melt
variable        t1    equal   ${t1}+50
variable        t1    equal   1600+50
variable        t2    equal   ${t1}+50
variable        t2    equal   1650+50
fix             1 all nvt temp ${t1} ${t1} ${tau}
fix             1 all nvt temp 1650 ${t1} ${tau}
fix             1 all nvt temp 1650 1650 ${tau}
fix             1 all nvt temp 1650 1650 0.2
run             ${run1}
run             250
Generated 0 of 1 mixed pair_coeff terms from geometric mixing rule
Per MPI rank memory allocation (min/avg/max) = 2.613 | 2.613 | 2.613 Mbytes
   Step         PotEng         KinEng         TotEng          Temp          Press          Volume    
     11500   373.78692      97.529595      471.31652      1476.5593      10101.342      15103.555    
     11600   381.80474      98.326674      480.13141      1488.6267      13097.709      15103.555    
     11700   388.24147      101.7731       490.01457      1540.8042      14093.957      15103.555    
     11750   391.48304      103.74477      495.22781      1570.6545      13905.332      15103.555    
Loop time of 0.128148 on 4 procs for 250 steps with 512 atoms

Performance: 337.110 ns/day, 0.071 hours/ns, 1950.868 timesteps/s
81.7% CPU use with 4 MPI tasks x no OpenMP threads

MPI task timing breakdown:
Section |  min time  |  avg time  |  max time  |%varavg| %total
---------------------------------------------------------------
Pair    | 0.036076   | 0.074434   | 0.11278    |  10.5 | 58.08
Neigh   | 0.0092202  | 0.0093871  | 0.0095435  |   0.1 |  7.33
Comm    | 0.0048611  | 0.043191   | 0.08175    |  13.8 | 33.70
Output  | 3.7701e-05 | 4.1297e-05 | 5.0712e-05 |   0.0 |  0.03
Modify  | 0.00085461 | 0.00089455 | 0.00091315 |   0.0 |  0.70
Other   |            | 0.0002001  |            |       |  0.16

Nlocal:            128 ave         133 max         124 min
Histogram: 1 1 0 0 0 0 1 0 0 1
Nghost:          995.5 ave        1012 max         977 min
Histogram: 1 0 1 0 0 0 0 0 1 1
Neighs:              0 ave           0 max           0 min
Histogram: 4 0 0 0 0 0 0 0 0 0
FullNghs:       9202.5 ave        9667 max        8765 min
Histogram: 1 0 0 1 0 0 1 0 0 1

Total # of neighbors = 36810
Ave neighs/atom = 71.894531
Neighbor list builds = 25
Dangerous builds not checked
unfix           1
if		"${t2} == ${temp2}" then 		"jump SELF liquid" else		"next i" 		"jump SELF melt"
next i
jump SELF melt
variable        t1    equal   ${t1}+50
variable        t1    equal   1650+50
variable        t2    equal   ${t1}+50
variable        t2    equal   1700+50
fix             1 all nvt temp ${t1} ${t1} ${tau}
fix             1 all nvt temp 1700 ${t1} ${tau}
fix             1 all nvt temp 1700 1700 ${tau}
fix             1 all nvt temp 1700 1700 0.2
run             ${run1}
run             250
Generated 0 of 1 mixed pair_coeff terms from geometric mixing rule
Per MPI rank memory allocation (min/avg/max) = 2.613 | 2.613 | 2.613 Mbytes
   Step         PotEng         KinEng         TotEng          Temp          Press          Volume    
     11750   391.48304      103.74477      495.22781      1570.6545      13905.332      15103.555    
     11800   393.55636      104.06091      497.61726      1575.4407      13284.173      15103.555    
     11900   397.22229      109.64677      506.86905      1660.0084      12973.38       15103.555    
     12000   402.65238      111.00791      513.66029      1680.6156      12693.417      15103.555    
Loop time of 0.131267 on 4 procs for 250 steps with 512 atoms

Performance: 329.101 ns/day, 0.073 hours/ns, 1904.521 timesteps/s
80.9% CPU use with 4 MPI tasks x no OpenMP threads

MPI task timing breakdown:
Section |  min time  |  avg time  |  max time  |%varavg| %total
---------------------------------------------------------------
Pair    | 0.03812    | 0.076927   | 0.11582    |  10.5 | 58.60
Neigh   | 0.0092756  | 0.0093417  | 0.0094106  |   0.1 |  7.12
Comm    | 0.0050262  | 0.043735   | 0.082491   |  13.9 | 33.32
Output  | 3.661e-05  | 4.0848e-05 | 5.1162e-05 |   0.0 |  0.03
Modify  | 0.00091277 | 0.0010185  | 0.0011527  |   0.3 |  0.78
Other   |            | 0.0002032  |            |       |  0.15

Nlocal:            128 ave         131 max         126 min
Histogram: 1 0 1 0 1 0 0 0 0 1
Nghost:         992.25 ave         995 max         990 min
Histogram: 2 0 0 0 0 0 0 0 1 1
Neighs:              0 ave           0 max           0 min
Histogram: 4 0 0 0 0 0 0 0 0 0
FullNghs:         9208 ave        9377 max        9042 min
Histogram: 1 0 0 1 0 0 1 0 0 1

Total # of neighbors = 36832
Ave neighs/atom = 71.9375
Neighbor list builds = 25
Dangerous builds not checked
unfix           1
if		"${t2} == ${temp2}" then 		"jump SELF liquid" else		"next i" 		"jump SELF melt"
next i
jump SELF melt
variable        t1    equal   ${t1}+50
variable        t1    equal   1700+50
variable        t2    equal   ${t1}+50
variable        t2    equal   1750+50
fix             1 all nvt temp ${t1} ${t1} ${tau}
fix             1 all nvt temp 1750 ${t1} ${tau}
fix             1 all nvt temp 1750 1750 ${tau}
fix             1 all nvt temp 1750 1750 0.2
run             ${run1}
run             250
Generated 0 of 1 mixed pair_coeff terms from geometric mixing rule
Per MPI rank memory allocation (min/avg/max) = 2.613 | 2.613 | 2.613 Mbytes
   Step         PotEng         KinEng         TotEng          Temp          Press          Volume    
     12000   402.65238      111.00791      513.66029      1680.6156      12693.417      15103.555    
     12100   404.70091      114.5771       519.27801      1734.6517      15047.217      15103.555    
     12200   410.22847      116.45104      526.67951      1763.0224      16201.466      15103.555    
     12250   413.36813      114.79414      528.16227      1737.9375      14622.566      15103.555    
Loop time of 0.127963 on 4 procs for 250 steps with 512 atoms

Performance: 337.597 ns/day, 0.071 hours/ns, 1953.687 timesteps/s
81.7% CPU use with 4 MPI tasks x no OpenMP threads

MPI task timing breakdown:
Section |  min time  |  avg time  |  max time  |%varavg| %total
---------------------------------------------------------------
Pair    | 0.035613   | 0.074297   | 0.11288    |  10.5 | 58.06
Neigh   | 0.0090163  | 0.00924    | 0.0093835  |   0.1 |  7.22
Comm    | 0.0047082  | 0.043337   | 0.08191    |  13.8 | 33.87
Output  | 3.7755e-05 | 4.1481e-05 | 5.1656e-05 |   0.0 |  0.03
Modify  | 0.0008146  | 0.0008493  | 0.00087175 |   0.0 |  0.66
Other   |            | 0.0001978  |            |       |  0.15

Nlocal:            128 ave         131 max         125 min
Histogram: 1 1 0 0 0 0 0 0 1 1
Nghost:          978.5 ave         991 max         968 min
Histogram: 1 0 1 0 0 0 1 0 0 1
Neighs:              0 ave           0 max           0 min
Histogram: 4 0 0 0 0 0 0 0 0 0
FullNghs:       9194.5 ave        9445 max        8985 min
Histogram: 2 0 0 0 0 0 0 1 0 1

Total # of neighbors = 36778
Ave neighs/atom = 71.832031
Neighbor list builds = 25
Dangerous builds not checked
unfix           1
if		"${t2} == ${temp2}" then 		"jump SELF liquid" else		"next i" 		"jump SELF melt"
jump SELF liquid
fix             2 all nvt temp ${temp2} ${temp2} ${tau}
fix             2 all nvt temp 1800 ${temp2} ${tau}
fix             2 all nvt temp 1800 1800 ${tau}
fix             2 all nvt temp 1800 1800 0.2
dump            1 all custom ${dumpt} liquid.dump id type x y z
dump            1 all custom 1 liquid.dump id type x y z
run             ${run2}
run             5000
Generated 0 of 1 mixed pair_coeff terms from geometric mixing rule
Per MPI rank memory allocation (min/avg/max) = 3.868 | 3.868 | 3.868 Mbytes
   Step         PotEng         KinEng         TotEng          Temp          Press          Volume    
     12250   413.36813      114.79414      528.16227      1737.9375      14622.566      15103.555    
     12300   417.82718      111.91482      529.74201      1694.3459      14829.123      15103.555    
     12400   416.61658      121.34313      537.9597       1837.0866      16606.951      15103.555    
     12500   421.49628      118.08918      539.58546      1787.8232      14233.018      15103.555    
     12600   421.79977      118.06605      539.86582      1787.4731      14901.032      15103.555    
     12700   420.80443      118.76658      539.57101      1798.0787      16534.361      15103.555    
     12800   417.87955      118.74459      536.62415      1797.7459      14075.406      15103.555    
     12900   414.67464      113.47356      528.1482       1717.9446      12500.641      15103.555    
     13000   410.62052      115.18689      525.80741      1743.8837      14596.592      15103.555    
     13100   419.26072      115.30131      534.56203      1745.6159      17274.322      15103.555    
     13200   413.83723      125.55905      539.39627      1900.914       17874.896      15103.555    
     13300   417.66906      118.5334       536.20246      1794.5486      16446.407      15103.555    
     13400   413.61523      119.62759      533.24282      1811.1142      16369.962      15103.555    
     13500   416.68098      113.4509       530.13189      1717.6015      18312.009      15103.555    
     13600   413.75884      117.46429      531.22313      1778.3626      11981.434      15103.555    
     13700   422.23594      117.2388       539.47474      1774.9488      18719.788      15103.555    
     13800   417.06293      126.06314      543.12607      1908.5458      15928.999      15103.555    
     13900   420.41627      117.85112      538.26739      1784.219       18139.979      15103.555    
[...]
fix             1 all nvt temp 350 ${t1} ${tau}
fix             1 all nvt temp 350 350 ${tau}
fix             1 all nvt temp 350 350 0.2
run             ${run4}
run             1000
Generated 0 of 1 mixed pair_coeff terms from geometric mixing rule
Per MPI rank memory allocation (min/avg/max) = 2.613 | 2.613 | 2.613 Mbytes
   Step         PotEng         KinEng         TotEng          Temp          Press          Volume    
     30850   277.70542      26.423427      304.12885      400.04017     -2493.0338      15103.555    
     30900   278.49397      24.898095      303.39207      376.94725     -1255.149       15103.555    
     31000   277.41183      23.28958       300.70141      352.59498     -1436.2638      15103.555    
     31100   275.03175      23.504886      298.53663      355.85462     -1827.4883      15103.555    
     31200   273.66232      23.109861      296.77218      349.87409     -1642.9946      15103.555    
     31300   273.4113       22.140359      295.55166      335.19622     -2649.9896      15103.555    
     31400   272.68569      22.747564      295.43325      344.38906     -1062.6281      15103.555    
     31500   273.32763      23.511776      296.83941      355.95894     -2177.5428      15103.555    
     31600   274.32495      23.647766      297.97272      358.01777     -1679.2507      15103.555    
     31700   274.09261      23.660956      297.75357      358.21746     -2685.1816      15103.555    
     31800   273.77916      23.331019      297.11018      353.22235     -545.82295      15103.555    
     31850   273.95942      22.389065      296.34849      338.96153     -3434.0536      15103.555    
Loop time of 0.515925 on 4 procs for 1000 steps with 512 atoms

Performance: 334.933 ns/day, 0.072 hours/ns, 1938.267 timesteps/s
78.1% CPU use with 4 MPI tasks x no OpenMP threads

MPI task timing breakdown:
Section |  min time  |  avg time  |  max time  |%varavg| %total
---------------------------------------------------------------
Pair    | 0.1445     | 0.30048    | 0.45684    |  21.2 | 58.24
Neigh   | 0.035255   | 0.036275   | 0.037118   |   0.4 |  7.03
Comm    | 0.019359   | 0.17468    | 0.33085    |  27.8 | 33.86
Output  | 0.00013685 | 0.00015127 | 0.0001875  |   0.0 |  0.03
Modify  | 0.0034325  | 0.0035613  | 0.0036611  |   0.1 |  0.69
Other   |            | 0.0007713  |            |       |  0.15

Nlocal:            128 ave         131 max         124 min
Histogram: 1 0 0 0 1 0 0 0 1 1
Nghost:            997 ave        1001 max         993 min
Histogram: 1 1 0 0 0 0 0 0 1 1
Neighs:              0 ave           0 max           0 min
Histogram: 4 0 0 0 0 0 0 0 0 0
FullNghs:         9232 ave        9421 max        8947 min
Histogram: 1 0 0 0 1 0 0 0 0 2

Total # of neighbors = 36928
Ave neighs/atom = 72.125
Neighbor list builds = 100
Dangerous builds not checked
unfix           1
if              "${t1} == ${temp1}" then 		"write_restart   s4-quench.restart"                 "jump SELF age" else            "next i"                 "jump SELF amorphous_quench"
next i
jump SELF amorphous_quench
variable        t1    equal   ${t1}-50
variable        t1    equal   350-50
fix             1 all nvt temp ${t1} ${t1} ${tau}
fix             1 all nvt temp 300 ${t1} ${tau}
fix             1 all nvt temp 300 300 ${tau}
fix             1 all nvt temp 300 300 0.2
run             ${run4}
run             1000
Generated 0 of 1 mixed pair_coeff terms from geometric mixing rule
Per MPI rank memory allocation (min/avg/max) = 2.613 | 2.613 | 2.613 Mbytes
   Step         PotEng         KinEng         TotEng          Temp          Press          Volume    
     31850   273.95942      22.389065      296.34849      338.96153     -3434.0536      15103.555    
     31900   272.65287      23.061684      295.71455      349.14471     -808.01833      15103.555    
     32000   271.73021      21.288797      293.01901      322.30391     -2131.8309      15103.555    
     32100   270.39571      20.429548      290.82525      309.29523     -3398.1401      15103.555    
     32200   269.25375      19.742645      288.99639      298.89579     -2174.5903      15103.555    
     32300   268.43484      19.333083      287.76793      292.69518     -1670.9621      15103.555    
     32400   268.08193      19.337749      287.41967      292.76582     -2624.2371      15103.555    
     32500   268.02248      20.449431      288.47191      309.59625     -2762.8659      15103.555    
     32600   269.57356      19.82289       289.39645      300.11067     -4001.8396      15103.555    
     32700   271.10798      18.693467      289.80145      283.01166     -2837.1686      15103.555    
     32800   268.98676      20.596876      289.58363      311.8285      -3177.1969      15103.555    
     32850   268.45081      19.926964      288.37778      301.68631     -1761.4883      15103.555    
Loop time of 0.525509 on 4 procs for 1000 steps with 512 atoms

Performance: 328.824 ns/day, 0.073 hours/ns, 1902.917 timesteps/s
81.7% CPU use with 4 MPI tasks x no OpenMP threads

MPI task timing breakdown:
Section |  min time  |  avg time  |  max time  |%varavg| %total
---------------------------------------------------------------
Pair    | 0.15005    | 0.30864    | 0.46656    |  21.2 | 58.73
Neigh   | 0.035357   | 0.03624    | 0.036866   |   0.3 |  6.90
Comm    | 0.019058   | 0.17613    | 0.33467    |  28.1 | 33.52
Output  | 0.00014067 | 0.00015999 | 0.00021292 |   0.0 |  0.03
Modify  | 0.0033737  | 0.0035536  | 0.0036252  |   0.2 |  0.68
Other   |            | 0.000779   |            |       |  0.15

Nlocal:            128 ave         130 max         126 min
Histogram: 1 0 0 0 0 2 0 0 0 1
Nghost:         990.25 ave         995 max         983 min
Histogram: 1 0 0 0 0 1 0 0 0 2
Neighs:              0 ave           0 max           0 min
Histogram: 4 0 0 0 0 0 0 0 0 0
FullNghs:         9243 ave        9367 max        9076 min
Histogram: 1 0 0 0 0 1 0 1 0 1

Total # of neighbors = 36972
Ave neighs/atom = 72.210938
Neighbor list builds = 100
Dangerous builds not checked
unfix           1
if              "${t1} == ${temp1}" then 		"write_restart   s4-quench.restart"                 "jump SELF age" else            "next i"                 "jump SELF amorphous_quench"
write_restart   s4-quench.restart
System init for write_restart ...
Generated 0 of 1 mixed pair_coeff terms from geometric mixing rule
jump SELF age
fix             4 all nvt temp ${temp1} ${temp1} ${tau}
fix             4 all nvt temp 300 ${temp1} ${tau}
fix             4 all nvt temp 300 300 ${tau}
fix             4 all nvt temp 300 300 0.2
dump            1 all custom ${dumpt} amorphous.dump id type x y z
dump            1 all custom 1 amorphous.dump id type x y z
run             ${run5}
run             10000
Generated 0 of 1 mixed pair_coeff terms from geometric mixing rule
Per MPI rank memory allocation (min/avg/max) = 3.868 | 3.868 | 3.868 Mbytes
   Step         PotEng         KinEng         TotEng          Temp          Press          Volume    
     32850   268.45081      19.926964      288.37778      301.68631     -1761.4883      15103.555    
     32900   269.13553      19.334413      288.46994      292.71532     -4534.0484      15103.555    
     33000   269.45233      19.442723      288.89505      294.35509     -1984.3339      15103.555    
     33100   268.71677      20.396666      289.11343      308.79741     -1359.753       15103.555    
     33200   268.42409      20.113268      288.53735      304.50687     -2772.076       15103.555    
     33300   268.10967      19.670825      287.78049      297.80846     -2493.8223      15103.555    
     33400   267.32974      19.608943      286.93868      296.87159     -1858.3911      15103.555    
     33500   268.80138      18.097283      286.89866      273.98566     -3593.5385      15103.555    
     33600   268.95442      19.850899      288.80532      300.53472     -2735.392       15103.555    
     33700   269.49131      19.898366      289.38968      301.25334     -1999.4593      15103.555    
     33800   269.93464      19.511545      289.44619      295.39702     -2026.6872      15103.555    
     33900   269.0774       19.783985      288.86139      299.52166     -3129.0323      15103.555    
     34000   267.94633      19.13616       287.08249      289.71385     -1510.2877      15103.555    
     34100   268.06055      19.11814       287.17869      289.44103     -1230.3744      15103.555    
     34200   268.9499       19.338436      288.28834      292.77622     -2311.8164      15103.555    
     34300   269.06431      19.607793      288.67211      296.85419     -2882.6863      15103.555    
     34400   269.09781      20.17013       289.26794      305.36775     -1865.2891      15103.555    
     34500   269.44128      20.197536      289.63881      305.78266     -3266.5489      15103.555    
     34600   269.52294      18.989544      288.51249      287.49414     -3361.369       15103.555    
     34700   267.62802      19.472396      287.10042      294.80433     -1958.7882      15103.555    
     34800   268.06493      19.389782      287.45471      293.55358     -2257.0549      15103.555    
     34900   269.33995      19.380828      288.72078      293.41803     -2847.4531      15103.555    
     35000   269.14472      20.112376      289.25709      304.49337     -1630.745       15103.555    
     35100   268.67899      20.697214      289.37621      313.34759     -3681.9681      15103.555    
     35200   269.50638      19.100644      288.60702      289.17615     -1128.8363      15103.555    
     35300   268.53527      18.797436      287.3327       284.5857      -2405.412       15103.555    
     35400   268.28469      18.654282      286.93897      282.4184      -2085.0626      15103.555    
     35500   267.72288      21.113687      288.83657      319.65282     -1907.2751      15103.555    
     35600   268.91009      20.657185      289.56728      312.74157     -2950.3454      15103.555    
     35700   268.92961      19.988414      288.91803      302.61664     -2549.9348      15103.555    
     35800   268.48687      19.189091      287.67596      290.51521     -2248.0956      15103.555    
     35900   267.71194      19.579967      287.29191      296.43291     -2266.8213      15103.555    
     36000   268.25699      19.637811      287.8948       297.30865     -2854.7493      15103.555    
     36100   268.84308      20.667889      289.51097      312.90361     -2695.5236      15103.555    
     36200   269.87593      21.855051      291.73098      330.87678     -1670.2793      15103.555    
     36300   270.91725      20.426813      291.34407      309.25381     -3096.5803      15103.555    
     36400   269.02378      20.160805      289.18459      305.22656     -1878.8058      15103.555    
     36500   267.98383      20.420576      288.40441      309.1594      -1705.7971      15103.555    
     36600   268.80614      18.327709      287.13385      277.47422     -1853.9767      15103.555    
     36700   268.04989      19.216711      287.2666       290.93336     -2033.0211      15103.555    
     36800   267.83759      20.515         288.35259      310.58894     -1310.4885      15103.555    
     36900   268.63259      19.890638      288.52322      301.13634     -3067.1884      15103.555    
     37000   268.86127      19.59749       288.45876      296.6982      -1803.6478      15103.555    
     37100   268.36726      19.398307      287.76557      293.68265     -1795.7799      15103.555    
     37200   268.06528      18.652569      286.71785      282.39248     -2569.107       15103.555    
     37300   267.21767      19.607517      286.82519      296.85        -3099.7618      15103.555    
     37400   268.44495      19.574426      288.01937      296.34902     -2420.8792      15103.555    
     37500   269.65378      19.606898      289.26068      296.84064     -1761.931       15103.555    
     37600   268.95459      20.260271      289.21486      306.73244     -2481.0784      15103.555    
     37700   267.90571      20.276683      288.1824       306.98091     -2732.3882      15103.555    
     37800   267.95708      19.253814      287.2109       291.49508     -2922.794       15103.555    
     37900   267.13472      20.286697      287.42142      307.13252     -1728.8915      15103.555    
     38000   268.55749      19.289827      287.84732      292.0403      -2071.6843      15103.555    
     38100   268.63148      20.15042       288.7819       305.06935     -1628.0776      15103.555    
     38200   268.87447      20.765507      289.63998      314.38152     -1731.186       15103.555    
     38300   270.30993      20.199135      290.50907      305.80686     -1877.1059      15103.555    
     38400   269.25171      21.541955      290.79367      326.13662     -1790.5755      15103.555    
     38500   268.55921      20.234984      288.7942       306.34961     -2152.8622      15103.555    
     38600   267.27053      20.331214      287.60174      307.80649     -2114.7101      15103.555    
     38700   267.92014      18.99251       286.91265      287.53905     -1265.356       15103.555    
     38800   268.32824      18.740593      287.06883      283.72512     -2578.5192      15103.555    
     38900   267.96929      20.390811      288.3601       308.70876     -255.62513      15103.555    
     39000   268.66483      20.944448      289.60927      317.09061     -1262.1329      15103.555    
     39100   268.51474      20.395282      288.91002      308.77646     -2733.9683      15103.555    
     39200   267.31361      19.885325      287.19894      301.0559      -1366.8525      15103.555    
     39300   267.17668      19.245866      286.42255      291.37475     -2157.3209      15103.555    
     39400   267.66873      19.28279       286.95152      291.93376     -1486.1246      15103.555    
     39500   268.80405      19.416592      288.22064      293.95948     -2961.3374      15103.555    
     39600   268.32687      20.825045      289.15192      315.2829      -1276.3122      15103.555    
     39700   268.83545      19.948956      288.78441      302.01925     -2132.9849      15103.555    
     39800   267.38478      19.621367      287.00614      297.05969     -1854.8862      15103.555    
     39900   267.92678      18.911227      286.838        286.30845     -2767.9878      15103.555    
     40000   267.95599      19.351632      287.30763      292.976       -304.93158      15103.555    
     40100   267.94392      19.8766        287.82051      300.92381     -2570.2235      15103.555    
     40200   268.88937      20.308749      289.19812      307.46637     -1651.544       15103.555    
     40300   268.16904      21.65736       289.8264       327.88381     -1195.1265      15103.555    
     40400   267.41818      20.404429      287.82261      308.91494     -1641.1225      15103.555    
     40500   267.72438      19.338983      287.06336      292.78451     -2190.9941      15103.555    
     40600   267.38732      19.277677      286.66499      291.85636     -165.80261      15103.555    
     40700   266.40404      20.320508      286.72455      307.6444      -3163.4295      15103.555    
     40800   267.45397      19.335666      286.78963      292.73429     -1924.5176      15103.555    
     40900   267.59315      20.326136      287.91928      307.72961     -3394.518       15103.555    
     41000   268.43462      20.229309      288.66393      306.26368     -3571.1585      15103.555    
     41100   267.6661       20.107484      287.77358      304.4193      -1109.5859      15103.555    
     41200   267.10994      19.025764      286.13571      288.0425      -2156.1219      15103.555    
     41300   266.63352      19.453388      286.08691      294.51655     -1801.9741      15103.555    
     41400   267.51603      19.473469      286.98949      294.82057     -1510.4561      15103.555    
     41500   268.10054      19.801046      287.90159      299.77995     -1284.1515      15103.555    
     41600   267.27219      20.822797      288.09498      315.24886     -1824.2792      15103.555    
     41700   268.17044      18.810295      286.98073      284.78039     -2498.9014      15103.555    
     41800   266.29259      18.348077      284.64067      277.78258     -3094.7511      15103.555    
     41900   266.70889      18.072092      284.78098      273.60429     -2696.9741      15103.555    
     42000   267.3133       19.184797      286.4981       290.45019     -1673.5545      15103.555    
     42100   268.21705      19.559589      287.77664      296.1244      -2785.1172      15103.555    
     42200   267.57204      20.951863      288.5239       317.20287     -1769.4668      15103.555    
     42300   267.77538      20.466407      288.24179      309.85326     -3312.4903      15103.555    
     42400   266.34921      20.565812      286.91502      311.35822     -2598.1073      15103.555    
     42500   266.53266      19.478168      286.01083      294.89172     -529.69574      15103.555    
     42600   267.66221      18.763828      286.42604      284.07689     -2246.5804      15103.555    
     42700   268.74634      20.109717      288.85606      304.45311     -2305.3853      15103.555    
     42800   268.14939      20.87191       289.0213       315.99242     -2659.204       15103.555    
     42850   268.03482      20.392344      288.42717      308.73198     -2391.7604      15103.555    
Loop time of 7.06814 on 4 procs for 10000 steps with 512 atoms

Performance: 244.477 ns/day, 0.098 hours/ns, 1414.798 timesteps/s
85.2% CPU use with 4 MPI tasks x no OpenMP threads

MPI task timing breakdown:
Section |  min time  |  avg time  |  max time  |%varavg| %total
---------------------------------------------------------------
Pair    | 1.5224     | 3.0999     | 4.6794     |  66.8 | 43.86
Neigh   | 0.35298    | 0.35812    | 0.37025    |   1.2 |  5.07
Comm    | 0.25417    | 1.8552     | 3.3467     |  85.7 | 26.25
Output  | 1.6134     | 1.7079     | 1.7976     |   5.2 | 24.16
Modify  | 0.038052   | 0.038541   | 0.038822   |   0.1 |  0.55
Other   |            | 0.008489   |            |       |  0.12

Nlocal:            128 ave         131 max         125 min
Histogram: 1 1 0 0 0 0 0 0 1 1
Nghost:            984 ave         998 max         972 min
Histogram: 1 1 0 0 0 0 0 1 0 1
Neighs:              0 ave           0 max           0 min
Histogram: 4 0 0 0 0 0 0 0 0 0
FullNghs:         9232 ave        9479 max        8942 min
Histogram: 1 1 0 0 0 0 0 0 0 2

Total # of neighbors = 36928
Ave neighs/atom = 72.125
Neighbor list builds = 1000
Dangerous builds not checked
write_restart   s5-amorphous.restart
System init for write_restart ...
Generated 0 of 1 mixed pair_coeff terms from geometric mixing rule
unfix           4
undump		1

# ##### s4-Amo-600K: to increase temperature up to 600K
#
# fix             7 all nvt temp ${temp1} ${temp4} ${tau}
# timestep        ${dt}
# thermo_style    custom step pe ke etotal temp press vol
# thermo          ${showt}
# run                 ${run7}
# write_restart   nvt7.restart
# unfix           7
#
#
# #### s8-Amo to crys: stable a time in 600K
#
# fix             8 all nvt temp ${temp4} ${temp4} ${tau}
# timestep        ${dt}
# thermo_style    custom step pe ke etotal temp press vol
# thermo          ${showt}
# restart         100000 smc.restart
# run                 ${run8}
# write_restart   nvt8.restart
# unfix           8
#
# ##### 600K -> 300K
#
# fix             9 all nvt temp ${temp4} ${temp1} ${tau}
# timestep        ${dt}
# thermo_style    custom step pe ke etotal temp press vol
# thermo          ${showt}
# run                 ${run9}
# write_restart   nvt9.restart
# unfix           9
#
# ##### 300K -> 300K
#
# fix             10 all nvt temp ${temp1} ${temp1} ${tau}
# timestep        ${dt}
# thermo_style    custom step pe ke etotal temp press vol
# thermo          ${showt}
# run                 ${run10}
# write_restart   nvt10.restart
# unfix           10
Total wall time: 0:00:33
