LAMMPS (4 May 2022)
## variable
variable        temp            equal 1000
variable        eql_step        equal 500000
variable        rd_seed         equal 2

variable        temp_damp       equal 0.2 # tau_NVT = timestep * 100
variable        t_step          equal 0.002
variable        rlx_step        equal 20000

variable        thermo_freq     equal 100
variable        dump_freq       equal 100

## units
dimension       3
boundary        p p p
units           metal
atom_style      atomic
neighbor        1.0 bin
neigh_modify    every 10 delay 0 check no

## data.lmp, potential
read_data       data.lmp
Reading data file ...
  orthogonal box = (0 0 0) to (26.67021 26.67021 25.5908)
  1 by 1 by 1 MPI processor grid
  reading atoms ...
  900 atoms
  read_data CPU = 0.002 seconds
pair_style      nvnmd model.pb
pair_coeff * *

## velocity, timestep
velocity        all create ${temp} ${rd_seed} loop geom
velocity        all create 1000 ${rd_seed} loop geom
velocity        all create 1000 2 loop geom
timestep        ${t_step}
timestep        0.002

## nvt-relax
fix             equil all nvt temp ${temp} ${temp} ${temp_damp}
fix             equil all nvt temp 1000 ${temp} ${temp_damp}
fix             equil all nvt temp 1000 1000 ${temp_damp}
fix             equil all nvt temp 1000 1000 0.2
run             ${rlx_step}
run             20000
Generated 0 of 6 mixed pair_coeff terms from geometric mixing rule
Neighbor list info ...
  update every 10 steps, delay 0 steps, check no
  max neighbors/atom: 2000, page size: 100000
  master list distance cutoff = 8
  ghost atom cutoff = 8
  binsize = 4, bins = 7 7 7
  1 neighbor lists, perpetual/occasional/extra = 1 0 0
  (1) pair nvnmd, perpetual
      attributes: full, newton on
      pair build: full/bin/atomonly
      stencil: full/bin/3d
      bin: standard
Per MPI rank memory allocation (min/avg/max) = 2.672 | 2.672 | 2.672 Mbytes
   Step          Temp          E_pair         E_mol          TotEng         Press     
         0   1000           198.43733      0              314.6422       4100.7571    
     20000   942.80763      323.80106      0              433.3599       16778.805    
Loop time of 12.0686 on 1 procs for 20000 steps with 900 atoms

Performance: 286.364 ns/day, 0.084 hours/ns, 1657.198 timesteps/s
53.6% CPU use with 1 MPI tasks x no OpenMP threads

MPI task timing breakdown:
Section |  min time  |  avg time  |  max time  |%varavg| %total
---------------------------------------------------------------
Pair    | 7.6791     | 7.6791     | 7.6791     |   0.0 | 63.63
Neigh   | 4.1026     | 4.1026     | 4.1026     |   0.0 | 33.99
Comm    | 0.13885    | 0.13885    | 0.13885    |   0.0 |  1.15
Output  | 1.5409e-05 | 1.5409e-05 | 1.5409e-05 |   0.0 |  0.00
Modify  | 0.12457    | 0.12457    | 0.12457    |   0.0 |  1.03
Other   |            | 0.02334    |            |       |  0.19

Nlocal:            900 ave         900 max         900 min
Histogram: 1 0 0 0 0 0 0 0 0 0
Nghost:           2752 ave        2752 max        2752 min
Histogram: 1 0 0 0 0 0 0 0 0 0
Neighs:              0 ave           0 max           0 min
Histogram: 1 0 0 0 0 0 0 0 0 0
FullNghs:        94814 ave       94814 max       94814 min
Histogram: 1 0 0 0 0 0 0 0 0 0

Total # of neighbors = 94814
Ave neighs/atom = 105.34889
Neighbor list builds = 2000
Dangerous builds not checked
unfix           equil

## nvt-equal
reset_timestep  0
fix             equil all nvt temp ${temp} ${temp} ${temp_damp}
fix             equil all nvt temp 1000 ${temp} ${temp_damp}
fix             equil all nvt temp 1000 1000 ${temp_damp}
fix             equil all nvt temp 1000 1000 0.2
fix             com all recenter INIT INIT INIT

## thermo_style
thermo_style    custom step time temp ke etotal press
thermo          ${thermo_freq}
thermo          100
thermo_modify   flush yes
dump            1 all custom ${dump_freq} dump.lammpstraj id type x y z
dump            1 all custom 100 dump.lammpstraj id type x y z
run             500000
Generated 0 of 6 mixed pair_coeff terms from geometric mixing rule
Per MPI rank memory allocation (min/avg/max) = 3.956 | 3.956 | 3.956 Mbytes
   Step          Time           Temp          KinEng         TotEng         Press     
         0   0              942.80763      109.55884      433.3599       16778.805    
       100   0.2            988.65922      114.88702      434.03514      13148.236    
       200   0.4            1021.2511      118.67435      438.21157      13513.595    
       300   0.6            1072.9376      124.68057      443.86549      16775.984    
       400   0.8            993.57128      115.45782      440.3548       14487.102    
       500   1              1013.0539      117.7218       433.51416      13918.607    
       600   1.2            971.96828      112.94745      432.24494      14932.919    
       700   1.4            999.56539      116.15437      434.2458       14095.681    
       800   1.6            1019.3147      118.44933      439.8599       17772.845    
       900   1.8            1045.8812      121.53649      443.96319      14804.229    
      1000   2              976.42769      113.46565      438.86357      11456.375    
      1100   2.2            1015.453       118.00058      436.02439      18016.529    
      1200   2.4            985.95116      114.57233      434.58316      13647.484    
      1300   2.6            1008.642       117.20911      434.78409      14023.567    
      1400   2.8            989.82198      115.02213      436.89698      14417.87     
      1500   3              991.60416      115.22923      437.92607      13707.515    
      1600   3.2            969.27992      112.63505      434.1719       13231.167    
      1700   3.4            964.05345      112.02771      428.94844      14689.891    
      1800   3.6            1004.6045      116.73994      429.08248      13491.409    
      1900   3.8            1008.263       117.16507      437.56605      15516.921    
      2000   4              1007.8833      117.12095      439.16723      18071.769    
      2100   4.2            965.01076      112.13895      435.9309       14903.129    
      2200   4.4            1019.5568      118.47746      433.76916      15478.875    
      2300   4.6            977.52493      113.59316      430.54317      13998.601    
      2400   4.8            939.86638      109.21705      425.15259      14141.323    
      2500   5              972.15713      112.96939      426.60968      12077.731    
      2600   5.2            1023.0433      118.88261      434.7906       15954.32     
      2700   5.4            1000.5977      116.27432      436.87471      12165.963    
      2800   5.6            1047.2603      121.69674      434.85129      12180.69     
      2900   5.8            975.81169      113.39407      429.00121      15368.651    
      3000   6              994.73339      115.59286      429.57452      14828.403    
      3100   6.2            1007.2459      117.04688      435.73477      15956.843    
      3200   6.4            1027.117       119.356        441.60436      13556.564    
      3300   6.6            987.18141      114.71529      439.59809      13931.728    
      3400   6.8            992.2214       115.30096      435.4826       18161.957    
      3500   7              986.82089      114.67339      433.05619      13484.542    
      3600   7.2            982.20844      114.1374       432.48493      12495.71     
      3700   7.4            983.30988      114.2654       435.0003       14372.558    
      3800   7.6            1007.4259      117.0678       440.49621      16064.806    
      3900   7.8            1045.4009      121.48067      440.83153      14855.038    
      4000   8              978.84176      113.74618      433.92893      12906.827    
      4100   8.2            1015.5514      118.01202      430.91228      13916.727    
      4200   8.4            998.46764      116.0268       432.08574      13010.765    
      4300   8.6            1009.4919      117.30787      433.82818      13395.558    
      4400   8.8            1018.5589      118.36151      433.82911      14225.084    
      4500   9              981.25391      114.02648      434.22555      16245.931    
      4600   9.2            955.49669      111.03337      434.04851      15733.23     
      4700   9.4            1001.5636      116.38656      436.67569      15896.605    
      4800   9.6            1016.0332      118.06801      439.62898      14042.273    
      4900   9.8            1027.5864      119.41054      437.94343      16135.403    
      5000   10             1044.6303      121.39113      434.03927      13351.921    
      5100   10.2           951.4234       110.56003      429.57719      12315.687    
      5200   10.4           954.55951      110.92446      431.00846      14036.133    
      5300   10.6           1043.1465      121.21871      439.87278      13302.393    
      5400   10.8           1026.7166      119.30947      440.27415      14924.743    
      5500   11             986.5165       114.63802      435.92952      15579.906    
      5600   11.2           990.56721      115.10873      431.88506      11838.125    
      5700   11.4           980.52265      113.94151      431.29877      16604.316    
      5800   11.6           999.60748      116.15926      433.56579      15714.782    
      5900   11.8           1011.2705      117.51456      434.35778      13554.269    
      6000   12             1011.2575      117.51305      434.07287      14861.057    
      6100   12.2           1010.7065      117.44901      433.64861      10462.096    
      6200   12.4           1001.9458      116.43099      434.13591      12926.78     
      6300   12.6           1006.7192      116.98568      437.88766      14711.784    
      6400   12.8           1048.5725      121.84924      442.58779      17930.628    
      6500   13             1029.2466      119.60347      440.88606      12379.478    
      6600   13.2           982.9539       114.22403      433.48963      14200.24     
      6700   13.4           981.9981       114.11296      431.77477      12036.405    
      6800   13.6           978.44048      113.69955      435.1172       12046.582    
      6900   13.8           1026.702       119.30777      437.39261      17113.409    
      7000   14             1016.793       118.1563       436.41667      14016.347    
      7100   14.2           1005.6219      116.85816      435.51612      13455.259    
      7200   14.4           1004.8318      116.76635      435.49627      16576.185    
      7300   14.6           1050.8167      122.11001      435.65231      13754.919    
      7400   14.8           956.34549      111.132        432.27275      12995.195    
      7500   15             999.01578      116.0905       426.83478      14970.169    
      7600   15.2           1010.402       117.41364      424.23205      11456.52     
      7700   15.4           973.41217      113.11524      430.75371      13588.624    
      7800   15.6           990.22582      115.06906      436.39896      13565.221    
      7900   15.8           954.05378      110.8657       437.90867      14782.186    
      8000   16             1006.1293      116.91712      438.90996      14847.164    
      8100   16.2           1013.4265      117.76509      435.65949      13397.122    
      8200   16.4           964.69574      112.10234      428.62371      15776.245    
      8300   16.6           946.51233      109.98934      428.82471      12058.292    
      8400   16.8           981.22092      114.02265      435.40745      11644.329    
      8500   17             1044.0189      121.32008      437.17696      15672.629    
      8600   17.2           972.46704      113.00541      435.99892      15224.869    
      8700   17.4           989.4541       114.97939      435.70453      11669.92     
      8800   17.6           994.7058       115.58966      432.7789       13517.329    
      8900   17.8           972.77385      113.04106      426.80459      14360.604    
      9000   18             979.12284      113.77884      427.0694       13892.288    
      9100   18.2           1003.0553      116.55991      434.82916      12904.841    
      9200   18.4           988.96284      114.9223       437.1075       16281.614    
      9300   18.6           1028.4235      119.50782      435.85681      17753.982    
      9400   18.8           980.2197       113.9063       432.06151      15575.62     
      9500   19             958.4474       111.37626      428.10172      10661.61     
      9600   19.2           971.82335      112.93061      424.86072      12714.79     
      9700   19.4           1019.9273      118.52052      428.56014      11776.67     
      9800   19.6           1001.0593      116.32796      436.04669      13395.018    
      9900   19.8           1000.2803      116.23744      437.74246      15338.423    
     10000   20             987.39322      114.7399       435.38352      11763.731    
     10100   20.2           954.64468      110.93436      431.38695      12946.984    
     10200   20.4           958.71541      111.4074       425.26707      13239.497    
     10300   20.6           947.71832      110.12948      424.45432      16903.822    
     10400   20.8           1010.3246      117.40464      434.08197      14919.85     
     10500   21             993.18625      115.41308      436.97773      13392.584    
     10600   21.2           1032.4837      119.97964      437.9106       16942.428    
     10700   21.4           991.49901      115.21701      435.82991      16484.408    
     10800   21.6           999.85686      116.18824      433.63875      14169.685    
     10900   21.8           986.34284      114.61784      434.89661      13789.771    
     11000   22             1047.7788      121.757        438.5724       14604.693    
     11100   22.2           998.4068       116.01973      440.98282      16550.479    
     11200   22.4           1023.3798      118.92172      440.68753      17277.42     
     11300   22.6           986.79433      114.67031      434.93777      15078.991    
     11400   22.8           985.61852      114.53367      429.5589       14627.593    
     11500   23             970.77996      112.80936      431.10813      12803.021    
     11600   23.2           998.5817       116.04006      436.99563      14344.028    
     11700   23.4           996.9708       115.85286      438.20204      16202.292    
     11800   23.6           980.11878      113.89458      436.78691      16497.75     
     11900   23.8           984.84767      114.4441       436.24174      13210.64     
     12000   24             1000.5111      116.26426      436.02244      13864.046    
     12100   24.2           997.98377      115.97057      435.52449      16593.288    
     12200   24.4           997.10182      115.86809      434.15851      15001.692    
     12300   24.6           1004.7249      116.75392      435.66529      15928.205    
     12400   24.8           1015.2623      117.97842      440.44941      15761.24     
     12500   25             988.56412      114.87597      442.17781      15574.669    
     12600   25.2           1010.2954      117.40125      436.98906      16620.753    
     12700   25.4           975.27192      113.33135      430.41055      11427.76     
     12800   25.6           973.12029      113.08132      430.50661      14488.381    
     12900   25.8           969.00654      112.60328      435.43777      14093.341    
     13000   26             1004.4294      116.71959      439.26629      12173.261    
     13100   26.2           1032.145       119.94027      438.5796       15122.642    
     13200   26.4           988.28953      114.84406      435.83784      14666.808    
     13300   26.6           1014.3715      117.87491      432.96227      12736.313    
     13400   26.8           974.58768      113.25183      429.33583      14288.704    
     13500   27             938.38711      109.04515      425.61761      13218.711    
     13600   27.2           963.89765      112.0096       428.80114      12739.614    
     13700   27.4           1015.266       117.97885      436.44412      14640.053    
     13800   27.6           1018.0085      118.29754      438.52413      14778.302    
     13900   27.8           1021.0074      118.64603      435.97872      13174.689    
     14000   28             1002.5364      116.49961      430.32218      15854.758    
     14100   28.2           960.10822      111.56925      426.76122      12411.662    
     14200   28.4           990.19444      115.06542      433.65053      13126.025    
     14300   28.6           1053.9321      122.47204      439.48206      12743.446    
     14400   28.8           1039.2303      120.76363      438.67388      11533.424    
     14500   29             980.79948      113.97368      433.7801       17289.597    
     14600   29.2           960.37956      111.60078      429.36071      12366.57     
     14700   29.4           965.2799       112.17023      429.94197      14041.479    
     14800   29.6           1022.8347      118.85837      439.97496      15462.046    
     14900   29.8           1030.803       119.78433      441.44107      16647.35     
     15000   30             979.79791      113.85729      435.27473      15046.771    
     15100   30.2           976.02839      113.41925      431.4282       12494.98     
     15200   30.4           939.61652      109.18802      430.9968       12797.829    
     15300   30.6           1002.6158      116.50884      436.6623       15795.957    
     15400   30.8           1070.1458      124.35616      443.20817      13611.992    
     15500   31             1020.8338      118.62586      442.60195      12458.045    
     15600   31.2           995.47057      115.67853      439.28778      18338.521    
     15700   31.4           983.51355      114.28906      436.85377      16189.32     
     15800   31.6           1001.5013      116.37933      434.74144      12800.643    
     15900   31.8           970.32629      112.75664      435.7925       16035.459    
     16000   32             1028.4184      119.50723      444.43451      15459.217    
     16100   32.2           1030.8518      119.79         445.2516       14815.818    
     16200   32.4           1003.2069      116.57753      438.51005      15513.137    
     16300   32.6           1025.2333      119.13711      434.99349      14618.418    
     16400   32.8           961.11096      111.68577      434.16052      13302.322    
     16500   33             994.06626      115.51534      432.80104      14199.675    
     16600   33.2           984.30968      114.38158      428.07382      13721.977    
     16700   33.4           954.57336      110.92607      423.802        13860.495    
     16800   33.6           1036.1823      120.40943      429.55901      12861.747    
     16900   33.8           1006.3789      116.94613      435.30558      12091.859    
     17000   34             1037.7743      120.59443      437.23791      14512.695    
     17100   34.2           1008.5869      117.20271      436.92896      14102.973    
     17200   34.4           993.23178      115.41837      431.76212      13366.07     
     17300   34.6           951.82705      110.60694      427.03872      14596.946    
     17400   34.8           971.50164      112.89322      429.09275      15080.454    
     17500   35             1006.4454      116.95386      436.07046      14944.044    
     17600   35.2           1023.2651      118.90839      438.18749      14636.631    
     17700   35.4           978.71978      113.73201      436.13621      15110.063    
     17800   35.6           1030.5275      119.75232      433.73459      13043.592    
     17900   35.8           960.28294      111.58955      430.03032      12308.399    
     18000   36             957.4576       111.26124      428.80182      15515.837    
     18100   36.2           1018.6931      118.3771       436.96253      13318.967    
     18200   36.4           1021.412       118.69305      440.83753      14675.012    
     18300   36.6           1012.191       117.62152      439.55383      16521.468    
     18400   36.8           990.32407      115.08048      432.97836      14450.531    
     18500   37             986.31279      114.61435      430.84623      11329.222    
     18600   37.2           972.1791       112.97195      431.48731      12900.019    
     18700   37.4           928.62302      107.91052      432.48723      17595.978    
     18800   37.6           980.0063       113.8815       435.26345      16976.045    
     18900   37.8           993.13314      115.40691      435.82932      11567.419    
     19000   38             1010.2325      117.39394      436.05091      18104.679    
     19100   38.2           1024.3494      119.03439      435.92703      12808.914    
     19200   38.4           1008.6235      117.20697      435.93878      11853.226    
     19300   38.6           1009.6939      117.33135      433.76798      12895.935    
     19400   38.8           980.89553      113.98484      432.1995       12710.499    
     19500   39             975.44779      113.35178      434.11513      10680.257    
     19600   39.2           991.5736       115.22568      440.53339      13155.3      
     19700   39.4           1010.1298      117.382        442.6167       16789.774    
     19800   39.6           1004.6569      116.74603      437.23887      15681.878    
     19900   39.8           978.65691      113.7247       431.06464      11134.54     
     20000   40             1004.1058      116.68199      432.35091      14743.477    
     20100   40.2           1017.8332      118.27717      435.41865      13772.841    
     20200   40.4           1043.9061      121.30697      437.53008      12937.212    
     20300   40.6           993.82263      115.48703      435.0991       13858.327    
     20400   40.8           936.64066      108.84221      428.37498      12804.285    
     20500   41             992.11592      115.2887       427.6911       13532.981    
     20600   41.2           981.40236      114.04373      433.45583      14008.899    
     20700   41.4           1021.601       118.71501      438.44929      15660.248    
     20800   41.6           998.76605      116.06148      437.69039      14893.89     
     20900   41.8           1007.1627      117.03722      435.70121      13644.6      
     21000   42             972.71702      113.03446      431.90219      12250.261    
     21100   42.2           951.71129      110.59349      425.18664      12343.674    
     21200   42.4           932.48698      108.35953      424.41089      14770.519    
     21300   42.6           976.69462      113.49667      433.77519      14064.37     
     21400   42.8           1017           118.18036      437.14587      13516.375    
     21500   43             1040.922       120.9602       439.0014       16536.462    
     21600   43.2           996.86334      115.84037      437.2238       14720.134    
     21700   43.4           1006.9973      117.018        431.98121      13845.203    
     21800   43.6           970.93326      112.82717      428.45174      15681.317    
     21900   43.8           954.34605      110.89966      433.8523       13559.312    
     22000   44             1038.2964      120.6551       440.46246      14263.653    
     22100   44.2           997.28687      115.88959      439.30678      12651.562    
     22200   44.4           992.22845      115.30178      434.60343      15774.441    
     22300   44.6           1009.1812      117.27178      430.95279      14074.558    
     22400   44.8           1033.0514      120.04561      432.07877      13091.431    
     22500   45             1038.4723      120.67554      442.51905      17659.106    
     22600   45.2           1027.2526      119.37176      443.41319      11679.856    
     22700   45.4           1010.227       117.39329      438.44376      14770.231    
     22800   45.6           969.76021      112.69086      434.38366      15493.807    
     22900   45.8           1017.5541      118.24475      433.87246      13593.057    
     23000   46             1016.8153      118.1589       438.52634      14432.551    
     23100   46.2           1028.6481      119.53392      445.32354      15156.449    
     23200   46.4           1045.0508      121.43999      442.17685      16616.96     
     23300   46.6           968.35456      112.52752      437.34209      17143.837    
     23400   46.8           1014.1664      117.85107      436.18786      15934.85     
     23500   47             1005.4041      116.83285      433.51992      14663.452    
     23600   47.2           988.85329      114.90957      430.49801      15036.371    
     23700   47.4           997.4164       115.90464      429.79615      14131.867    
     23800   47.6           981.1535       114.01482      431.61729      16312.118    
     23900   47.8           967.63243      112.4436       435.92741      14113.689    
     24000   48             1033.8254      120.13555      440.73735      16821.245    
     24100   48.2           1041.5861      121.03737      441.05782      17550.054    
     24200   48.4           978.97357      113.7615       432.03934      13039.218    
     24300   48.6           965.54547      112.20109      429.17235      14840.601    
     24400   48.8           966.70801      112.33618      431.87552      14238.419    
     24500   49             981.41063      114.0447       436.37776      16259.685    
     24600   49.2           1056.8659      122.81297      439.64534      13333.459    
     24700   49.4           1014.3972      117.87789      439.31588      15104.374    
     24800   49.6           962.85302      111.88821      431.46806      13697.172    
     24900   49.8           975.17537      113.32013      427.6946       14950.024    
     25000   50             964.13698      112.03741      431.20797      16450.678    
     25100   50.2           1012.8078      117.6932       437.60659      13308.769    
     25200   50.4           1006.0546      116.90845      439.12573      17783.006    
     25300   50.6           1032.1313      119.93868      437.42415      12806.36     
     25400   50.8           980.25916      113.91089      429.9444       14166.621    
     25500   51             1015.2553      117.97761      426.93464      14054.619    
     25600   51.2           971.12637      112.84961      428.81659      14326.692    
     25700   51.4           969.61574      112.67407      432.06357      15278.903    
     25800   51.6           1002.4917      116.49441      435.13875      15129.696    
     25900   51.8           1004.0232      116.67239      438.3948       14829.381    
     26000   52             1070.2934      124.3733       444.45296      16214.174    
     26100   52.2           1105.9346      128.51499      447.97806      15645.051    
     26200   52.4           1061.1765      123.31388      438.53637      14988.89     
     26300   52.6           965.01989      112.14001      434.67756      15316.891    
     26400   52.8           999.62144      116.16088      433.92601      19221.542    
     26500   53             967.57882      112.43737      433.79699      14493.298    
     26600   53.2           1015.2057      117.97185      436.38517      13387.359    
     26700   53.4           1061.3685      123.33618      442.05432      13841.846    
     26800   53.6           1044.0514      121.32386      443.01026      15244.962    
     26900   53.8           1009.6404      117.32514      435.70416      11053.767    
     27000   54             1000.767       116.294        430.72871      14267.751    
     27100   54.2           993.44228      115.44283      431.39332      15565.726    
     27200   54.4           977.97734      113.64573      435.30869      11412.095    
     27300   54.6           1051.4285      122.18111      442.25621      15688.231    
     27400   54.8           986.1869       114.59972      441.46449      17558.138    
     27500   55             1036.413       120.43624      439.84299      12581.68     
     27600   55.2           1007.8294      117.11468      435.97964      13663.377    
     27700   55.4           990.74698      115.12962      433.86918      15079.521    
     27800   55.6           1017.2734      118.21213      436.54171      12253.116    
     27900   55.8           1069.212       124.24764      446.46641      13470.566    
     28000   56             1035.371       120.31516      442.76707      15506.73     
     28100   56.2           1023.9442      118.9873       436.89197      12726.146    
     28200   56.4           980.48086      113.93665      433.65637      15340.613    
     28300   56.6           1013.6368      117.78954      435.31018      14086.867    
     28400   56.8           1024.2221      119.01959      440.24725      13175.834    
     28500   57             1025.2207      119.13564      448.47447      14347.377    
     28600   57.2           1100.306       127.86091      447.98756      16317.943    
     28700   57.4           1019.0254      118.41571      440.01776      14858.232    
     28800   57.6           1007.4829      117.07442      436.10294      15177.291    
     28900   57.8           965.9836       112.252        431.77912      15707.792    
     29000   58             1010.6082      117.4376       432.20905      15470.479    
     29100   58.2           1028.4085      119.50607      438.21212      15100.048    
     29200   58.4           1011.316       117.51984      442.46721      18105.847    
     29300   58.6           1007.8159      117.11312      440.1847       12291.758    
     29400   58.8           974.02913      113.18693      437.08897      10992.44     
     29500   59             975.71564      113.38291      435.00259      14439.524    
     29600   59.2           994.07192      115.516        434.79287      15559.428    
     29700   59.4           989.93501      115.03527      433.60159      13217.693    
     29800   59.6           981.86767      114.09781      430.11511      12998.226    
     29900   59.8           953.17883      110.76402      429.29638      16315.981    
     30000   60             1022.1228      118.77564      434.08496      14959.358    
     30100   60.2           986.01462      114.5797       439.36014      16243.678    
     30200   60.4           1003.9411      116.66284      438.89084      15358.794    
     30300   60.6           983.15493      114.24739      432.82351      12927.158    
     30400   60.8           969.34687      112.64283      427.8292       12488.071    
     30500   61             971.56768      112.9009       429.91228      14606.233    
     30600   61.2           1010.8001      117.45989      434.12785      14293.279    
     30700   61.4           995.06464      115.63136      437.41887      15424.624    
     30800   61.6           1023.8721      118.97893      437.68583      14528.497    
     30900   61.8           984.04851      114.35123      431.30679      13852.875    
     31000   62             958.01546      111.32606      427.14163      14433.642    
     31100   62.2           975.67737      113.37846      431.12036      14266.014    
     31200   62.4           981.29221      114.03093      436.05148      11496.259    
     31300   62.6           994.64303      115.58236      436.8222       17566.625    
     31400   62.8           1003.2136      116.5783       435.80294      17526.313    
     31500   63             952.5926       110.6959       432.65873      14235.549    
     31600   63.2           974.00532      113.18416      429.03747      14410.165    
     31700   63.4           964.283        112.05438      425.80553      16716.436    
     31800   63.6           971.70173      112.91647      429.87497      14213.618    
     31900   63.8           1000.2392      116.23267      436.63798      12464.181    
     32000   64             1048.5624      121.84806      438.49589      14998.416    
     32100   64.2           999.56018      116.15376      435.53516      12643.749    
     32200   64.4           983.74996      114.31654      428.91331      14303.634    
     32300   64.6           964.88094      112.12386      428.57099      12084.781    
     32400   64.8           994.26332      115.53824      430.5624       14077.234    
     32500   65             1022.9625      118.87323      432.79018      12017.24     
     32600   65.2           985.03498      114.46586      436.42544      13034.623    
     32700   65.4           1005.1862      116.80753      440.39116      16940.522    
     32800   65.6           1077.2725      125.18431      449.14603      16517.293    
     32900   65.8           1074.5187      124.86431      450.84644      15727.012    
     33000   66             1030.6599      119.7677       443.35411      18517.284    
     33100   66.2           1011.4088      117.53063      437.3548       16348.769    
     33200   66.4           972.15075      112.96865      432.13282      15797.169    
     33300   66.6           985.22299      114.48771      430.83758      12154.834    
     33400   66.8           978.36308      113.69055      435.96992      16587.214    
     33500   67             1029.9995      119.69095      441.40525      13067.075    
     33600   67.2           1008.9704      117.24727      441.11065      15389.057    
     33700   67.4           1006.9251      117.0096       437.62629      15138.825    
     33800   67.6           993.21225      115.4161       432.4326       15993.258    
     33900   67.8           971.71101      112.91755      425.95366      13719.169    
     34000   68             931.09671      108.19797      420.65371      14311.633    
     34100   68.2           966.80803      112.3478       426.79346      14071.867    
     34200   68.4           1014.9197      117.93861      430.80945      13963.713    
     34300   68.6           1032.8071      120.01721      435.28472      13608.137    
     34400   68.8           1004.4069      116.71698      437.91768      12406.56     
     34500   69             1032.412       119.9713       437.25049      14102.521    
     34600   69.2           983.05566      114.23586      431.55603      14031.872    
     34700   69.4           951.34773      110.55124      427.26764      13955.034    
     34800   69.6           961.37523      111.71648      430.31268      15154.933    
     34900   69.8           1003.6699      116.63133      435.42539      13871.705    
     35000   70             1014.8896      117.93512      436.62731      16421.82     
     35100   70.2           1019.7093      118.49518      437.30716      14081.618    
     35200   70.4           995.3395       115.6633       435.64158      11727.412    
     35300   70.6           962.39153      111.83458      429.10685      14636.068    
     35400   70.8           960.86857      111.65761      426.8081       14357.147    
     35500   71             1019.7972      118.5054       434.45539      14478.704    
     35600   71.2           1018.1264      118.31125      437.69862      12938.039    
     35700   71.4           984.52975      114.40715      437.73624      14384.655    
     35800   71.6           1003.2243      116.57955      435.38061      15393.713    
     35900   71.8           980.37662      113.92454      431.24347      14001.247    
     36000   72             1002.7716      116.52695      428.22822      11509.753    
     36100   72.2           952.5532       110.69132      427.85199      9963.7965    
     36200   72.4           1032.047       119.92888      435.73152      14229.442    
     36300   72.6           993.58516      115.45943      438.47483      14841.016    
     36400   72.8           1000.635       116.27866      435.30364      13307.637    
     36500   73             967.0477       112.37565      430.14836      16635.181    
     36600   73.2           959.57039      111.50675      430.03691      14294.516    
     36700   73.4           1022.115       118.77474      440.02458      16753.919    
     36800   73.6           1054.2353      122.50727      443.27573      16793.797    
     36900   73.8           999.74344      116.17506      439.88507      14907.66     
     37000   74             1022.755       118.84911      434.56208      12153.11     
     37100   74.2           975.94523      113.40959      432.35359      15024.311    
     37200   74.4           996.95659      115.85121      433.56992      12877.062    
     37300   74.6           990.90787      115.14832      439.99882      17585.129    
     37400   74.8           991.58413      115.22691      445.89658      13528.171    
     37500   75             1045.8326      121.53084      441.60001      14704.544    
     37600   75.2           1002.677       116.51595      434.59843      14357.311    
     37700   75.4           1021.5889      118.71361      432.29094      14142.115    
     37800   75.6           1016.7372      118.14982      431.88595      12974.739    
     37900   75.8           1003.276       116.58556      435.2807       14470.311    
     38000   76             1041.3799      121.01341      442.47753      13582.665    
     38100   76.2           1059.6342      123.13465      442.24251      15717.898    
     38200   76.4           996.70222      115.82165      436.78343      12087.056    
     38300   76.6           978.12813      113.66325      434.17808      15302.913    
     38400   76.8           1022.3014      118.7964       434.75848      16080.844    
     38500   77             975.87564      113.4015       435.44966      13605.393    
     38600   77.2           1008.609       117.20528      438.90936      13243.481    
     38700   77.4           1029.6838      119.65428      443.47007      13883.59     
     38800   77.6           1019.9766      118.52625      441.17327      15557.941    
     38900   77.8           1000.4348      116.2554       432.58545      17130.449    
     39000   78             995.08781      115.63405      431.98103      14079.693    
     39100   78.2           988.72996      114.89524      435.09895      13263.703    
     39200   78.4           1008.5226      117.19524      440.06297      16473.752    
     39300   78.6           1042.2375      121.11307      443.92731      14259.201    
     39400   78.8           1037.6078      120.57508      440.39267      17681.613    
     39500   79             1006.1083      116.91468      432.71674      14336.188    
     39600   79.2           949.96118      110.39012      431.05986      13216.097    
     39700   79.4           1003.2343      116.58072      436.56219      14394.466    
     39800   79.6           1065.6834      123.8376       440.25629      13482.252    
     39900   79.8           1010.0704      117.3751       437.8821       15342.536    
     40000   80             976.86103      113.51601      433.15473      12233.897    
     40100   80.2           940.91487      109.33889      426.51732      14383.455    
     40200   80.4           957.2948       111.24232      417.38698      14325.675    
     40300   80.6           928.82578      107.93408      420.00172      11870.577    
     40400   80.8           964.25146      112.05072      425.84738      14289.036    
     40500   81             1027.1028      119.35435      432.32139      13244.84     
     40600   81.2           1019.6952      118.49354      436.49506      14442.668    
     40700   81.4           1015.9319      118.05623      438.11814      15718.391    
     40800   81.6           991.67098      115.237        435.40017      13631.532    
     40900   81.8           1020.8922      118.63265      429.50389      13361.118    
     41000   82             1016.1196      118.07804      424.67895      12896.973    
     41100   82.2           961.77511      111.76295      426.74245      13885.014    
     41200   82.4           1009.5929      117.31962      434.05565      11951.464    
     41300   82.6           985.04019      114.46647      435.32635      15632.827    
     41400   82.8           1028.5777      119.52573      436.24854      14786.148    
     41500   83             1053.084       122.37349      436.91592      11702.999    
     41600   83.2           998.71217      116.05522      433.94945      17322.269    
     41700   83.4           982.08023      114.12251      428.67361      13862.071    
     41800   83.6           963.23771      111.93291      428.02405      14737.74     
     41900   83.8           1028.4765      119.51398      435.65024      14238.885    
     42000   84             1007.9428      117.12787      440.32538      14486.769    
     42100   84.2           1018.4426      118.34799      439.29671      13802.189    
     42200   84.4           964.10867      112.03412      435.03499      15881.924    
     42300   84.6           962.70214      111.87068      430.08908      17073.104    
     42400   84.8           979.50434      113.82317      423.51189      9546.458     
     42500   85             972.51482      113.01096      424.85759      11670.991    
     42600   85.2           1025.5814      119.17756      433.80534      16688.003    
     42700   85.4           975.78042      113.39044      435.57409      16542.609    
     42800   85.6           1007.0035      117.01872      437.06492      12934.939    
     42900   85.8           1034.2219      120.18162      437.45652      13957.707    
     43000   86             997.55129      115.92032      433.68973      12678.27     
     43100   86.2           971.51986      112.89534      428.9131       12915.645    
     43200   86.4           974.02891      113.1869       429.62986      13615.286    
     43300   86.6           1013.8318      117.81219      438.75387      15714.198    
     43400   86.8           1015.1761      117.9684       440.5788       13843.724    
     43500   87             1010.4398      117.41802      437.79169      13758.459    
     43600   87.2           973.8701       113.16845      432.26162      17260.929    
     43700   87.4           964.00811      112.02244      429.66897      13331.038    
     43800   87.6           991.56217      115.22435      431.51314      11351.074    
     43900   87.8           1004.3425      116.70948      432.82276      13136.762    
     44000   88             1020.7094      118.6114       434.62718      12905.929    
     44100   88.2           1026.2584      119.25622      434.96087      14294.652    
     44200   88.4           997.06794      115.86415      430.43255      15872.751    
     44300   88.6           961.16454      111.692        425.59814      12104.217    
     44400   88.8           1002.4769      116.4927       428.08453      12124.959    
     44500   89             1012.7325      117.68445      436.57217      15039.525    
     44600   89.2           978.77032      113.73788      436.9578       14525.861    
     44700   89.4           974.43475      113.23406      434.5722       13221.452    
     44800   89.6           991.7325       115.24415      431.78695      12299.128    
     44900   89.8           1014.7993      117.92462      431.14535      15774.278    
     45000   90             980.13436      113.89639      434.9233       13569.003    
     45100   90.2           1040.8642      120.95349      439.88752      13612.938    
     45200   90.4           1014.8956      117.93581      440.29583      16018.296    
     45300   90.6           1021.4964      118.70286      435.19257      15179.439    
     45400   90.8           960.43844      111.60762      428.44184      12685.579    
     45500   91             944.12632      109.71208      429.7381       12651.527    
     45600   91.2           1026.1408      119.24256      434.38107      16384.513    
     45700   91.4           936.18789      108.78959      435.00248      14512.829    
     45800   91.6           994.23833      115.53534      434.78563      15016.224    
     45900   91.8           987.66557      114.77155      434.90356      16029.87     
     46000   92             1031.1615      119.82599      436.94257      12339.3      
     46100   92.2           1041.7928      121.0614       439.9424       13399.067    
     46200   92.4           981.67912      114.07589      437.59124      16728.631    
     46300   92.6           940.42405      109.28185      433.95236      16766.587    
     46400   92.8           982.48588      114.16964      432.15693      12984.3      
     46500   93             1026.5728      119.29276      435.00709      14701.995    
     46600   93.2           1022.7481      118.84831      441.71704      15468.138    
     46700   93.4           1024.6901      119.07398      443.08428      14887.409    
     46800   93.6           1022.2939      118.79553      436.91729      14727.136    
     46900   93.8           958.00248      111.32455      432.94923      15901.551    
     47000   94             1009.0938      117.26161      434.66314      14082.626    
     47100   94.2           1048.023       121.78538      437.25176      13341.192    
     47200   94.4           1043.3283      121.23983      439.40649      13877.596    
     47300   94.6           1007.8051      117.11187      438.49541      17172.941    
     47400   94.8           994.56254      115.57301      432.87834      12933.923    
     47500   95             948.28511      110.19535      428.41302      14460.728    
     47600   95.2           966.42628      112.30344      429.60265      13286.845    
     47700   95.4           1015.9758      118.06134      437.57056      12608.635    
     47800   95.6           987.49406      114.75162      439.08575      19210.403    
     47900   95.8           1025.6345      119.18373      438.76916      11389.507    
     48000   96             996.6736       115.81833      434.37361      12557.018    
     48100   96.2           1013.0846      117.72537      428.9084       14887.519    
     48200   96.4           967.65924      112.44672      428.70415      11605.593    
     48300   96.6           953.60073      110.81305      430.49998      17117.808    
     48400   96.8           1011.5137      117.54282      432.6936       14075.529    
     48500   97             975.0964       113.31095      434.34273      13118.356    
     48600   97.2           976.73132      113.50094      437.27575      17056.409    
     48700   97.4           997.27452      115.88816      442.1478       17845.172    
     48800   97.6           1074.0219      124.80658      447.93482      13947.677    
     48900   97.8           1029.5989      119.64441      442.72219      14645.786    
     49000   98             997.85773      115.95593      437.17541      18588.164    
     49100   98.2           1042.0939      121.09639      434.09791      15203.728    
     49200   98.4           996.4069       115.78734      431.48276      16798.146    
     49300   98.6           979.81768      113.85959      431.40292      13261.679    
     49400   98.8           987.26161      114.72461      437.44515      14009.261    
     49500   99             1041.9947      121.08486      442.24959      16605.552    
     49600   99.2           1042.5982      121.15499      439.3979       14722.019    
     49700   99.4           1000.0428      116.20985      435.06668      16031.875    
     49800   99.6           994.79356      115.59986      434.75058      13228.85     
     49900   99.8           1024.9914      119.10899      436.28174      15811.677    
     50000   100            1008.8657      117.23511      436.95379      14057.533    
     50100   100.2          1027.1932      119.36485      434.85802      16197.84     
     50200   100.4          956.73826      111.17765      428.2017       13557.809    
     50300   100.6          962.14247      111.80564      428.80185      10893.085    
     50400   100.8          974.68701      113.26338      435.62566      12963.007    
     50500   101            1034.5465      120.21934      438.92613      12277.608    
     50600   101.2          1002.6436      116.51207      437.93073      17601.315    
     50700   101.4          979.95038      113.87501      435.98558      16008.314    
     50800   101.6          974.48904      113.24037      431.85212      13414.812    
     50900   101.8          961.54235      111.7359       425.98547      13811.48     
     51000   102            986.89248      114.68171      428.37866      15780.549    
     51100   102.2          1015.2608      117.97825      435.71963      14598.87     
     51200   102.4          1031.4717      119.86203      436.54399      12581.398    
     51300   102.6          1000.5786      116.27211      434.79369      13285.632    
     51400   102.8          987.85845      114.79396      433.24488      15814.089    
     51500   103            958.6623       111.40123      434.19482      14141.282    
     51600   103.2          998.00257      115.97276      438.57381      11515.331    
     51700   103.4          1021.4612      118.69876      441.2514       18166.85     
     51800   103.6          996.95502      115.85103      437.21625      16575.35     
     51900   103.8          969.80351      112.69589      430.22127      12710.83     
     52000   104            947.66322      110.12308      430.24428      14261.06     
     52100   104.2          1013.4438      117.76711      434.47203      13428.748    
     52200   104.4          996.18956      115.76208      436.21394      13536.911    
     52300   104.6          1007.7163      117.10154      436.11823      13424.014    
     52400   104.8          965.47639      112.19306      434.34323      13952.364    
     52500   105            971.46769      112.88928      427.60195      14249.58     
     52600   105.2          970.64193      112.79332      422.78224      11280.694    
     52700   105.4          973.56373      113.13285      428.7392       15226.373    
     52800   105.6          981.96502      114.10912      434.26717      15266.842    
     52900   105.8          975.06218      113.30697      436.3309       17454.794    
     53000   106            1006.1852      116.92362      439.20166      14816.606    
     53100   106.2          1026.5997      119.29589      441.02791      15118.467    
     53200   106.4          1044.1995      121.34106      441.22349      13503.567    
     53300   106.6          1025.7522      119.19741      435.07025      15553.962    
     53400   106.8          963.54472      111.96859      430.62064      14663.208    
     53500   107            998.82154      116.06793      433.42356      15027.751    
     53600   107.2          1046.3397      121.58977      438.5987       15962.749    
     53700   107.4          991.24241      115.1872       438.77127      17113.59     
     53800   107.6          1011.127       117.49788      436.16953      12716.227    
     53900   107.8          1015.8892      118.05128      435.6288       11445.999    
     54000   108            990.24079      115.0708       434.93237      14643.161    
     54100   108.2          1032.2652      119.95425      436.58277      14659.565    
     54200   108.4          1033.5986      120.10919      440.12317      13517.385    
     54300   108.6          1039.4356      120.78748      442.20945      14801.203    
     54400   108.8          1009.7759      117.34087      438.21452      16576.576    
     54500   109            959.71074      111.52306      432.66496      13078.355    
     54600   109.2          1005.5735      116.85253      431.62098      13686.417    
     54700   109.4          1020.5114      118.58839      433.95582      13409.198    
     54800   109.6          1014.5086      117.89084      441.59964      17415.009    
     54900   109.8          1008.7064      117.21659      441.57199      15532.79     
     55000   110            963.16304      111.92424      436.42665      15398.123    
     55100   110.2          977.93353      113.64064      431.45111      13632.825    
     55200   110.4          971.20268      112.85848      431.51063      13762.98     
     55300   110.6          992.73009      115.36007      433.65094      15260.708    
     55400   110.8          1037.1581      120.52282      436.27802      14024.099    
     55500   111            1011.7264      117.56753      437.18918      12681.529    
     55600   111.2          1006.1481      116.9193       437.20478      13113.981    
     55700   111.4          1013.0246      117.71839      432.92345      14786.935    
     55800   111.6          974.21927      113.20902      429.14478      13091.614    
     55900   111.8          979.86254      113.8648       432.33553      15318.307    
     56000   112            1037.1574      120.52274      439.08635      14557.268    
     56100   112.2          1031.1895      119.82924      439.39927      14677.499    
     56200   112.4          990.83284      115.1396       437.04762      14554.537    
     56300   112.6          1009.9247      117.35816      433.707        12760.082    
     56400   112.8          966.61499      112.32537      432.12594      13208.644    
     56500   113            997.24213      115.88439      433.15323      14433.359    
     56600   113.2          1031.8583      119.90696      435.29429      10795.676    
     56700   113.4          1021.2934      118.67927      437.82624      16570.456    
     56800   113.6          1019.9829      118.52698      438.73635      15262.956    
     56900   113.8          997.46701      115.91052      438.83913      10985.49     
     57000   114            1030.2437      119.71933      437.42107      11960.28     
     57100   114.2          961.40931      111.72044      434.80768      15211.91     
     57200   114.4          973.90836      113.17289      433.33847      15990.841    
     57300   114.6          934.96968      108.64803      426.54188      14483.196    
     57400   114.8          966.74735      112.34075      425.23222      13950.692    
     57500   115            982.15172      114.13081      431.52036      11650.708    
     57600   115.2          987.24287      114.72243      436.7951       14635.778    
     57700   115.4          988.79867      114.90322      436.98152      15865.561    
     57800   115.6          959.05113      111.44641      434.28756      15883.128    
     57900   115.8          976.66125      113.49279      433.00263      11801.191    
     58000   116            991.06878      115.16702      433.46558      13126.401    
     58100   116.2          1020.1926      118.55135      438.32151      14014.426    
     58200   116.4          1012.0968      117.61058      442.55227      16550.218    
     58300   116.6          1050.4873      122.07174      440.56428      13746.307    
     58400   116.8          966.85259      112.35298      432.51879      12650.042    
     58500   117            950.76424      110.48344      431.64573      13976.743    
     58600   117.2          975.7352       113.38518      433.96239      14136.892    
     58700   117.4          1003.0548      116.55985      437.36833      15606.995    
     58800   117.6          1004.8168      116.76461      443.57673      14101.81     
     58900   117.8          1048.9014      121.88746      447.86918      15090.432    
     59000   118            973.59137      113.13606      438.53359      16988.908    
     59100   118.2          996.9291       115.84802      435.21602      14133.884    
     59200   118.4          1036.0463      120.39362      434.05824      12131.488    
     59300   118.6          990.52857      115.10424      432.74004      12881.302    
     59400   118.8          991.47299      115.21399      434.78171      15214.62     
     59500   119            1005.6969      116.86688      441.08805      13624.046    
     59600   119.2          1049.1803      121.91987      443.02393      13216.994    
     59700   119.4          1005.2447      116.81433      436.68951      15267.883    
     59800   119.6          994.93593      115.6164       430.30649      14433.704    
     59900   119.8          974.90071      113.28821      430.8568       10929.99     
     60000   120            1032.3771      119.96724      435.29557      15370.654    
     60100   120.2          1011.7782      117.57355      439.57951      15574.133    
     60200   120.4          1054.6237      122.55241      440.37896      11483.057    
     60300   120.6          961.68955      111.75301      434.98248      17546.563    
     60400   120.8          916.47086      106.49838      426.78637      14459.537    
     60500   121            993.51343      115.4511       429.01186      12914.694    
     60600   121.2          1017.5962      118.24963      434.24009      13488.115    
     60700   121.4          1021.0486      118.65082      437.8297       14990.793    
     60800   121.6          994.19212      115.52997      438.47892      12709.75     
     60900   121.8          992.2595       115.30539      438.56483      16055.231    
     61000   122            989.38646      114.97153      432.45962      11878.464    
     61100   122.2          956.87398      111.19342      428.34699      14713.347    
     61200   122.4          952.94376      110.73671      430.31763      14817.505    
     61300   122.6          1008.13        117.14962      436.27593      13336.176    
     61400   122.8          1049.7118      121.98162      440.40586      14095.488    
     61500   123            1024.6361      119.0677       439.48485      14365.404    
     61600   123.2          991.19377      115.18154      436.11309      11708.171    
     61700   123.4          985.38902      114.507        434.84419      14884.21     
     61800   123.6          977.98733      113.64689      434.70413      15622.571    
     61900   123.8          950.89097      110.49816      434.24492      12033.758    
     62000   124            981.74171      114.08317      434.0569       14890.35     
     62100   124.2          1021.9767      118.75867      435.45045      16358.698    
     62200   124.4          976.92366      113.52329      437.11309      13510.165    
     62300   124.6          1015.1116      117.96091      435.57574      15422.952    
     62400   124.8          1029.2968      119.6093       430.37705      14043.135    
     62500   125            966.05445      112.26023      427.60524      14056.642    
     62600   125.2          1012.037       117.60363      434.65353      14149.115    
     62700   125.4          997.4474       115.90825      439.20567      14990.919    
     62800   125.6          1037.7104      120.587        437.48012      16607.281    
     62900   125.8          1033.7199      120.12329      432.73785      17841.361    
     63000   126            966.05075      112.2598       429.91851      12083.172    
     63100   126.2          1002.4604      116.49078      436.11381      11996.483    
     63200   126.4          1020.5295      118.5905       442.62828      16389.189    
     63300   126.6          1016.762       118.15269      440.54142      13597.622    
     63400   126.8          1015.1206      117.96196      435.00273      14564.942    
     63500   127            995.88927      115.72718      432.87949      13879.144    
     63600   127.2          968.11826      112.50006      433.49691      15984.654    
     63700   127.4          1003.5834      116.62128      437.01861      15466.197    
     63800   127.6          1066.045       123.87962      446.01962      11837.499    
     63900   127.8          1003.9346      116.66209      442.71508      16246.044    
     64000   128            992.69499      115.35599      436.78514      15851.163    
     64100   128.2          1022.7601      118.8497       434.08015      13069.888    
     64200   128.4          993.56186      115.45673      433.58361      12754.671    
     64300   128.6          992.14731      115.29235      435.3645       14679.163    
     64400   128.8          1030.3187      119.72805      444.03671      15227.318    
     64500   129            1047.8746      121.76813      445.59166      13446.265    
     64600   129.2          1000.7471      116.29168      439.45826      13191.931    
     64700   129.4          985.61006      114.53269      436.09046      14916.383    
     64800   129.6          994.77467      115.59766      436.56119      14555.091    
     64900   129.8          1004.3353      116.70865      438.46572      14148.617    
     65000   130            1004.1899      116.69176      438.87516      12940.214    
     65100   130.2          1002.8562      116.53677      434.76335      14506.097    
     65200   130.4          983.79335      114.32158      431.30156      15076.757    
     65300   130.6          947.20886      110.07028      430.18206      12952.022    
     65400   130.8          985.77942      114.55237      435.03101      13621.277    
     65500   131            1027.4841      119.39865      441.44695      15402.489    
     65600   131.2          995.34527      115.66397      440.02762      9303.1041    
     65700   131.4          1012.5412      117.66222      436.44528      11321.301    
     65800   131.6          981.83951      114.09453      434.0788       14393.794    
     65900   131.8          972.91909      113.05794      433.24947      13390.352    
     66000   132            966.19866      112.27699      433.26471      15914.72     
     66100   132.2          1023.3647      118.91996      435.64669      16394.164    
     66200   132.4          1028.7756      119.54874      443.04217      14692.811    
     66300   132.6          1030.431       119.7411       446.3536       17639.924    
     66400   132.8          1023.8503      118.9764       439.9569       13499.429    
     66500   133            977.31406      113.56865      436.41007      12980.984    
     66600   133.2          1017.2647      118.21111      434.41094      14971.038    
     66700   133.4          956.99706      111.20772      431.78852      16494.784    
     66800   133.6          957.50403      111.26663      432.07726      14639.777    
     66900   133.8          988.048        114.81599      438.36093      14384.788    
     67000   134            1027.4512      119.39484      441.33078      15968.107    
     67100   134.2          1041.9832      121.08353      437.18868      11925.374    
     67200   134.4          963.57077      111.97162      430.05415      14103.671    
     67300   134.6          1007.0718      117.02665      432.10827      12664.208    
     67400   134.8          972.09287      112.96193      436.35377      12987.068    
     67500   135            1008.1289      117.14949      440.07036      11860.268    
     67600   135.2          997.81092      115.95049      438.04008      12704.168    
     67700   135.4          987.31269      114.73054      434.33181      16401.721    
     67800   135.6          976.18867      113.43788      432.7843       13482.373    
     67900   135.8          1003.2504      116.58259      433.83736      11918.691    
     68000   136            978.25277      113.67774      436.01548      14476.215    
     68100   136.2          1026.6955      119.30702      438.92938      16254.443    
     68200   136.4          1026.3811      119.27048      441.06442      14404.221    
     68300   136.6          982.49467      114.17067      435.73952      13038.923    
     68400   136.8          973.22131      113.09306      430.02342      11655.77     
     68500   137            1003.9714      116.66637      431.29379      13899.955    
     68600   137.2          1012.7435      117.68572      436.61033      13711.369    
     68700   137.4          989.07905      114.9358       439.65049      15025.665    
     68800   137.6          1006.262       116.93255      438.41748      17621.517    
     68900   137.8          1026.9066      119.33155      434.77254      14293.89     
     69000   138            974.88567      113.28646      430.95933      13871.196    
     69100   138.2          989.12323      114.94094      432.2801       14446.63     
     69200   138.4          1027.8612      119.44248      441.27581      17911.977    
     69300   138.6          1041.0477      120.97481      444.33125      15629.944    
     69400   138.8          1041.5316      121.03105      441.19745      15933.239    
     69500   139            983.49718      114.28716      436.5136       13944.734    
     69600   139.2          1002.4138      116.48536      433.9471       15776.784    
     69700   139.4          983.04842      114.23501      433.12241      16390.911    
     69800   139.6          1005.9338      116.89441      433.6936       13118.682    
     69900   139.8          988.97728      114.92398      434.56266      14437.154    
     70000   140            1015.7939      118.04019      435.43281      13267.414    
     70100   140.2          1011.8069      117.57689      435.68062      13736.018    
     70200   140.4          1030.3585      119.73268      437.18716      15133.898    
     70300   140.6          991.81875      115.25417      432.54148      14586.043    
     70400   140.8          961.81283      111.76733      426.32645      12555.147    
     70500   141            981.64763      114.07224      429.80385      13978.873    
     70600   141.2          970.42535      112.76815      435.53195      16231.786    
     70700   141.4          1022.6618      118.83828      436.98603      15525.252    
     70800   141.6          969.64529      112.67751      435.49939      15512.574    
     70900   141.8          1002.1053      116.44952      432.63778      12756.435    
     71000   142            996.17674      115.76059      426.96673      12093.75     
     71100   142.2          917.51796      106.62006      422.03123      14200.018    
     71200   142.4          977.82481      113.628        427.96432      15468.049    
     71300   142.6          977.81487      113.62685      432.90575      14896.914    
     71400   142.8          984.5347       114.40773      435.39135      12009.822    
     71500   143            1002.3682      116.48007      436.79044      13341.06     
     71600   143.2          1007.3354      117.05728      437.63897      15222.04     
     71700   143.4          1035.8207      120.36741      434.10131      10472.453    
     71800   143.6          995.37662      115.66761      429.56617      13699.765    
     71900   143.8          981.98579      114.11153      429.2459       12493.199    
     72000   144            998.93269      116.08084      436.48754      14016.509    
     72100   144.2          1057.3168      122.86536      440.85312      17437.585    
     72200   144.4          1052.3367      122.28665      438.88679      13886.575    
     72300   144.6          993.11064      115.40429      435.35129      14763.391    
     72400   144.8          1008.0943      117.14547      433.31864      13743.157    
     72500   145            998.17267      115.99253      433.90219      15060.695    
     72600   145.2          969.15824      112.62091      434.53601      12999.959    
     72700   145.4          1001.1901      116.34316      436.03746      14525.085    
     72800   145.6          1012.9208      117.70633      438.92488      15769.821    
     72900   145.8          1016.1039      118.07622      443.43639      16035.934    
     73000   146            1060.8032      123.27049      448.65895      15200.683    
     73100   146.2          1014.1106      117.84459      441.37415      15577.086    
     73200   146.4          983.07148      114.23769      436.01107      13453.189    
     73300   146.6          1018.2062      118.32051      433.25759      13691.19     
     73400   146.8          969.50004      112.66063      430.45827      14193.596    
     73500   147            967.32355      112.40771      432.96982      11470.231    
     73600   147.2          1083.3015      125.88491      441.2365       15022.009    
     73700   147.4          1014.9208      117.93874      441.27656      15282.039    
     73800   147.6          973.73136      113.15233      437.97331      13624.956    
     73900   147.8          926.26568      107.63658      431.51925      14946.396    
     74000   148            961.0351       111.67696      430.63607      13325.616    
     74100   148.2          1030.6058      119.76141      432.91918      11753.115    
     74200   148.4          965.29598      112.17209      434.1276       13899.423    
     74300   148.6          1015.0873      117.95809      436.02468      13850.405    
     74400   148.8          967.46122      112.42371      436.20896      15394.964    
     74500   149            974.93764      113.2925       435.66154      14462.308    
     74600   149.2          996.97887      115.8538       434.43534      15141.55     
     74700   149.4          979.98911      113.87951      432.99657      16205.876    
     74800   149.6          1010.878       117.46895      435.50484      12753.065    
     74900   149.8          1031.0888      119.81754      441.40017      15260.989    
     75000   150            1010.1674      117.38638      442.50059      15015.182    
     75100   150.2          993.23346      115.41856      437.35846      14430.592    
     75200   150.4          1004.3589      116.7114       430.69884      13107.357    
     75300   150.6          991.17851      115.17977      431.48342      13280.386    
     75400   150.8          991.52603      115.22015      435.93869      14204.828    
     75500   151            1016.597       118.13352      439.52536      14036.252    
     75600   151.2          1008.2211      117.1602       438.32328      16606.126    
     75700   151.4          1013.3204      117.75277      437.62925      15043.371    
     75800   151.6          1013.2476      117.74431      434.99209      15015.209    
     75900   151.8          997.58302      115.92401      430.55184      12765.709    
     76000   152            969.47798      112.65806      426.07464      15189.409    
     76100   152.2          997.14926      115.8736       430.13711      12673.479    
     76200   152.4          973.29475      113.10159      437.57271      14556.04     
     76300   152.6          1020.7571      118.61694      439.70764      14556.745    
     76400   152.8          1040.7937      120.9453       437.99217      14967.103    
     76500   153            1027.736       119.42793      431.37797      11854.264    
     76600   153.2          953.01782      110.74531      427.48162      14822.427    
     76700   153.4          967.71083      112.45271      430.18828      12797.354    
     76800   153.6          1010.6555      117.4431       434.76888      13935.986    
     76900   153.8          1002.9812      116.55131      435.64888      14057.227    
     77000   154            1030.3746      119.73454      436.77509      15107.78     
     77100   154.2          1000.3603      116.24674      436.40698      14763.102    
     77200   154.4          1013.5354      117.77774      432.2219       14640.17     
     77300   154.6          987.97716      114.80776      428.43526      15128.416    
     77400   154.8          997.10574      115.86854      430.09239      15081.942    
     77500   155            1007.4545      117.07112      437.538        15909.998    
     77600   155.2          1016.2143      118.08905      438.91956      18575.525    
     77700   155.4          1025.5765      119.17699      435.78124      15089.703    
     77800   155.6          1011.7339      117.5684       432.42928      11740.912    
     77900   155.8          982.80611      114.20686      432.01322      13035.427    
     78000   156            1016.6922      118.14458      433.98134      13494.426    
     78100   156.2          1001.6905      116.40131      435.66583      17911.006    
     78200   156.4          1051.1017      122.14314      437.45881      12833.542    
     78300   156.6          1004.496       116.72732      435.66108      11314.598    
     78400   156.8          965.02432      112.14053      425.92413      14263.983    
     78500   157            986.18975      114.60005      426.89544      15176.304    
     78600   157.2          1027.7694      119.43181      433.67526      15131.33     
     78700   157.4          969.19488      112.62517      436.54511      14252.294    
     78800   157.6          1014.332       117.87032      437.51667      14174.853    
     78900   157.8          1018.042       118.30144      435.07661      16018.824    
     79000   158            957.06145      111.2152       427.44755      13805.835    
     79100   158.2          976.98325      113.53021      426.87003      15172.509    
     79200   158.4          999.96284      116.20055      432.65485      13979.098    
     79300   158.6          997.07647      115.86514      435.99133      14823.447    
     79400   158.8          984.46963      114.40017      436.03223      13184.476    
     79500   159            991.37042      115.20207      436.31479      14341.686    
     79600   159.2          1026.1871      119.24794      438.21935      14571.563    
     79700   159.4          1045.4684      121.48852      441.06062      15419.207    
     79800   159.6          1004.0497      116.67546      437.59994      12407.922    
     79900   159.8          943.586        109.64929      431.6741       13733.925    
     80000   160            1002.7355      116.52275      432.54926      15208.998    
     80100   160.2          995.9181       115.73053      436.18975      15053.408    
     80200   160.4          1044.5467      121.38141      444.26815      16243.678    
     80300   160.6          1063.5208      123.5863       443.16393      17866.709    
     80400   160.8          1009.5507      117.31471      439.81583      17454.525    
     80500   161            1014.7504      117.91894      436.29623      13948.92     
     80600   161.2          953.92492      110.85072      432.41411      12675.136    
     80700   161.4          992.51691      115.3353       429.92213      14049.115    
     80800   161.6          965.13762      112.15369      435.71186      11633.446    
     80900   161.8          1036.2799      120.42077      442.38167      11262.985    
     81000   162            1031.2434      119.83551      440.63008      14659.007    
     81100   162.2          998.34937      116.01306      435.14876      14087.291    
     81200   162.4          987.81247      114.78862      430.87597      11777.155    
     81300   162.6          987.65217      114.76999      431.71345      14129.125    
     81400   162.8          974.60869      113.25428      435.7749       14666.225    
     81500   163            1010.49        117.42386      435.90574      11157.133    
     81600   163.2          1007.9535      117.1291       435.59785      14573.026    
     81700   163.4          978.70012      113.72972      433.88104      12406.018    
     81800   163.6          992.2562       115.305        431.87512      12809.64     
     81900   163.8          977.13979      113.5484       429.6268       13271.658    
     82000   164            984.69631      114.42651      431.69194      14192.2      
     82100   164.2          1015.7307      118.03285      438.312        15477.246    
     82200   164.4          1028.2251      119.48477      440.8278       13378.897    
     82300   164.6          994.90995      115.61338      438.26548      12481.637    
     82400   164.8          981.35848      114.03864      432.46566      13366.454    
     82500   165            971.87521      112.93663      424.50628      13182.292    
     82600   165.2          977.39593      113.57817      425.14717      11136.591    
     82700   165.4          933.35798      108.46074      428.53747      12950.411    
     82800   165.6          1032.4656      119.97753      433.97004      15279.373    
     82900   165.8          985.60231      114.53179      436.47323      16076.17     
     83000   166            971.6389       112.90917      437.36489      15204.867    
     83100   166.2          996.99749      115.85596      439.33837      13625.324    
     83200   166.4          1019.6949      118.49351      441.47714      15332.759    
     83300   166.6          1027.4237      119.39164      439.06962      14607.403    
     83400   166.8          987.31873      114.73124      433.09676      16610.923    
     83500   167            979.5897       113.83309      431.03084      18327.289    
     83600   167.2          943.81475      109.67587      432.21249      13477.181    
     83700   167.4          1033.3111      120.07578      441.6764       14193.398    
     83800   167.6          1010.3731      117.41027      442.00939      16029.166    
     83900   167.8          1013.5231      117.77632      436.76686      15059.384    
     84000   168            954.70461      110.94133      433.48287      12888.718    
     84100   168.2          984.62637      114.41838      434.49383      17087.145    
     84200   168.4          1003.2799      116.58601      436.33061      13856.715    
     84300   168.6          969.35263      112.6435       435.6129       13888.441    
     84400   168.8          999.37669      116.13244      435.14741      15090.976    
     84500   169            990.0604       115.04984      433.82531      17423.577    
     84600   169.2          960.15247      111.57439      430.82219      12694.133    
     84700   169.4          958.88795      111.42745      427.52174      13711.494    
     84800   169.6          997.98847      115.97112      430.20613      14257.294    
     84900   169.8          1023.3464      118.91783      437.57859      13918.552    
     85000   170            1003.2312      116.58035      439.17547      11613.515    
     85100   170.2          1045.7354      121.51954      438.24512      13664.298    
     85200   170.4          988.14548      114.82732      430.87144      12767.135    
     85300   170.6          965.36647      112.18029      427.36682      11098.099    
     85400   170.8          975.21183      113.32436      429.19231      12857.128    
     85500   171            982.41237      114.1611       433.29775      12710.866    
     85600   171.2          997.6414       115.93079      435.08723      12514.093    
     85700   171.4          1042.5175      121.14562      435.97942      12550.361    
     85800   171.6          993.22429      115.4175       434.46481      14943.914    
     85900   171.8          941.20305      109.37238      428.4076       15177.75     
     86000   172            952.03106      110.63065      423.07077      13601.935    
     86100   172.2          983.97929      114.34319      428.36725      12771.273    
     86200   172.4          981.97094      114.10981      433.65731      13649.234    
     86300   172.6          1007.4848      117.07464      436.64324      15858.218    
     86400   172.8          990.11176      115.05581      437.68716      13714.964    
     86500   173            994.63131      115.581        437.90546      11733.444    
     86600   173.2          985.18875      114.48373      435.88838      12785.464    
     86700   173.4          995.67205      115.70194      431.55418      15829.647    
     86800   173.6          971.95553      112.94597      430.708        13062.072    
     86900   173.8          1013.6365      117.7895       437.04683      14949.477    
[...]
    478600   957.2          1019.544       118.47598      435.39235      14118.696    
    478700   957.4          1034.2016      120.17927      440.53812      13359.345    
    478800   957.6          1060.684       123.25665      448.09973      18399.966    
    478900   957.8          1027.8749      119.44407      445.11598      15396.316    
    479000   958            980.81319      113.97527      436.68406      12018.707    
    479100   958.2          1019.9954      118.52843      434.6974       14182.08     
    479200   958.4          986.94414      114.68772      433.29451      12984.156    
    479300   958.6          1004.7326      116.75482      435.4143       15353.126    
    479400   958.8          1011.0752      117.49186      441.13353      16516.219    
    479500   959            984.33127      114.38409      442.61786      14634.414    
    479600   959.2          985.86332      114.56212      434.94903      14296.555    
    479700   959.4          959.29811      111.47511      430.34949      14227.717    
    479800   959.6          979.61837      113.83643      432.04506      11810.941    
    479900   959.8          997.93084      115.96442      436.39362      15802.135    
    480000   960            1027.8686      119.44334      439.42074      16491.84     
    480100   960.2          938.52065      109.06067      435.88307      14024.548    
    480200   960.4          969.98133      112.71655      428.80868      14060.923    
    480300   960.6          986.97098      114.69083      428.28579      14348.235    
    480400   960.8          950.51169      110.45409      434.23241      13512.639    
    480500   961            978.26907      113.67963      437.94301      14536.348    
    480600   961.2          968.08097      112.49572      437.17573      16729.341    
    480700   961.4          1018.9802      118.41046      433.94083      13925.402    
    480800   961.6          953.00549      110.74388      428.53483      14192.063    
    480900   961.8          956.21849      111.11725      426.59802      14790.727    
    481000   962            1012.7838      117.69042      436.32908      14968.853    
    481100   962.2          1042.5531      121.14974      439.92555      13438.961    
    481200   962.4          1028.9394      119.56777      437.3685       14909.257    
    481300   962.6          969.12939      112.61756      431.61438      12025.569    
    481400   962.8          1011.3519      117.52401      431.43812      12621.782    
    481500   963            1035.4703      120.3267       436.63141      15399.271    
    481600   963.2          1022.384       118.806        442.24084      15440.635    
    481700   963.4          1012.0393      117.6039       441.4103       12409.862    
    481800   963.6          1013.5219      117.77618      438.26918      14829.253    
    481900   963.8          1002.9186      116.54403      432.84872      13023.449    
    482000   964            953.84168      110.84105      428.46782      14480.195    
    482100   964.2          992.7731       115.36507      429.5407       13645.275    
    482200   964.4          990.43093      115.0929       436.62124      12821.666    
    482300   964.6          1048.8882      121.88592      441.57939      14187.385    
    482400   964.8          1015.3893      117.99319      439.26227      14043.414    
    482500   965            1012.4169      117.64778      434.98509      15018.57     
    482600   965.2          989.94675      115.03663      430.34114      11487.449    
    482700   965.4          999.88699      116.19174      431.35942      11138.072    
    482800   965.6          945.23439      109.84084      432.74037      16568.447    
    482900   965.8          985.7187       114.54531      433.17437      15286.674    
    483000   966            1014.2869      117.86508      435.39498      14438.568    
    483100   966.2          1046.7057      121.6323       440.07733      16412.523    
    483200   966.4          1050.3022      122.05023      444.6553       13075.478    
    483300   966.6          1010.1567      117.38513      441.61131      18191.179    
    483400   966.8          977.29196      113.56609      434.09996      14186.155    
    483500   967            972.84861      113.04975      432.53046      14956.537    
    483600   967.2          1029.3028      119.61         434.02503      12788.077    
    483700   967.4          999.44443      116.14031      435.88541      16302.963    
    483800   967.6          1016.3943      118.10996      437.91562      14750.276    
    483900   967.8          1016.1263      118.07883      436.29605      14421.064    
    484000   968            980.06265      113.88805      430.54087      13026.284    
    484100   968.2          1000.3621      116.24695      427.68182      16517.118    
    484200   968.4          973.82091      113.16273      431.14956      13301.011    
    484300   968.6          1025.8421      119.20784      439.71721      12029.857    
    484400   968.8          1049.6018      121.96884      439.67162      17093.499    
    484500   969            967.64523      112.44509      435.93193      14571.469    
    484600   969.2          985.6995       114.54308      432.01475      12501.773    
    484700   969.4          1002.2199      116.46283      432.28008      14908.343    
    484800   969.6          1019.8866      118.51579      441.42529      12525.56     
    484900   969.8          1040.7138      120.93601      443.23783      15484.24     
    485000   970            1016.3932      118.10984      437.61577      13944.07     
    485100   970.2          1001.9141      116.4273       433.47289      13957.34     
    485200   970.4          999.26779      116.11978      432.86632      16024.462    
    485300   970.6          985.71686      114.5451       434.75873      15952.853    
    485400   970.8          1055.9986      122.71218      444.62109      14823.847    
    485500   971            1008.7967      117.22709      444.68404      18269.551    
    485600   971.2          989.90013      115.03122      438.59702      14097.563    
    485700   971.4          964.32354      112.05909      434.53155      14657.739    
    485800   971.6          986.07146      114.58631      433.89947      14175.512    
    485900   971.8          975.47956      113.35548      434.65208      15639.396    
    486000   972            1015.5095      118.00715      438.19405      15431.2      
    486100   972.2          1063.1072      123.53823      442.51442      15848.226    
    486200   972.4          1018.3954      118.34251      439.05708      17233.759    
    486300   972.6          1028.7512      119.5459       432.30897      12066.873    
    486400   972.8          960.96965      111.66935      430.44661      14038.469    
    486500   973            983.81216      114.32376      433.32471      12313.777    
    486600   973.2          995.8505       115.72268      437.32133      13222.975    
    486700   973.4          978.44718      113.70033      437.89264      14817.194    
    486800   973.6          1021.5047      118.70383      436.65251      14374.049    
    486900   973.8          971.81687      112.92985      435.24268      15621.353    
    487000   974            1033.882       120.14212      434.15008      13134.087    
    487100   974.2          994.89141      115.61123      428.59964      14871.178    
    487200   974.4          963.10101      111.91703      426.55084      13545.449    
    487300   974.6          981.78515      114.08822      433.60202      13396.865    
    487400   974.8          969.43874      112.6535       436.03303      16429.703    
    487500   975            1015.4059      117.99511      435.9906       12300.224    
    487600   975.2          969.67805      112.68131      436.3396       13600.053    
    487700   975.4          1060.2717      123.20874      439.43538      15663.487    
    487800   975.6          1013.3301      117.75389      442.88568      18035.926    
    487900   975.8          998.08002      115.98176      437.62626      16740.175    
    488000   976            994.58099      115.57515      432.25256      13488.216    
    488100   976.2          984.63154      114.41898      432.41998      14857.496    
    488200   976.4          1013.2546      117.74512      435.77032      15499.503    
    488300   976.6          989.58087      114.99412      436.91647      14619.795    
    488400   976.8          1012.5671      117.66523      437.24314      14344.515    
    488500   977            983.49818      114.28728      433.7458       12775.066    
    488600   977.2          952.43993      110.67816      429.92217      13719.992    
    488700   977.4          986.95689      114.6892       430.6078       13428.33     
    488800   977.6          1039.278       120.76916      436.38096      14935.304    
    488900   977.8          1005.9467      116.89591      439.25228      13110.541    
    489000   978            991.81506      115.25374      437.70519      14449.645    
    489100   978.2          989.85264      115.0257       428.85315      16606.671    
    489200   978.4          936.93439      108.87634      427.2807       14693.936    
    489300   978.6          957.88543      111.31095      432.09755      15940.318    
    489400   978.8          980.1348       113.89644      436.4379       13709.654    
    489500   979            1026.8084      119.32014      439.19378      15993.613    
    489600   979.2          1023.805       118.97112      437.55736      15822.07     
    489700   979.4          967.09309      112.38093      431.82745      13844.229    
    489800   979.6          961.81803      111.76794      424.90423      12223.019    
    489900   979.8          1005.2612      116.81625      427.15025      13972.103    
    490000   980            980.43134      113.9309       431.73646      13038.483    
    490100   980.2          1003.008       116.55441      435.91126      14283.261    
    490200   980.4          983.94868      114.33963      436.62884      13124.96     
    490300   980.6          992.51464      115.33503      434.39139      12499.455    
    490400   980.8          1010.8383      117.46434      428.05831      13041.864    
    490500   981            965.04629      112.14308      423.06878      15644.363    
    490600   981.2          970.79427      112.81102      427.8407       14750.627    
    490700   981.4          963.13836      111.92137      431.94894      17016.948    
    490800   981.6          1025.3029      119.14519      436.2215       13766.809    
    490900   981.8          1023.2468      118.90627      438.64364      12564.558    
    491000   982            1050.6538      122.09109      439.00955      15128.039    
    491100   982.2          995.60093      115.69368      431.74771      11893.318    
    491200   982.4          993.43029      115.44144      427.7784       14951.978    
    491300   982.6          1021.0288      118.64851      431.53156      14371.562    
    491400   982.8          955.52473      111.03663      435.59797      14317.815    
    491500   983            1010.6647      117.44416      437.65377      13840.359    
    491600   983.2          1040.8102      120.94721      436.58746      15948.799    
    491700   983.4          1003.5254      116.61454      435.28698      15516.687    
    491800   983.6          1018.754       118.38418      435.9858       12258.073    
    491900   983.8          966.68272      112.33324      434.03355      15336.275    
    492000   984            1002.9405      116.54657      430.52202      13509.358    
    492100   984.2          967.51847      112.43036      427.79587      14851.059    
    492200   984.4          981.95026      114.1074       431.95546      13518.32     
    492300   984.6          1017.6097      118.25121      438.32328      14291.857    
    492400   984.8          1017.1799      118.20126      437.56947      14567.994    
    492500   985            977.68889      113.61221      433.36934      15371.303    
    492600   985.2          974.46938      113.23809      430.42676      14243.503    
    492700   985.4          951.28353      110.54378      423.07718      11567.997    
    492800   985.6          948.92993      110.27028      420.67576      11477.152    
    492900   985.8          968.39655      112.5324       427.51609      15150.765    
    493000   986            984.11301      114.35873      431.41844      13194.498    
    493100   986.2          992.72796      115.35982      433.67445      13732.294    
    493200   986.4          997.18103      115.87729      436.59359      13712.715    
    493300   986.6          1005.6292      116.85901      440.17833      14625.845    
    493400   986.8          1028.2689      119.48985      443.35651      16541.768    
    493500   987            997.22187      115.88204      438.92179      15693.112    
    493600   987.2          992.80038      115.36824      433.21864      14582.031    
    493700   987.4          988.09758      114.82175      431.14147      14046.743    
    493800   987.6          982.04348      114.11824      431.78949      13205.394    
    493900   987.8          1017.893       118.28413      440.89291      16321.361    
    494000   988            1005.9307      116.89405      442.93485      13485.615    
    494100   988.2          995.7179       115.70727      438.93824      14215.309    
    494200   988.4          988.9703       114.92317      434.72035      17037.89     
    494300   988.6          969.99716      112.71839      433.58085      14181.987    
    494400   988.8          1000.7422      116.29112      433.60174      14524.408    
    494500   989            999.64299      116.16338      434.02529      12717.97     
    494600   989.2          999.69979      116.16998      435.56151      16943.339    
    494700   989.4          997.33344      115.895        439.50964      18163.679    
    494800   989.6          1023.7798      118.9682       442.16611      13839.207    
    494900   989.8          1003.203       116.57708      439.31195      15194.238    
    495000   990            1000.3149      116.24146      432.55163      16006.783    
    495100   990.2          988.72609      114.89479      429.57373      15123.045    
    495200   990.4          963.75218      111.9927       431.15951      13205.155    
    495300   990.6          1014.5384      117.89431      435.25855      13683.174    
    495400   990.8          1021.451       118.69758      436.74368      16483.778    
    495500   991            1035.9625      120.38389      436.52607      11404.805    
    495600   991.2          949.36721      110.32109      434.76908      16089.445    
    495700   991.4          1020.7329      118.61414      432.95862      14647.412    
    495800   991.6          955.30528      111.01113      426.41853      13552.26     
    495900   991.8          955.13824      110.99172      421.80666      12454.116    
    496000   992            988.47301      114.86538      427.35423      15366.642    
    496100   992.2          988.41737      114.85891      431.61565      14999.226    
    496200   992.4          1007.2782      117.05064      434.6194       14449.481    
    496300   992.6          1020.3758      118.57264      437.17231      15906.249    
    496400   992.8          1033.7267      120.12408      437.86665      12983.667    
    496500   993            991.48975      115.21594      433.25511      14058.589    
    496600   993.2          984.50779      114.4046       427.49126      12257.086    
    496700   993.4          973.95244      113.17802      428.08733      14400.217    
    496800   993.6          1000.1129      116.21799      435.59051      15674.695    
    496900   993.8          1017.2818      118.2131       437.63933      13623.626    
    497000   994            999.44505      116.14038      436.23526      11242.95     
    497100   994.2          1011.1256      117.49772      434.45711      13650.719    
    497200   994.4          1009.6473      117.32593      433.9619       12638.684    
    497300   994.6          1042.8213      121.18091      435.30812      14048.328    
    497400   994.8          1012.599       117.66894      436.68666      16338.026    
    497500   995            1028.548       119.52229      437.56051      13668.743    
    497600   995.2          965.35158      112.17856      435.38671      14785.739    
    497700   995.4          988.61257      114.8816       431.41337      13983.462    
    497800   995.6          992.61407      115.34659      427.37856      13828.685    
    497900   995.8          958.20728      111.34835      425.61933      14023.111    
    498000   996            1031.3475      119.8476       433.2936       14490.494    
    498100   996.2          1029.1834      119.59613      438.63472      15744.489    
    498200   996.4          1002.8935      116.5411       438.22613      13599.416    
    498300   996.6          981.70839      114.0793       435.8294       13815.526    
    498400   996.8          977.29546      113.56649      428.85756      13591.023    
    498500   997            975.07579      113.30856      425.73052      16189.515    
    498600   997.2          971.56596      112.9007       429.43454      14278.331    
    498700   997.4          996.3833       115.78459      433.01549      11192.897    
    498800   997.6          984.7972       114.43823      435.40267      16266.303    
    498900   997.8          1037.1711      120.52433      440.26206      13366.497    
    499000   998            1035.6574      120.34843      440.65197      12534.73     
    499100   998.2          970.77807      112.80914      433.65323      15517.766    
    499200   998.4          941.94996      109.45917      430.876        13105.85     
    499300   998.6          1001.0563      116.32762      432.36858      14919.421    
    499400   998.8          959.30428      111.47583      435.47741      13977.655    
    499500   999            1027.0161      119.34428      441.1755       16484.608    
    499600   999.2          1012.0561      117.60585      441.55633      13813.114    
    499700   999.4          1017.8855      118.28325      439.49319      14783.671    
    499800   999.6          1040.0219      120.85561      437.29203      15335.004    
    499900   999.8          1005.9033      116.89086      433.60586      12822.609    
    500000   1000           969.82809      112.69875      430.67774      14625.979    
Loop time of 326.125 on 1 procs for 500000 steps with 900 atoms

Performance: 264.929 ns/day, 0.091 hours/ns, 1533.155 timesteps/s
54.0% CPU use with 1 MPI tasks x no OpenMP threads

MPI task timing breakdown:
Section |  min time  |  avg time  |  max time  |%varavg| %total
---------------------------------------------------------------
Pair    | 209        | 209        | 209        |   0.0 | 64.08
Neigh   | 104.91     | 104.91     | 104.91     |   0.0 | 32.17
Comm    | 3.9403     | 3.9403     | 3.9403     |   0.0 |  1.21
Output  | 2.1497     | 2.1497     | 2.1497     |   0.0 |  0.66
Modify  | 5.4507     | 5.4507     | 5.4507     |   0.0 |  1.67
Other   |            | 0.6812     |            |       |  0.21

Nlocal:            900 ave         900 max         900 min
Histogram: 1 0 0 0 0 0 0 0 0 0
Nghost:           2762 ave        2762 max        2762 min
Histogram: 1 0 0 0 0 0 0 0 0 0
Neighs:              0 ave           0 max           0 min
Histogram: 1 0 0 0 0 0 0 0 0 0
FullNghs:        94810 ave       94810 max       94810 min
Histogram: 1 0 0 0 0 0 0 0 0 0

Total # of neighbors = 94810
Ave neighs/atom = 105.34444
Neighbor list builds = 50000
Dangerous builds not checked

Total wall time: 0:05:45
