LAMMPS (4 May 2022)
## variable
variable        temp            equal 300
variable        eql_step        equal 500000
variable        rd_seed         equal 2

variable        temp_damp       equal 0.2 # tau_NVT = timestep * 100
variable        t_step          equal 0.002
variable        rlx_step        equal 20000

variable        thermo_freq     equal 100
variable        dump_freq       equal 100

## units
dimension       3
boundary        p p p
units           metal
atom_style      atomic
neighbor        1.0 bin
neigh_modify    every 10 delay 0 check no

## data.lmp, potential
read_data       data.lmp
Reading data file ...
  orthogonal box = (0 0 0) to (26.08221 26.08221 25.1988)
  1 by 1 by 1 MPI processor grid
  reading atoms ...
  900 atoms
  read_data CPU = 0.001 seconds
pair_style      nvnmd model.pb
pair_coeff * *

## velocity, timestep
velocity        all create ${temp} ${rd_seed} loop geom
velocity        all create 300 ${rd_seed} loop geom
velocity        all create 300 2 loop geom
timestep        ${t_step}
timestep        0.002

## nvt-relax
fix             equil all nvt temp ${temp} ${temp} ${temp_damp}
fix             equil all nvt temp 300 ${temp} ${temp_damp}
fix             equil all nvt temp 300 300 ${temp_damp}
fix             equil all nvt temp 300 300 0.2
run             ${rlx_step}
run             20000
Generated 0 of 6 mixed pair_coeff terms from geometric mixing rule
Neighbor list info ...
  update every 10 steps, delay 0 steps, check no
  max neighbors/atom: 2000, page size: 100000
  master list distance cutoff = 8
  ghost atom cutoff = 8
  binsize = 4, bins = 7 7 7
  1 neighbor lists, perpetual/occasional/extra = 1 0 0
  (1) pair nvnmd, perpetual
      attributes: full, newton on
      pair build: full/bin/atomonly
      stencil: full/bin/3d
      bin: standard
Per MPI rank memory allocation (min/avg/max) = 3.057 | 3.057 | 3.057 Mbytes
   Step          Temp          E_pair         E_mol          TotEng         Press     
         0   300            202.4658       0              237.32726      18562.085    
     20000   297.56619      225.75056      0              260.3292       17635.677    
Loop time of 12.1292 on 1 procs for 20000 steps with 900 atoms

Performance: 284.933 ns/day, 0.084 hours/ns, 1648.917 timesteps/s
53.4% CPU use with 1 MPI tasks x no OpenMP threads

MPI task timing breakdown:
Section |  min time  |  avg time  |  max time  |%varavg| %total
---------------------------------------------------------------
Pair    | 7.7248     | 7.7248     | 7.7248     |   0.0 | 63.69
Neigh   | 4.1136     | 4.1136     | 4.1136     |   0.0 | 33.91
Comm    | 0.14057    | 0.14057    | 0.14057    |   0.0 |  1.16
Output  | 1.5974e-05 | 1.5974e-05 | 1.5974e-05 |   0.0 |  0.00
Modify  | 0.12703    | 0.12703    | 0.12703    |   0.0 |  1.05
Other   |            | 0.02323    |            |       |  0.19

Nlocal:            900 ave         900 max         900 min
Histogram: 1 0 0 0 0 0 0 0 0 0
Nghost:           2794 ave        2794 max        2794 min
Histogram: 1 0 0 0 0 0 0 0 0 0
Neighs:              0 ave           0 max           0 min
Histogram: 1 0 0 0 0 0 0 0 0 0
FullNghs:       101528 ave      101528 max      101528 min
Histogram: 1 0 0 0 0 0 0 0 0 0

Total # of neighbors = 101528
Ave neighs/atom = 112.80889
Neighbor list builds = 2000
Dangerous builds not checked
unfix           equil

## nvt-equal
reset_timestep  0
fix             equil all nvt temp ${temp} ${temp} ${temp_damp}
fix             equil all nvt temp 300 ${temp} ${temp_damp}
fix             equil all nvt temp 300 300 ${temp_damp}
fix             equil all nvt temp 300 300 0.2
fix             com all recenter INIT INIT INIT

## thermo_style
thermo_style    custom step time temp ke etotal press
thermo          ${thermo_freq}
thermo          100
thermo_modify   flush yes
dump            1 all custom ${dump_freq} dump.lammpstraj id type x y z
dump            1 all custom 100 dump.lammpstraj id type x y z
run             500000
Generated 0 of 6 mixed pair_coeff terms from geometric mixing rule
Per MPI rank memory allocation (min/avg/max) = 4.341 | 4.341 | 4.341 Mbytes
   Step          Time           Temp          KinEng         TotEng         Press     
         0   0              297.56619      34.578641      260.3292       17635.677    
       100   0.2            296.28568      34.429839      261.15121      15232.124    
       200   0.4            310.57645      36.090496      263.30872      16403.52     
       300   0.6            316.73649      36.806322      263.78305      17810.856    
       400   0.8            304.11077      35.339153      262.84773      16108.269    
       500   1              303.92703      35.317801      261.99091      17515.491    
       600   1.2            292.57145      33.998227      261.18142      15952.026    
       700   1.4            292.48511      33.988194      260.03538      14719.687    
       800   1.6            276.08139      32.082002      258.27189      16986.427    
       900   1.8            286.64775      33.309865      259.20392      15926.899    
      1000   2              305.77829      35.532927      261.32345      15892.211    
      1100   2.2            296.71215      34.479397      262.07195      16646.69     
      1200   2.4            300.24831      34.890316      262.30298      16275.876    
      1300   2.6            306.57899      35.625972      262.15465      15186.276    
      1400   2.8            295.29024      34.314164      261.15485      16782.582    
      1500   3              291.28045      33.848207      260.03894      16046.919    
      1600   3.2            291.20446      33.839376      260.08054      15919.088    
      1700   3.4            306.17814      35.579391      262.02429      16623.21     
      1800   3.6            313.82103      36.467532      263.39958      17130.542    
      1900   3.8            308.69913      35.872342      262.98244      17428.483    
      2000   4              314.23728      36.515902      261.44689      15664.15     
      2100   4.2            293.0462       34.053395      260.6406       16449.898    
      2200   4.4            306.50333      35.61718       260.93298      17239.928    
      2300   4.6            303.76626      35.299119      261.6082       15400.756    
      2400   4.8            299.26092      34.775577      262.51113      17633.394    
      2500   5              313.21987      36.397674      264.31646      17750.691    
      2600   5.2            300.36273      34.903612      264.81374      16642.397    
      2700   5.4            286.48075      33.290458      261.84649      15781.835    
      2800   5.6            295.126        34.295078      260.6417       17704.768    
      2900   5.8            290.29772      33.734009      260.55557      14641.103    
      3000   6              300.59707      34.930844      262.23827      17596.161    
      3100   6.2            304.31674      35.363087      263.28887      17168.455    
      3200   6.4            313.48437      36.428411      262.74446      15732.698    
      3300   6.6            288.12326      33.481326      259.9106       16867.056    
      3400   6.8            292.23626      33.959277      259.24819      15094.794    
      3500   7              298.80011      34.722028      260.44866      18221.102    
      3600   7.2            296.82093      34.492037      262.14852      16105.325    
      3700   7.4            294.6028       34.23428       262.85973      16945.367    
      3800   7.6            300.73884      34.947318      262.17934      17801.482    
      3900   7.8            293.73978      34.133993      259.8943       17305.507    
      4000   8              281.89764      32.757879      258.76193      15891.394    
      4100   8.2            294.49908      34.222228      259.88017      17562.978    
      4200   8.4            291.03623      33.819827      261.27047      17116.534    
      4300   8.6            309.36677      35.949926      262.28935      16272.439    
      4400   8.8            312.30593      36.291471      262.35931      17003.704    
      4500   9              292.24399      33.960175      260.44016      15387.802    
      4600   9.2            294.56042      34.229355      258.79122      17214.543    
      4700   9.4            298.31698      34.665886      259.98208      16500.838    
      4800   9.6            295.58483      34.348397      261.37061      15551.66     
      4900   9.8            296.3826       34.441101      261.91655      17966.094    
      5000   10             304.61772      35.398063      261.93443      16151.2      
      5100   10.2           292.15688      33.950053      260.8428       16457.26     
      5200   10.4           295.44829      34.33253       258.60434      16695.305    
      5300   10.6           286.46017      33.288067      258.93763      17129.272    
      5400   10.8           293.68649      34.127801      260.66095      15951.336    
      5500   11             297.26458      34.543592      261.38056      16222.318    
      5600   11.2           298.13933      34.645243      261.86094      16762.012    
      5700   11.4           303.89568      35.314158      262.72674      16309        
      5800   11.6           304.92362      35.43361       263.96611      15897.436    
      5900   11.8           316.26323      36.751327      264.15595      15989.937    
      6000   12             297.84065      34.610534      261.98109      15936.083    
      6100   12.2           298.2237       34.655047      260.66742      16610.262    
      6200   12.4           295.46015      34.333908      260.73886      15175.34     
      6300   12.6           294.17313      34.18435       261.99354      18256.452    
      6400   12.8           311.11386      36.152945      264.21899      15816.824    
      6500   13             308.81835      35.886196      264.1051       18338.494    
      6600   13.2           293.53092      34.109722      262.22584      15597.666    
      6700   13.4           312.07951      36.265159      261.71768      16131.888    
      6800   13.6           295.27431      34.312313      261.65722      17197.347    
      6900   13.8           295.36331      34.322655      261.21701      16681.479    
      7000   14             297.53331      34.57482       261.27975      16402.121    
      7100   14.2           305.77314      35.532328      262.04555      16068.035    
      7200   14.4           311.86335      36.240041      263.5253       16797.11     
      7300   14.6           296.93336      34.505103      263.92205      17652.384    
      7400   14.8           304.93228      35.434616      261.82358      17356.84     
      7500   15             296.58533      34.464659      260.31805      16102.516    
      7600   15.2           299.7521       34.832654      260.60628      17326.459    
      7700   15.4           294.97143      34.277117      261.85252      16648.394    
      7800   15.6           311.07438      36.148358      263.32603      16177.487    
      7900   15.8           301.47344      35.032682      263.46397      16968.291    
      8000   16             285.4791       33.174062      261.08922      16206.081    
      8100   16.2           300.80157      34.954607      259.97294      15482.911    
      8200   16.4           285.29163      33.152277      260.43575      18321.472    
      8300   16.6           307.60021      35.744642      262.1948       14281.701    
      8400   16.8           313.80556      36.465734      263.35458      18071.786    
      8500   17             302.38022      35.138054      262.90026      16643.948    
      8600   17.2           293.15642      34.066204      261.54611      15268.624    
      8700   17.4           296.28781      34.430086      260.55591      17005.016    
      8800   17.6           304.33605      35.365332      260.95033      15471.485    
      8900   17.8           294.97927      34.278028      261.94619      15600.231    
      9000   18             304.66825      35.403935      262.62783      16393.037    
      9100   18.2           310.85998      36.123443      262.24636      15198.948    
      9200   18.4           299.14177      34.76173       260.55158      16492.445    
      9300   18.6           286.53615      33.296896      259.37198      16159.717    
      9400   18.8           292.64253      34.006487      260.3624       14637.12     
      9500   19             319.87915      37.171515      263.24073      15627.208    
      9600   19.2           299.51275      34.80484       263.14228      16507.028    
      9700   19.4           310.63255      36.097016      261.69088      14625.143    
      9800   19.6           294.17413      34.184466      260.60103      18246.412    
      9900   19.8           291.98356      33.929911      260.29542      15941.031    
     10000   20             298.5284       34.690454      261.61008      15860.385    
     10100   20.2           305.53294      35.504416      263.50146      17662.259    
     10200   20.4           309.96642      36.019607      263.23638      15729.936    
     10300   20.6           296.06895      34.404654      261.17815      16751.675    
     10400   20.8           293.64571      34.123061      260.73445      16552.762    
     10500   21             304.64098      35.400766      261.05309      15932.713    
     10600   21.2           297.84231      34.610727      261.90909      16083.989    
     10700   21.4           301.21687      35.002867      264.07248      17930.084    
     10800   21.6           308.60711      35.86165       265.54736      16834.33     
     10900   21.8           310.39121      36.06897       263.70857      17233.462    
     11000   22             307.54446      35.738164      262.35921      16524.917    
     11100   22.2           299.64274      34.819945      261.12819      17132.415    
     11200   22.4           297.38098      34.557118      260.2696       17027.001    
     11300   22.6           297.96953      34.62551       260.3555       16763.731    
     11400   22.8           314.76601      36.577344      262.06082      15892.024    
     11500   23             302.74141      35.180026      263.51361      16300.948    
     11600   23.2           300.74686      34.948249      263.00902      17469.656    
     11700   23.4           305.98416      35.55685       261.08176      15921.661    
     11800   23.6           291.06465      33.82313       259.78146      16583.134    
     11900   23.8           297.32412      34.550511      260.26758      17727.058    
     12000   24             305.79043      35.534338      261.45711      15876.173    
     12100   24.2           296.94727      34.506719      262.39529      16841.437    
     12200   24.4           307.66288      35.751925      262.75939      16724.436    
     12300   24.6           303.30799      35.245866      261.51222      16126.439    
     12400   24.8           293.91715      34.154604      259.78367      15564.945    
     12500   25             294.16432      34.183327      259.94636      15709.294    
     12600   25.2           304.83692      35.423535      261.91426      17143.739    
     12700   25.4           311.918        36.24639       262.81791      15430.397    
     12800   25.6           295.8029       34.373737      262.35749      18005.073    
     12900   25.8           304.73786      35.412024      261.65467      14901.188    
     13000   26             300.42573      34.910933      261.11921      18024.423    
     13100   26.2           291.35547      33.856925      260.26738      16603.7      
     13200   26.4           291.75319      33.903141      258.3263       15510.528    
     13300   26.6           291.88013      33.917892      258.73734      17126.346    
     13400   26.8           293.27274      34.079721      261.05093      15098.431    
     13500   27             298.19147      34.651301      261.87563      16143.03     
     13600   27.2           297.44654      34.564737      261.92157      16861.203    
     13700   27.4           296.95354      34.507447      261.90848      16267.704    
     13800   27.6           292.10386      33.943891      261.0571       16588.617    
     13900   27.8           296.83628      34.493821      259.49864      16913.235    
     14000   28             293.83017      34.144497      259.9912       17053.54     
     14100   28.2           293.5801       34.115438      262.02418      17754.306    
     14200   28.4           306.41781      35.607242      262.54178      16489.867    
     14300   28.6           300.99134      34.97666       262.13258      15172.038    
     14400   28.8           307.41192      35.722762      261.7013       17662.907    
     14500   29             301.31126      35.013836      260.24272      15387.841    
     14600   29.2           284.0421       33.007075      258.13959      16534.294    
     14700   29.4           286.93704      33.343481      258.79402      17586.836    
     14800   29.6           296.95293      34.507376      261.12917      16232.732    
     14900   29.8           300.83438      34.95842       261.64338      16841.463    
     15000   30             302.97159      35.206775      261.92378      17705.715    
     15100   30.2           298.6087       34.699785      261.79542      16577.8      
     15200   30.4           294.93432      34.272805      261.06894      18253.502    
     15300   30.6           291.22419      33.841669      260.01476      15782.679    
     15400   30.8           286.0858       33.244563      259.78593      16964.543    
     15500   31             305.84259      35.540398      261.83545      17195.728    
     15600   31.2           301.30136      35.012685      263.21094      16675.335    
     15700   31.4           306.45104      35.611103      262.9758       16473.274    
     15800   31.6           295.21308      34.305198      261.3889       16591.11     
     15900   31.8           294.80202      34.257431      260.53393      16470.138    
     16000   32             297.18191      34.533985      260.91575      16968.08     
     16100   32.2           301.29958      35.012478      261.75015      16609.004    
     16200   32.4           305.87407      35.544057      262.79743      15811.709    
     16300   32.6           304.64408      35.401126      263.36472      16753.982    
     16400   32.8           298.98487      34.743498      262.22739      15624.034    
     16500   33             294.46364      34.21811       260.43463      15607.457    
     16600   33.2           289.4248       33.632572      260.08192      16307.995    
     16700   33.4           302.56734      35.159798      261.60105      16545.594    
     16800   33.6           306.5354       35.620907      263.32757      16452.656    
     16900   33.8           319.76402      37.158136      263.24466      17454.409    
     17000   34             301.48151      35.03362       262.7141       16042.079    
     17100   34.2           284.7638       33.09094       261.8658       16761.039    
     17200   34.4           294.06542      34.171834      261.0017       16618.412    
     17300   34.6           294.08343      34.173927      259.9515       15986.988    
     17400   34.8           294.98067      34.27819       257.82137      15793.681    
     17500   35             292.25773      33.961771      258.70957      16895.631    
     17600   35.2           294.24185      34.192336      260.7135       14273.534    
     17700   35.4           300.44979      34.913728      261.63968      17096.405    
     17800   35.6           300.71861      34.944968      262.36459      15147.242    
     17900   35.8           303.33458      35.248956      263.13637      15587.514    
     18000   36             308.20532      35.814959      262.80639      16242.139    
     18100   36.2           297.99529      34.628504      260.69292      15573.165    
     18200   36.4           296.71211      34.479392      259.9565       16330.219    
     18300   36.6           292.98639      34.046446      261.02972      16298.516    
     18400   36.8           313.01281      36.373613      263.10352      14942.644    
     18500   37             304.23552      35.353649      262.73991      16770.726    
     18600   37.2           300.88087      34.963822      261.82722      15135.179    
     18700   37.4           299.39237      34.790852      260.82369      14445.255    
     18800   37.6           298.4064       34.676277      260.30882      15602.644    
     18900   37.8           300.6248       34.934066      261.54088      14183.694    
     19000   38             321.49505      37.359291      263.25502      16361.322    
     19100   38.2           303.95094      35.320579      263.32201      16308.603    
     19200   38.4           303.50677      35.268964      261.63045      16521.634    
     19300   38.6           310.55313      36.087786      260.22041      16668.8      
     19400   38.8           307.58154      35.742473      260.31379      15506.367    
     19500   39             303.94638      35.320049      261.06522      15913.89     
     19600   39.2           300.91794      34.96813       261.73968      17673.597    
     19700   39.4           302.47282      35.148815      261.85288      14619.8      
     19800   39.6           294.3941       34.210029      261.89405      16581.608    
     19900   39.8           308.38864      35.836262      261.91842      16548.329    
     20000   40             294.68089      34.243355      261.5201       14987.741    
     20100   40.2           290.75448      33.787086      260.73857      16540.557    
     20200   40.4           296.41596      34.444978      260.67809      17255.702    
     20300   40.6           310.57162      36.089935      262.05718      16471.413    
     20400   40.8           306.71135      35.641353      263.32747      16261.597    
     20500   41             305.10914      35.455169      263.32965      16155.831    
     20600   41.2           301.90925      35.083325      260.82264      16478.247    
     20700   41.4           284.43369      33.05258       259.76814      16245.329    
     20800   41.6           301.56975      35.043873      260.73694      17151.326    
     20900   41.8           312.33418      36.294753      262.44982      15324.382    
     21000   42             306.89952      35.663219      262.76083      17773.552    
     21100   42.2           297.10827      34.525429      262.30573      16487.453    
     21200   42.4           306.78841      35.650307      261.87166      16766.725    
     21300   42.6           292.11366      33.94503       260.99421      18677.987    
     21400   42.8           300.69072      34.941726      261.27267      16477.25     
     21500   43             307.30699      35.710569      263.35374      16929.543    
     21600   43.2           314.9522       36.598979      264.60076      17925.116    
     21700   43.4           304.24064      35.354244      262.98266      15971.576    
     21800   43.6           304.36754      35.36899       261.43107      17759.779    
     21900   43.8           297.62939      34.585985      260.88608      17075.246    
     22000   44             289.3347       33.622101      261.04186      16261.535    
     22100   44.2           301.94985      35.088044      263.19397      17616.505    
     22200   44.4           321.69651      37.382701      264.52705      16748.308    
     22300   44.6           295.91254      34.386478      263.16306      16293.255    
     22400   44.8           296.51747      34.456774      261.99916      17275.286    
     22500   45             300.01588      34.863306      261.4097       16999.755    
     22600   45.2           295.38008      34.324604      260.94826      16276.875    
     22700   45.4           307.08789      35.685108      260.94176      15779.215    
     22800   45.6           301.96987      35.09037       262.4748       16828.025    
     22900   45.8           304.36935      35.369201      263.78461      15515.643    
     23000   46             305.15682      35.460709      263.47396      16443.69     
     23100   46.2           302.15603      35.112002      261.31244      16188.259    
     23200   46.4           289.06102      33.590298      260.32273      15905.431    
     23300   46.6           308.35545      35.832405      260.84676      16685.937    
     23400   46.8           296.82603      34.49263       261.85722      15432.517    
     23500   47             295.32236      34.317897      262.41413      17108.085    
     23600   47.2           311.28693      36.173058      264.54545      17181.648    
     23700   47.4           321.47537      37.357004      264.96512      16058.049    
     23800   47.6           305.96294      35.554384      262.61764      15765.244    
     23900   47.8           299.96914      34.857875      261.728        16373.206    
     24000   48             292.45195      33.984341      261.13757      15775.79     
     24100   48.2           300.05222      34.867529      260.72868      16296.158    
     24200   48.4           303.14748      35.227213      261.25342      15092.432    
     24300   48.6           304.46779      35.380641      263.09374      16655.92     
     24400   48.8           306.81723      35.653656      263.58658      16130.926    
     24500   49             302.61352      35.165165      261.92366      16762.901    
     24600   49.2           294.39302      34.209903      260.31074      18265.194    
     24700   49.4           298.00749      34.629922      260.58266      15678.693    
     24800   49.6           288.99382      33.582489      261.52133      17052.049    
     24900   49.8           303.73326      35.295284      262.67574      17929.53     
     25000   50             310.56596      36.089277      262.87096      16657.908    
     25100   50.2           305.41632      35.490864      261.13117      15592.502    
     25200   50.4           290.41809      33.747997      259.85679      17762.13     
     25300   50.6           303.06462      35.217585      260.66172      15888.425    
     25400   50.8           292.63356      34.005445      262.46793      16091.662    
     25500   51             291.31423      33.852132      263.19092      17715.684    
     25600   51.2           302.42538      35.143302      262.49745      15863.571    
     25700   51.4           296.47978      34.452394      261.62205      15560.04     
     25800   51.6           299.27858      34.777629      261.48586      15437.743    
     25900   51.8           301.34053      35.017237      261.41497      15788.598    
     26000   52             315.67866      36.683397      261.83795      17045.358    
     26100   52.2           300.67982      34.94046       263.45107      16365.699    
     26200   52.4           317.58633      36.905078      264.71125      18940.264    
     26300   52.6           305.70853      35.52482       262.99279      15963.752    
     26400   52.8           302.86799      35.194736      261.04896      16555.53     
     26500   53             307.63164      35.748295      260.99595      17718.532    
     26600   53.2           302.90862      35.199457      261.70179      15416.155    
     26700   53.4           305.42826      35.492252      263.12988      17918.51     
     26800   53.6           314.08115      36.49776       264.36088      16726.622    
     26900   53.8           310.73097      36.108452      264.75407      17437.438    
     27000   54             307.65884      35.751456      262.40065      17312.611    
     27100   54.2           300.57261      34.928002      260.92536      16579.703    
     27200   54.4           289.62846      33.656237      260.51651      16472.956    
     27300   54.6           297.2774       34.545082      261.30018      17728.799    
     27400   54.8           310.40144      36.070159      263.23619      15313.093    
     27500   55             312.79122      36.347863      264.19709      17308.036    
     27600   55.2           313.11916      36.385971      261.93931      16348.646    
     27700   55.4           296.98231      34.510791      260.52681      15048.26     
     27800   55.6           293.7063       34.130103      260.81418      15844.629    
     27900   55.8           304.98139      35.440323      262.08483      17174.119    
     28000   56             303.98092      35.324064      263.0622       16557.329    
     28100   56.2           300.20057      34.884768      262.65621      16617.792    
     28200   56.4           297.15126      34.530423      260.36959      16925.205    
     28300   56.6           283.95674      32.997157      259.47476      16342.496    
     28400   56.8           297.21856      34.538244      260.43983      16549.292    
     28500   57             313.26761      36.403222      262.29289      17269.317    
     28600   57.2           307.70547      35.756874      262.46792      17260.493    
     28700   57.4           308.5778       35.858243      261.6295       16949.26     
     28800   57.6           292.85387      34.031047      261.00348      15612.688    
     28900   57.8           298.96892      34.741645      260.31686      16327.165    
     29000   58             293.90577      34.153282      258.85104      17637.566    
     29100   58.2           287.76411      33.439591      258.93655      15868.146    
     29200   58.4           302.42046      35.142731      261.13228      17778.626    
     29300   58.6           298.03375      34.632973      262.07683      15692.028    
     29400   58.8           303.61237      35.281236      262.07321      17580.773    
     29500   59             299.48798      34.801962      261.11423      16301.716    
     29600   59.2           293.14879      34.065318      258.73141      16030.32     
     29700   59.4           295.44575      34.332235      259.00777      17015.113    
     29800   59.6           294.01588      34.166077      260.47453      16886.968    
     29900   59.8           295.90556      34.385667      261.0901       17216.016    
     30000   60             302.2434       35.122155      261.64456      16168.387    
     30100   60.2           311.61075      36.210687      262.43643      16741.185    
     30200   60.4           320.23546      37.21292       263.1936       16206.638    
     30300   60.6           298.75857      34.717201      262.68818      17559.813    
     30400   60.8           295.31819      34.317413      260.68339      15454.156    
     30500   61             296.92058      34.503617      259.9234       15257.045    
     30600   61.2           298.37313      34.672411      260.59328      16840.955    
     30700   61.4           302.97297      35.206934      263.12673      15734.329    
     30800   61.6           310.97112      36.136358      263.37182      17355.684    
     30900   61.8           305.94438      35.552227      262.26862      15542.899    
     31000   62             293.99514      34.163667      260.95019      17223.919    
     31100   62.2           301.17426      34.997916      260.40766      16513.19     
     31200   62.4           294.28987      34.197916      260.78878      17457.479    
     31300   62.6           308.37066      35.834173      263.56448      15943.528    
     31400   62.8           314.48071      36.54419       264.35577      17238.046    
     31500   63             301.61262      35.048855      262.73612      16255.244    
     31600   63.2           299.86246      34.845478      261.63345      16863.008    
     31700   63.4           295.4413       34.331719      260.9068       16051.777    
     31800   63.6           291.39996      33.862094      260.35977      16166.502    
     31900   63.8           289.01462      33.584906      260.70221      15791.338    
     32000   64             305.96682      35.554834      262.66673      16900.659    
     32100   64.2           310.56032      36.088622      263.27692      16900.968    
     32200   64.4           296.29779      34.431246      262.17192      16772.704    
     32300   64.6           300.5094       34.920655      260.07003      16095.256    
     32400   64.8           287.92854      33.458698      259.88826      16793.135    
     32500   65             291.92676      33.923311      260.77173      17463.011    
     32600   65.2           306.55639      35.623345      261.57473      17204.242    
     32700   65.4           291.33652      33.854723      261.47205      15681.116    
     32800   65.6           300.2895       34.895102      259.66277      17373.953    
     32900   65.8           294.36222      34.206323      258.33231      15926.979    
     33000   66             299.39066      34.790653      259.59518      15802.479    
     33100   66.2           307.24213      35.703032      261.55797      16163.035    
     33200   66.4           299.15531      34.763304      262.22405      17182.076    
     33300   66.6           304.41045      35.373977      261.85585      15985.501    
     33400   66.8           281.43066      32.703614      260.00411      15057.82     
     33500   67             296.10369      34.408691      258.56699      15929.713    
     33600   67.2           287.38416      33.395439      259.54699      14300.818    
     33700   67.4           305.8911       35.546035      261.38144      16178.245    
     33800   67.6           291.03349      33.819509      261.74142      14724.646    
     33900   67.8           299.34434      34.78527       262.05918      15801.923    
     34000   68             307.30836      35.710729      262.37089      15802.2      
     34100   68.2           305.47443      35.497616      261.38705      16104.304    
     34200   68.4           293.60439      34.118261      259.55334      16200.35     
     34300   68.6           292.56626      33.997624      259.64199      16425.082    
     34400   68.8           299.57565      34.81215       261.70181      15362.274    
     34500   69             313.02597      36.375142      262.62991      17821.655    
     34600   69.2           309.76698      35.996432      261.96773      16277.016    
     34700   69.4           285.0162       33.12027       260.74777      17093.234    
     34800   69.6           304.66518      35.403577      260.26403      17824.57     
     34900   69.8           286.57448      33.301351      260.49799      16666.747    
     35000   70             302.68987      35.174037      262.68213      16931.071    
     35100   70.2           309.00402      35.907772      263.373        17831.812    
     35200   70.4           308.45528      35.844005      262.10672      17087.522    
     35300   70.6           291.87969      33.917841      260.35983      17558.134    
     35400   70.8           298.08852      34.639338      260.38931      16701.485    
     35500   71             301.08897      34.988005      261.23431      16465.478    
     35600   71.2           302.67358      35.172144      262.39459      16989.592    
     35700   71.4           311.36585      36.182228      264.01103      15943.503    
     35800   71.6           327.72715      38.083491      265.74661      16971.575    
     35900   71.8           307.93453      35.783492      263.71077      15901.15     
     36000   72             314.52838      36.549729      261.8296       15773.27     
     36100   72.2           294.92941      34.272234      260.83896      16382.232    
     36200   72.4           290.9859       33.813979      260.0139       16310.238    
     36300   72.6           309.61469      35.978735      259.95391      14767.192    
     36400   72.8           303.60301      35.280149      261.86175      16924.557    
     36500   73             305.44596      35.494309      263.26031      17498.515    
     36600   73.2           314.11942      36.502206      262.60173      15954.399    
     36700   73.4           301.73401      35.062961      260.77723      17621.79     
     36800   73.6           297.31344      34.54927       260.3565       16583.974    
     36900   73.8           299.87702      34.84717       260.82147      16050.981    
     37000   74             306.74409      35.645157      261.33449      16499.628    
     37100   74.2           301.67665      35.056296      262.43903      16030.201    
     37200   74.4           311.95166      36.250303      264.37919      15187.933    
     37300   74.6           307.44682      35.726818      263.67236      18086.986    
     37400   74.8           299.73255      34.830382      261.23089      14767.606    
     37500   75             293.82814      34.144261      260.67918      14711.493    
     37600   75.2           289.18466      33.604666      260.61512      16759.317    
     37700   75.4           307.51281      35.734486      261.35614      14163.067    
     37800   75.6           307.16995      35.694645      263.09022      18090.891    
     37900   75.8           307.97374      35.788049      263.53382      16419.424    
     38000   76             308.99729      35.90699       261.20313      16839.194    
     38100   76.2           300.59237      34.930298      259.95235      17373.69     
     38200   76.4           288.52977      33.528564      260.31855      16623.005    
     38300   76.6           296.95017      34.507057      261.50738      16713.704    
     38400   76.8           312.26372      36.286565      263.34627      15476.63     
     38500   77             312.42278      36.305048      264.40188      17677.291    
     38600   77.2           301.38721      35.022661      262.43526      16147.662    
     38700   77.4           295.54096      34.343299      260.26888      17043.665    
     38800   77.6           299.69406      34.82591       259.7742       17834.42     
     38900   77.8           294.12723      34.179017      260.63458      16602.229    
     39000   78             307.93143      35.783132      262.12534      17123.094    
     39100   78.2           312.11018      36.268723      263.07636      16590.369    
     39200   78.4           304.12155      35.340405      262.00898      15460.596    
     39300   78.6           297.89333      34.616656      259.67732      17010.797    
     39400   78.8           295.18543      34.301984      259.59689      16474.608    
     39500   79             292.44471      33.983499      260.81795      16826.677    
     39600   79.2           308.90995      35.896841      262.69478      17969.761    
     39700   79.4           295.33474      34.319335      262.77814      16575.419    
     39800   79.6           295.81807      34.3755        261.98562      17378.646    
     39900   79.8           306.24113      35.58671       261.43046      17832.711    
     40000   80             304.09656      35.337501      260.6718       15371.582    
     40100   80.2           296.01777      34.398706      260.01791      19486.818    
     40200   80.4           294.5875       34.232503      259.97276      15829.22     
     40300   80.6           301.95217      35.088312      261.55082      17469.838    
     40400   80.8           305.72122      35.526294      262.80264      16202.312    
     40500   81             305.7451       35.52907       262.8317       16462.721    
     40600   81.2           289.51237      33.642747      260.79176      17729.032    
     40700   81.4           293.09845      34.059468      259.49127      16876.542    
     40800   81.6           293.42151      34.097009      259.87693      16787.793    
     40900   81.8           324.02827      37.653663      261.32505      16974.25     
     41000   82             299.02284      34.747911      262.14859      17357.487    
     41100   82.2           303.65173      35.28581       262.21066      15439.061    
     41200   82.4           308.5485       35.854839      261.88899      17993.991    
     41300   82.6           295.92027      34.387377      261.10313      15299.908    
     41400   82.8           292.613        34.003055      260.22596      16301.029    
     41500   83             294.50957      34.223446      259.72669      17055.259    
     41600   83.2           300.19174      34.883743      260.39843      15374.567    
     41700   83.4           302.20789      35.118028      262.14656      16937.861    
     41800   83.6           309.23044      35.934083      262.86398      16481.592    
     41900   83.8           310.12014      36.037471      262.52028      16106.647    
     42000   84             286.75591      33.322434      259.95568      16188.991    
     42100   84.2           301.37827      35.021622      259.57151      16306.984    
     42200   84.4           298.31051      34.665134      260.64041      16587.756    
     42300   84.6           285.8461       33.216709      262.03004      16624.393    
     42400   84.8           305.96489      35.554611      262.20249      16569.525    
     42500   85             295.48023      34.336242      261.61888      15470.8      
     42600   85.2           300.66326      34.938536      261.11623      17115.989    
     42700   85.4           297.78036      34.603528      260.53751      16011.589    
     42800   85.6           297.6075       34.583441      260.79227      18479.495    
     42900   85.8           305.44526      35.494226      262.24086      14957.238    
     43000   86             316.2246       36.746839      263.302        18111.621    
     43100   86.2           309.89755      36.011605      262.80844      17152.678    
     43200   86.4           293.54557      34.111425      260.69367      15744.213    
     43300   86.6           287.35259      33.391771      260.34395      17553.234    
     43400   86.8           302.50103      35.152093      260.93927      17632.578    
     43500   87             299.85984      34.845174      261.79714      14665.099    
     43600   87.2           297.91981      34.619733      262.13842      18014.299    
     43700   87.4           305.14441      35.459266      261.96671      16257.698    
     43800   87.6           307.19568      35.697634      261.52366      14776.16     
     43900   87.8           296.69834      34.477792      260.91517      17443.335    
     44000   88             296.49032      34.453619      259.93524      13914.396    
     44100   88.2           286.05177      33.240609      258.73094      16067.349    
     44200   88.4           289.26058      33.613488      260.46533      17166.385    
     44300   88.6           292.91152      34.037745      262.09612      14208.741    
     44400   88.8           305.27348      35.474266      262.27989      15009.099    
     44500   89             302.27022      35.125271      261.4663       16676.437    
     44600   89.2           295.28987      34.314122      259.52873      15125.06     
     44700   89.4           283.4058       32.933134      258.88975      14196.168    
     44800   89.6           309.9597       36.018827      261.82265      17268.165    
     44900   89.8           298.48122      34.684972      262.80528      15265.827    
     45000   90             290.28126      33.732097      262.32891      15976.274    
     45100   90.2           289.75347      33.670764      260.90524      15917.065    
     45200   90.4           299.16567      34.764508      259.91181      16493.686    
     45300   90.6           299.54368      34.808434      260.53913      16601.438    
     45400   90.8           316.11666      36.734296      263.20811      15473.974    
     45500   91             297.53387      34.574885      263.72514      18036.484    
     45600   91.2           302.02003      35.096199      262.76421      17591.327    
     45700   91.4           293.51418      34.107778      261.28073      15389.637    
     45800   91.6           304.82193      35.421793      260.95511      17598.274    
     45900   91.8           297.07197      34.52121       261.14912      16289.102    
     46000   92             299.15508      34.763277      261.90211      16047.244    
     46100   92.2           305.54861      35.506237      262.45876      17922.544    
     46200   92.4           308.59982      35.860802      263.02593      16465.311    
     46300   92.6           300.67624      34.940043      262.11488      16258.493    
     46400   92.8           289.51878      33.643493      260.45968      17274.446    
     46500   93             296.25526      34.426304      259.90226      17081.178    
     46600   93.2           306.3522       35.599618      260.90063      16513.159    
     46700   93.4           303.90768      35.315552      263.29966      17205.532    
     46800   93.6           305.371        35.485597      263.26625      16497.716    
     46900   93.8           312.63099      36.329243      262.20969      17017.02     
     47000   94             295.63269      34.353958      261.21793      15362.994    
     47100   94.2           304.07368      35.334843      260.89499      16466.452    
     47200   94.4           305.33079      35.480925      261.03003      15102.619    
     47300   94.6           284.22185      33.027963      261.18094      16603.21     
     47400   94.8           317.30171      36.872004      262.77968      16252.2      
     47500   95             319.78566      37.160651      264.56252      18451.853    
     47600   95.2           314.57403      36.555034      263.00269      15749.731    
     47700   95.4           302.30514      35.12933       261.26244      17472.929    
     47800   95.6           288.53651      33.529348      261.15478      16333.617    
     47900   95.8           304.25028      35.355364      261.79228      15831.619    
     48000   96             323.84408      37.632259      263.2203       17958.479    
     48100   96.2           307.11308      35.688036      264.74057      16807.233    
     48200   96.4           311.98512      36.25419       263.16441      16093.045    
     48300   96.6           298.56444      34.694642      261.07266      15757.534    
     48400   96.8           305.4292       35.492361      260.56345      17014.142    
     48500   97             293.7792       34.138574      260.62245      14668.361    
     48600   97.2           305.79659      35.535053      262.07486      17060.958    
     48700   97.4           309.92469      36.014758      263.56836      15429.12     
     48800   97.6           318.99401      37.068658      263.49154      16321.364    
     48900   97.8           298.59777      34.698515      260.55345      16465.048    
     49000   98             293.45766      34.10121       259.87689      15826.938    
     49100   98.2           294.50444      34.222851      260.61015      16012.39     
     49200   98.4           301.92867      35.085582      262.49452      17614.911    
     49300   98.6           313.90081      36.476802      262.84673      15856.513    
     49400   98.8           312.64775      36.331191      261.95433      17320.891    
     49500   99             303.60314      35.280164      261.35329      15736.676    
     49600   99.2           294.8911       34.267782      261.18199      16733.923    
     49700   99.4           292.45035      33.984155      261.22748      16651.916    
     49800   99.6           299.9529       34.855988      261.9975       16896.03     
     49900   99.8           311.36056      36.181614      263.75059      16361.275    
     50000   100            306.05808      35.565439      263.56997      18048.546    
     50100   100.2          297.65336      34.58877       261.51956      15846.596    
     50200   100.4          293.22795      34.074516      260.53439      16840.561    
     50300   100.6          297.30135      34.547865      260.82782      15536.966    
     50400   100.8          303.74979      35.297205      261.36527      15593.016    
     50500   101            306.83252      35.655434      262.12471      16567.631    
     50600   101.2          303.65869      35.286619      263.18822      16844.587    
     50700   101.4          299.81005      34.839388      263.8273       15870.455    
     50800   101.6          307.20852      35.699127      262.06533      16452.179    
     50900   101.8          296.1733       34.41678       260.65492      16342.686    
     51000   102            299.21144      34.769827      260.55856      15424.977    
     51100   102.2          304.70217      35.407876      261.35332      16237.619    
     51200   102.4          305.80157      35.535632      263.64968      17184.428    
     51300   102.6          315.40804      36.65195       263.63492      16951.476    
     51400   102.8          310.72995      36.108333      261.99178      15331.336    
     51500   103            300.69378      34.942082      261.32986      18365.29     
     51600   103.2          302.85624      35.193371      261.04949      15618.747    
     51700   103.4          304.59799      35.39577       261.02157      17762.112    
     51800   103.6          305.57786      35.509636      262.49286      17743.927    
     51900   103.8          306.76035      35.647047      264.13689      17462.865    
     52000   104            302.5894       35.162362      263.32134      18586.097    
     52100   104.2          298.87287      34.730483      260.87608      16972.557    
     52200   104.4          300.88955      34.964831      260.54599      16958.264    
     52300   104.6          294.32028      34.20145       261.29578      16221.939    
     52400   104.8          315.5287       36.665972      262.53049      16983.434    
     52500   105            302.13972      35.110107      262.99136      17248.339    
     52600   105.2          296.58648      34.464794      261.64278      16469.263    
     52700   105.4          294.16819      34.183776      259.71195      17290.516    
     52800   105.6          294.58075      34.231718      259.97494      17017.166    
     52900   105.8          304.57527      35.39313       261.67279      15485.286    
     53000   106            313.41553      36.420411      263.00899      15329.008    
     53100   106.2          301.88149      35.080099      262.73206      17008.543    
     53200   106.4          309.06053      35.914339      262.14021      16275.188    
     53300   106.6          297.9686       34.625403      261.17506      14952.732    
     53400   106.8          295.58553      34.348478      258.92677      17430.736    
     53500   107            277.25981      32.21894       258.05578      15223.644    
     53600   107.2          291.77937      33.906184      259.5912       17591.838    
     53700   107.4          300.39071      34.906863      260.61657      15641.122    
     53800   107.6          295.58138      34.347996      262.06024      15332.145    
     53900   107.8          302.79002      35.185675      262.97446      18060.404    
     54000   108            292.27544      33.96383       262.60674      14157.163    
     54100   108.2          287.27124      33.382317      260.21806      15337.918    
     54200   108.4          290.47183      33.754241      259.43722      15813.928    
     54300   108.6          297.438        34.563744      260.6345       15626.645    
     54400   108.8          303.39147      35.255567      261.76336      15978.255    
     54500   109            293.28343      34.080963      262.02675      16303.959    
     54600   109.2          305.58364      35.510307      261.86627      15991.675    
     54700   109.4          302.44639      35.145743      261.49747      15941.853    
     54800   109.6          285.51371      33.178084      259.31249      17836.862    
     54900   109.8          285.45408      33.171154      258.31598      15748.211    
     55000   110            286.69984      33.315918      260.01118      17728.049    
     55100   110.2          308.53496      35.853265      261.22917      17496.16     
     55200   110.4          303.67458      35.288465      261.83641      17306.602    
     55300   110.6          312.88446      36.358698      262.46943      17033.545    
     55400   110.8          303.76037      35.298434      263.13254      16828.284    
     55500   111            311.0789       36.148883      263.27114      16052.935    
     55600   111.2          296.89819      34.501016      261.71202      16459.069    
     55700   111.4          285.32241      33.155853      260.06413      15119.567    
     55800   111.6          295.04913      34.286146      260.48241      15182.175    
     55900   111.8          306.88158      35.661135      262.03085      17611.673    
     56000   112            301.81675      35.072576      263.08755      14958.25     
     56100   112.2          301.42096      35.026584      262.82534      16001.674    
     56200   112.4          303.61475      35.281513      262.3367       17460.637    
     56300   112.6          297.69881      34.594052      261.0542       14987.391    
     56400   112.8          290.66768      33.777         259.9847       18424.395    
     56500   113            305.50026      35.500619      260.45178      17077.703    
     56600   113.2          307.81126      35.769168      263.17426      17382.329    
     56700   113.4          299.91225      34.851265      263.19816      19882.138    
     56800   113.6          300.67162      34.939506      261.84852      15896.73     
     56900   113.8          286.7699       33.324058      260.71128      17006.309    
     57000   114            301.08193      34.987186      260.6786       18758.766    
     57100   114.2          302.43419      35.144326      261.65749      15670.1      
     57200   114.4          317.85363      36.93614       264.96043      16870.517    
     57300   114.6          314.12839      36.503249      264.00853      18735.532    
     57400   114.8          296.48018      34.452441      261.92506      15618.178    
     57500   115            297.93197      34.621146      260.59027      16428.735    
     57600   115.2          302.29937      35.12866       260.60265      17847.762    
     57700   115.4          300.39459      34.907314      261.81942      14790.333    
     57800   115.6          316.73954      36.806677      264.2583       17506.084    
     57900   115.8          306.5898       35.627228      263.91046      15969.634    
     58000   116            309.77982      35.997923      262.69561      16342.573    
     58100   116.2          300.34151      34.901146      261.41149      16603.414    
     58200   116.4          301.024        34.980455      261.05839      15542.588    
     58300   116.6          299.60419      34.815466      261.07519      15692.439    
     58400   116.8          298.32824      34.667195      262.36413      15303.689    
     58500   117            307.59708      35.744279      264.40119      16096.83     
     58600   117.2          306.25948      35.588843      263.58884      17008.041    
     58700   117.4          303.98611      35.324667      261.85378      16215.16     
     58800   117.6          303.3034       35.245332      261.15558      15113.618    
     58900   117.8          296.97189      34.50958       260.85573      15781.662    
     59000   118            299.99284      34.860629      261.64592      16600.596    
     59100   118.2          309.40863      35.95479       263.85084      14909.795    
     59200   118.4          316.05057      36.726615      264.22886      16507.227    
     59300   118.6          295.20808      34.304617      262.19661      16077.811    
     59400   118.8          290.96356      33.811383      261.24582      15921.37     
     59500   119            296.50748      34.455613      261.09271      15982.415    
     59600   119.2          302.50624      35.152699      261.61868      14860.488    
     59700   119.4          305.79185      35.534503      263.13398      15741.154    
     59800   119.6          316.44828      36.772831      264.53451      15784.315    
     59900   119.8          304.7602       35.414619      262.83028      14713.096    
     60000   120            297.81512      34.607567      260.88137      17536.414    
     60100   120.2          305.83136      35.539093      261.01345      16129.178    
     60200   120.4          301.40693      35.024953      261.88937      16404.492    
     60300   120.6          303.0289       35.213434      262.89274      15518.797    
     60400   120.8          311.73699      36.225357      263.7037       17003.105    
     60500   121            306.59638      35.627993      262.87474      15928.247    
     60600   121.2          303.47333      35.265079      260.7442       16581.499    
     60700   121.4          297.87428      34.614442      260.27072      15306.224    
     60800   121.6          306.44841      35.610798      261.00114      17352.946    
     60900   121.8          310.19108      36.045714      263.29727      16255.416    
     61000   122            312.26367      36.286559      264.07053      16032.741    
     61100   122.2          303.69942      35.291351      263.05252      16610.67     
     61200   122.4          308.38238      35.835534      261.96395      16303.589    
     61300   122.6          302.63227      35.167344      261.06504      15157.106    
     61400   122.8          297.83398      34.609759      260.74194      15806.395    
     61500   123            283.16067      32.904649      260.71407      16318.869    
     61600   123.2          294.02371      34.166987      261.89775      15425.067    
     61700   123.4          318.91022      37.058921      263.32958      15774.768    
     61800   123.6          308.94762      35.901218      263.10113      16680.713    
     61900   123.8          294.54563      34.227637      260.90701      16503.197    
     62000   124            301.89307      35.081445      260.05943      16204.454    
     62100   124.2          298.30044      34.663964      260.51822      15935.692    
     62200   124.4          304.51012      35.385559      261.68367      16114.55     
     62300   124.6          298.56295      34.694469      262.12807      16139.849    
     62400   124.8          302.15567      35.111961      261.76056      15432.555    
     62500   125            300.80444      34.954941      259.26499      16876.402    
     62600   125.2          291.07031      33.823788      258.06366      15416.112    
     62700   125.4          298.4868       34.68562       259.85393      17348.763    
     62800   125.6          308.39829      35.837383      261.67249      16528.659    
     62900   125.8          305.58132      35.510037      262.63115      16648.54     
     63000   126            305.75614      35.530353      262.24598      17036.611    
     63100   126.2          291.30355      33.850892      260.32913      15700.213    
     63200   126.4          291.52835      33.877014      259.08471      16524.219    
     63300   126.6          297.22019      34.538434      259.80101      16687.043    
     63400   126.8          296.48781      34.453328      260.65435      17066.167    
     63500   127            309.34835      35.947785      261.47376      17276.124    
     63600   127.2          313.55922      36.437108      262.26726      15980.086    
     63700   127.4          302.27108      35.125372      262.04045      16678.554    
     63800   127.6          305.42121      35.491432      260.36188      16039        
     63900   127.8          289.82489      33.679063      259.34065      17313.108    
     64000   128            288.00828      33.467965      260.74693      16427.705    
     64100   128.2          308.6834       35.870514      262.61965      16589.203    
     64200   128.4          296.57854      34.463871      262.491        16355.127    
     64300   128.6          306.868        35.659556      261.82497      16850.22     
     64400   128.8          287.23477      33.378079      260.12994      15306.777    
     64500   129            293.11252      34.061103      259.33216      16791.116    
     64600   129.2          295.06844      34.28839       260.92239      16456.507    
     64700   129.4          304.0776       35.335298      263.1058       15675.538    
     64800   129.6          308.65499      35.867213      263.13835      16383.012    
     64900   129.8          300.95167      34.97205       261.56372      16242.501    
     65000   130            297.49754      34.570663      260.26869      16415.628    
     65100   130.2          291.52537      33.876668      260.15515      14916.678    
     65200   130.4          300.54096      34.924324      261.9455       16349.294    
     65300   130.6          308.63757      35.865189      264.27625      16552.763    
     65400   130.8          306.19131      35.580922      263.06833      15655.449    
     65500   131            301.72969      35.062459      261.45557      16974.407    
     65600   131.2          297.72288      34.596848      260.39441      15737.161    
     65700   131.4          295.2059       34.304364      260.27945      16136.279    
     65800   131.6          309.37158      35.950485      262.81329      17325.36     
     65900   131.8          313.52959      36.433665      263.84156      15777.758    
     66000   132            307.58151      35.742469      262.61033      16254.702    
     66100   132.2          294.02969      34.167681      261.25854      16124.081    
     66200   132.4          299.41858      34.793897      260.88896      16293.449    
     66300   132.6          298.98694      34.743738      261.44597      16221.433    
     66400   132.8          313.47513      36.427337      264.03407      16761.254    
     66500   133            305.71309      35.52535       264.6676       15198.725    
     66600   133.2          314.04838      36.493951      263.29867      17633.388    
     66700   133.4          302.90403      35.198924      261.55094      15632.342    
     66800   133.6          286.86165      33.334721      260.50841      17323.832    
     66900   133.8          304.00639      35.327023      260.79839      16720.102    
     67000   134            308.26307      35.82167       262.8287       15846.006    
     67100   134.2          312.91986      36.362812      264.07332      17117.085    
     67200   134.4          304.9619       35.438058      262.82557      17492.224    
     67300   134.6          291.22223      33.841441      261.91197      17637.363    
     67400   134.8          308.28388      35.824089      261.32805      16280.221    
     67500   135            299.33631      34.784337      260.93148      18149.524    
     67600   135.2          304.29695      35.360787      261.7746       15756.369    
     67700   135.4          308.90534      35.896306      263.96528      18063.002    
     67800   135.6          306.38997      35.604007      263.90805      17400.586    
     67900   135.8          300.62983      34.93465       261.86264      16449.824    
     68000   136            294.30524      34.199702      260.83337      17729.623    
     68100   136.2          295.16785      34.299941      260.92469      16694.152    
     68200   136.4          304.17017      35.346056      261.64421      14962.953    
     68300   136.6          306.16701      35.578097      263.27822      17441.715    
     68400   136.8          309.70058      35.988716      264.87883      17100.661    
     68500   137            318.13773      36.969153      263.70081      16061.723    
     68600   137.2          303.31739      35.246958      261.05367      16512.204    
     68700   137.4          292.13466      33.94747       260.47754      16864.72     
     68800   137.6          298.31715      34.665905      260.91099      16490.727    
     68900   137.8          309.08905      35.917653      262.54557      16709.606    
     69000   138            299.34762      34.785651      263.4814       17401.023    
     69100   138.2          295.72228      34.364369      262.11405      17318.982    
     69200   138.4          294.79002      34.256036      259.74795      16708.159    
     69300   138.6          292.18388      33.95319       260.00253      15130.181    
     69400   138.8          295.74643      34.367176      261.62421      17322.908    
     69500   139            311.69667      36.220672      262.63158      16221.223    
     69600   139.2          298.42188      34.678076      262.61052      16051.808    
     69700   139.4          292.76293      34.020478      261.0603       16375.396    
     69800   139.6          289.33966      33.622677      258.99736      16443.923    
     69900   139.8          279.91104      32.527026      260.09676      15558.127    
     70000   140            305.61363      35.513792      261.93767      16122.222    
     70100   140.2          308.88093      35.893469      262.59517      15380.09     
     70200   140.4          298.42525      34.678468      262.06091      15637.987    
     70300   140.6          294.27668      34.196383      259.9066       14673.877    
     70400   140.8          285.99595      33.234123      258.85639      17739.6      
     70500   141            293.19327      34.070486      259.85522      14650.706    
     70600   141.2          307.24204      35.703022      261.15868      16896.217    
     70700   141.4          304.01885      35.328471      261.94082      15402.682    
     70800   141.6          299.45645      34.798298      262.67321      17418.957    
     70900   141.8          303.80638      35.303781      263.34864      16641.98     
     71000   142            314.04115      36.493111      262.73294      16041.385    
     71100   142.2          287.20693      33.374844      260.767        17879.558    
     71200   142.4          302.52011      35.15431       260.21987      14397.666    
     71300   142.6          295.57087      34.346774      261.26843      18139.196    
     71400   142.8          302.40527      35.140966      263.23136      17030.838    
     71500   143            310.04286      36.028491      263.15461      16932.609    
     71600   143.2          306.7347       35.644066      262.43751      16835.984    
     71700   143.4          296.84604      34.494956      261.67591      15770.301    
     71800   143.6          301.68814      35.057632      261.61167      15421.725    
     71900   143.8          304.47857      35.381892      261.78561      15559.058    
     72000   144            312.41474      36.304114      262.95505      14767.78     
     72100   144.2          314.99262      36.603677      264.6136       15855.939    
     72200   144.4          322.31836      37.454963      263.92712      17166.291    
     72300   144.6          298.67609      34.707616      261.46361      15427.986    
     72400   144.8          302.67107      35.171853      261.02164      16389.824    
     72500   145            297.9821       34.626972      261.35902      15713.043    
     72600   145.2          311.39313      36.185399      262.38543      17442.489    
     72700   145.4          302.48445      35.150166      263.20595      15861.372    
     72800   145.6          303.35105      35.25087       263.22578      16769.518    
     72900   145.8          308.33966      35.83057       261.06814      15455.324    
     73000   146            288.39321      33.512696      260.13338      16023.183    
     73100   146.2          298.7301       34.713892      261.00186      17510.599    
     73200   146.4          304.4588       35.379596      262.52764      15352.98     
     73300   146.6          312.91427      36.362162      263.28066      16925.897    
     73400   146.8          307.84943      35.773603      263.18661      16737.832    
     73500   147            307.2851       35.708026      261.52426      15106.132    
     73600   147.2          301.32882      35.015876      260.24433      16891.848    
     73700   147.4          297.82735      34.608989      260.22386      16408.018    
     73800   147.6          303.1162       35.223579      262.03668      15834.699    
     73900   147.8          321.28304      37.334654      263.04937      18102.773    
     74000   148            298.03652      34.633295      262.29124      16369.592    
     74100   148.2          296.32101      34.433944      260.42668      15423.453    
     74200   148.4          281.21612      32.678682      257.98564      16559.805    
     74300   148.6          276.53388      32.134584      255.30389      14981.389    
     74400   148.8          286.59415      33.303636      257.55076      16016.208    
     74500   149            300.94311      34.971055      259.8905       15945.23     
     74600   149.2          298.0239       34.631829      261.87406      16109.551    
     74700   149.4          299.17581      34.765686      263.0032       15837.39     
     74800   149.6          301.57541      35.044532      263.04678      17386.445    
     74900   149.8          298.76407      34.71784       261.6488       14029.812    
     75000   150            308.26379      35.821754      260.43434      17980.837    
     75100   150.2          282.83243      32.866506      259.76925      14718.865    
     75200   150.4          286.7435       33.320991      261.97325      16360.441    
     75300   150.6          304.90167      35.431059      263.45716      15937.471    
     75400   150.8          307.18473      35.696362      262.98418      16956.089    
     75500   151            292.28904      33.965411      261.23092      17919.817    
     75600   151.2          289.6463       33.65831       260.38632      15758.822    
     75700   151.4          300.18395      34.882837      261.06634      16417.729    
     75800   151.6          299.47373      34.800306      261.85779      14919.336    
     75900   151.8          296.97254      34.509656      261.96209      17372.361    
     76000   152            303.46154      35.263709      262.05761      13849.078    
     76100   152.2          300.83738      34.958769      262.06937      18165.442    
     76200   152.4          298.85143      34.727992      261.48437      14127.441    
     76300   152.6          297.61125      34.583877      260.55129      18156.715    
     76400   152.8          292.74672      34.018595      260.15754      16128.945    
     76500   153            296.84117      34.494389      260.88633      16045.159    
     76600   153.2          303.15971      35.228634      262.92864      17529.661    
     76700   153.4          316.99429      36.83628       263.10456      16188.932    
     76800   153.6          307.02811      35.678162      261.70932      17210.94     
     76900   153.8          295.26519      34.311253      259.8895       17074.968    
     77000   154            299.12052      34.759261      259.7873       15780.838    
     77100   154.2          287.17769      33.371446      260.57131      16549.992    
     77200   154.4          310.51549      36.083413      261.88467      16834.127    
     77300   154.6          311.37584      36.183389      262.63321      14971.729    
     77400   154.8          291.03634      33.81984       262.28141      17518.167    
     77500   155            302.3728       35.137192      260.2798       15832.782    
     77600   155.2          291.88479      33.918435      259.33756      16872.909    
     77700   155.4          298.04144      34.633867      260.76536      16091.54     
     77800   155.6          310.39867      36.069837      262.00287      16326.299    
     77900   155.8          312.3216       36.293291      261.9314       16744.338    
     78000   156            308.04605      35.796451      261.45487      16708.165    
     78100   156.2          293.07754      34.057038      261.12192      16148.091    
     78200   156.4          307.41136      35.722697      261.16811      18199.262    
     78300   156.6          296.4675       34.450967      261.72831      15861.599    
     78400   156.8          296.63164      34.470041      262.67943      15808.361    
     78500   157            318.91717      37.059729      263.54443      16690.598    
     78600   157.2          299.633        34.818814      262.99663      15549.16     
     78700   157.4          299.37584      34.788931      260.86367      16431.494    
     78800   157.6          284.85006      33.100964      260.20987      16578.597    
     78900   157.8          299.67423      34.823605      261.25428      15062.152    
     79000   158            302.41607      35.14222       263.52736      18199.326    
     79100   158.2          300.13651      34.877324      263.6213       16482.581    
     79200   158.4          311.14468      36.156528      262.77394      16972.354    
     79300   158.6          303.44989      35.262355      261.50401      15541.215    
     79400   158.8          287.55452      33.415236      260.56811      15771.037    
     79500   159            299.19282      34.767663      260.31574      15831.896    
     79600   159.2          304.36332      35.3685        261.7156       15755.81     
     79700   159.4          306.24334      35.586967      263.31273      17714.056    
     79800   159.6          305.89076      35.545997      263.3716       16611.556    
     79900   159.8          295.82942      34.37682       261.48852      17114.807    
     80000   160            291.33891      33.855001      260.28521      16093.464    
     80100   160.2          300.68704      34.941298      260.47502      16874.376    
     80200   160.4          300.51452      34.921251      261.22394      15521.831    
     80300   160.6          295.85227      34.379474      261.60906      16921.161    
     80400   160.8          304.98465      35.440702      261.93957      15831.865    
     80500   161            309.85626      36.006806      261.86147      15596.854    
     80600   161.2          307.20696      35.698945      261.8885       16124.614    
     80700   161.4          296.97127      34.509508      261.79674      15610.27     
     80800   161.6          303.75388      35.29768       261.78829      16550.982    
     80900   161.8          298.52691      34.690281      260.93224      16582.114    
     81000   162            282.33098      32.808235      258.82719      15461.364    
     81100   162.2          282.87969      32.871998      258.18368      16060.715    
     81200   162.4          302.0052       35.094475      260.91154      17519.639    
     81300   162.6          312.99998      36.372122      261.92041      14663.728    
     81400   162.8          298.43238      34.679296      262.12115      17350.412    
     81500   163            302.70858      35.176211      261.31734      17386.098    
     81600   163.2          285.49445      33.175845      259.84492      14922.276    
     81700   163.4          285.33946      33.157835      259.69416      17026.442    
     81800   163.6          307.57655      35.741893      262.29419      15967.356    
     81900   163.8          312.82482      36.351768      263.02697      15703.013    
     82000   164            306.80677      35.652441      262.29103      17418.874    
     82100   164.2          293.37677      34.091809      260.41848      15834.609    
     82200   164.4          289.21714      33.60844       259.83969      17238.242    
     82300   164.6          284.08952      33.012585      260.67268      16203.521    
     82400   164.8          291.83793      33.912989      261.59473      17568.959    
     82500   165            303.88816      35.313285      262.33517      16269.108    
     82600   165.2          314.69389      36.568963      262.75827      16745.722    
     82700   165.4          296.67535      34.475121      262.39624      17628.94     
     82800   165.6          289.26303      33.613773      260.72263      16353.596    
     82900   165.8          290.69382      33.780038      260.17725      16358.714    
     83000   166            295.15323      34.298243      260.8923       17976.785    
     83100   166.2          308.57829      35.8583        263.16419      17066.924    
     83200   166.4          311.6151       36.211192      263.66472      16724.135    
     83300   166.6          296.26588      34.427538      262.50023      15995.07     
     83400   166.8          300.8159       34.956273      261.60732      17566.081    
     83500   167            311.57445      36.206468      261.42838      15822.089    
     83600   167.2          287.0294       33.354215      261.40577      18095.325    
     83700   167.4          295.68802      34.360388      261.58169      16395.27     
     83800   167.6          307.99623      35.790662      262.33098      16581.233    
     83900   167.8          297.78136      34.603644      262.99253      16671.539    
     84000   168            309.49043      35.964295      263.25043      15531.853    
     84100   168.2          299.19459      34.767869      261.77725      16600.596    
     84200   168.4          303.97173      35.322996      260.27479      16300.939    
     84300   168.6          282.17274      32.789847      259.61909      17151.725    
     84400   168.8          300.49358      34.918817      262.19975      17835.29     
     84500   169            304.41644      35.374672      263.37166      16856.8      
     84600   169.2          303.51416      35.269823      262.4969       15683.503    
     84700   169.4          300.42821      34.911222      261.04717      16718.194    
     84800   169.6          291.33041      33.854012      260.444        15778.266    
     84900   169.8          307.40376      35.721815      261.04442      15428.662    
     85000   170            299.44495      34.796961      263.467        16702.183    
     85100   170.2          307.25931      35.705028      263.75475      16669.222    
     85200   170.4          304.78641      35.417665      261.95521      15827.203    
     85300   170.6          293.18055      34.069007      260.94945      16487.546    
     85400   170.8          299.48853      34.802026      261.2178       15532.085    
     85500   171            300.79179      34.953471      261.84568      17240.954    
     85600   171.2          305.39543      35.488437      262.96066      17116.457    
     85700   171.4          321.38821      37.346876      265.75335      15498.942    
     85800   171.6          315.58883      36.672959      265.65234      18763.103    
     85900   171.8          299.66546      34.822585      263.5638       15929.295    
     86000   172            311.49293      36.196995      262.44458      17515.937    
     86100   172.2          300.26969      34.8928        261.41181      16802.581    
     86200   172.4          293.9133       34.154157      260.91546      16604.007    
     86300   172.6          283.87787      32.987991      261.83193      16067.042    
     86400   172.8          311.86862      36.240653      264.05901      17217.506    
     86500   173            311.83217      36.236416      264.04593      16044.625    
     86600   173.2          296.23447      34.423888      262.2033       16869.9      
     86700   173.4          303.36512      35.252505      261.3937       17041.511    
     86800   173.6          303.84445      35.308204      261.54315      16634.703    
     86900   173.8          293.96211      34.159829      261.92185      16559.88     
     87000   174            311.45984      36.19315       263.54362      16853.316    
[...]
    478600   957.2          317.0706       36.845148      264.36796      16780.137    
    478700   957.4          304.24176      35.354374      261.7199       16805.589    
    478800   957.6          296.18368      34.417986      260.65709      15381.838    
    478900   957.8          289.85835      33.682953      260.76753      17009.654    
    479000   958            295.79484      34.372802      261.95902      15170.512    
    479100   958.2          315.52541      36.66559       263.0994       16088.53     
    479200   958.4          309.72098      35.991087      262.83979      17355.737    
    479300   958.6          293.4601       34.101493      260.24957      15912.904    
    479400   958.8          293.22143      34.073758      259.64384      15554.937    
    479500   959            300.48934      34.918325      260.78542      16138.126    
    479600   959.2          298.98185      34.743147      262.23597      16109.33     
    479700   959.4          316.80605      36.814407      262.7562       17146.095    
    479800   959.6          296.46585      34.450775      260.84822      17147.156    
    479900   959.8          287.37993      33.394948      258.60397      15343.091    
    480000   960            283.60112      32.955832      259.71476      17041.368    
    480100   960.2          301.08046      34.987016      261.59793      17109.272    
    480200   960.4          310.91598      36.129951      262.58253      16827.632    
    480300   960.6          307.83363      35.771768      262.33784      16065.326    
    480400   960.8          296.90963      34.502345      260.07746      16131.372    
    480500   961            287.27466      33.382715      259.27063      16339.056    
    480600   961.2          300.53668      34.923826      260.11562      15919.374    
    480700   961.4          298.40997      34.676692      261.11252      16723.112    
    480800   961.6          297.99917      34.628955      261.57113      15871.995    
    480900   961.8          302.35419      35.13503       261.6148       16036.095    
    481000   962            303.91376      35.316259      261.10296      16327.483    
    481100   962.2          300.80919      34.955493      259.70331      16289.984    
    481200   962.4          302.10511      35.106085      259.66481      15542.674    
    481300   962.6          299.68915      34.825339      261.3389       15755.518    
    481400   962.8          307.61277      35.746102      262.54207      16338.303    
    481500   963            315.50847      36.663621      262.24616      16854.932    
    481600   963.2          291.86398      33.916016      259.85208      16921.318    
    481700   963.4          290.17644      33.719916      259.17455      17071.392    
    481800   963.6          304.81263      35.420712      260.03641      15726.213    
    481900   963.8          304.8287       35.422579      261.73186      16933.522    
    482000   964            300.29579      34.895833      262.43391      15892.421    
    482100   964.2          299.08669      34.75533       261.8329       15678.462    
    482200   964.4          289.10818      33.595779      259.35216      17208.558    
    482300   964.6          277.96101      32.300423      258.41518      15942.468    
    482400   964.8          292.55288      33.996069      259.68519      16572.96     
    482500   965            290.23559      33.726789      260.93691      16709.317    
    482600   965.2          300.42163      34.910456      261.56092      16302.514    
    482700   965.4          304.42037      35.37513       261.7683       16545.903    
    482800   965.6          295.53296      34.342369      262.021        17430.665    
    482900   965.8          299.89291      34.849017      261.7407       16830.874    
    483000   966            311.05085      36.145623      260.65765      15806.811    
    483100   966.2          299.54458      34.808539      259.57913      17491.055    
    483200   966.4          294.49397      34.221634      260.00592      15482.419    
    483300   966.6          306.71401      35.641662      262.50797      16865.368    
    483400   966.8          307.65718      35.751263      263.0683       17374.991    
    483500   967            297.59055      34.581471      261.89549      16304.917    
    483600   967.2          295.59076      34.349086      260.41701      17757.258    
    483700   967.4          302.64307      35.168599      260.20623      17130.473    
    483800   967.6          307.59788      35.744371      260.85203      15831.996    
    483900   967.8          289.1828       33.60445       261.17699      17855.852    
    484000   968            295.56751      34.346384      261.27993      16695.468    
    484100   968.2          293.96483      34.160145      261.46991      16885.183    
    484200   968.4          300.98948      34.976444      261.51106      17144.734    
    484300   968.6          286.43923      33.285633      261.3623       16519.135    
    484400   968.8          300.90388      34.966497      260.51047      15952.456    
    484500   969            302.74929      35.180942      259.84418      17024.693    
    484600   969.2          290.11899      33.713239      259.77214      15299.079    
    484700   969.4          313.2844       36.405173      261.72876      17797.884    
    484800   969.6          306.28518      35.59183       262.97842      16410.595    
    484900   969.8          310.00783      36.02442       262.3154       16936.295    
    485000   970            294.62631      34.237012      260.70323      16669.882    
    485100   970.2          301.6208       35.049806      260.30781      17242.28     
    485200   970.4          300.94506      34.971282      260.70175      17016.139    
    485300   970.6          308.90378      35.896123      261.47939      16321.074    
    485400   970.8          305.44648      35.494368      262.23152      16392.71     
    485500   971            300.85106      34.960358      263.22108      16550.727    
    485600   971.2          311.76344      36.22843       263.08999      15363.684    
    485700   971.4          302.61032      35.164793      261.12074      16704.45     
    485800   971.6          285.00072      33.118471      259.79617      15498.022    
    485900   971.8          289.87388      33.684757      260.12037      16516.996    
    486000   972            302.78538      35.185135      261.44525      17512.93     
    486100   972.2          301.17162      34.997609      263.32479      17092.337    
    486200   972.4          312.52248      36.316634      265.71126      18572.843    
    486300   972.6          302.89194      35.197519      263.6906       17076.986    
    486400   972.8          294.59134      34.232948      261.42643      16473.42     
    486500   973            289.35623      33.624603      260.88129      17398.906    
    486600   973.2          300.80346      34.954827      260.7855       15878.988    
    486700   973.4          295.06014      34.287425      261.12708      16742.925    
    486800   973.6          307.99282      35.790266      262.16561      15515.974    
    486900   973.8          303.31156      35.246281      262.99938      16780.894    
    487000   974            299.59226      34.81408       261.94007      16133.389    
    487100   974.2          297.31295      34.549213      259.78724      16173.935    
    487200   974.4          295.73206      34.365505      259.63848      16833.238    
    487300   974.6          291.26985      33.846975      260.7911       16479.63     
    487400   974.8          298.54247      34.692089      262.22708      16697.539    
    487500   975            304.20999      35.350682      262.98319      16971.634    
    487600   975.2          301.14602      34.994635      263.15333      16695.286    
    487700   975.4          311.26329      36.17031       261.69505      16209.064    
    487800   975.6          295.08162      34.289921      259.88647      17745.205    
    487900   975.8          293.44395      34.099617      259.73828      16978.946    
    488000   976            298.33452      34.667924      260.92684      15852.742    
    488100   976.2          315.48805      36.661248      262.85721      17374.858    
    488200   976.4          304.22213      35.352093      262.77283      16482.041    
    488300   976.6          299.51599      34.805216      261.71926      16231.1      
    488400   976.8          304.32892      35.364503      261.06347      16213.851    
    488500   977            302.67923      35.1728        260.95133      17082.644    
    488600   977.2          286.73346      33.319825      260.87083      15009.513    
    488700   977.4          314.4874       36.544967      261.7875       17601.012    
    488800   977.6          309.77097      35.996896      263.61587      15968.623    
    488900   977.8          308.92377      35.898447      263.43644      16636.211    
    489000   978            296.01924      34.398877      261.21033      17043.127    
    489100   978.2          290.58397      33.767273      260.31185      15620.96     
    489200   978.4          295.79262      34.372543      260.48355      16927.216    
    489300   978.6          301.69502      35.05843       261.62913      17025.949    
    489400   978.8          302.63413      35.16756       263.2052       16836.8      
    489500   979            323.38105      37.578453      265.62992      17383.65     
    489600   979.2          299.92618      34.852883      264.43298      16602.139    
    489700   979.4          297.78258      34.603786      262.55785      16564.191    
    489800   979.6          288.84284      33.564944      261.6585       16149.012    
    489900   979.8          296.7925       34.488734      260.64559      16068.655    
    490000   980            290.14243      33.715964      260.11858      17104.928    
    490100   980.2          285.52528      33.179428      260.86461      15628.347    
    490200   980.4          292.41276      33.979787      263.07406      17217.008    
    490300   980.6          303.51865      35.270345      263.27053      16305.79     
    490400   980.8          298.76593      34.718056      261.82589      17250.254    
    490500   981            295.1481       34.297647      260.70025      14997.498    
    490600   981.2          305.89722      35.546746      260.70682      16644.944    
    490700   981.4          299.32124      34.782586      260.89191      15785.435    
    490800   981.6          292.78666      34.023236      261.37588      16671.605    
    490900   981.8          300.25569      34.891174      262.5359       16351.645    
    491000   982            308.48129      35.847028      264.02804      17717.29     
    491100   982.2          310.9909       36.138658      262.93442      17107.302    
    491200   982.4          287.51619      33.410781      260.62166      15553.554    
    491300   982.6          295.69009      34.360629      260.68717      17083.512    
    491400   982.8          308.59929      35.860741      261.61181      16885.896    
    491500   983            300.04851      34.867098      262.8145       17279.566    
    491600   983.2          306.64822      35.634017      263.54045      16303.13     
    491700   983.4          312.15945      36.274448      263.04246      17852.487    
    491800   983.6          298.30992      34.665066      260.80545      16620.213    
    491900   983.8          299.48998      34.802194      260.0472       14989.51     
    492000   984            303.6137       35.28139       260.39512      17095.959    
    492100   984.2          302.25846      35.123905      262.45303      15895.601    
    492200   984.4          315.35871      36.646218      263.68325      17892.043    
    492300   984.6          323.39192      37.579716      262.6754       16895.702    
    492400   984.8          297.33251      34.551486      261.67313      17450.409    
    492500   985            294.62275      34.236599      261.38805      17280.492    
    492600   985.2          303.18918      35.23206       261.07932      16518.858    
    492700   985.4          290.59746      33.76884       260.61952      17170.03     
    492800   985.6          296.17981      34.417536      260.3052       16512.67     
    492900   985.8          295.16519      34.299633      260.76837      16769.16     
    493000   986            297.7021       34.594434      262.13269      16708.666    
    493100   986.2          305.41337      35.490521      262.97724      16290.833    
    493200   986.4          310.0775       36.032515      262.36846      17631.26     
    493300   986.6          299.44144      34.796554      259.87102      14443.545    
    493400   986.8          288.88346      33.569666      259.81885      17413.061    
    493500   987            305.21418      35.467374      261.26992      16960.058    
    493600   987.2          302.45937      35.147252      262.12372      15986.096    
    493700   987.4          312.94986      36.366298      262.13229      17664.7      
    493800   987.6          298.11218      34.642088      259.45038      15823.533    
    493900   987.8          291.83599      33.912764      258.57515      16057.519    
    494000   988            293.87293      34.149466      259.97128      16294.656    
    494100   988.2          298.22445      34.655134      261.5904       17032.942    
    494200   988.4          290.42391      33.748673      262.09445      16703.868    
    494300   988.6          297.97048      34.625621      261.50525      17259.638    
    494400   988.8          280.65712      32.613724      258.90679      15729.048    
    494500   989            291.38151      33.85995       258.26128      16838.942    
    494600   989.2          294.52299      34.225005      259.67158      16853.993    
    494700   989.4          297.61124      34.583875      260.9834       15823.049    
    494800   989.6          311.16567      36.158966      261.7083       16332.621    
    494900   989.8          294.13254      34.179633      261.88309      16008.8      
    495000   990            299.35434      34.786432      261.91909      17683.411    
    495100   990.2          288.54817      33.530702      260.52363      16182.179    
    495200   990.4          298.72351      34.713127      259.48955      17257.156    
    495300   990.6          294.5965       34.233548      259.62015      16405.971    
    495400   990.8          306.05113      35.564632      261.78319      17737.429    
    495500   991            301.42115      35.026606      262.40368      16331.958    
    495600   991.2          301.1172       34.991285      261.72405      16426.624    
    495700   991.4          297.59595      34.582098      260.69386      17080.994    
    495800   991.6          294.20993      34.188627      259.1558       16171.968    
    495900   991.8          286.48106      33.290495      256.46617      16623.316    
    496000   992            289.49983      33.641291      257.4285       17030.537    
    496100   992.2          276.18449      32.093983      259.20077      16364.674    
    496200   992.4          307.38765      35.719941      260.84709      16463.234    
    496300   992.6          307.72553      35.759205      262.05854      16666.344    
    496400   992.8          307.7092       35.757308      262.25012      15503.353    
    496500   993            300.45911      34.914811      260.66847      16770.443    
    496600   993.2          283.45885      32.939299      259.00226      15679.562    
    496700   993.4          293.70101      34.129488      259.43394      17327.325    
    496800   993.6          295.47372      34.335485      260.83203      16171.844    
    496900   993.8          286.05833      33.241371      261.36862      17530.467    
    497000   994            305.56213      35.507808      261.37943      16013.11     
    497100   994.2          296.69272      34.477139      260.88046      16340.046    
    497200   994.4          294.13049      34.179396      260.55365      16258.735    
    497300   994.6          295.70608      34.362487      260.887        16229.512    
    497400   994.8          299.58324      34.813032      261.6804       17175.975    
    497500   995            293.59903      34.117638      262.56255      16191.986    
    497600   995.2          311.05516      36.146125      262.66307      15544.055    
    497700   995.4          294.38884      34.209417      260.39629      16708.152    
    497800   995.6          297.49979      34.570924      259.74991      16562.477    
    497900   995.8          298.53603      34.691341      260.44179      15321.415    
    498000   996            307.09628      35.686084      262.24067      17465.092    
    498100   996.2          312.7279       36.340505      264.04998      16168.074    
    498200   996.4          309.7947       35.999653      263.91954      17054.353    
    498300   996.6          301.35602      35.019037      261.12667      17554.656    
    498400   996.8          289.90106      33.687915      259.74255      16255.463    
    498500   997            291.61142      33.886668      259.56294      16396.603    
    498600   997.2          292.65634      34.008092      260.91955      16569.205    
    498700   997.4          301.12364      34.992034      262.24517      15222.404    
    498800   997.6          313.37033      36.415158      262.25882      16460.726    
    498900   997.8          289.56899      33.649326      259.60229      15667.844    
    499000   998            289.65522      33.659347      259.02843      16837.755    
    499100   998.2          296.09346      34.407502      260.25423      16481.808    
    499200   998.4          301.45173      35.030159      261.37733      15602.818    
    499300   998.6          301.34083      35.017272      261.70048      16189.08     
    499400   998.8          304.65011      35.401826      261.44177      16351.17     
    499500   999            299.64807      34.820565      261.18169      15876.318    
    499600   999.2          297.20432      34.536589      260.82756      16645.444    
    499700   999.4          294.14074      34.180586      260.69035      16042.061    
    499800   999.6          300.43996      34.912586      260.61087      16727.776    
    499900   999.8          298.97488      34.742338      260.62302      16204.604    
    500000   1000           302.7787       35.184359      260.72821      15466.258    
Loop time of 329.471 on 1 procs for 500000 steps with 900 atoms

Performance: 262.238 ns/day, 0.092 hours/ns, 1517.583 timesteps/s
55.6% CPU use with 1 MPI tasks x no OpenMP threads

MPI task timing breakdown:
Section |  min time  |  avg time  |  max time  |%varavg| %total
---------------------------------------------------------------
Pair    | 205.48     | 205.48     | 205.48     |   0.0 | 62.37
Neigh   | 111.77     | 111.77     | 111.77     |   0.0 | 33.92
Comm    | 3.9358     | 3.9358     | 3.9358     |   0.0 |  1.19
Output  | 2.2186     | 2.2186     | 2.2186     |   0.0 |  0.67
Modify  | 5.3812     | 5.3812     | 5.3812     |   0.0 |  1.63
Other   |            | 0.6825     |            |       |  0.21

Nlocal:            900 ave         900 max         900 min
Histogram: 1 0 0 0 0 0 0 0 0 0
Nghost:           2794 ave        2794 max        2794 min
Histogram: 1 0 0 0 0 0 0 0 0 0
Neighs:              0 ave           0 max           0 min
Histogram: 1 0 0 0 0 0 0 0 0 0
FullNghs:       101358 ave      101358 max      101358 min
Histogram: 1 0 0 0 0 0 0 0 0 0

Total # of neighbors = 101358
Ave neighs/atom = 112.62
Neighbor list builds = 50000
Dangerous builds not checked

Total wall time: 0:05:48
