LAMMPS data file via write_data, version 4 May 2022, timestep = 599

48 atoms
3 atom types

0.012206196784973145 6.07311624288559 xlo xhi
-0.011132121086120605 9.253942728042603 ylo yhi
-0.0047147274017333984 19.52184236049652 zlo zhi
2.5251476168632507 -1.2408915162086487 0.26099252700805664 xy xz yz

Masses

1 24.305
2 65.40900000000001
3 88.90600000000001

Atoms # atomic

1 1 6.015524839066016 1.543126057148005 0.6173026845976907 0 0 0
2 1 2.9778309179539777 0.6915556884602354 1.0310827478928333 0 0 0
3 1 0.620587015827343 1.3155642341708846 12.822176166023878 0 0 0
4 1 2.6059510008889424 9.0237973323254 18.115446639387866 0 0 0
5 1 5.32549013044662 1.655283188438704 15.671745657248234 0 0 0
6 1 3.118498185368976 0.6102921064591806 17.701665649362177 0 0 0
7 1 2.3005747144872344 2.505744563847636 15.2611261128011 0 0 0
8 1 4.139258909464022 2.02494497898285 7.943327035057261 0 0 0
9 1 3.647268301132262 0.46592899944363947 13.229648786007644 0 0 0
10 1 2.798786952334857 2.3652601601137255 10.789422076827954 0 0 0
11 1 4.637469908523212 1.8844612621129706 3.4716232892980083 0 0 0
12 1 2.449061337360267 0.8359181353927666 5.503101502988159 0 0 0
13 1 1.6125546098719536 2.7349233861918494 3.0610032974189787 0 0 0
14 1 1.1055768741524779 1.1758520500578091 8.34984885134122 0 0 0
15 1 6.857240909321088 4.6314839559422785 0.6173026764951616 0 0 0
16 1 3.819546476416821 3.7799143296840754 1.0310834446590345 0 0 0
17 1 1.4623026733995284 4.4039224973099484 12.822175533847558 0 0 0
18 1 0.9225196462462608 2.847080335138381 18.115446400698296 0 0 0
19 1 6.167206153907858 4.743641388312587 15.671746092418582 0 0 0
20 1 3.9602134483588403 3.6986500886082703 17.701666286489356 0 0 0
21 1 3.1422907674688445 5.594102665461656 15.261126417921815 0 0 0
22 1 5.832469121495624 3.214352663382874 10.38290050134554 0 0 0
23 1 4.98097464541706 5.113303605245412 7.943327027368852 0 0 0
24 1 4.4889840038798425 3.5542874785358554 13.229648144275215 0 0 0
25 1 3.6405030926122963 5.45361865061491 10.789421355708399 0 0 0
26 1 6.317457737667775 3.0746414001554743 5.910573370418521 0 0 0
27 1 5.479185997927377 4.972819486262139 3.4716229338114997 0 0 0
28 1 3.2907774280105864 3.9242767985717206 5.503100988160992 0 0 0
29 1 2.454270428923776 5.823281186460699 3.061003456066535 0 0 0
30 1 1.9472927834876446 4.26421001537865 8.349848666425311 0 0 0
31 1 7.69895722060186 7.7198422087234695 0.6173030449008199 0 0 0
32 1 4.661262632046158 6.86827213925358 1.0310833766219898 0 0 0
33 1 2.3040190857857445 7.4922812208776985 12.822175680398699 0 0 0
34 1 1.764235558154922 5.935439024298294 18.11544654989998 0 0 0
35 1 7.008922473438936 7.831999176737838 15.671746637233431 0 0 0
36 1 4.801930169592837 6.787008447426432 17.701666215316717 0 0 0
37 1 3.9840067885872537 8.682461016080168 15.261126444425457 0 0 0
38 1 6.674185196768921 6.3027111571718635 10.382900485966545 0 0 0
39 1 5.8226905515458025 8.201661169320237 7.943327550484572 0 0 0
40 1 5.330699841448514 6.642645721456183 13.229648477862002 0 0 0
41 1 4.482218716293858 8.541976813691722 10.789421378945791 0 0 0
42 1 7.159174024032275 6.162999652752309 5.910573141227223 0 0 0
43 1 6.320902325994223 8.061177830300323 3.471622600319871 0 0 0
44 1 4.132493204422715 7.012634855485837 5.503100911759904 0 0 0
45 1 3.2959865631338667 8.911639909449736 3.061002706703566 0 0 0
46 1 2.7890088255857397 7.352569046197935 8.349848498406935 0 0 0
47 1 7.5159003776489675 9.391069550476956 10.382900368671972 0 0 0
48 1 8.00088983568794 9.25135803112321 5.910572866770202 0 0 0

Velocities

1 0 0 0
2 0 0 0
3 0 0 0
4 0 0 0
5 0 0 0
6 0 0 0
7 0 0 0
8 0 0 0
9 0 0 0
10 0 0 0
11 0 0 0
12 0 0 0
13 0 0 0
14 0 0 0
15 0 0 0
16 0 0 0
17 0 0 0
18 0 0 0
19 0 0 0
20 0 0 0
21 0 0 0
22 0 0 0
23 0 0 0
24 0 0 0
25 0 0 0
26 0 0 0
27 0 0 0
28 0 0 0
29 0 0 0
30 0 0 0
31 0 0 0
32 0 0 0
33 0 0 0
34 0 0 0
35 0 0 0
36 0 0 0
37 0 0 0
38 0 0 0
39 0 0 0
40 0 0 0
41 0 0 0
42 0 0 0
43 0 0 0
44 0 0 0
45 0 0 0
46 0 0 0
47 0 0 0
48 0 0 0
