ITEM: TIMESTEP
0
ITEM: NUMBER OF ATOMS
32
ITEM: BOX BOUNDS xy xz yz pp pp pp
3.0272657245757604e-03 6.3938049081754240e+00 0.0000000000000000e+00
-3.1320509042145829e-03 9.1138793234019531e+00 0.0000000000000000e+00
2.7435269680358088e-02 2.0697951192719628e+01 3.5903160970977388e+00
ITEM: ATOMS id type xs ys zs fx fy fz
1 1 0.999986 0.627466 0.0597554 3.70113e-07 0 0.0240952
2 1 0.499986 0.627466 0.0597554 -9.20005e-08 0 0.0240951
3 1 0.249986 0.127468 0.0597529 -4.33603e-07 0 0.0242115
4 1 0.749986 0.127468 0.0597529 4.41031e-07 0 0.0242115
5 1 0.999986 0.465068 0.309761 2.07743e-07 0 0.00132965
6 1 0.249986 0.380363 0.18476 -3.96538e-07 0 0.0220424
7 1 0.749986 0.380363 0.18476 2.67322e-07 0 0.0220426
8 1 0.499986 0.465068 0.309761 -1.97901e-08 0 0.00132941
9 1 0.999986 0.880365 0.184758 1.46625e-07 0 0.0221041
10 1 0.249986 0.965067 0.309759 -3.81135e-07 0 0.00140806
11 1 0.499986 0.880365 0.184758 -3.43742e-07 0 0.0221043
12 1 0.749986 0.965067 0.309759 4.3574e-07 0 0.00140787
13 1 0.999986 0.302649 0.559747 1.69093e-07 0 0.000910196
14 1 0.499986 0.302649 0.559747 -4.10946e-07 0 0.000910306
15 1 0.249986 0.802651 0.559747 -4.44597e-07 0 0.000897831
16 1 0.749986 0.802651 0.559747 3.46102e-07 0 0.000897328
17 1 0.249986 0.217962 0.434755 -4.38449e-07 0 -0.000905696
18 1 0.749986 0.217962 0.434755 5.07803e-07 0 -0.000905985
19 1 0.999986 0.717964 0.434755 1.78145e-07 0 -0.00092174
20 1 0.499986 0.717964 0.434755 -2.03843e-07 0 -0.000921543
21 1 0.999986 0.140238 0.809742 2.89729e-07 0 -0.0220889
22 1 0.249986 0.0555411 0.684743 -4.82279e-07 0 -0.00140735
23 1 0.499986 0.140238 0.809742 -2.19991e-07 0 -0.0220887
24 1 0.749986 0.0555411 0.684743 3.23517e-07 0 -0.00140733
25 1 0.999986 0.555541 0.684741 3.08821e-07 0 -0.00134617
26 1 0.249986 0.64024 0.809741 -4.0251e-07 0 -0.022055
27 1 0.749986 0.64024 0.809741 3.48611e-07 0 -0.0220551
28 1 0.499986 0.555541 0.684741 -2.21771e-07 0 -0.00134581
29 1 0.249986 0.893134 0.934748 -3.97929e-07 0 -0.0241787
30 1 0.749986 0.893134 0.934748 3.94842e-07 0 -0.0241787
31 1 0.999986 0.393134 0.934746 3.02018e-07 0 -0.0240954
32 1 0.499986 0.393134 0.934746 -7.13553e-08 0 -0.0240955
ITEM: TIMESTEP
4
ITEM: NUMBER OF ATOMS
32
ITEM: BOX BOUNDS xy xz yz pp pp pp
3.0272657245757604e-03 6.3938049081754240e+00 0.0000000000000000e+00
-3.1320509042145829e-03 9.1138793234019531e+00 0.0000000000000000e+00
2.7435269680358088e-02 2.0697951192719628e+01 3.5903160970977388e+00
ITEM: ATOMS id type xs ys zs fx fy fz
1 1 0.999986 0.627094 0.0603276 -4.22646e-07 0 -0.00017227
2 1 0.499986 0.627094 0.0603276 -4.93628e-07 0 -0.000172785
3 1 0.249986 0.127094 0.0603281 2.07133e-07 0 -0.000191236
4 1 0.749986 0.127094 0.0603281 3.47883e-07 0 -0.000191967
5 1 0.999986 0.464713 0.310306 3.73489e-07 0 -0.000120644
6 1 0.249986 0.379785 0.185651 -3.69786e-07 0 7.82351e-05
7 1 0.749986 0.379785 0.185651 9.01016e-07 0 7.72065e-05
8 1 0.499986 0.464713 0.310306 -6.70552e-08 0 -0.000119879
9 1 0.999986 0.879785 0.185651 2.08209e-07 0 5.35432e-05
10 1 0.249986 0.964712 0.310306 -1.09214e-08 0 -0.000129685
11 1 0.499986 0.879785 0.185651 -3.07701e-07 0 5.34252e-05
12 1 0.749986 0.964712 0.310306 -4.01538e-07 0 -0.00012974
13 1 0.999986 0.302761 0.559576 3.67407e-07 0 -0.000291732
14 1 0.499986 0.302761 0.559576 -9.54606e-08 0 -0.000291839
15 1 0.249986 0.802762 0.559576 -8.22199e-07 0 -0.00029459
16 1 0.749986 0.802762 0.559576 1.14889e-06 0 -0.000294492
17 1 0.249986 0.217851 0.434926 -3.85374e-07 0 0.000295829
18 1 0.749986 0.217851 0.434925 4.66927e-07 0 0.000295579
19 1 0.999986 0.717853 0.434926 -7.06495e-07 0 0.000292032
20 1 0.499986 0.717853 0.434926 3.00817e-07 0 0.000292003
21 1 0.999986 0.140818 0.80885 4.21045e-07 0 -5.82e-05
22 1 0.249986 0.0558966 0.684195 1.2575e-06 0 0.000126973
23 1 0.499986 0.140818 0.80885 -2.37919e-07 0 -5.97899e-05
24 1 0.749986 0.0558966 0.684195 -9.7944e-07 0 0.000126721
25 1 0.999986 0.555896 0.684196 -6.04574e-07 0 0.000120248
26 1 0.249986 0.640818 0.808851 -5.45449e-08 0 -7.42788e-05
27 1 0.749986 0.640818 0.808851 -4.69235e-07 0 -7.38913e-05
28 1 0.499986 0.555896 0.684196 1.75205e-07 0 0.000122833
29 1 0.249986 0.893507 0.934173 -6.97685e-07 0 0.000191603
30 1 0.749986 0.893507 0.934173 1.04727e-06 0 0.000191452
31 1 0.999986 0.393506 0.934174 -7.18646e-07 0 0.000173075
32 1 0.499986 0.393506 0.934174 5.96687e-07 0 0.000176297
