ITEM: TIMESTEP
0
ITEM: NUMBER OF ATOMS
32
ITEM: BOX BOUNDS xy xz yz pp pp pp
-9.5987319946289062e-04 6.3977920413017273e+00 -0.0000000000000000e+00
-1.0525226593017578e-02 7.1902433037757874e+00 0.0000000000000000e+00
-5.8505058288574219e-02 2.0783891499042511e+01 1.6592869162559509e+00
ITEM: ATOMS id type xs ys zs fx fy fz
1 1 0.999986 0.648775 0.0597507 -1.3113e-06 0 1.06849
2 1 0.499986 0.648775 0.0597507 1.19209e-06 0 1.06849
3 1 0.249986 0.148775 0.0597507 7.15256e-07 0 1.0685
4 1 0.749986 0.148775 0.0597507 -4.76837e-07 0 1.06849
5 1 0.999986 0.573918 0.309751 0 0 0.00137746
6 1 0.249986 0.44468 0.184751 -1.07288e-06 0 -0.000396729
7 1 0.749986 0.44468 0.184751 1.07288e-06 0 -0.000397563
8 1 0.499986 0.573918 0.309751 1.07288e-06 0 0.0013783
9 1 0.999986 0.94468 0.184751 4.76837e-07 0 -0.000397086
10 1 0.249986 0.0739177 0.309751 -2.02656e-06 0 0.00137556
11 1 0.499986 0.94468 0.184751 -1.19209e-07 0 -0.000398517
12 1 0.749986 0.0739177 0.309751 1.54972e-06 0 0.00137603
13 1 0.999986 0.49906 0.559751 -2.38419e-06 0 6.29425e-05
14 1 0.499986 0.49906 0.559751 2.5034e-06 0 6.30617e-05
15 1 0.249986 0.99906 0.559751 -7.15256e-07 0 6.33001e-05
16 1 0.749986 0.99906 0.559751 8.34465e-07 0 6.38962e-05
17 1 0.249986 0.369822 0.434751 4.76837e-07 0 -6.29425e-05
18 1 0.749986 0.369822 0.434751 -2.38419e-06 0 -6.31809e-05
19 1 0.999986 0.869822 0.434751 9.53674e-07 0 -6.28233e-05
20 1 0.499986 0.869822 0.434751 2.38419e-07 0 -6.24657e-05
21 1 0.999986 0.424202 0.809751 1.19209e-07 0 0.000396609
22 1 0.249986 0.294965 0.684751 2.38419e-07 0 -0.00137639
23 1 0.499986 0.424202 0.809751 -1.19209e-06 0 0.000397205
24 1 0.749986 0.294965 0.684751 4.76837e-07 0 -0.0013783
25 1 0.999986 0.794965 0.684751 -5.96046e-07 0 -0.00137675
26 1 0.249986 0.924202 0.809751 1.19209e-07 0 0.000397563
27 1 0.749986 0.924203 0.809751 4.76837e-07 0 0.000396848
28 1 0.499986 0.794965 0.684751 2.38419e-07 0 -0.00137746
29 1 0.249986 0.220107 0.934751 -1.19209e-07 0 -1.0685
30 1 0.749986 0.220107 0.934751 1.19209e-07 0 -1.06849
31 1 0.999986 0.720107 0.934751 -5.96046e-07 0 -1.06849
32 1 0.499986 0.720107 0.934751 1.19209e-07 0 -1.06849
ITEM: TIMESTEP
1
ITEM: NUMBER OF ATOMS
32
ITEM: BOX BOUNDS xy xz yz pp pp pp
-9.5987319946289062e-04 6.3977920413017273e+00 -0.0000000000000000e+00
-1.0525226593017578e-02 7.1902433037757874e+00 0.0000000000000000e+00
-5.8505058288574219e-02 2.0783891499042511e+01 1.6592869162559509e+00
ITEM: ATOMS id type xs ys zs fx fy fz
1 1 0.999986 0.647338 0.0645486 -1.3113e-06 0 0.244802
2 1 0.499986 0.647338 0.0645486 1.43051e-06 0 0.244802
3 1 0.249986 0.147339 0.0645486 2.38419e-07 0 0.244803
4 1 0.749986 0.147339 0.0645486 -5.96046e-07 0 0.244803
5 1 0.999986 0.573916 0.309757 2.38419e-07 0 0.00851429
6 1 0.249986 0.44468 0.184749 -8.34465e-07 0 0.144244
7 1 0.749986 0.44468 0.184749 4.76837e-07 0 0.144242
8 1 0.499986 0.573916 0.309757 2.38419e-07 0 0.00851476
9 1 0.999986 0.94468 0.184749 2.38419e-07 0 0.144243
10 1 0.249986 0.0739159 0.309757 -3.57628e-07 0 0.00851202
11 1 0.499986 0.94468 0.184749 3.57628e-07 0 0.144241
12 1 0.749986 0.0739158 0.309757 1.19209e-07 0 0.0085125
13 1 0.999986 0.49906 0.559751 -5.96046e-07 0 0.000342131
14 1 0.499986 0.49906 0.559751 9.53674e-07 0 0.000342965
15 1 0.249986 0.99906 0.559751 -2.38419e-07 0 0.000342727
16 1 0.749986 0.99906 0.559751 -1.19209e-07 0 0.000342965
17 1 0.249986 0.369822 0.43475 4.76837e-07 0 -0.000342369
18 1 0.749986 0.369822 0.43475 -9.53674e-07 0 -0.000342607
19 1 0.999986 0.869822 0.43475 1.19209e-07 0 -0.000342131
20 1 0.499986 0.869822 0.43475 1.19209e-07 0 -0.000342131
21 1 0.999986 0.424202 0.809752 -1.19209e-07 0 -0.144244
22 1 0.249986 0.294967 0.684745 -4.76837e-07 0 -0.00851309
23 1 0.499986 0.424202 0.809752 -4.76837e-07 0 -0.144243
24 1 0.749986 0.294966 0.684745 1.19209e-07 0 -0.00851452
25 1 0.999986 0.794967 0.684745 0 0 -0.00851357
26 1 0.249986 0.924202 0.809752 2.38419e-07 0 -0.144243
27 1 0.749986 0.924202 0.809752 0 0 -0.144243
28 1 0.499986 0.794966 0.684745 4.76837e-07 0 -0.00851417
29 1 0.249986 0.221544 0.929953 -7.15256e-07 0 -0.244802
30 1 0.749986 0.221544 0.929953 9.53674e-07 0 -0.244801
31 1 0.999986 0.721544 0.929953 -4.76837e-07 0 -0.244802
32 1 0.499986 0.721544 0.929953 4.76837e-07 0 -0.244802
ITEM: TIMESTEP
2
ITEM: NUMBER OF ATOMS
32
ITEM: BOX BOUNDS xy xz yz pp pp pp
-9.5987319946289062e-04 6.3977920413017273e+00 -0.0000000000000000e+00
-1.0525226593017578e-02 7.1902433037757874e+00 0.0000000000000000e+00
-5.8505058288574219e-02 2.0783891499042511e+01 1.6592869162559509e+00
ITEM: ATOMS id type xs ys zs fx fy fz
1 1 0.999986 0.646334 0.0679026 3.57628e-07 0 -0.106565
2 1 0.499986 0.646334 0.0679025 -3.57628e-07 0 -0.106565
3 1 0.249986 0.146334 0.0679026 -5.96046e-07 0 -0.106565
4 1 0.749986 0.146334 0.0679026 3.57628e-07 0 -0.106565
5 1 0.999986 0.573881 0.309874 -1.19209e-07 0 0.0604219
6 1 0.249986 0.444089 0.186725 2.38419e-07 0 0.138069
7 1 0.749986 0.444089 0.186725 -2.38419e-07 0 0.138069
8 1 0.499986 0.573881 0.309874 0 0 0.0604212
9 1 0.999986 0.944089 0.186725 2.38419e-07 0 0.138069
10 1 0.249986 0.0738809 0.309874 -3.57628e-07 0 0.0604218
11 1 0.499986 0.944089 0.186725 0 0 0.138069
12 1 0.749986 0.0738809 0.309874 5.96046e-07 0 0.0604212
13 1 0.999986 0.499059 0.559756 -1.19209e-07 0 -0.00521195
14 1 0.499986 0.499059 0.559756 2.38419e-07 0 -0.00521147
15 1 0.249986 0.999059 0.559756 2.38419e-07 0 -0.00521147
16 1 0.749986 0.999059 0.559756 2.38419e-07 0 -0.00521183
17 1 0.249986 0.369824 0.434746 -3.57628e-07 0 0.00521183
18 1 0.749986 0.369824 0.434746 -1.19209e-07 0 0.00521219
19 1 0.999986 0.869824 0.434746 -1.19209e-07 0 0.00521111
20 1 0.499986 0.869824 0.434746 -3.57628e-07 0 0.00521183
21 1 0.999986 0.424794 0.807776 -1.19209e-07 0 -0.138069
22 1 0.249986 0.295001 0.684628 0 0 -0.0604215
23 1 0.499986 0.424794 0.807776 -1.19209e-07 0 -0.138069
24 1 0.749986 0.295001 0.684628 1.19209e-07 0 -0.0604218
25 1 0.999986 0.795001 0.684628 0 0 -0.0604216
26 1 0.249986 0.924794 0.807776 1.19209e-07 0 -0.138069
27 1 0.749986 0.924794 0.807776 0 0 -0.138069
28 1 0.499986 0.795001 0.684628 1.19209e-07 0 -0.0604215
29 1 0.249986 0.222548 0.926599 2.38419e-07 0 0.106564
30 1 0.749986 0.222548 0.926599 -1.19209e-07 0 0.106565
31 1 0.999986 0.722548 0.926599 1.19209e-07 0 0.106565
32 1 0.499986 0.722548 0.926599 -1.19209e-07 0 0.106564
ITEM: TIMESTEP
3
ITEM: NUMBER OF ATOMS
32
ITEM: BOX BOUNDS xy xz yz pp pp pp
-9.5987319946289062e-04 6.3977920413017273e+00 -0.0000000000000000e+00
-1.0525226593017578e-02 7.1902433037757874e+00 0.0000000000000000e+00
-5.8505058288574219e-02 2.0783891499042511e+01 1.6592869162559509e+00
ITEM: ATOMS id type xs ys zs fx fy fz
1 1 0.999986 0.646272 0.0681096 3.57628e-07 0 -0.0188115
2 1 0.499986 0.646272 0.0681096 -4.76837e-07 0 -0.0188111
3 1 0.249986 0.146272 0.0681096 0 0 -0.0188115
4 1 0.749986 0.146272 0.0681096 0 0 -0.0188115
5 1 0.999986 0.573592 0.310838 0 0 0.098344
6 1 0.249986 0.443155 0.189844 5.96046e-07 0 -0.032168
7 1 0.749986 0.443155 0.189844 -2.38419e-07 0 -0.0321673
8 1 0.499986 0.573592 0.310838 -2.38419e-07 0 0.0983437
9 1 0.999986 0.943155 0.189844 -2.38419e-07 0 -0.0321673
10 1 0.249986 0.0735923 0.310837 2.38419e-07 0 0.0983443
11 1 0.499986 0.943155 0.189844 2.38419e-07 0 -0.0321671
12 1 0.749986 0.0735923 0.310837 -2.38419e-07 0 0.0983443
13 1 0.999986 0.499081 0.55968 5.96046e-07 0 -0.0278496
14 1 0.499986 0.499081 0.55968 -1.19209e-06 0 -0.0278504
15 1 0.249986 0.999081 0.55968 1.19209e-07 0 -0.0278499
16 1 0.749986 0.999081 0.55968 1.19209e-07 0 -0.0278503
17 1 0.249986 0.369801 0.434821 2.38419e-07 0 0.02785
18 1 0.749986 0.369801 0.434821 0 0 0.0278493
19 1 0.999986 0.869801 0.434821 1.19209e-07 0 0.02785
20 1 0.499986 0.869801 0.434821 0 0 0.0278497
21 1 0.999986 0.425727 0.804657 -3.57628e-07 0 0.032168
22 1 0.249986 0.29529 0.683664 4.76837e-07 0 -0.0983444
23 1 0.499986 0.425727 0.804657 4.76837e-07 0 0.0321672
24 1 0.749986 0.29529 0.683664 -2.38419e-07 0 -0.0983434
25 1 0.999986 0.79529 0.683664 1.19209e-07 0 -0.098344
26 1 0.249986 0.925727 0.804657 -1.19209e-07 0 0.0321672
27 1 0.749986 0.925728 0.804658 2.38419e-07 0 0.0321676
28 1 0.499986 0.79529 0.683664 -3.57628e-07 0 -0.0983436
29 1 0.249986 0.22261 0.926392 3.57628e-07 0 0.0188111
30 1 0.749986 0.22261 0.926392 -1.07288e-06 0 0.0188113
31 1 0.999986 0.72261 0.926392 7.15256e-07 0 0.0188115
32 1 0.499986 0.72261 0.926392 -2.38419e-07 0 0.0188115
ITEM: TIMESTEP
4
ITEM: NUMBER OF ATOMS
32
ITEM: BOX BOUNDS xy xz yz pp pp pp
-9.5987319946289062e-04 6.3977920413017273e+00 -0.0000000000000000e+00
-1.0525226593017578e-02 7.1902433037757874e+00 0.0000000000000000e+00
-5.8505058288574219e-02 2.0783891499042511e+01 1.6592869162559509e+00
ITEM: ATOMS id type xs ys zs fx fy fz
1 1 0.999986 0.646359 0.0678202 -5.96046e-07 0 0.0257536
2 1 0.499986 0.646359 0.0678202 3.57628e-07 0 0.0257529
3 1 0.249986 0.146359 0.0678202 3.57628e-07 0 0.025753
4 1 0.749986 0.146359 0.0678202 -3.57628e-07 0 0.0257536
5 1 0.999986 0.572955 0.312966 0 0 -0.00716138
6 1 0.249986 0.443054 0.190181 -2.38419e-07 0 0.00173855
7 1 0.749986 0.443054 0.190181 4.76837e-07 0 0.00173891
8 1 0.499986 0.572955 0.312966 -2.38419e-07 0 -0.00716102
9 1 0.999986 0.943054 0.190181 7.15256e-07 0 0.00173903
10 1 0.249986 0.0729551 0.312966 2.38419e-07 0 -0.0071609
11 1 0.499986 0.943054 0.190181 -7.15256e-07 0 0.00173938
12 1 0.749986 0.072955 0.312966 1.19209e-07 0 -0.00716054
13 1 0.999986 0.499244 0.559137 -7.15256e-07 0 -0.0396298
14 1 0.499986 0.499244 0.559137 8.34465e-07 0 -0.0396296
15 1 0.249986 0.999244 0.559137 -2.38419e-07 0 -0.0396295
16 1 0.749986 0.999244 0.559137 0 0 -0.0396297
17 1 0.249986 0.369639 0.435364 -7.15256e-07 0 0.0396298
18 1 0.749986 0.369639 0.435364 2.38419e-07 0 0.0396299
19 1 0.999986 0.869639 0.435364 3.57628e-07 0 0.0396295
20 1 0.499986 0.869639 0.435364 0 0 0.0396296
21 1 0.999986 0.425828 0.804321 2.38419e-07 0 -0.00173903
22 1 0.249986 0.295927 0.681536 0 0 0.00716138
23 1 0.499986 0.425828 0.804321 -2.38419e-07 0 -0.00173819
24 1 0.749986 0.295927 0.681536 3.57628e-07 0 0.00716066
25 1 0.999986 0.795927 0.681536 -3.57628e-07 0 0.0071609
26 1 0.249986 0.925828 0.804321 -1.19209e-07 0 -0.00173903
27 1 0.749986 0.925828 0.804321 2.38419e-07 0 -0.00173903
28 1 0.499986 0.795927 0.681536 2.38419e-07 0 0.00716078
29 1 0.249986 0.222523 0.926681 -2.38419e-07 0 -0.025753
30 1 0.749986 0.222523 0.926681 3.57628e-07 0 -0.0257536
31 1 0.999986 0.722523 0.926681 -4.76837e-07 0 -0.0257539
32 1 0.499986 0.722523 0.926681 1.19209e-07 0 -0.0257534
ITEM: TIMESTEP
5
ITEM: NUMBER OF ATOMS
32
ITEM: BOX BOUNDS xy xz yz pp pp pp
-9.5987319946289062e-04 6.3977920413017273e+00 -0.0000000000000000e+00
-1.0525226593017578e-02 7.1902433037757874e+00 0.0000000000000000e+00
-5.8505058288574219e-02 2.0783891499042511e+01 1.6592869162559509e+00
ITEM: ATOMS id type xs ys zs fx fy fz
1 1 0.999986 0.646284 0.0680691 2.38419e-07 0 0.00199306
2 1 0.499986 0.646284 0.0680691 -5.96046e-07 0 0.00199342
3 1 0.249986 0.146285 0.0680691 0 0 0.00199401
4 1 0.749986 0.146284 0.0680691 1.19209e-07 0 0.00199389
5 1 0.999986 0.572902 0.313144 1.19209e-07 0 -0.00200498
6 1 0.249986 0.443036 0.190241 0 0 0.0117186
7 1 0.749986 0.443036 0.190241 2.38419e-07 0 0.0117189
8 1 0.499986 0.572902 0.313144 2.38419e-07 0 -0.0020051
9 1 0.999986 0.943036 0.190241 -1.19209e-07 0 0.0117188
10 1 0.249986 0.0729016 0.313144 0 0 -0.00200486
11 1 0.499986 0.943036 0.190241 1.19209e-07 0 0.0117185
12 1 0.749986 0.0729016 0.313144 -3.57628e-07 0 -0.00200486
13 1 0.999986 0.499394 0.558635 0 0 -0.000601172
14 1 0.499986 0.499394 0.558635 0 0 -0.00060153
15 1 0.249986 0.999394 0.558635 1.19209e-07 0 -0.000601292
16 1 0.749986 0.999394 0.558635 0 0 -0.000600934
17 1 0.249986 0.369488 0.435867 0 0 0.000600934
18 1 0.749986 0.369488 0.435867 -1.19209e-07 0 0.000601172
19 1 0.999986 0.869488 0.435867 -1.19209e-07 0 0.00060153
20 1 0.499986 0.869488 0.435867 2.38419e-07 0 0.000601292
21 1 0.999986 0.425846 0.804261 1.19209e-07 0 -0.0117188
22 1 0.249986 0.295981 0.681357 3.57628e-07 0 0.00200474
23 1 0.499986 0.425846 0.804261 0 0 -0.0117186
24 1 0.749986 0.295981 0.681357 -2.38419e-07 0 0.00200474
25 1 0.999986 0.795981 0.681357 0 0 0.00200498
26 1 0.249986 0.925846 0.804261 -1.19209e-07 0 -0.0117185
27 1 0.749986 0.925846 0.804261 -1.19209e-07 0 -0.0117185
28 1 0.499986 0.795981 0.681357 -3.57628e-07 0 0.00200498
29 1 0.249986 0.222598 0.926432 -2.38419e-07 0 -0.0019933
30 1 0.749986 0.222598 0.926432 5.96046e-07 0 -0.00199354
31 1 0.999986 0.722598 0.926432 -3.57628e-07 0 -0.00199366
32 1 0.499986 0.722598 0.926432 2.38419e-07 0 -0.00199389
ITEM: TIMESTEP
6
ITEM: NUMBER OF ATOMS
32
ITEM: BOX BOUNDS xy xz yz pp pp pp
-9.5987319946289062e-04 6.3977920413017273e+00 -0.0000000000000000e+00
-1.0525226593017578e-02 7.1902433037757874e+00 0.0000000000000000e+00
-5.8505058288574219e-02 2.0783891499042511e+01 1.6592869162559509e+00
ITEM: ATOMS id type xs ys zs fx fy fz
1 1 0.999986 0.646273 0.0681076 -3.57628e-07 0 0.0040729
2 1 0.499986 0.646273 0.0681076 3.57628e-07 0 0.00407279
3 1 0.249986 0.146273 0.0681076 -1.19209e-07 0 0.00407267
4 1 0.749986 0.146273 0.0681076 0 0 0.00407267
5 1 0.999986 0.57291 0.313116 -1.19209e-07 0 0.0058676
6 1 0.249986 0.442978 0.190434 0 0 0.000308275
7 1 0.749986 0.442978 0.190434 -1.19209e-07 0 0.00030756
8 1 0.499986 0.57291 0.313115 2.38419e-07 0 0.00586808
9 1 0.999986 0.942978 0.190434 1.19209e-07 0 0.000308156
10 1 0.249986 0.0729102 0.313115 -2.38419e-07 0 0.00586867
11 1 0.499986 0.942978 0.190434 -1.19209e-07 0 0.000308275
12 1 0.749986 0.0729102 0.313115 2.38419e-07 0 0.00586891
13 1 0.999986 0.499401 0.558613 2.38419e-07 0 0.00180328
14 1 0.499986 0.499401 0.558613 -1.19209e-07 0 0.0018034
15 1 0.249986 0.999401 0.558613 0 0 0.00180244
16 1 0.749986 0.999401 0.558613 -2.38419e-07 0 0.00180221
17 1 0.249986 0.369482 0.435888 2.38419e-07 0 -0.0018028
18 1 0.749986 0.369482 0.435888 1.19209e-07 0 -0.00180268
19 1 0.999986 0.869482 0.435888 0 0 -0.0018028
20 1 0.499986 0.869482 0.435888 -2.38419e-07 0 -0.00180304
21 1 0.999986 0.425904 0.804067 1.19209e-07 0 -0.000308275
22 1 0.249986 0.295972 0.681386 -5.96046e-07 0 -0.0058682
23 1 0.499986 0.425904 0.804067 0 0 -0.000308037
24 1 0.749986 0.295972 0.681386 3.57628e-07 0 -0.00586808
25 1 0.999986 0.795972 0.681386 0 0 -0.00586855
26 1 0.249986 0.925904 0.804067 -1.19209e-07 0 -0.000307918
27 1 0.749986 0.925904 0.804067 -2.38419e-07 0 -0.000308156
28 1 0.499986 0.795972 0.681386 3.57628e-07 0 -0.00586808
29 1 0.249986 0.222609 0.926394 3.57628e-07 0 -0.00407279
30 1 0.749986 0.222609 0.926394 -2.38419e-07 0 -0.00407267
31 1 0.999986 0.722609 0.926394 4.76837e-07 0 -0.00407302
32 1 0.499986 0.722609 0.926394 -3.57628e-07 0 -0.00407279
ITEM: TIMESTEP
7
ITEM: NUMBER OF ATOMS
32
ITEM: BOX BOUNDS xy xz yz pp pp pp
-9.5987319946289062e-04 6.3977920413017273e+00 -0.0000000000000000e+00
-1.0525226593017578e-02 7.1902433037757874e+00 0.0000000000000000e+00
-5.8505058288574219e-02 2.0783891499042511e+01 1.6592869162559509e+00
ITEM: ATOMS id type xs ys zs fx fy fz
1 1 0.999986 0.646246 0.0681957 1.19209e-07 0 -0.00208807
2 1 0.499986 0.646246 0.0681957 0 0 -0.00208807
3 1 0.249986 0.146247 0.0681957 1.19209e-07 0 -0.00208831
4 1 0.749986 0.146246 0.0681957 -2.38419e-07 0 -0.00208819
5 1 0.999986 0.572883 0.313208 0 0 0.00225949
6 1 0.249986 0.442952 0.190519 -1.19209e-07 0 0.000452757
7 1 0.749986 0.442953 0.190519 1.19209e-07 0 0.000453234
8 1 0.499986 0.572883 0.313208 -2.38419e-07 0 0.00225902
9 1 0.999986 0.942952 0.190519 -2.38419e-07 0 0.000453115
10 1 0.249986 0.0728826 0.313208 1.19209e-07 0 0.00225878
11 1 0.499986 0.942952 0.190519 3.57628e-07 0 0.000453234
12 1 0.749986 0.0728826 0.313208 -1.19209e-07 0 0.00225854
13 1 0.999986 0.499394 0.558636 -1.19209e-07 0 -0.00288212
14 1 0.499986 0.499394 0.558636 -2.38419e-07 0 -0.00288296
15 1 0.249986 0.999394 0.558636 0 0 -0.00288224
16 1 0.749986 0.999394 0.558636 2.38419e-07 0 -0.00288248
17 1 0.249986 0.369489 0.435865 -4.76837e-07 0 0.00288224
18 1 0.749986 0.369489 0.435865 5.96046e-07 0 0.00288236
19 1 0.999986 0.869489 0.435865 0 0 0.00288236
20 1 0.499986 0.869489 0.435865 2.38419e-07 0 0.00288236
21 1 0.999986 0.42593 0.803982 0 0 -0.000452876
22 1 0.249986 0.296 0.681294 -2.38419e-07 0 -0.00225842
23 1 0.499986 0.42593 0.803982 0 0 -0.000453115
24 1 0.749986 0.296 0.681294 0 0 -0.00225854
25 1 0.999986 0.796 0.681294 1.19209e-07 0 -0.00225866
26 1 0.249986 0.92593 0.803982 -2.38419e-07 0 -0.000454307
27 1 0.749986 0.92593 0.803982 0 0 -0.000452995
28 1 0.499986 0.796 0.681294 2.38419e-07 0 -0.00225925
29 1 0.249986 0.222636 0.926306 -1.19209e-07 0 0.00208831
30 1 0.749986 0.222636 0.926306 0 0 0.00208807
31 1 0.999986 0.722636 0.926306 -5.96046e-07 0 0.00208831
32 1 0.499986 0.722636 0.926306 7.15256e-07 0 0.00208843
ITEM: TIMESTEP
8
ITEM: NUMBER OF ATOMS
32
ITEM: BOX BOUNDS xy xz yz pp pp pp
-9.5987319946289062e-04 6.3977920413017273e+00 -0.0000000000000000e+00
-1.0525226593017578e-02 7.1902433037757874e+00 0.0000000000000000e+00
-5.8505058288574219e-02 2.0783891499042511e+01 1.6592869162559509e+00
ITEM: ATOMS id type xs ys zs fx fy fz
1 1 0.999986 0.646249 0.0681865 -1.19209e-07 0 0.000404
2 1 0.499986 0.646249 0.0681865 0 0 0.000404477
3 1 0.249986 0.146249 0.0681865 0 0 0.000404358
4 1 0.749986 0.146249 0.0681866 0 0 0.000403881
5 1 0.999986 0.572856 0.313295 1.19209e-07 0 -0.0003016
6 1 0.249986 0.442939 0.190565 -1.19209e-07 0 -1.69277e-05
7 1 0.749986 0.442939 0.190565 -1.19209e-07 0 -1.70469e-05
8 1 0.499986 0.572856 0.313295 -3.57628e-07 0 -0.000301242
9 1 0.999986 0.942939 0.190565 3.57628e-07 0 -1.72853e-05
10 1 0.249986 0.0728563 0.313295 3.57628e-07 0 -0.000302315
11 1 0.499986 0.942939 0.190565 -4.76837e-07 0 -1.74046e-05
12 1 0.749986 0.0728563 0.313295 3.57628e-07 0 -0.000302076
13 1 0.999986 0.49941 0.558583 -4.76837e-07 0 -0.000584841
14 1 0.499986 0.49941 0.558583 4.76837e-07 0 -0.000583768
15 1 0.249986 0.99941 0.558583 2.38419e-07 0 -0.000583529
16 1 0.749986 0.99941 0.558583 0 0 -0.000583529
17 1 0.249986 0.369473 0.435919 4.76837e-07 0 0.000584364
18 1 0.749986 0.369473 0.435919 -7.15256e-07 0 0.000584126
19 1 0.999986 0.869473 0.435919 0 0 0.000584126
20 1 0.499986 0.869473 0.435919 -1.19209e-07 0 0.000584245
21 1 0.999986 0.425943 0.803937 -5.96046e-07 0 1.74046e-05
22 1 0.249986 0.296026 0.681206 5.96046e-07 0 0.000301003
23 1 0.499986 0.425943 0.803937 0 0 1.75238e-05
24 1 0.749986 0.296026 0.681206 -4.76837e-07 0 0.00030148
25 1 0.999986 0.796026 0.681206 -1.19209e-07 0 0.000301361
26 1 0.249986 0.925943 0.803937 4.76837e-07 0 1.85966e-05
27 1 0.749986 0.925943 0.803937 0 0 1.68085e-05
28 1 0.499986 0.796026 0.681206 0 0 0.00030148
29 1 0.249986 0.222633 0.926315 1.19209e-07 0 -0.000404835
30 1 0.749986 0.222633 0.926315 0 0 -0.000404477
31 1 0.999986 0.722633 0.926315 1.07288e-06 0 -0.000404119
32 1 0.499986 0.722633 0.926315 -9.53674e-07 0 -0.000404239
ITEM: TIMESTEP
9
ITEM: NUMBER OF ATOMS
32
ITEM: BOX BOUNDS xy xz yz pp pp pp
-9.5987319946289062e-04 6.3977920413017273e+00 -0.0000000000000000e+00
-1.0525226593017578e-02 7.1902433037757874e+00 0.0000000000000000e+00
-5.8505058288574219e-02 2.0783891499042511e+01 1.6592869162559509e+00
ITEM: ATOMS id type xs ys zs fx fy fz
1 1 0.999986 0.646248 0.0681903 1.19209e-07 0 2.72989e-05
2 1 0.499986 0.646248 0.0681903 -1.19209e-07 0 2.72989e-05
3 1 0.249986 0.146248 0.0681903 1.19209e-07 0 2.65837e-05
4 1 0.749986 0.146248 0.0681903 0 0 2.72989e-05
5 1 0.999986 0.572857 0.313293 0 0 -1.78814e-06
6 1 0.249986 0.442939 0.190565 0 0 3.67165e-05
7 1 0.749986 0.442939 0.190565 -2.38419e-07 0 3.67165e-05
8 1 0.499986 0.572857 0.313293 0 0 -1.54972e-06
9 1 0.999986 0.942939 0.190565 0 0 3.65973e-05
10 1 0.249986 0.0728569 0.313293 2.38419e-07 0 -1.43051e-06
11 1 0.499986 0.942939 0.190565 0 0 3.68357e-05
12 1 0.749986 0.0728569 0.313293 0 0 -1.54972e-06
13 1 0.999986 0.499412 0.558577 1.19209e-07 0 1.77622e-05
14 1 0.499986 0.499412 0.558577 0 0 1.80006e-05
15 1 0.249986 0.999412 0.558577 0 0 1.85966e-05
16 1 0.749986 0.999412 0.558577 -2.38419e-07 0 1.85966e-05
17 1 0.249986 0.369471 0.435925 1.19209e-07 0 -1.81198e-05
18 1 0.749986 0.369471 0.435925 -3.57628e-07 0 -1.81198e-05
19 1 0.999986 0.869471 0.435925 4.76837e-07 0 -1.84774e-05
20 1 0.499986 0.869471 0.435925 -2.38419e-07 0 -1.81198e-05
21 1 0.999986 0.425943 0.803936 3.57628e-07 0 -3.63588e-05
22 1 0.249986 0.296025 0.681208 0 0 1.78814e-06
23 1 0.499986 0.425943 0.803936 -2.38419e-07 0 -3.63588e-05
24 1 0.749986 0.296025 0.681208 0 0 1.07288e-06
25 1 0.999986 0.796025 0.681208 0 0 1.43051e-06
26 1 0.249986 0.925943 0.803936 0 0 -3.6478e-05
27 1 0.749986 0.925944 0.803936 1.19209e-07 0 -3.71933e-05
28 1 0.499986 0.796025 0.681208 -1.19209e-07 0 1.54972e-06
29 1 0.249986 0.222634 0.926311 -1.19209e-07 0 -2.72989e-05
30 1 0.749986 0.222634 0.926311 0 0 -2.74181e-05
31 1 0.999986 0.722634 0.926311 1.19209e-07 0 -2.69413e-05
32 1 0.499986 0.722634 0.926311 -1.19209e-07 0 -2.69413e-05
ITEM: TIMESTEP
10
ITEM: NUMBER OF ATOMS
32
ITEM: BOX BOUNDS xy xz yz pp pp pp
-9.5987319946289062e-04 6.3977920413017273e+00 -0.0000000000000000e+00
-1.0525226593017578e-02 7.1902433037757874e+00 0.0000000000000000e+00
-5.8505058288574219e-02 2.0783891499042511e+01 1.6592869162559509e+00
ITEM: ATOMS id type xs ys zs fx fy fz
1 1 0.999986 0.646248 0.0681908 0 0 -5.72205e-06
2 1 0.499986 0.646248 0.0681908 2.38419e-07 0 -5.72205e-06
3 1 0.249986 0.146248 0.0681908 -3.57628e-07 0 -5.36442e-06
4 1 0.749986 0.146248 0.0681909 4.76837e-07 0 -5.24521e-06
5 1 0.999986 0.572857 0.313293 3.57628e-07 0 1.50204e-05
6 1 0.249986 0.442939 0.190566 -2.38419e-07 0 8.82149e-06
7 1 0.749986 0.442939 0.190566 -1.19209e-07 0 9.17912e-06
8 1 0.499986 0.572857 0.313293 -1.19209e-07 0 1.49012e-05
9 1 0.999986 0.942939 0.190566 -1.19209e-07 0 8.70228e-06
10 1 0.249986 0.0728569 0.313293 -4.76837e-07 0 1.43051e-05
11 1 0.499986 0.942939 0.190566 0 0 9.05991e-06
12 1 0.749986 0.0728569 0.313293 2.38419e-07 0 1.45435e-05
13 1 0.999986 0.499412 0.558577 0 0 -7.7486e-06
14 1 0.499986 0.499412 0.558577 -3.57628e-07 0 -7.39098e-06
15 1 0.249986 0.999412 0.558577 1.19209e-07 0 -7.62939e-06
16 1 0.749986 0.999412 0.558577 2.38419e-07 0 -7.7486e-06
17 1 0.249986 0.369471 0.435925 -5.96046e-07 0 7.51019e-06
18 1 0.749986 0.369471 0.435925 8.34465e-07 0 7.51019e-06
19 1 0.999986 0.869471 0.435925 -4.76837e-07 0 7.62939e-06
20 1 0.499986 0.869471 0.435925 3.57628e-07 0 7.7486e-06
21 1 0.999986 0.425944 0.803936 -7.15256e-07 0 -9.29832e-06
22 1 0.249986 0.296025 0.681208 4.76837e-07 0 -1.50204e-05
23 1 0.499986 0.425944 0.803936 7.15256e-07 0 -9.29832e-06
24 1 0.749986 0.296025 0.681208 -3.57628e-07 0 -1.44243e-05
25 1 0.999986 0.796025 0.681208 -2.38419e-07 0 -1.46627e-05
26 1 0.249986 0.925944 0.803936 2.38419e-07 0 -8.70228e-06
27 1 0.749986 0.925944 0.803936 0 0 -9.05991e-06
28 1 0.499986 0.796025 0.681208 0 0 -1.46627e-05
29 1 0.249986 0.222634 0.926311 2.38419e-07 0 5.24521e-06
30 1 0.749986 0.222634 0.926311 -3.57628e-07 0 6.19888e-06
31 1 0.999986 0.722634 0.926311 -5.96046e-07 0 5.60284e-06
32 1 0.499986 0.722634 0.926311 5.96046e-07 0 5.72205e-06
ITEM: TIMESTEP
11
ITEM: NUMBER OF ATOMS
32
ITEM: BOX BOUNDS xy xz yz pp pp pp
-9.5987319946289062e-04 6.3977920413017273e+00 -0.0000000000000000e+00
-1.0525226593017578e-02 7.1902433037757874e+00 0.0000000000000000e+00
-5.8505058288574219e-02 2.0783891499042511e+01 1.6592869162559509e+00
ITEM: ATOMS id type xs ys zs fx fy fz
1 1 0.999986 0.646248 0.0681908 0 0 1.14441e-05
2 1 0.499986 0.646248 0.0681908 -2.38419e-07 0 1.15633e-05
3 1 0.249986 0.146248 0.0681908 5.96046e-07 0 1.09673e-05
4 1 0.749986 0.146248 0.0681908 -8.34465e-07 0 1.13249e-05
5 1 0.999986 0.572857 0.313294 -1.07288e-06 0 4.52995e-06
6 1 0.249986 0.442939 0.190566 2.38419e-07 0 -5.60284e-06
7 1 0.749986 0.442939 0.190566 2.38419e-07 0 -5.84126e-06
8 1 0.499986 0.572857 0.313294 7.15256e-07 0 5.00679e-06
9 1 0.999986 0.942938 0.190566 3.57628e-07 0 -5.48363e-06
10 1 0.249986 0.0728568 0.313294 1.07288e-06 0 5.48363e-06
11 1 0.499986 0.942938 0.190566 -3.57628e-07 0 -6.31809e-06
12 1 0.749986 0.0728568 0.313294 -5.96046e-07 0 5.36442e-06
13 1 0.999986 0.499412 0.558577 2.38419e-07 0 -5.72205e-06
14 1 0.499986 0.499412 0.558577 1.19209e-06 0 -7.03335e-06
15 1 0.249986 0.999412 0.558577 -4.76837e-07 0 -6.91414e-06
16 1 0.749986 0.999412 0.558577 -8.34465e-07 0 -6.31809e-06
17 1 0.249986 0.369471 0.435925 1.54972e-06 0 6.79493e-06
18 1 0.749986 0.369471 0.435925 -1.78814e-06 0 6.4373e-06
19 1 0.999986 0.869471 0.435925 4.76837e-07 0 6.67572e-06
20 1 0.499986 0.869471 0.435925 -2.38419e-07 0 5.96046e-06
21 1 0.999986 0.425944 0.803935 1.3113e-06 0 5.84126e-06
22 1 0.249986 0.296026 0.681208 -1.54972e-06 0 -4.64916e-06
23 1 0.499986 0.425944 0.803935 -1.07288e-06 0 5.96046e-06
24 1 0.749986 0.296026 0.681208 8.34465e-07 0 -5.60284e-06
25 1 0.999986 0.796026 0.681208 9.53674e-07 0 -5.00679e-06
26 1 0.249986 0.925944 0.803935 0 0 5.36442e-06
27 1 0.749986 0.925944 0.803935 -1.19209e-07 0 6.79493e-06
28 1 0.499986 0.796026 0.681208 -7.15256e-07 0 -4.76837e-06
29 1 0.249986 0.222634 0.926311 -2.38419e-07 0 -1.0848e-05
30 1 0.749986 0.222634 0.926311 3.57628e-07 0 -1.14441e-05
31 1 0.999986 0.722634 0.926311 8.34465e-07 0 -1.19209e-05
32 1 0.499986 0.722634 0.926311 -8.34465e-07 0 -1.20401e-05
ITEM: TIMESTEP
12
ITEM: NUMBER OF ATOMS
32
ITEM: BOX BOUNDS xy xz yz pp pp pp
-9.5987319946289062e-04 6.3977920413017273e+00 -0.0000000000000000e+00
-1.0525226593017578e-02 7.1902433037757874e+00 0.0000000000000000e+00
-5.8505058288574219e-02 2.0783891499042511e+01 1.6592869162559509e+00
ITEM: ATOMS id type xs ys zs fx fy fz
1 1 0.999986 0.646248 0.0681909 -3.57628e-07 0 0
2 1 0.499986 0.646248 0.0681909 2.38419e-07 0 1.19209e-07
3 1 0.249986 0.146248 0.0681909 3.57628e-07 0 2.38419e-07
4 1 0.749986 0.146248 0.068191 -4.76837e-07 0 -2.38419e-07
5 1 0.999986 0.572857 0.313294 1.19209e-07 0 -1.19209e-07
6 1 0.249986 0.442939 0.190566 2.38419e-07 0 5.96046e-07
7 1 0.749986 0.442939 0.190566 -1.19209e-07 0 5.96046e-07
8 1 0.499986 0.572857 0.313294 -3.57628e-07 0 -4.76837e-07
9 1 0.999986 0.942938 0.190566 0 0 1.07288e-06
10 1 0.249986 0.0728568 0.313294 0 0 1.19209e-07
11 1 0.499986 0.942938 0.190566 0 0 3.57628e-07
12 1 0.749986 0.0728567 0.313294 3.57628e-07 0 -1.19209e-07
13 1 0.999986 0.499412 0.558577 -4.76837e-07 0 -7.15256e-07
14 1 0.499986 0.499412 0.558577 2.38419e-07 0 -5.96046e-07
15 1 0.249986 0.999412 0.558577 -2.38419e-07 0 -1.19209e-06
16 1 0.749986 0.999412 0.558577 3.57628e-07 0 -5.96046e-07
17 1 0.249986 0.369471 0.435925 2.38419e-07 0 7.15256e-07
18 1 0.749986 0.369471 0.435925 -2.38419e-07 0 8.34465e-07
19 1 0.999986 0.869471 0.435925 1.19209e-07 0 7.15256e-07
20 1 0.499986 0.869471 0.435925 -1.19209e-07 0 8.34465e-07
21 1 0.999986 0.425944 0.803935 1.19209e-07 0 -4.76837e-07
22 1 0.249986 0.296026 0.681207 2.38419e-07 0 0
23 1 0.499986 0.425944 0.803935 -5.96046e-07 0 -1.19209e-07
24 1 0.749986 0.296026 0.681207 1.19209e-07 0 0
25 1 0.999986 0.796026 0.681207 -3.57628e-07 0 0
26 1 0.249986 0.925944 0.803935 0 0 -5.96046e-07
27 1 0.749986 0.925944 0.803935 1.19209e-07 0 -3.57628e-07
28 1 0.499986 0.796026 0.681207 2.38419e-07 0 -1.19209e-07
29 1 0.249986 0.222634 0.92631 -2.38419e-07 0 5.96046e-07
30 1 0.749986 0.222634 0.92631 4.76837e-07 0 -7.15256e-07
31 1 0.999986 0.722634 0.92631 7.15256e-07 0 -2.38419e-07
32 1 0.499986 0.722634 0.92631 -7.15256e-07 0 -1.19209e-07
ITEM: TIMESTEP
13
ITEM: NUMBER OF ATOMS
32
ITEM: BOX BOUNDS xy xz yz pp pp pp
-9.5987319946289062e-04 6.3977920413017273e+00 -0.0000000000000000e+00
-1.0525226593017578e-02 7.1902433037757874e+00 0.0000000000000000e+00
-5.8505058288574219e-02 2.0783891499042511e+01 1.6592869162559509e+00
ITEM: ATOMS id type xs ys zs fx fy fz
1 1 0.999986 0.646248 0.0681909 2.38419e-07 0 2.38419e-07
2 1 0.499986 0.646248 0.0681909 -3.57628e-07 0 1.19209e-07
3 1 0.249986 0.146248 0.0681909 0 0 7.15256e-07
4 1 0.749986 0.146248 0.068191 -1.19209e-07 0 1.19209e-07
5 1 0.999986 0.572857 0.313294 1.19209e-07 0 4.76837e-07
6 1 0.249986 0.442939 0.190566 0 0 1.19209e-07
7 1 0.749986 0.442939 0.190566 1.19209e-07 0 -2.38419e-07
8 1 0.499986 0.572857 0.313294 -1.19209e-07 0 2.38419e-07
9 1 0.999986 0.942938 0.190566 -1.19209e-07 0 0
10 1 0.249986 0.0728568 0.313294 2.38419e-07 0 5.96046e-07
11 1 0.499986 0.942938 0.190566 0 0 0
12 1 0.749986 0.0728567 0.313294 -2.38419e-07 0 5.96046e-07
13 1 0.999986 0.499412 0.558577 3.57628e-07 0 -3.57628e-07
14 1 0.499986 0.499412 0.558577 -1.19209e-07 0 1.19209e-07
15 1 0.249986 0.999412 0.558577 3.57628e-07 0 0
16 1 0.749986 0.999412 0.558577 -2.38419e-07 0 0
17 1 0.249986 0.369471 0.435925 -2.38419e-07 0 1.19209e-07
18 1 0.749986 0.369471 0.435925 1.19209e-07 0 -1.19209e-07
19 1 0.999986 0.869471 0.435925 -1.19209e-07 0 2.38419e-07
20 1 0.499986 0.869471 0.435925 -2.38419e-07 0 -2.38419e-07
21 1 0.999986 0.425944 0.803935 -3.57628e-07 0 0
22 1 0.249986 0.296026 0.681207 3.57628e-07 0 -3.57628e-07
23 1 0.499986 0.425944 0.803935 0 0 -2.38419e-07
24 1 0.749986 0.296026 0.681207 0 0 -1.19209e-07
25 1 0.999986 0.796026 0.681207 -2.38419e-07 0 -4.76837e-07
26 1 0.249986 0.925944 0.803935 0 0 -4.76837e-07
27 1 0.749986 0.925944 0.803935 0 0 -1.19209e-07
28 1 0.499986 0.796026 0.681207 1.19209e-07 0 -3.57628e-07
29 1 0.249986 0.222634 0.92631 2.38419e-07 0 1.19209e-07
30 1 0.749986 0.222634 0.92631 2.38419e-07 0 -4.76837e-07
31 1 0.999986 0.722634 0.92631 2.38419e-07 0 -2.38419e-07
32 1 0.499986 0.722634 0.92631 -2.38419e-07 0 0
