ITEM: TIMESTEP
0
ITEM: NUMBER OF ATOMS
32
ITEM: BOX BOUNDS xy xz yz pp pp pp
-3.4762620925903320e-03 7.9975360035896301e+00 1.5995063185691833e+00
-4.2882263660430908e-02 2.2125610172748566e+01 4.4107437133789062e-06
1.5788495540618896e-02 5.1666774749755859e+00 -1.5008449554443359e-04
ITEM: ATOMS id type xs ys zs fx fy fz
1 1 0.935115 0.33658 0.593597 0 0.00394249 -7.62939e-06
2 1 0.435115 0.33658 0.593597 0 0.00393867 -9.53674e-06
3 1 0.195505 0.294997 0.0935973 0 0.00504494 9.53674e-06
4 1 0.695505 0.294997 0.0935972 0 0.00504112 5.72205e-06
5 1 0.153882 0.461582 0.593597 0 0.000822067 -2.09808e-05
6 1 0.653882 0.461582 0.593597 0 0.000818253 -2.28882e-05
7 1 0.914272 0.419999 0.0935965 0 -0.0014019 1.52588e-05
8 1 0.414272 0.419999 0.0935967 0 -0.00139427 1.71661e-05
9 1 0.87265 0.586581 0.593597 0 0.00131226 -9.53674e-06
10 1 0.37265 0.58658 0.593597 0 0.00131416 -1.90735e-06
11 1 0.0914176 0.711577 0.593597 0 -0.0050106 -1.14441e-05
12 1 0.591418 0.711577 0.593598 0 -0.00501633 -1.90735e-05
13 1 0.851806 0.67 0.0935966 0 -0.00397873 1.33514e-05
14 1 0.133039 0.545001 0.0935972 0 -0.000974655 1.71661e-05
15 1 0.633039 0.545001 0.0935972 0 -0.00097084 1.90735e-05
16 1 0.351806 0.67 0.0935969 0 -0.00398827 7.62939e-06
17 1 0.810186 0.836574 0.593597 0 0.0210991 0
18 1 0.310186 0.836574 0.593597 0 0.0210896 5.72205e-06
19 1 0.0289531 0.961574 0.593597 0 -0.392975 4.95911e-05
20 1 0.528953 0.961574 0.593597 0 -0.392975 4.76837e-05
21 1 0.0705741 0.794998 0.0935969 0 0.0233536 1.71661e-05
22 1 0.570574 0.794998 0.093597 0 0.0233517 1.14441e-05
23 1 0.789343 0.919994 0.0935972 0 -0.716852 5.72205e-06
24 1 0.289342 0.919994 0.0935972 0 -0.716839 1.90735e-06
25 1 0.997582 0.0865748 0.593597 0 0.716928 -5.72205e-06
26 1 0.497582 0.0865748 0.593597 0 0.716932 -9.53674e-06
27 1 0.257972 0.0449931 0.0935972 0 0.393101 -5.72205e-05
28 1 0.757972 0.0449931 0.0935972 0 0.393124 -5.91278e-05
29 1 0.216349 0.211577 0.593597 0 -0.0234451 -5.72205e-06
30 1 0.716349 0.211577 0.593597 0 -0.0234432 -9.53674e-06
31 1 0.976739 0.169994 0.0935969 0 -0.0209713 5.72205e-06
32 1 0.476739 0.169994 0.093597 0 -0.020977 0
ITEM: TIMESTEP
1
ITEM: NUMBER OF ATOMS
32
ITEM: BOX BOUNDS xy xz yz pp pp pp
-3.4762620925903320e-03 7.9975360035896301e+00 1.5995063185691833e+00
-4.2882263660430908e-02 2.2125610172748566e+01 4.4107437133789062e-06
1.5788495540618896e-02 5.1666774749755859e+00 -1.5008449554443359e-04
ITEM: ATOMS id type xs ys zs fx fy fz
1 1 0.935109 0.336605 0.593597 0 -0.00238609 7.62939e-06
2 1 0.435109 0.336605 0.593597 0 -0.002388 9.53674e-06
3 1 0.195498 0.295029 0.0935975 0 0.00390625 3.8147e-06
4 1 0.695497 0.295029 0.0935973 0 0.00391006 1.52588e-05
5 1 0.153881 0.461587 0.593597 0 0.00231743 1.90735e-06
6 1 0.653881 0.461587 0.593597 0 0.00231743 1.90735e-06
7 1 0.914274 0.419991 0.0935969 0 0.000370026 7.62939e-06
8 1 0.414274 0.419991 0.0935971 0 0.000368118 5.72205e-06
9 1 0.872648 0.586589 0.593597 0 -0.000457764 -1.33514e-05
10 1 0.372647 0.586589 0.593597 0 -0.000457764 -1.14441e-05
11 1 0.0914255 0.711546 0.593597 0 -0.00387955 0
12 1 0.591426 0.711546 0.593597 0 -0.00387955 3.8147e-06
13 1 0.851813 0.669975 0.093597 0 0.00229263 9.53674e-06
14 1 0.13304 0.544995 0.0935976 0 -0.00242996 -1.71661e-05
15 1 0.63304 0.544995 0.0935977 0 -0.00242424 -1.71661e-05
16 1 0.351813 0.669975 0.0935971 0 0.00230408 7.62939e-06
17 1 0.810153 0.836707 0.593597 0 -0.0967903 5.72205e-06
18 1 0.310153 0.836707 0.593597 0 -0.0967922 0
19 1 0.0295709 0.959101 0.593598 0 0.032589 5.53131e-05
20 1 0.529571 0.959101 0.593598 0 0.0325832 5.34058e-05
21 1 0.0705373 0.795145 0.0935973 0 -0.104107 -1.90735e-05
22 1 0.570537 0.795145 0.0935973 0 -0.104101 -1.71661e-05
23 1 0.79047 0.915483 0.0935973 0 -0.167852 1.90735e-05
24 1 0.290469 0.915483 0.0935973 0 -0.167873 2.28882e-05
25 1 0.996455 0.0910857 0.593597 0 0.168016 -3.62396e-05
26 1 0.496455 0.0910857 0.593597 0 0.168015 -4.00543e-05
27 1 0.257354 0.0474665 0.0935956 0 -0.0324917 -4.95911e-05
28 1 0.757354 0.0474666 0.0935956 0 -0.0324955 -4.00543e-05
29 1 0.216386 0.21143 0.593597 0 0.104025 3.8147e-06
30 1 0.716386 0.21143 0.593597 0 0.104019 -3.8147e-06
31 1 0.976772 0.169862 0.0935971 0 0.0968895 1.52588e-05
32 1 0.476772 0.169862 0.093597 0 0.0968838 1.52588e-05
ITEM: TIMESTEP
2
ITEM: NUMBER OF ATOMS
32
ITEM: BOX BOUNDS xy xz yz pp pp pp
-3.4762620925903320e-03 7.9975360035896301e+00 1.5995063185691833e+00
-4.2882263660430908e-02 2.2125610172748566e+01 4.4107437133789062e-06
1.5788495540618896e-02 5.1666774749755859e+00 -1.5008449554443359e-04
ITEM: ATOMS id type xs ys zs fx fy fz
1 1 0.935122 0.336552 0.593598 0 0.0590038 1.90735e-06
2 1 0.435122 0.336552 0.593598 0 0.0590115 0
3 1 0.195476 0.295115 0.0935979 0 0.0808678 -3.8147e-06
4 1 0.695476 0.295115 0.0935988 0 0.0808563 -2.47955e-05
5 1 0.153868 0.461638 0.593597 0 -0.00267792 -5.72205e-06
6 1 0.653868 0.461638 0.593597 0 -0.00267792 0
7 1 0.914272 0.419999 0.0935976 0 0.00307083 -1.33514e-05
8 1 0.414272 0.419999 0.0935977 0 0.00307465 -1.71661e-05
9 1 0.87265 0.586579 0.593596 0 -0.00312805 2.67029e-05
10 1 0.37265 0.586579 0.593596 0 -0.00311661 1.90735e-05
11 1 0.091447 0.711459 0.593597 0 -0.0808849 -1.14441e-05
12 1 0.591447 0.711459 0.593597 0 -0.080883 -1.52588e-05
13 1 0.8518 0.670026 0.0935979 0 -0.0590496 -1.52588e-05
14 1 0.133054 0.544941 0.093596 0 0.00257111 1.14441e-05
15 1 0.633054 0.544941 0.093596 0 0.00255966 9.53674e-06
16 1 0.3518 0.670026 0.0935978 0 -0.059063 -7.62939e-06
17 1 0.81069 0.834558 0.593597 0 0.00499725 -1.90735e-05
18 1 0.31069 0.834558 0.593597 0 0.00499535 -9.53674e-06
19 1 0.0293901 0.959825 0.593603 0 0.0484486 7.62939e-06
20 1 0.52939 0.959825 0.593603 0 0.0484562 1.33514e-05
21 1 0.0711149 0.792834 0.0935955 0 -0.0569839 2.28882e-05
22 1 0.571115 0.792834 0.0935957 0 -0.0569992 2.67029e-05
23 1 0.791401 0.911757 0.0935992 0 0.0434494 5.53131e-05
24 1 0.291401 0.911756 0.0935995 0 0.0434742 5.14984e-05
25 1 0.995523 0.0948158 0.593594 0 -0.0435314 -2.28882e-05
26 1 0.495523 0.0948159 0.593593 0 -0.0435429 -1.71661e-05
27 1 0.257534 0.0467452 0.0935909 0 -0.0483494 -1.52588e-05
28 1 0.757534 0.0467452 0.0935917 0 -0.0483322 -2.28882e-05
29 1 0.215809 0.213739 0.593597 0 0.0571098 1.14441e-05
30 1 0.715809 0.213739 0.593597 0 0.0571117 3.05176e-05
31 1 0.976235 0.172013 0.0935985 0 -0.00492287 -3.43323e-05
32 1 0.476234 0.172013 0.0935985 0 -0.00491524 -3.24249e-05
ITEM: TIMESTEP
3
ITEM: NUMBER OF ATOMS
32
ITEM: BOX BOUNDS xy xz yz pp pp pp
-3.4762620925903320e-03 7.9975360035896301e+00 1.5995063185691833e+00
-4.2882263660430908e-02 2.2125610172748566e+01 4.4107437133789062e-06
1.5788495540618896e-02 5.1666774749755859e+00 -1.5008449554443359e-04
ITEM: ATOMS id type xs ys zs fx fy fz
1 1 0.934845 0.337661 0.593598 0 0.0365295 -2.67029e-05
2 1 0.434845 0.337661 0.593598 0 0.0365181 -3.24249e-05
3 1 0.195084 0.296685 0.0935977 0 0.0175476 1.52588e-05
4 1 0.695084 0.296685 0.0935972 0 0.01754 2.86102e-05
5 1 0.153877 0.461603 0.593597 0 0.0231209 1.90735e-05
6 1 0.653877 0.461603 0.593597 0 0.023119 9.53674e-06
7 1 0.914257 0.42006 0.0935968 0 0.0516739 9.53674e-06
8 1 0.414257 0.42006 0.0935964 0 0.0516739 7.62939e-06
9 1 0.872666 0.586516 0.593598 0 -0.0516891 -1.52588e-05
10 1 0.372666 0.586516 0.593597 0 -0.0517082 -1.33514e-05
11 1 0.0918392 0.70989 0.593596 0 -0.01754 1.14441e-05
12 1 0.591839 0.70989 0.593596 0 -0.0175419 9.53674e-06
13 1 0.852078 0.668915 0.0935969 0 -0.0365562 -7.62939e-06
14 1 0.133046 0.544973 0.0935964 0 -0.0231495 -1.14441e-05
15 1 0.633046 0.544973 0.0935963 0 -0.0231552 -5.72205e-06
16 1 0.352077 0.668915 0.0935974 0 -0.0365562 -9.53674e-06
17 1 0.81083 0.833995 0.593596 0 0.0150261 6.86646e-05
18 1 0.31083 0.833995 0.593596 0 0.0150261 7.05719e-05
19 1 0.0291037 0.960971 0.593606 0 -0.0325146 2.28882e-05
20 1 0.529104 0.960971 0.593606 0 -0.0325241 2.09808e-05
21 1 0.0715635 0.791038 0.0935968 0 0.0192013 0
22 1 0.571564 0.791038 0.0935974 0 0.0192127 -5.72205e-06
23 1 0.791479 0.911443 0.0936043 0 -0.0259285 -1.14441e-05
24 1 0.291479 0.911443 0.0936044 0 -0.0259399 -7.62939e-06
25 1 0.995445 0.0951289 0.593591 0 0.0260601 -1.33514e-05
26 1 0.495445 0.0951287 0.593591 0 0.026083 -1.14441e-05
27 1 0.25782 0.0456016 0.0935882 0 0.032526 -9.53674e-06
28 1 0.75782 0.045602 0.0935887 0 0.0325089 -1.33514e-05
29 1 0.215359 0.215537 0.593598 0 -0.0192719 -3.43323e-05
30 1 0.715359 0.215537 0.593599 0 -0.0192566 -3.8147e-05
31 1 0.976093 0.172579 0.0935962 0 -0.0150185 -1.14441e-05
32 1 0.476093 0.172579 0.0935962 0 -0.0150166 -1.52588e-05
ITEM: TIMESTEP
4
ITEM: NUMBER OF ATOMS
32
ITEM: BOX BOUNDS xy xz yz pp pp pp
-3.4762620925903320e-03 7.9975360035896301e+00 1.5995063185691833e+00
-4.2882263660430908e-02 2.2125610172748566e+01 4.4107437133789062e-06
1.5788495540618896e-02 5.1666774749755859e+00 -1.5008449554443359e-04
ITEM: ATOMS id type xs ys zs fx fy fz
1 1 0.934594 0.338668 0.593596 0 -0.0026226 1.14441e-05
2 1 0.434594 0.338668 0.593596 0 -0.00261879 1.90735e-05
3 1 0.19487 0.297541 0.0935987 0 -0.0101089 -4.00543e-05
4 1 0.69487 0.297541 0.0935987 0 -0.0100975 -3.43323e-05
5 1 0.153784 0.461975 0.593598 0 4.3869e-05 -2.47955e-05
6 1 0.653784 0.461975 0.593598 0 4.57764e-05 -2.47955e-05
7 1 0.914037 0.420942 0.0935971 0 0.0189171 5.72205e-06
8 1 0.414036 0.420942 0.0935965 0 0.0189133 1.14441e-05
9 1 0.872887 0.585633 0.593597 0 -0.0189266 -1.71661e-05
10 1 0.372886 0.585633 0.593597 0 -0.0189323 -9.53674e-06
11 1 0.0920531 0.709034 0.593597 0 0.0101089 -1.14441e-05
12 1 0.592053 0.709034 0.593597 0 0.0101032 -5.72205e-06
13 1 0.852329 0.667907 0.093596 0 0.00260735 2.28882e-05
14 1 0.133139 0.5446 0.0935958 0 -4.19617e-05 3.05176e-05
15 1 0.633139 0.544599 0.093596 0 -2.09808e-05 2.47955e-05
16 1 0.352329 0.667907 0.0935966 0 0.00261307 1.71661e-05
17 1 0.810818 0.834042 0.5936 0 -0.0182381 -3.8147e-06
18 1 0.310818 0.834042 0.593601 0 -0.0182362 -1.33514e-05
19 1 0.029136 0.960842 0.593608 0 -0.00751495 1.14441e-05
20 1 0.529136 0.960841 0.593608 0 -0.00749779 1.14441e-05
21 1 0.0716449 0.790712 0.0935973 0 -0.0100899 2.86102e-05
22 1 0.571645 0.790712 0.0935976 0 -0.0100842 3.24249e-05
23 1 0.791615 0.910899 0.0936053 0 0.0145302 2.47955e-05
24 1 0.291615 0.910899 0.0936056 0 0.0145302 3.05176e-05
25 1 0.995308 0.0956752 0.593589 0 -0.0145168 -9.53674e-06
26 1 0.495308 0.0956753 0.593589 0 -0.0145359 -1.90735e-05
27 1 0.257787 0.045732 0.0935865 0 0.00753403 -1.90735e-05
28 1 0.757787 0.0457322 0.0935866 0 0.00753403 -1.90735e-05
29 1 0.215278 0.215862 0.593596 0 0.0100899 3.8147e-06
30 1 0.715278 0.215862 0.593597 0 0.0100746 -1.33514e-05
31 1 0.976105 0.172532 0.0935945 0 0.0182228 -1.33514e-05
32 1 0.476104 0.172532 0.0935944 0 0.0182152 -7.62939e-06
ITEM: TIMESTEP
5
ITEM: NUMBER OF ATOMS
32
ITEM: BOX BOUNDS xy xz yz pp pp pp
-3.4762620925903320e-03 7.9975360035896301e+00 1.5995063185691833e+00
-4.2882263660430908e-02 2.2125610172748566e+01 4.4107437133789062e-06
1.5788495540618896e-02 5.1666774749755859e+00 -1.5008449554443359e-04
ITEM: ATOMS id type xs ys zs fx fy fz
1 1 0.934574 0.338746 0.593597 0 0.000761032 -5.72205e-06
2 1 0.434574 0.338746 0.593597 0 0.000764847 -5.72205e-06
3 1 0.194877 0.29751 0.0935967 0 0.00672531 1.90735e-06
4 1 0.694877 0.29751 0.093597 0 0.00673485 -9.53674e-06
5 1 0.153773 0.462017 0.593597 0 -0.00837898 2.67029e-05
6 1 0.653774 0.462017 0.593596 0 -0.00837708 2.67029e-05
7 1 0.913954 0.421271 0.0935975 0 -0.00364113 -3.8147e-06
8 1 0.413954 0.421271 0.0935971 0 -0.00364304 5.72205e-06
9 1 0.872969 0.585303 0.593596 0 0.00363541 5.72205e-06
10 1 0.372969 0.585303 0.593596 0 0.00364685 5.72205e-06
11 1 0.0920454 0.709064 0.593596 0 -0.00674438 2.86102e-05
12 1 0.592046 0.709064 0.593596 0 -0.00674057 3.05176e-05
13 1 0.852349 0.667829 0.0935972 0 -0.000762939 -9.53674e-06
14 1 0.133149 0.544558 0.0935973 0 0.00836754 -3.24249e-05
15 1 0.63315 0.544558 0.0935973 0 0.00836563 -2.86102e-05
16 1 0.352349 0.667829 0.0935974 0 -0.000761032 -3.8147e-06
17 1 0.810873 0.833823 0.593601 0 -0.00544739 1.71661e-05
18 1 0.310873 0.833823 0.593601 0 -0.00544357 1.33514e-05
19 1 0.0291627 0.960735 0.593609 0 -0.00791168 5.72205e-06
20 1 0.529163 0.960735 0.593609 0 -0.00791931 -3.8147e-06
21 1 0.0716849 0.790552 0.0935989 0 0.00218773 -3.8147e-06
22 1 0.571685 0.790552 0.0935993 0 0.00218773 0
23 1 0.791585 0.911018 0.0936067 0 -0.000196457 1.90735e-05
24 1 0.291585 0.911018 0.0936073 0 -0.000190735 5.72205e-06
25 1 0.995338 0.0955564 0.593588 0 0.000183105 -1.90735e-05
26 1 0.495338 0.0955563 0.593588 0 0.000202179 -1.90735e-05
27 1 0.25776 0.045839 0.0935853 0 0.00792694 -1.90735e-06
28 1 0.75776 0.0458392 0.0935854 0 0.00792694 7.62939e-06
29 1 0.215238 0.216022 0.593596 0 -0.00217628 -2.67029e-05
30 1 0.715238 0.216022 0.593596 0 -0.00217819 -2.47955e-05
31 1 0.97605 0.172751 0.0935936 0 0.0054512 0
32 1 0.47605 0.172751 0.0935937 0 0.00544548 -1.90735e-06
ITEM: TIMESTEP
6
ITEM: NUMBER OF ATOMS
32
ITEM: BOX BOUNDS xy xz yz pp pp pp
-3.4762620925903320e-03 7.9975360035896301e+00 1.5995063185691833e+00
-4.2882263660430908e-02 2.2125610172748566e+01 4.4107437133789062e-06
1.5788495540618896e-02 5.1666774749755859e+00 -1.5008449554443359e-04
ITEM: ATOMS id type xs ys zs fx fy fz
1 1 0.934565 0.338784 0.593596 0 -0.00419044 0
2 1 0.434565 0.338784 0.593596 0 -0.00419044 3.8147e-06
3 1 0.194848 0.297627 0.0935963 0 0.00377274 3.8147e-06
4 1 0.694848 0.297627 0.0935957 0 0.00377274 9.53674e-06
5 1 0.153809 0.461872 0.593598 0 0.00324821 -3.62396e-05
6 1 0.65381 0.461872 0.593598 0 0.00324821 -3.43323e-05
7 1 0.913946 0.421303 0.0935973 0 0.000595093 3.8147e-06
8 1 0.413946 0.421303 0.0935978 0 0.000598907 -3.8147e-06
9 1 0.872977 0.585272 0.593596 0 -0.00060463 -7.62939e-06
10 1 0.372976 0.585272 0.593597 0 -0.00060463 -5.72205e-06
11 1 0.0920747 0.708948 0.593598 0 -0.0037632 -1.52588e-05
12 1 0.592075 0.708947 0.593599 0 -0.00376701 -2.09808e-05
13 1 0.852358 0.667791 0.0935967 0 0.0042057 1.71661e-05
14 1 0.133113 0.544702 0.0935952 0 -0.00325203 3.43323e-05
15 1 0.633114 0.544702 0.0935954 0 -0.00324821 3.62396e-05
16 1 0.352358 0.667791 0.0935974 0 0.00419426 7.62939e-06
17 1 0.810915 0.833655 0.593602 0 -0.00104523 5.72205e-06
18 1 0.310915 0.833655 0.593602 0 -0.00104523 9.53674e-06
19 1 0.0292077 0.960555 0.59361 0 -3.43323e-05 1.90735e-05
20 1 0.529208 0.960555 0.593609 0 -3.8147e-05 1.90735e-05
21 1 0.0716867 0.790545 0.093599 0 0.000570297 2.47955e-05
22 1 0.571687 0.790545 0.0935998 0 0.000564575 1.52588e-05
23 1 0.791577 0.91105 0.0936087 0 -0.000476837 -5.72205e-06
24 1 0.291577 0.91105 0.0936083 0 -0.000492096 -1.90735e-06
25 1 0.995346 0.095524 0.593586 0 0.000494003 1.14441e-05
26 1 0.495346 0.0955242 0.593586 0 0.000476837 1.33514e-05
27 1 0.257715 0.0460196 0.0935848 0 3.05176e-05 -1.52588e-05
28 1 0.757715 0.0460197 0.0935856 0 2.67029e-05 -2.47955e-05
29 1 0.215236 0.216029 0.593594 0 -0.000566483 0
30 1 0.715236 0.216029 0.593594 0 -0.000562668 3.8147e-06
31 1 0.976008 0.172919 0.0935933 0 0.0010376 -3.24249e-05
32 1 0.476008 0.172919 0.0935934 0 0.00104523 -3.43323e-05
ITEM: TIMESTEP
7
ITEM: NUMBER OF ATOMS
32
ITEM: BOX BOUNDS xy xz yz pp pp pp
-3.4762620925903320e-03 7.9975360035896301e+00 1.5995063185691833e+00
-4.2882263660430908e-02 2.2125610172748566e+01 4.4107437133789062e-06
1.5788495540618896e-02 5.1666774749755859e+00 -1.5008449554443359e-04
ITEM: ATOMS id type xs ys zs fx fy fz
1 1 0.934578 0.33873 0.593596 0 0.000270844 5.72205e-06
2 1 0.434578 0.33873 0.593597 0 0.000268936 1.90735e-06
3 1 0.194831 0.297697 0.0935964 0 0.000177383 -9.53674e-06
4 1 0.694831 0.297697 0.0935961 0 0.000169754 -7.62939e-06
5 1 0.153803 0.461897 0.593596 0 -0.00021553 1.14441e-05
6 1 0.653803 0.461897 0.593596 0 -0.000213623 1.71661e-05
7 1 0.913943 0.421316 0.0935975 0 0.000324249 -2.09808e-05
8 1 0.413943 0.421316 0.0935977 0 0.000326157 -1.90735e-05
9 1 0.87298 0.585259 0.593596 0 -0.000318527 2.67029e-05
10 1 0.37298 0.585259 0.593596 0 -0.000324249 1.90735e-05
11 1 0.0920922 0.708877 0.593598 0 -0.000177383 1.71661e-05
12 1 0.592092 0.708877 0.593598 0 -0.000175476 1.14441e-05
13 1 0.852345 0.667844 0.0935977 0 -0.000286102 -9.53674e-06
14 1 0.13312 0.544678 0.0935969 0 0.000225067 -1.33514e-05
15 1 0.63312 0.544678 0.0935973 0 0.000217438 -1.52588e-05
16 1 0.352345 0.667844 0.0935978 0 -0.000276566 -5.72205e-06
17 1 0.810925 0.833616 0.593603 0 -0.000675201 3.8147e-06
18 1 0.310925 0.833616 0.593602 0 -0.000688553 1.14441e-05
19 1 0.0292144 0.960528 0.593611 0 0.0010376 1.71661e-05
20 1 0.529214 0.960528 0.59361 0 0.00104141 1.90735e-05
21 1 0.071685 0.790552 0.0936006 0 0.000326157 3.8147e-06
22 1 0.571685 0.790552 0.0936008 0 0.000329971 -1.90735e-06
23 1 0.791578 0.911048 0.0936086 0 1.52588e-05 2.09808e-05
24 1 0.291577 0.911048 0.0936084 0 3.62396e-05 1.71661e-05
25 1 0.995346 0.0955262 0.593587 0 -1.90735e-05 -3.05176e-05
26 1 0.495345 0.0955262 0.593586 0 -2.09808e-05 -3.24249e-05
27 1 0.257709 0.0460465 0.0935838 0 -0.00104904 -1.33514e-05
28 1 0.757709 0.0460466 0.0935842 0 -0.00104523 -1.33514e-05
29 1 0.215238 0.216022 0.593594 0 -0.000331879 -9.53674e-06
30 1 0.715238 0.216022 0.593594 0 -0.000320435 -1.33514e-05
31 1 0.975998 0.172958 0.0935913 0 0.000682831 3.8147e-06
32 1 0.475998 0.172958 0.0935913 0 0.000688553 7.62939e-06
ITEM: TIMESTEP
8
ITEM: NUMBER OF ATOMS
32
ITEM: BOX BOUNDS xy xz yz pp pp pp
-3.4762620925903320e-03 7.9975360035896301e+00 1.5995063185691833e+00
-4.2882263660430908e-02 2.2125610172748566e+01 4.4107437133789062e-06
1.5788495540618896e-02 5.1666774749755859e+00 -1.5008449554443359e-04
ITEM: ATOMS id type xs ys zs fx fy fz
1 1 0.934578 0.33873 0.593596 0 0.000270844 5.72205e-06
2 1 0.434578 0.33873 0.593597 0 0.000268936 1.90735e-06
3 1 0.194831 0.297697 0.0935964 0 0.000177383 -9.53674e-06
4 1 0.694831 0.297697 0.0935961 0 0.000169754 -7.62939e-06
5 1 0.153803 0.461897 0.593596 0 -0.00021553 1.14441e-05
6 1 0.653803 0.461897 0.593596 0 -0.000213623 1.71661e-05
7 1 0.913943 0.421316 0.0935975 0 0.000324249 -2.09808e-05
8 1 0.413943 0.421316 0.0935977 0 0.000326157 -1.90735e-05
9 1 0.87298 0.585259 0.593596 0 -0.000318527 2.67029e-05
10 1 0.37298 0.585259 0.593596 0 -0.000324249 1.90735e-05
11 1 0.0920922 0.708877 0.593598 0 -0.000177383 1.71661e-05
12 1 0.592092 0.708877 0.593598 0 -0.000175476 1.14441e-05
13 1 0.852345 0.667844 0.0935977 0 -0.000286102 -9.53674e-06
14 1 0.13312 0.544678 0.0935969 0 0.000225067 -1.33514e-05
15 1 0.63312 0.544678 0.0935973 0 0.000217438 -1.52588e-05
16 1 0.352345 0.667844 0.0935978 0 -0.000276566 -5.72205e-06
17 1 0.810925 0.833616 0.593603 0 -0.000675201 3.8147e-06
18 1 0.310925 0.833616 0.593602 0 -0.000688553 1.14441e-05
19 1 0.0292144 0.960528 0.593611 0 0.0010376 1.71661e-05
20 1 0.529214 0.960528 0.59361 0 0.00104141 1.90735e-05
21 1 0.071685 0.790552 0.0936006 0 0.000326157 3.8147e-06
22 1 0.571685 0.790552 0.0936008 0 0.000329971 -1.90735e-06
23 1 0.791578 0.911048 0.0936086 0 1.52588e-05 2.09808e-05
24 1 0.291577 0.911048 0.0936084 0 3.62396e-05 1.71661e-05
25 1 0.995346 0.0955262 0.593587 0 -1.90735e-05 -3.05176e-05
26 1 0.495345 0.0955262 0.593586 0 -2.09808e-05 -3.24249e-05
27 1 0.257709 0.0460465 0.0935838 0 -0.00104904 -1.33514e-05
28 1 0.757709 0.0460466 0.0935842 0 -0.00104523 -1.33514e-05
29 1 0.215238 0.216022 0.593594 0 -0.000331879 -9.53674e-06
30 1 0.715238 0.216022 0.593594 0 -0.000320435 -1.33514e-05
31 1 0.975998 0.172958 0.0935913 0 0.000682831 3.8147e-06
32 1 0.475998 0.172958 0.0935913 0 0.000688553 7.62939e-06
