LAMMPS (4 May 2022)
## variable
variable        temp            equal 800
variable        eql_step        equal 500000
variable        rd_seed         equal 3

variable        temp_damp       equal 0.2 # tau_NVT = timestep * 100
variable        t_step          equal 0.002
variable        rlx_step        equal 20000

variable        thermo_freq     equal 100
variable        dump_freq       equal 100

## units
dimension       3
boundary        p p p
units           metal
atom_style      atomic
neighbor        1.0 bin
neigh_modify    every 10 delay 0 check no

## data.lmp, potential
read_data       data.lmp
Reading data file ...
  orthogonal box = (0 0 0) to (26.50221 26.50221 25.4788)
  1 by 1 by 1 MPI processor grid
  reading atoms ...
  900 atoms
  read_data CPU = 0.001 seconds
pair_style      mdpu model.pb
pair_coeff * *

## velocity, timestep
velocity        all create ${temp} ${rd_seed} loop geom
velocity        all create 800 ${rd_seed} loop geom
velocity        all create 800 3 loop geom
timestep        ${t_step}
timestep        0.002

## nvt-relax
fix             equil all nvt temp ${temp} ${temp} ${temp_damp}
fix             equil all nvt temp 800 ${temp} ${temp_damp}
fix             equil all nvt temp 800 800 ${temp_damp}
fix             equil all nvt temp 800 800 0.2
run             ${rlx_step}
run             20000
Generated 0 of 6 mixed pair_coeff terms from geometric mixing rule
Neighbor list info ...
  update every 10 steps, delay 0 steps, check no
  max neighbors/atom: 2000, page size: 100000
  master list distance cutoff = 8
  ghost atom cutoff = 8
  binsize = 4, bins = 7 7 7
  1 neighbor lists, perpetual/occasional/extra = 1 0 0
  (1) pair mdpu, perpetual
      attributes: full, newton on
      pair build: full/bin/atomonly
      stencil: full/bin/3d
      bin: standard
Per MPI rank memory allocation (min/avg/max) = 2.675 | 2.675 | 2.675 Mbytes
   Step          Temp          E_pair         E_mol          TotEng         Press     
         0   800            198.65691      0              291.62081      7043.6154    
     20000   797.09868      290.03638      0              382.66313      13607.748    
Loop time of 12.0358 on 1 procs for 20000 steps with 900 atoms

Performance: 287.143 ns/day, 0.084 hours/ns, 1661.708 timesteps/s
53.7% CPU use with 1 MPI tasks x no OpenMP threads

MPI task timing breakdown:
Section |  min time  |  avg time  |  max time  |%varavg| %total
---------------------------------------------------------------
Pair    | 7.6849     | 7.6849     | 7.6849     |   0.0 | 63.85
Neigh   | 4.0615     | 4.0615     | 4.0615     |   0.0 | 33.74
Comm    | 0.13944    | 0.13944    | 0.13944    |   0.0 |  1.16
Output  | 1.6671e-05 | 1.6671e-05 | 1.6671e-05 |   0.0 |  0.00
Modify  | 0.12676    | 0.12676    | 0.12676    |   0.0 |  1.05
Other   |            | 0.02319    |            |       |  0.19

Nlocal:            900 ave         900 max         900 min
Histogram: 1 0 0 0 0 0 0 0 0 0
Nghost:           2777 ave        2777 max        2777 min
Histogram: 1 0 0 0 0 0 0 0 0 0
Neighs:              0 ave           0 max           0 min
Histogram: 1 0 0 0 0 0 0 0 0 0
FullNghs:        96702 ave       96702 max       96702 min
Histogram: 1 0 0 0 0 0 0 0 0 0

Total # of neighbors = 96702
Ave neighs/atom = 107.44667
Neighbor list builds = 2000
Dangerous builds not checked
unfix           equil

## nvt-equal
reset_timestep  0
fix             equil all nvt temp ${temp} ${temp} ${temp_damp}
fix             equil all nvt temp 800 ${temp} ${temp_damp}
fix             equil all nvt temp 800 800 ${temp_damp}
fix             equil all nvt temp 800 800 0.2
fix             com all recenter INIT INIT INIT

## thermo_style
thermo_style    custom step time temp ke etotal press
thermo          ${thermo_freq}
thermo          100
thermo_modify   flush yes
dump            1 all custom ${dump_freq} dump.lammpstraj id type x y z
dump            1 all custom 100 dump.lammpstraj id type x y z
run             500000
Generated 0 of 6 mixed pair_coeff terms from geometric mixing rule
Per MPI rank memory allocation (min/avg/max) = 3.96 | 3.96 | 3.96 Mbytes
   Step          Time           Temp          KinEng         TotEng         Press     
         0   0              797.09868      92.626749      382.66313      13607.748    
       100   0.2            782.32409      90.909869      383.89476      14418.909    
       200   0.4            818.95491      95.166549      389.5409       13764.068    
       300   0.6            815.49109      94.764037      392.67259      15423.165    
       400   0.8            826.42367      96.034456      389.47565      12184.269    
       500   1              813.47829      94.530139      386.52385      14063.67     
       600   1.2            802.19451      93.21891       384.21895      14863.008    
       700   1.4            777.44281      90.342641      382.01538      13498.738    
       800   1.6            792.07794      92.043314      382.68858      11818.438    
       900   1.8            829.89225      96.437522      388.56457      13769.613    
      1000   2              816.44703      94.875121      390.87973      15597.405    
      1100   2.2            804.30875      93.464594      387.22123      13933.66     
      1200   2.4            781.7936       90.848224      382.89239      15991.961    
      1300   2.6            783.15979      91.006982      382.97413      16859.77     
      1400   2.8            789.61545      91.757161      384.65461      13056.858    
      1500   3              818.05733      95.062246      388.24852      17434.628    
      1600   3.2            844.825        98.172779      393.99588      15408.737    
      1700   3.4            819.135        95.187476      392.95192      15815.326    
      1800   3.6            816.69715      94.904187      385.511        15700.703    
      1900   3.8            798.21843      92.75687       383.17907      12221.094    
      2000   4              774.9784       90.056265      382.60613      11791.141    
      2100   4.2            797.94078      92.724604      385.95889      13415.587    
      2200   4.4            806.11309      93.674267      390.49095      15576.145    
      2300   4.6            832.32361      96.720057      389.81953      12476.862    
      2400   4.8            805.46046      93.598428      381.70666      13120.587    
      2500   5              764.78069      88.871241      380.90194      15528.243    
      2600   5.2            804.16157      93.447491      383.2316       14230.607    
      2700   5.4            821.2856       95.437387      386.82495      15450.348    
      2800   5.6            821.43475      95.454718      387.74609      13762.333    
      2900   5.8            785.77694      91.311107      384.07321      13201.732    
      3000   6              773.25437      89.855924      378.54375      16195.573    
      3100   6.2            769.42056      89.410417      379.66609      12642.441    
      3200   6.4            784.46475      91.158625      384.02387      16336.951    
      3300   6.6            775.78844      90.150395      385.0253       14547.059    
      3400   6.8            815.07252      94.715396      384.48504      12650.469    
      3500   7              817.16518      94.958574      383.44789      13778.98     
      3600   7.2            778.14591      90.424344      382.23208      12483.709    
      3700   7.4            766.38753      89.057964      379.35107      14112.892    
      3800   7.6            793.78779      92.242007      380.28135      13426.11     
      3900   7.8            790.67293      91.880045      385.21979      13464.008    
      4000   8              830.14051      96.466371      388.15563      13708.317    
      4100   8.2            819.33694      95.210943      387.22917      15162.091    
      4200   8.4            813.51331      94.534209      383.63393      13019.171    
      4300   8.6            782.30494      90.907644      376.55322      13116.221    
      4400   8.8            764.41649      88.828919      375.54694      11769.076    
      4500   9              793.38473      92.19517       379.58724      13510.551    
      4600   9.2            800.26294      92.994451      384.15243      13205.505    
      4700   9.4            810.89523      94.229975      387.19484      14736.698    
      4800   9.6            838.8015       97.472819      386.53718      13963.537    
      4900   9.8            779.0382       90.528033      381.4664       12084.714    
      5000   10             757.24738      87.995833      377.70519      15062.076    
      5100   10.2           772.77965      89.800759      379.86745      14305.4      
      5200   10.4           788.61268      91.640635      382.15315      11161.549    
      5300   10.6           830.66048      96.526794      384.40167      16664.923    
      5400   10.8           804.78126      93.519503      386.18998      13062.72     
      5500   11             796.17616      92.519548      386.32616      11029.748    
      5600   11.2           848.98135      98.655768      386.48501      13902.547    
      5700   11.4           795.42035      92.431719      383.12242      13568.96     
      5800   11.6           779.7442       90.610074      379.94089      14716.23     
      5900   11.8           785.11938      91.234696      379.67064      13892.266    
      6000   12             797.68619      92.69502       385.49428      15531.691    
      6100   12.2           805.08532      93.554835      388.2968       14660.843    
      6200   12.4           806.42194      93.710157      385.37618      15338.258    
      6300   12.6           794.81172      92.360992      382.08879      13281.702    
      6400   12.8           823.34831      95.677084      382.58853      14601.792    
      6500   13             793.65596      92.226688      383.04812      13818.012    
      6600   13.2           793.75126      92.237762      383.82611      15082.601    
      6700   13.4           811.30328      94.277393      384.24946      13248.226    
      6800   13.6           807.21553      93.802376      384.12478      12449.606    
      6900   13.8           808.75326      93.981068      384.07355      14311.315    
      7000   14             803.30803      93.348305      383.11569      14661.959    
      7100   14.2           776.18         90.195896      381.17869      13137.576    
      7200   14.4           778.18456      90.428836      380.60262      13365.133    
      7300   14.6           833.25685      96.828505      382.59976      14505.757    
      7400   14.8           837.78933      97.355201      387.33753      16207.326    
      7500   15             791.45593      91.971033      388.65629      13837.114    
      7600   15.2           837.72073      97.347229      385.75099      14925.861    
      7700   15.4           777.72896      90.375893      379.61554      16302.993    
      7800   15.6           750.52278      87.214402      380.58716      12143.972    
      7900   15.8           815.95522      94.81797       384.15736      14566.137    
      8000   16             819.21894      95.197231      386.81418      16693.143    
      8100   16.2           805.50012      93.603037      388.06303      13684.391    
      8200   16.4           823.98511      95.751082      390.53435      16535.085    
      8300   16.6           784.88223      91.207137      387.49308      15265.544    
      8400   16.8           782.52863      90.933638      382.52496      12615.143    
      8500   17             767.55522      89.193655      381.46868      15008.897    
      8600   17.2           786.32185      91.374429      384.19748      11305.318    
      8700   17.4           832.05764      96.68915       389.76519      14842.078    
      8800   17.6           822.18161      95.541508      390.62395      15325.604    
      8900   17.8           795.87922      92.485041      387.88323      16232.835    
      9000   18             826.70945      96.067665      386.35671      14842.994    
      9100   18.2           789.7513       91.772947      383.41982      15649.317    
      9200   18.4           784.96383      91.21662       381.07063      12634.825    
      9300   18.6           799.87179      92.948998      381.89056      12621.755    
      9400   18.8           797.32923      92.653539      388.90838      13674.147    
      9500   19             813.60246      94.544569      389.99256      15362.637    
      9600   19.2           767.35454      89.170335      385.63049      13883.864    
      9700   19.4           795.24113      92.410893      383.31537      11228.537    
      9800   19.6           801.93603      93.188872      383.30942      17068.958    
      9900   19.8           785.18645      91.242489      383.83271      14591.236    
     10000   20             813.97626      94.588005      387.63175      13987.835    
     10100   20.2           800.34415      93.003888      389.91333      15620.153    
     10200   20.4           840.92544      97.719632      387.21257      10365.966    
     10300   20.6           803.30685      93.348168      382.23205      13407.678    
     10400   20.8           763.64044      88.738738      379.27061      14134.955    
     10500   21             765.34752      88.93711       380.80062      12063.505    
     10600   21.2           820.96897      95.400593      382.8944       14630.616    
     10700   21.4           783.98423      91.102786      383.07036      15473.838    
     10800   21.6           776.7433       90.261354      383.46434      14655.346    
     10900   21.8           809.14064      94.026083      384.90201      13377.046    
     11000   22             824.29082      95.786608      389.51103      13845.47     
     11100   22.2           824.95157      95.86339       390.8241       15454.976    
     11200   22.4           777.76543      90.380131      385.36263      15444.397    
     11300   22.6           780.32555      90.67763       383.18796      15628.257    
     11400   22.8           815.03392      94.71091       383.45261      12578.759    
     11500   23             789.19735      91.708575      384.23673      14097.153    
     11600   23.2           819.05461      95.178135      389.47933      16506.501    
     11700   23.4           835.65094      97.106709      392.04324      14829.396    
     11800   23.6           790.39149      91.847341      387.74558      13697.762    
     11900   23.8           783.49505      91.045941      383.4836       12625.648    
     12000   24             779.97195      90.63654       383.25888      14376.344    
     12100   24.2           788.29531      91.603755      385.44943      13959.56     
     12200   24.4           844.47839      98.132502      389.80107      13964.401    
     12300   24.6           811.49553      94.299732      393.05839      17315.1      
     12400   24.8           823.49014      95.693565      390.58914      13788.279    
     12500   25             797.1894       92.637291      383.87377      11052.809    
     12600   25.2           796.23747      92.526672      380.86443      12949.016    
     12700   25.4           792.32051      92.071502      380.89711      13759.164    
     12800   25.6           827.09482      96.112446      385.12402      13492.577    
     12900   25.8           808.33197      93.932111      389.38844      12602.436    
     13000   26             810.02985      94.129414      389.2842       17097.952    
     13100   26.2           801.74449      93.166614      386.73903      13957.47     
     13200   26.4           796.7983       92.591844      384.95973      12187.537    
     13300   26.6           773.1912       89.848584      384.46592      14556.129    
     13400   26.8           813.054        94.480834      384.94965      13979.98     
     13500   27             803.6824       93.391809      385.65159      13244.376    
     13600   27.2           813.63755      94.548647      387.50204      12631.813    
     13700   27.4           806.41691      93.709572      385.51501      12643.178    
     13800   27.6           793.36847      92.19328       381.58515      13272.76     
     13900   27.8           785.74745      91.307681      380.23826      11575.943    
     14000   28             805.33901      93.584315      385.51814      11414.445    
     14100   28.2           795.64537      92.457867      390.13627      17153.314    
     14200   28.4           828.32702      96.255634      387.97118      14245.729    
     14300   28.6           798.72128      92.815303      383.46169      12303.41     
     14400   28.8           798.79938      92.824379      381.83053      16030.811    
     14500   29             792.11509      92.047631      383.55038      14570.199    
     14600   29.2           804.30091      93.463683      386.70007      14177.811    
     14700   29.4           838.25446      97.409251      394.25497      13791.868    
     14800   29.6           851.68025      98.969393      391.4736       15035.234    
     14900   29.8           802.85148      93.295253      387.52303      14410.706    
     15000   30             783.24443      91.016817      384.08623      14144.122    
     15100   30.2           768.79099      89.337258      381.47884      16159.23     
     15200   30.4           766.1094       89.025643      380.503        13191.26     
     15300   30.6           801.01807      93.082201      384.73405      13744.747    
     15400   30.8           809.41319      94.057755      388.93695      13495.286    
     15500   31             799.26549      92.878543      386.95853      15048.696    
     15600   31.2           827.26168      96.131836      382.42015      14196.832    
     15700   31.4           781.6523       90.831804      380.5668       15660.225    
     15800   31.6           783.03058      90.991967      381.34912      15456.82     
     15900   31.8           778.00626      90.408117      382.20188      13777.946    
     16000   32             792.40159      92.080924      384.03815      14645.01     
     16100   32.2           798.69051      92.811727      389.09363      15120.933    
     16200   32.4           837.33113      97.301955      391.44593      16532.114    
     16300   32.6           825.52838      95.930418      385.97729      14752.835    
     16400   32.8           770.78258      89.56869       381.90761      14314.561    
     16500   33             806.94922      93.771429      382.20705      12144.207    
     16600   33.2           768.71311      89.328207      383.91025      13550.361    
     16700   33.4           809.42672      94.059327      387.46687      13215        
     16800   33.6           807.30395      93.812651      389.60181      13269.546    
     16900   33.8           804.10394      93.440794      388.06958      14554.101    
     17000   34             790.46423      91.855794      381.83791      12514.413    
     17100   34.2           818.00893      95.056622      380.94404      12191.504    
     17200   34.4           810.33102      94.164411      383.07283      14057.567    
     17300   34.6           850.70534      98.856104      387.99939      15078.586    
     17400   34.8           814.45599      94.643752      390.83685      13160.83     
     17500   35             763.42802      88.714055      385.63151      11920.904    
     17600   35.2           780.66921      90.717565      380.84521      12653.558    
     17700   35.4           791.19193      91.940356      382.07184      12498.645    
     17800   35.6           823.74811      95.723542      386.73312      12968.637    
     17900   35.8           820.05042      95.293852      389.39485      13940.68     
     18000   36             846.5476       98.372954      389.07636      13967.84     
     18100   36.2           817.10275      94.951319      386.92756      17258.971    
     18200   36.4           790.17264      91.821909      385.46738      14378.539    
     18300   36.6           796.43019      92.549067      384.81301      16497.295    
     18400   36.8           819.43007      95.221765      384.29345      14581.373    
     18500   37             777.95075      90.401666      384.49925      14833.034    
     18600   37.2           795.74031      92.468899      387.37339      14731.22     
     18700   37.4           835.97475      97.144338      389.99579      14663.948    
     18800   37.6           838.15449      97.397634      390.86635      12608.571    
     18900   37.8           815.63202      94.780413      385.71178      15001.976    
     19000   38             762.5847       88.616056      381.26087      11742.695    
     19100   38.2           788.18173      91.590556      383.10739      11404.27     
     19200   38.4           793.16913      92.170116      386.69387      14447.059    
     19300   38.6           803.42363      93.361739      388.31804      12966.131    
     19400   38.8           791.35618      91.959443      386.10244      13457.614    
     19500   39             751.47414      87.324955      377.72925      14056.287    
     19600   39.2           778.84941      90.506095      379.59884      14982.111    
     19700   39.4           796.53659      92.561431      384.42903      14814.461    
     19800   39.6           807.59638      93.846633      386.68914      13400.666    
     19900   39.8           834.50323      96.973339      386.56527      15211.999    
     20000   40             792.1895       92.056278      382.65999      12939.948    
     20100   40.2           801.00982      93.081242      378.83876      13322.778    
     20200   40.4           814.36577      94.633269      382.10605      12240.266    
     20300   40.6           813.11393      94.487799      386.33677      11663.983    
     20400   40.8           807.87875      93.879446      387.82941      15914.717    
     20500   41             768.02782      89.248574      386.51242      13456.883    
     20600   41.2           793.18978      92.172516      383.9313       14205.265    
     20700   41.4           767.03526      89.133232      378.71096      16912.028    
     20800   41.6           783.91351      91.094567      378.03817      12489.953    
     20900   41.8           800.64702      93.039083      384.90524      13752.88     
     21000   42             820.75432      95.375649      387.26813      15397.252    
     21100   42.2           825.25675      95.898853      386.40085      13528.044    
     21200   42.4           799.21397      92.872555      383.00133      15148.74     
     21300   42.6           783.28548      91.021588      379.99626      11637.655    
     21400   42.8           755.14324      87.751323      375.80829      12205.061    
     21500   43             762.99848      88.664139      374.11447      15174.446    
     21600   43.2           802.5436       93.259475      381.12458      12741.863    
     21700   43.4           788.63157      91.64283       384.30053      11827.491    
     21800   43.6           784.15858      91.123047      386.22182      11943.074    
     21900   43.8           799.61142      92.918742      387.33694      14741.765    
     22000   44             821.64314      95.478934      384.71119      12976.082    
     22100   44.2           759.01284      88.200989      379.63592      11535.897    
     22200   44.4           797.39557      92.661249      379.93751      16001.211    
     22300   44.6           811.95787      94.353459      385.20866      13920.614    
     22400   44.8           797.16264      92.634182      387.881        12576.57     
     22500   45             819.44639      95.223661      387.21531      15118.291    
     22600   45.2           798.36682      92.774113      384.94295      15740.589    
     22700   45.4           782.90028      90.976825      382.71702      14151.913    
     22800   45.6           764.35936      88.82228       378.80356      11231.183    
     22900   45.8           765.72158      88.980577      376.76927      14091.427    
     23000   46             814.23417      94.617976      382.32596      14580.785    
     23100   46.2           800.20367      92.987564      385.97745      13955.174    
     23200   46.4           811.98577      94.356701      386.18353      14228.806    
     23300   46.6           819.52562      95.232868      384.65383      13611.083    
     23400   46.8           799.73388      92.932972      379.4259       13185.886    
     23500   47             763.74142      88.750473      377.0343       13124.649    
     23600   47.2           789.65544      91.761808      381.1889       15912.532    
     23700   47.4           791.12919      91.933065      383.91153      11178.347    
     23800   47.6           799.98362      92.961993      384.43826      13860.535    
     23900   47.8           800.531        93.025602      385.29944      16173.883    
     24000   48             826.06492      95.992767      383.57176      12383.622    
     24100   48.2           773.8443       89.924476      379.7842       13645.542    
     24200   48.4           762.57053      88.614409      377.96772      12836.195    
     24300   48.6           777.39868      90.337513      384.14211      14804.033    
     24400   48.8           814.79935      94.683653      387.21725      15432.943    
     24500   49             839.92869      97.603804      385.63352      13425.748    
     24600   49.2           811.26883      94.273389      381.97929      12148.891    
     24700   49.4           787.23743      91.480823      378.15451      14882.816    
     24800   49.6           790.3475       91.842228      378.37818      12017.987    
     24900   49.8           788.04001      91.574087      386.46769      12825.593    
     25000   50             805.51832      93.605152      387.98525      15063.567    
     25100   50.2           806.87539      93.76285       384.71202      16781.436    
     25200   50.4           790.14277      91.818438      380.8466       12851.841    
     25300   50.6           764.49069      88.837541      379.75649      14084.423    
     25400   50.8           788.16915      91.589094      381.82012      13710.9      
     25500   51             811.38231      94.286576      387.71866      12823.989    
     25600   51.2           821.40848      95.451666      389.20109      17113.299    
     25700   51.4           797.67591      92.693825      384.20996      13746.743    
     25800   51.6           765.29226      88.930687      380.59304      15071.078    
     25900   51.8           803.72179      93.396386      381.10239      14388.467    
     26000   52             830.06525      96.457625      383.35245      13061.956    
     26100   52.2           794.34236      92.306451      388.28455      13328.983    
     26200   52.4           819.8538       95.271005      392.96611      14139.258    
     26300   52.6           801.21752      93.105378      388.99016      14411.978    
     26400   52.8           820.76807      95.377247      385.34237      15034.828    
     26500   53             790.38351      91.846414      383.54942      14327.374    
     26600   53.2           794.76719      92.355819      381.9135       13967.057    
     26700   53.4           779.37226      90.566852      382.18837      12109.788    
     26800   53.6           808.30117      93.928533      386.92047      14737.581    
     26900   53.8           807.85248      93.876393      390.10813      13944.445    
     27000   54             819.95094      95.282293      388.55108      12026.938    
     27100   54.2           766.77486      89.102973      381.60197      11601.517    
     27200   54.4           776.01843      90.177121      381.11408      13624.714    
     27300   54.6           762.27942      88.580582      383.69391      11337.5      
     27400   54.8           783.21462      91.013353      386.19196      13312.93     
     27500   55             834.09555      96.925965      388.85802      14870.673    
     27600   55.2           845.16012      98.211723      391.51465      15036.992    
     27700   55.4           816.44077      94.874394      387.4293       11384.167    
     27800   55.6           796.87042      92.600224      381.94485      17004.242    
     27900   55.8           777.57696      90.35823       381.13045      13875.854    
     28000   56             808.97138      94.006414      384.12134      15785.126    
     28100   56.2           826.5731       96.051819      388.51617      14906.531    
     28200   56.4           851.73516      98.975774      390.92974      14725.047    
     28300   56.6           827.36715      96.144092      386.46641      13033.013    
     28400   56.8           773.75596      89.914211      381.25867      14977.831    
     28500   57             769.59399      89.43057       380.14608      13187.246    
     28600   57.2           792.1674       92.05371       382.89258      14441.315    
     28700   57.4           807.44128      93.828609      388.07488      14982.316    
     28800   57.6           810.90259      94.230831      387.68291      11510.294    
     28900   57.8           799.67547      92.926185      385.79465      16091.178    
     29000   58             772.84124      89.807916      383.69017      15380.845    
     29100   58.2           796.556        92.563687      384.24487      12237.334    
     29200   58.4           788.11141      91.582385      384.68612      13090.147    
     29300   58.6           829.87705      96.435755      387.72866      15320.189    
     29400   58.8           803.59239      93.38135       392.30287      15016.588    
     29500   59             834.66131      96.99171       392.18647      15548.903    
     29600   59.2           801.80968      93.174189      384.36215      15157.611    
     29700   59.4           794.30338      92.301921      381.27173      14992.863    
     29800   59.6           798.63878      92.805716      382.02004      14454.344    
     29900   59.8           795.55624      92.44751       385.95149      14257.923    
     30000   60             808.13584      93.909321      390.12532      14398.596    
     30100   60.2           826.59275      96.054103      388.20983      17096.489    
     30200   60.4           814.9135       94.696917      385.73718      11110.673    
     30300   60.6           776.23389      90.202158      383.74774      15230.161    
     30400   60.8           773.23022      89.853117      382.74659      14151.121    
     30500   61             778.58193      90.475012      383.17604      12431.668    
     30600   61.2           807.23866      93.805064      388.13114      13351.432    
     30700   61.4           821.17226      95.424216      390.03408      13002.794    
     30800   61.6           806.08654      93.671182      385.25497      15123.457    
     30900   61.8           762.4797       88.603854      382.66248      12014.209    
     31000   62             784.61469      91.176049      383.34417      13494.363    
     31100   62.2           835.13389      97.046625      384.95113      14852.693    
     31200   62.4           767.48988      89.186061      385.07953      14525.142    
     31300   62.6           795.16253      92.401759      383.80332      13154.987    
     31400   62.8           765.33515      88.935671      382.05006      15699.959    
     31500   63             776.42676      90.224571      382.22029      15268.36     
     31600   63.2           833.251        96.827825      386.72762      16111.376    
     31700   63.4           829.23669      96.361342      390.26374      14705.96     
     31800   63.6           807.24695      93.806027      388.94845      15015.944    
     31900   63.8           808.96737      94.005948      384.18586      13827.95     
     32000   64             777.52493      90.352183      382.3368       13126.869    
     32100   64.2           758.2281       88.109799      383.54228      13630.084    
     32200   64.4           789.22365      91.711632      386.26334      13865.72     
     32300   64.6           801.80382      93.173509      387.94243      12602.734    
     32400   64.8           786.95759      91.448305      387.28997      15438.201    
     32500   65             755.98685      87.849353      382.18494      14813.811    
     32600   65.2           777.13014      90.306307      378.77672      14710.213    
     32700   65.4           812.81739      94.453339      380.48822      13105.365    
     32800   65.6           793.80525      92.244036      386.57214      14070.063    
     32900   65.8           812.64789      94.433642      387.39346      14158.572    
     33000   66             803.01836      93.314644      384.85538      13405.673    
     33100   66.2           782.27052      90.903645      381.75193      14850.594    
     33200   66.4           758.22546      88.109491      379.97628      11944.655    
     33300   66.6           807.0914       93.787951      384.79401      13789.713    
     33400   66.8           830.62112      96.522219      390.04532      14496.697    
     33500   67             809.08755      94.019914      388.68734      13889.538    
     33600   67.2           800.07541      92.97266       383.77968      12898.255    
     33700   67.4           805.90754      93.650381      381.45174      13332.679    
     33800   67.6           793.48767      92.207132      381.83481      14741.275    
     33900   67.8           789.40958      91.733238      382.97767      11595.553    
     34000   68             796.37327      92.542453      384.5219       15606.872    
     34100   68.2           798.33365      92.770258      385.81433      13738.939    
     34200   68.4           810.4102       94.173612      386.74169      12315.831    
     34300   68.6           805.77892      93.635435      385.03385      14191.154    
     34400   68.8           811.43385      94.292566      382.54322      12935.26     
     34500   69             791.34134      91.957718      381.26652      13524.804    
     34600   69.2           791.49195      91.97522       384.68836      13647.88     
     34700   69.4           828.43481      96.26816       388.99777      14205.789    
     34800   69.6           825.13471      95.884672      387.28976      12639.227    
     34900   69.8           804.09899      93.440219      384.24739      13474.562    
     35000   70             812.76106      94.446793      383.36795      14401.418    
     35100   70.2           808.20624      93.917501      382.62338      12687.214    
     35200   70.4           791.92057      92.025027      380.76112      15550.827    
     35300   70.6           805.4889       93.601733      379.42177      15605.233    
     35400   70.8           787.25853      91.483275      381.48289      14096.626    
     35500   71             815.0996       94.718543      387.12887      16080.313    
     35600   71.2           843.25154      97.989936      389.28022      13816.135    
     35700   71.4           790.55626      91.866487      387.73556      12540.619    
     35800   71.6           784.80377      91.19802       381.11798      15253.767    
     35900   71.8           783.11524      91.001805      380.24945      13303.927    
     36000   72             791.8871       92.021138      382.54438      11470.627    
     36100   72.2           799.54716      92.911274      385.55619      14297.386    
     36200   72.4           819.34752      95.212173      387.71333      13202.835    
     36300   72.6           842.27045      97.875928      391.229        12218.219    
     36400   72.8           810.22934      94.152595      392.55254      14999.811    
     36500   73             818.81057      95.149776      386.86418      12672.629    
     36600   73.2           782.44156      90.92352       382.45275      12527.199    
     36700   73.4           776.51406      90.234716      381.5942       16051.917    
     36800   73.6           812.25169      94.387603      383.93637      13919.175    
     36900   73.8           826.22024      96.010816      390.00269      15409.884    
     37000   74             854.17194      99.25894       391.22786      14044.685    
     37100   74.2           811.4997       94.300217      388.31981      16619.454    
     37200   74.4           821.19537      95.426902      385.79136      16608.403    
     37300   74.6           795.87877      92.484989      383.08513      13288.597    
     37400   74.8           765.75083      88.983976      382.62454      13985.594    
     37500   75             806.81854      93.756244      385.66758      16039.429    
     37600   75.2           862.76071      100.257        391.58986      14300.451    
     37700   75.4           841.5211       97.78885       389.36392      14896.089    
     37800   75.6           777.35031      90.331892      383.83688      15882.378    
     37900   75.8           802.31406      93.232801      382.05639      11164.944    
     38000   76             806.01171      93.662486      382.17126      12571.182    
     38100   76.2           786.22381      91.363036      386.23932      15897.96     
     38200   76.4           806.45359      93.713834      391.72928      12512.963    
     38300   76.6           833.24615      96.827261      390.35418      13987.24     
     38400   76.8           825.24371      95.897338      387.24267      14344.745    
     38500   77             817.32429      94.977064      385.1042       13306.692    
     38600   77.2           794.21149      92.291243      383.46155      14429.533    
     38700   77.4           779.2254       90.549786      383.93415      12539.373    
     38800   77.6           808.82917      93.989888      386.76411      14930.219    
     38900   77.8           806.01547      93.662923      390.07208      14538.876    
     39000   78             801.83084      93.176649      389.1268       16202.271    
     39100   78.2           808.36628      93.936099      383.23059      16275.338    
     39200   78.4           805.69646      93.625853      381.03142      15467.122    
     39300   78.6           773.35177      89.867242      382.96683      15519.005    
     39400   78.8           787.92972      91.561271      386.33719      15067.51     
     39500   79             816.0694       94.831238      386.86411      14861.755    
     39600   79.2           800.43834      93.014833      385.74791      12879.481    
     39700   79.4           822.0479       95.525969      384.55812      11992.711    
     39800   79.6           812.53723      94.420784      384.50027      15278.622    
     39900   79.8           786.66223      91.413982      386.60663      14929.923    
     40000   80             842.7398       97.93047       391.38358      12957.196    
     40100   80.2           822.62446      95.592969      390.13793      14397.935    
     40200   80.4           789.483        91.741769      383.96945      15419.403    
     40300   80.6           806.21061      93.6856        382.96715      14415.864    
     40400   80.8           785.75556      91.308623      384.3437       14205.698    
     40500   81             812.24887      94.387274      387.81721      14703.967    
     40600   81.2           830.06292      96.457354      392.47963      15269.353    
     40700   81.4           846.98528      98.423815      394.91977      14501.2      
     40800   81.6           777.46492      90.34521       387.12979      14780.824    
     40900   81.8           798.72895      92.816194      384.4566       15022.527    
     41000   82             765.11835      88.910479      383.25964      13858.504    
     41100   82.2           834.53224      96.976711      385.58389      14054.707    
     41200   82.4           823.33639      95.675698      389.76731      12875.385    
     41300   82.6           813.94185      94.584007      391.62032      13707.149    
     41400   82.8           811.25682      94.271994      390.35434      12765.584    
     41500   83             786.75655      91.424943      384.2519       13510.606    
     41600   83.2           793.54267      92.213523      382.03208      13008.099    
     41700   83.4           764.06156      88.787675      380.30969      13747.109    
     41800   83.6           797.89072      92.718788      382.51789      15708.511    
     41900   83.8           825.40731      95.91635       387.96026      13414.573    
     42000   84             849.88366      98.760621      390.06192      13397.345    
     42100   84.2           823.13301      95.652064      385.85241      14058.16     
     42200   84.4           799.213        92.872443      382.7845       15441.287    
     42300   84.6           808.81598      93.988356      382.94125      13610.451    
     42400   84.8           798.0989       92.742979      384.58577      14433.847    
     42500   85             805.90388      93.649956      386.73041      13090.459    
     42600   85.2           795.64291      92.457581      387.91882      13318.275    
     42700   85.4           801.03974      93.084719      385.96046      12059.943    
     42800   85.6           798.99188      92.846747      382.39697      13998.122    
     42900   85.8           799.99925      92.963809      380.62182      13973.457    
     43000   86             768.13419      89.260934      381.34337      14204.389    
     43100   86.2           796.82009      92.594375      387.45808      12200.201    
     43200   86.4           832.32565      96.720294      389.05642      15272.269    
     43300   86.6           821.8762       95.506017      385.52698      13976.244    
     43400   86.8           775.45473      90.111616      381.50664      11128.943    
     43500   87             810.24409      94.15431       382.31228      14074.173    
     43600   87.2           784.95272      91.215329      383.10595      14907.096    
     43700   87.4           797.28107      92.647944      384.2236       14834.225    
     43800   87.6           852.25716      99.036433      388.17557      15932.081    
     43900   87.8           815.83356      94.803833      391.51763      12798.628    
     44000   88             816.46594      94.877319      387.54648      13015.557    
     44100   88.2           810.86118      94.226019      383.14818      12476.487    
     44200   88.4           794.80779      92.360536      382.97777      14646.451    
     44300   88.6           803.8649       93.413017      383.86709      11401.904    
     44400   88.8           820.50791      95.347016      387.11503      13175.996    
     44500   89             862.13408      100.18418      392.04131      15832.741    
     44600   89.2           813.43603      94.525229      390.01499      15653.15     
     44700   89.4           788.65015      91.644988      383.39457      12523.277    
     44800   89.6           794.89383      92.370534      381.74423      15137.966    
     44900   89.8           821.38363      95.448778      383.28419      12744.892    
     45000   90             821.70167      95.485736      385.64807      12486.429    
     45100   90.2           812.96165      94.470103      388.95634      16775.182    
     45200   90.4           850.63667      98.848124      392.24287      13956.889    
     45300   90.6           795.59513      92.452029      387.91972      12115.141    
     45400   90.8           784.71393      91.18758       383.25347      14456.978    
     45500   91             783.42808      91.038159      382.63847      14800.489    
     45600   91.2           783.89721      91.092674      384.3772       13275.772    
     45700   91.4           823.1625       95.655491      389.97063      14808.223    
     45800   91.6           825.06804      95.876925      392.94631      13464.229    
     45900   91.8           797.29764      92.649869      388.51066      13508.563    
     46000   92             777.59001      90.359746      386.70373      13211.198    
     46100   92.2           792.21026      92.05869       384.557        13975.612    
     46200   92.4           785.29497      91.2551        381.45529      14671.328    
     46300   92.6           780.36987      90.682779      379.68715      14623.699    
     46400   92.8           778.96425      90.519439      382.75422      13794.971    
     46500   93             804.13621      93.444544      388.28799      14373.355    
     46600   93.2           800.30046      92.998811      387.18144      13476.728    
     46700   93.4           804.14315      93.445351      382.18342      13466.765    
     46800   93.6           803.00374      93.312945      380.28314      14031.751    
     46900   93.8           779.01171      90.524955      381.72052      12842.107    
     47000   94             797.67399      92.693602      383.74602      10905.118    
     47100   94.2           793.08745      92.160625      385.11033      14459.537    
     47200   94.4           794.7128       92.349498      385.53766      14930.95     
     47300   94.6           795.42014      92.431694      385.3036       13107.019    
     47400   94.8           776.97513      90.288294      384.08585      13533.236    
     47500   95             811.12326      94.256474      383.31063      14814.695    
     47600   95.2           791.66844      91.995728      381.75322      14272.432    
     47700   95.4           802.46479      93.250317      377.59625      14751.357    
     47800   95.6           805.47346      93.599939      376.23803      11044.34     
     47900   95.8           777.10461      90.30334       381.53523      15237.675    
     48000   96             820.84596      95.386298      385.24597      12805.489    
     48100   96.2           810.41125      94.173734      385.73704      16304.277    
     48200   96.4           812.4878       94.415039      383.9426       16537.593    
     48300   96.6           792.37399      92.077716      379.39618      12991.762    
     48400   96.8           778.21809      90.432732      376.31421      12108.306    
     48500   97             792.73216      92.119338      380.25665      15968.826    
     48600   97.2           811.65407      94.318156      386.09145      11839.389    
     48700   97.4           817.23714      94.966936      387.02119      13641.335    
     48800   97.6           802.03441      93.200305      386.53634      15933.081    
     48900   97.8           789.04916      91.691356      382.86009      13815.962    
     49000   98             795.83253      92.479616      378.16247      14810.751    
     49100   98.2           773.63555      89.900218      378.58209      12925.145    
     49200   98.4           811.95763      94.353431      382.93148      13661.625    
     49300   98.6           792.98316      92.148506      383.97608      12530.637    
     49400   98.8           788.64385      91.644256      385.04424      13768.561    
     49500   99             796.99744      92.614984      385.46619      11213.956    
     49600   99.2           814.65292      94.666637      383.60409      15978.225    
     49700   99.4           754.02311      87.621158      379.45614      10752.903    
     49800   99.6           795.68743      92.462754      379.61851      13557.468    
     49900   99.8           806.85173      93.7601        385.59876      13288.769    
     50000   100            808.01696      93.895506      388.8946       16193.552    
     50100   100.2          834.4289       96.964703      388.5189       13729.964    
     50200   100.4          817.42006      94.988192      384.43345      15999.001    
     50300   100.6          782.86344      90.972544      381.28178      14883.287    
     50400   100.8          764.76204      88.869074      381.93569      13067.167    
     50500   101            812.44874      94.4105        384.14888      13548.301    
     50600   101.2          820.39745      95.334179      385.8714       14975.308    
     50700   101.4          829.0341       96.337801      387.22653      16024.317    
     50800   101.6          810.81725      94.220914      385.74963      14853.273    
     50900   101.8          790.77863      91.892328      382.73984      15430.733    
     51000   102            780.22872      90.666378      380.53119      13964.304    
     51100   102.2          800.12145      92.978009      379.63687      12911.837    
     51200   102.4          794.14709      92.28376       383.81918      16357.642    
     51300   102.6          803.6565       93.388799      387.99278      13920.34     
     51400   102.8          801.348        93.12054       387.63645      12119.711    
     51500   103            790.35432      91.843021      382.97761      14861.779    
     51600   103.2          812.85768      94.458021      379.89572      15224.628    
     51700   103.4          809.11271      94.022837      381.48359      12712.712    
     51800   103.6          775.97972      90.172623      383.97476      16073.528    
     51900   103.8          815.74822      94.793917      386.02037      14853.384    
     52000   104            801.88624      93.183087      386.19935      13998.649    
     52100   104.2          791.62182      91.990312      382.97422      15027.695    
     52200   104.4          788.35134      91.610265      377.65157      13075.791    
     52300   104.6          785.25952      91.250981      379.16572      13862.263    
     52400   104.8          788.58878      91.637858      384.43686      11568.648    
     52500   105            806.44857      93.713251      386.41158      14216        
     52600   105.2          830.09489      96.461069      385.79858      14445.485    
     52700   105.4          763.15392      88.682202      382.45565      15041.733    
     52800   105.6          770.31124      89.513918      376.74785      13130.73     
     52900   105.8          780.47632      90.69515       378.36663      13396.743    
     53000   106            809.07675      94.018659      382.18843      13833.656    
     53100   106.2          784.61963      91.176622      383.08402      13463.793    
     53200   106.4          806.88636      93.764125      384.58937      12851.718    
     53300   106.6          811.75049      94.32936       385.40477      13739.999    
     53400   106.8          825.20658      95.893023      387.66408      15330.785    
     53500   107            825.62084      95.941163      390.4866       14085.263    
     53600   107.2          810.35258      94.166916      390.68367      12517.466    
     53700   107.4          800.62788      93.036859      384.54267      13920.96     
     53800   107.6          792.00159      92.034442      382.18991      14928.973    
     53900   107.8          788.23523      91.596773      383.6073       11809.146    
     54000   108            830.95135      96.560594      387.76319      16355.81     
     54100   108.2          827.47067      96.156122      389.32771      14377.119    
     54200   108.4          801.33524      93.119058      387.31404      13500.524    
     54300   108.6          791.68265      91.99738       385.91123      14123.208    
     54400   108.8          820.00373      95.288427      385.4219       12683.548    
     54500   109            813.53185      94.536363      384.24159      13829.783    
     54600   109.2          787.70129      91.534726      383.0223       16694.962    
     54700   109.4          790.81212      91.896219      384.63876      11680.791    
     54800   109.6          832.15068      96.699961      389.38048      13417.766    
     54900   109.8          865.7918       100.60922      391.89867      15763.27     
     55000   110            807.23875      93.805074      387.08119      13194.854    
     55100   110.2          796.13461      92.514719      383.44808      15736.354    
     55200   110.4          797.827        92.711383      383.38544      12950.811    
     55300   110.6          778.6791       90.486304      385.06659      15723.085    
     55400   110.8          796.42918      92.54895       389.43149      14271.13     
     55500   111            818.89487      95.159572      391.85831      14465.56     
     55600   111.2          813.66335      94.551644      386.44504      14841.425    
     55700   111.4          794.79953      92.359577      380.59893      12623.297    
     55800   111.6          805.82394      93.640667      380.80843      14462.236    
     55900   111.8          817.07176      94.947717      384.06019      12080.538    
     56000   112            799.25206      92.876982      387.47403      13354.735    
     56100   112.2          853.04852      99.128392      389.18425      17476.564    
     56200   112.4          785.16191      91.239638      382.24451      10951.117    
     56300   112.6          799.75108      92.93497       379.5504       12247.112    
     56400   112.8          787.00093      91.453341      380.52095      14191.959    
     56500   113            808.91327      93.999662      385.91671      14962.868    
     56600   113.2          799.76189      92.936226      387.54286      15408.113    
     56700   113.4          825.23718      95.896579      385.86428      14847.654    
     56800   113.6          786.9058       91.442286      383.40923      14958.776    
     56900   113.8          800.35322      93.004943      383.64668      17571.242    
     57000   114            806.25953      93.691284      384.40282      14191.674    
     57100   114.2          811.33394      94.280955      389.0636       12847.138    
     57200   114.4          816.23008      94.849911      391.14181      14251.415    
     57300   114.6          797.95376      92.726114      386.82448      14277.433    
     57400   114.8          797.38168      92.659635      382.0854       11406.677    
     57500   115            781.75631      90.843891      381.50559      14210.007    
     57600   115.2          806.4341       93.71157       385.06079      14894.772    
     57700   115.4          795.14526      92.399752      387.74014      18311.669    
     57800   115.6          804.94748      93.538817      387.44891      15166.214    
     57900   115.8          789.71245      91.768433      380.32773      12449.734    
     58000   116            777.62113      90.363363      377.82429      13499.619    
     58100   116.2          808.74034      93.979566      380.53826      12244.687    
     58200   116.4          817.73755      95.025086      385.57957      13017.357    
     58300   116.6          823.29351      95.670715      386.983        11931.43     
     58400   116.8          818.31593      95.092296      385.96423      13174.431    
     58500   117            806.87679      93.763012      380.89455      12719.94     
     58600   117.2          793.35656      92.191896      376.24883      14650.383    
     58700   117.4          779.03574      90.527747      379.42008      12781.715    
     58800   117.6          792.3234       92.071838      383.41667      12786.839    
     58900   117.8          784.0505       91.110487      385.6243       13863.394    
     59000   118            786.59893      91.406626      387.36314      15022.835    
     59100   118.2          831.75339      96.653795      389.69456      15194.749    
     59200   118.4          820.24127      95.316031      389.69878      13598.605    
     59300   118.6          797.81846      92.71039       384.01818      11988.077    
     59400   118.8          783.68962      91.068551      380.56887      14337.582    
     59500   119            794.12777      92.281515      380.95492      13939.416    
     59600   119.2          803.57404      93.379218      385.29197      11911.053    
     59700   119.4          819.52395      95.232675      389.88693      15134.715    
     59800   119.6          834.20826      96.939063      389.1246       15720.199    
     59900   119.8          821.84126      95.501957      386.22945      12148.737    
     60000   120            766.23002      89.03966       383.878        15709.592    
     60100   120.2          785.7951       91.313218      381.89679      15537.933    
     60200   120.4          780.53925      90.702462      381.75514      12819.515    
     60300   120.6          838.18354      97.40101       388.50476      15260.828    
     60400   120.8          800.39031      93.009252      390.36451      12044.719    
     60500   121            836.24379      97.175601      388.2297       13145.2      
     60600   121.2          777.14926      90.308529      382.87188      14879.602    
     60700   121.4          777.32349      90.328775      381.24144      11892.688    
     60800   121.6          794.61747      92.33842       382.43002      13039.571    
     60900   121.8          765.40274      88.943526      384.46392      13475.179    
     61000   122            811.69554      94.322975      386.82645      14149.764    
     61100   122.2          790.78349      91.892893      385.56259      14566.629    
     61200   122.4          764.75623      88.868399      380.37849      12288.291    
     61300   122.6          764.45065      88.832889      377.68791      13803.482    
     61400   122.8          778.30143      90.442417      380.31683      14172.643    
     61500   123            797.97596      92.728693      385.52382      14434.912    
     61600   123.2          822.22109      95.546095      386.28711      12934.27     
     61700   123.4          791.74913      92.005105      384.86094      15227.379    
     61800   123.6          770.41076      89.525482      382.17745      15713.587    
     61900   123.8          763.24667      88.692981      381.11238      16926.866    
     62000   124            798.70769      92.813724      380.34654      14468.976    
     62100   124.2          812.9231       94.465624      381.65378      15161.435    
     62200   124.4          773.80191      89.919551      384.29592      13207.729    
     62300   124.6          843.51339      98.020364      387.44676      14045.8      
     62400   124.8          786.89662      91.441219      387.29303      12227.135    
     62500   125            768.71706      89.328666      383.20909      14575.462    
     62600   125.2          744.52277      86.517172      377.71052      15339.232    
     62700   125.4          773.94694      89.936404      377.70937      13174.908    
     62800   125.6          774.11804      89.956287      381.38336      15494.891    
     62900   125.8          826.11149      95.998179      383.61792      14003.815    
     63000   126            794.66032      92.343399      384.4391       12259.365    
     63100   126.2          779.2975       90.558165      385.5983       14547.889    
     63200   126.4          808.92933      94.001528      386.86035      14998.557    
     63300   126.6          804.17988      93.449618      388.95144      12790.055    
     63400   126.8          801.28622      93.113361      387.73489      12796.212    
     63500   127            765.76731      88.985892      382.76252      15216.15     
     63600   127.2          796.95153      92.60965       381.35705      15970.221    
     63700   127.4          801.47248      93.135005      384.64435      14921.975    
     63800   127.6          796.31075      92.535187      390.85986      15519.038    
     63900   127.8          805.10897      93.557584      389.86577      12482.473    
     64000   128            799.44127      92.898969      385.99328      16343.594    
     64100   128.2          786.62866      91.410081      382.62745      13844.026    
     64200   128.4          797.95336      92.726067      381.6096       12613.801    
     64300   128.6          807.38766      93.822378      385.64636      16911.028    
     64400   128.8          849.28085      98.690571      391.70926      13269.096    
     64500   129            836.22374      97.173272      389.44995      14818.831    
     64600   129.2          814.54748      94.654385      385.58612      14743.897    
     64700   129.4          783.84098      91.086139      383.09938      12758.104    
     64800   129.6          796.31649      92.535855      383.02777      10022.13     
     64900   129.8          820.37742      95.331851      384.96865      11641.287    
     65000   130            817.98173      95.053461      389.58269      16010.635    
     65100   130.2          826.04557      95.990518      390.32135      13574.137    
     65200   130.4          811.94637      94.352123      385.21897      12720.239    
     65300   130.6          797.83983      92.712874      382.13589      14486.224    
     65400   130.8          780.26517      90.670613      382.60872      13990.881    
     65500   131            787.0747       91.461914      384.96441      12342.928    
     65600   131.2          820.21608      95.313103      388.65728      13901.418    
     65700   131.4          878.88422      102.13063      396.40999      13980.642    
     65800   131.6          859.69828      99.901127      395.68308      13498.641    
     65900   131.8          840.43309      97.662418      390.32555      15868.066    
     66000   132            787.71263      91.536044      385.60116      14727.624    
     66100   132.2          787.38601      91.498089      382.86493      11559.594    
     66200   132.4          771.69322      89.674511      380.98896      14803.491    
     66300   132.6          816.26077      94.853477      382.10209      14700.909    
     66400   132.8          803.72539      93.396805      387.62907      15442.681    
     66500   133            809.87594      94.111529      390.18348      14917.873    
     66600   133.2          804.11764      93.442387      387.22459      16511.705    
     66700   133.4          781.45582      90.808973      384.50744      13574.783    
     66800   133.6          819.51344      95.231453      384.24252      14385.464    
     66900   133.8          762.97956      88.661941      384.19364      16066.26     
     67000   134            808.48231      93.949581      385.12228      12730.88     
     67100   134.2          782.2179       90.897529      385.36152      14718.774    
     67200   134.4          809.27156      94.041297      385.79148      13853.868    
     67300   134.6          774.72385      90.026684      384.75418      11394.945    
     67400   134.8          809.40424      94.056714      384.15085      16842.996    
     67500   135            788.3357       91.608448      383.84674      15164.735    
     67600   135.2          795.49663      92.440582      383.20553      14831.077    
     67700   135.4          813.09646      94.485768      382.0726       16371.911    
     67800   135.6          809.81719      94.104702      383.27815      14179.015    
     67900   135.8          812.44415      94.409968      387.66723      13940.461    
     68000   136            827.91001      96.207175      389.97022      16299.924    
     68100   136.2          802.46301      93.25011       385.08602      13904.022    
     68200   136.4          770.59108      89.546437      380.62225      13271.021    
     68300   136.6          805.94496      93.65473       381.18062      14603.894    
     68400   136.8          784.39474      91.15049       384.49736      13310.284    
     68500   137            819.3607       95.213704      388.46542      12413.186    
     68600   137.2          817.23569      94.966768      387.97942      18113.465    
     68700   137.4          803.09153      93.323147      385.52527      16530.013    
     68800   137.6          802.11491      93.209659      385.2675       13988.521    
     68900   137.8          783.73092      91.07335       384.67065      14825.72     
     69000   138            795.12249      92.397106      385.24363      16446.518    
     69100   138.2          809.54396      94.072951      387.36177      16458.135    
     69200   138.4          804.65392      93.504705      388.93397      14473.195    
     69300   138.6          824.57159      95.819235      385.72138      17488.562    
     69400   138.8          771.53597      89.656237      380.45329      17088.672    
     69500   139            783.90823      91.093954      380.51462      12016.811    
     69600   139.2          777.78997      90.382983      382.96466      15771.712    
     69700   139.4          823.97314      95.749692      388.80869      16117.252    
     69800   139.6          794.81219      92.361048      391.13951      14652.867    
     69900   139.8          802.76754      93.285498      388.25206      15163.201    
     70000   140            775.17656      90.079291      386.51916      13979.701    
     70100   140.2          805.13606      93.560732      385.06713      13911.587    
     70200   140.4          764.33641      88.819614      381.78663      16044.409    
     70300   140.6          799.90129      92.952425      379.46729      13922.426    
     70400   140.8          795.60045      92.452647      378.22588      13038.344    
     70500   141            807.28173      93.810068      380.51526      15146.017    
     70600   141.2          806.40092      93.707715      386.12264      15003.5      
     70700   141.4          837.36091      97.305416      387.29641      11872.777    
     70800   141.6          809.37264      94.053043      385.53098      15655.164    
     70900   141.8          774.46389      89.996476      379.99515      13745.243    
     71000   142            789.55029      91.749589      376.63715      14240.044    
     71100   142.2          800.13535      92.979624      379.21367      15460.413    
     71200   142.4          793.29213      92.184409      381.67855      15109.567    
     71300   142.6          777.70663      90.373298      383.65833      14934.295    
     71400   142.8          809.30758      94.045482      386.71187      15543.943    
     71500   143            812.27647      94.390482      388.49312      13581.703    
     71600   143.2          768.44516      89.29707       385.32517      13455.339    
     71700   143.4          785.1548       91.238812      379.47948      15275.162    
     71800   143.6          783.74378      91.074845      379.71175      13803.477    
     71900   143.8          795.15714      92.401132      383.76847      14947.314    
     72000   144            791.12866      91.933003      387.09678      13817.18     
     72100   144.2          812.12653      94.373059      389.88414      15242.067    
     72200   144.4          806.77814      93.751549      390.889        14311.376    
     72300   144.6          802.13154      93.211592      387.40834      14248.544    
     72400   144.8          774.16449      89.961684      382.35558      13717.679    
     72500   145            784.09094      91.115187      381.12995      13870.121    
     72600   145.2          809.59296      94.078645      383.53686      12024.599    
     72700   145.4          825.80191      95.962203      388.54711      13683.911    
     72800   145.6          812.11133      94.371292      389.44531      12799.459    
     72900   145.8          789.93945      91.794812      385.22034      12850.23     
     73000   146            780.00833      90.640767      382.94936      14140.108    
     73100   146.2          774.96357      90.054542      383.49872      14024.389    
     73200   146.4          789.59954      91.755312      385.69766      13748.01     
     73300   146.6          821.49746      95.462006      388.46752      13456.953    
     73400   146.8          821.25667      95.434024      389.65839      16594.84     
     73500   147            793.51284      92.210057      384.91607      11576.199    
     73600   147.2          788.57508      91.636265      380.68474      12828.234    
     73700   147.4          770.25069      89.506881      380.98615      14557.567    
     73800   147.6          810.26402      94.156625      385.11879      16884.302    
     73900   147.8          835.8984       97.135465      389.73759      16370.278    
     74000   148            864.74979      100.48814      393.50505      15026.106    
     74100   148.2          841.97215      97.841265      396.36047      13632.539    
     74200   148.4          824.44108      95.804069      390.48853      13796.586    
     74300   148.6          819.81676      95.2667        385.73143      14689.598    
     74400   148.8          780.16599      90.659087      383.06479      11797.013    
     74500   149            803.40288      93.359327      381.8232       11791.505    
     74600   149.2          805.08858      93.555214      384.54588      12815.13     
     74700   149.4          807.22618      93.803614      390.33006      11677.35     
     74800   149.6          817.49911      94.997378      391.34488      15787.888    
     74900   149.8          785.74876      91.307832      387.6991       12838.336    
     75000   150            796.5405       92.561886      385.38593      11761.532    
     75100   150.2          800.09091      92.97446       384.52755      15237.637    
     75200   150.4          816.59593      94.892424      384.83059      11378.772    
     75300   150.6          829.14899      96.351151      386.57715      14148.629    
     75400   150.8          803.96588      93.424751      390.60658      15872.692    
     75500   151            835.45374      97.083793      392.62332      15019.514    
     75600   151.2          834.31126      96.951032      386.90919      12744.674    
     75700   151.4          770.51         89.537014      382.37918      12963.634    
     75800   151.6          796.08408      92.508848      382.49811      11975.539    
     75900   151.8          791.01314      91.919579      385.33395      11764.406    
     76000   152            827.3284       96.13959       389.82141      12880.938    
     76100   152.2          811.54841      94.305878      388.95133      17187.978    
     76200   152.4          771.94265      89.703496      381.14735      13635.735    
     76300   152.6          785.06184      91.228009      380.31121      15191.88     
     76400   152.8          802.85189      93.295299      383.05172      12082.245    
     76500   153            797.77641      92.705504      386.82948      14982.474    
     76600   153.2          829.452        96.386363      387.88537      15368.741    
     76700   153.4          769.80863      89.455512      383.48908      14206.729    
     76800   153.6          770.25557      89.507449      378.13526      15088.783    
     76900   153.8          797.36752      92.657989      380.13771      15107.725    
     77000   154            788.0095       91.570542      384.56824      13654.98     
     77100   154.2          824.66072      95.829592      386.80309      13250.872    
     77200   154.4          798.70452      92.813355      385.72617      16971.843    
     77300   154.6          830.19233      96.472392      384.61669      11981.509    
     77400   154.8          788.35293      91.610449      383.60242      11688.1      
     77500   155            798.09251      92.742236      383.51152      15661.945    
     77600   155.2          810.19062      94.148096      383.43315      14842.694    
     77700   155.4          827.63109      96.174763      384.02565      11915.763    
     77800   155.6          790.83278      91.898621      384.24842      14733.275    
     77900   155.8          811.86118      94.342224      383.76519      13529.431    
     78000   156            783.07484      90.99711       381.45063      15209.819    
     78100   156.2          807.82572      93.873283      379.99094      11519.736    
     78200   156.4          774.85937      90.042433      380.47986      12169.032    
     78300   156.6          821.4264       95.453748      385.97741      13450.982    
     78400   156.8          818.88384      95.15829       388.38271      15684.93     
     78500   157            790.09481      91.812865      385.94016      12827.018    
     78600   157.2          779.67796      90.602376      380.17926      13662.008    
     78700   157.4          773.85203      89.925375      379.65149      15185.058    
     78800   157.6          762.80781      88.641983      382.12753      15124.376    
     78900   157.8          808.4822       93.94957       385.81005      14347.806    
     79000   158            822.1016       95.53221       388.78771      15159.3      
     79100   158.2          831.7455       96.652879      388.03643      14630.621    
     79200   158.4          774.1797       89.963452      380.7701       13730.8      
     79300   158.6          789.18798      91.707486      379.66284      14065.187    
     79400   158.8          803.54184      93.375476      382.211        12640.188    
     79500   159            837.22158      97.289225      385.54023      12988.536    
     79600   159.2          772.82421      89.805938      386.34096      13855.628    
     79700   159.4          808.46782      93.947899      386.39486      12915.829    
     79800   159.6          795.95898      92.49431       386.0059       13473.897    
     79900   159.8          816.52378      94.88404       385.49937      12894.87     
     80000   160            809.71192      94.092469      385.19674      16549.601    
     80100   160.2          776.56995      90.24121       384.0433       14733.182    
     80200   160.4          787.95675      91.564412      381.26629      10916.31     
     80300   160.6          766.60549      89.083292      377.68464      14541.944    
     80400   160.8          772.50494      89.768837      379.13902      11707.828    
     80500   161            816.87935      94.925359      386.15963      15403.777    
     80600   161.2          822.3842       95.56505       387.47591      13317.075    
     80700   161.4          789.32684      91.723623      385.72807      14577.598    
     80800   161.6          765.94444      89.006475      381.95773      15784.299    
     80900   161.8          776.15838      90.193384      378.37357      10103.036    
     81000   162            786.54116      91.399914      381.06601      13674.456    
     81100   162.2          825.1884       95.890911      388.00325      14572.605    
     81200   162.4          811.9789       94.355903      387.5949       13995.204    
     81300   162.6          807.05236      93.783414      385.99621      13698.963    
     81400   162.8          829.80639      96.427544      384.30659      13941.25     
     81500   163            790.80672      91.895593      380.8049       13584.053    
     81600   163.2          793.86864      92.251403      380.69309      13279.747    
     81700   163.4          815.19683      94.729842      385.59246      14695.587    
     81800   163.6          836.70053      97.228677      388.87402      17615.773    
     81900   163.8          820.52008      95.34843       386.83925      10307.573    
     82000   164            803.78354      93.403562      380.71651      12686.357    
     82100   164.2          788.6101       91.640334      377.95446      15318.405    
     82200   164.4          791.48911      91.97489       380.23292      13239.186    
     82300   164.6          812.4757       94.413633      383.73791      15175.437    
     82400   164.8          814.16541      94.609986      385.93687      15295.469    
     82500   165            782.16341      90.891198      386.83562      15292.636    
     82600   165.2          813.53335      94.536538      385.18292      13945.774    
     82700   165.4          757.4245       88.016415      381.1035       11984.767    
     82800   165.6          771.62573      89.666668      381.02622      13649.064    
     82900   165.8          836.56777      97.213249      386.20296      14134.158    
     83000   166            823.82649      95.732651      388.91972      14829.109    
     83100   166.2          790.3786       91.845843      388.21973      14506.757    
     83200   166.4          799.61376      92.919013      385.97969      14301.014    
     83300   166.6          798.6581       92.807961      384.51659      14995.428    
     83400   166.8          781.65385      90.831984      383.61372      15330.28     
     83500   167            783.0835       90.998117      382.04218      13384.225    
     83600   167.2          774.32242      89.980037      379.83192      15564.703    
     83700   167.4          785.9632       91.332752      379.96835      14725.842    
     83800   167.6          806.45286      93.71375       385.50033      15122.771    
     83900   167.8          822.84581      95.61869       388.60644      17140.451    
     84000   168            817.24511      94.967862      387.99874      14519.871    
     84100   168.2          779.99146      90.638807      383.31111      13410.85     
     84200   168.4          771.90999      89.699701      378.76011      16369.523    
     84300   168.6          785.4126       91.26877       380.25456      13073.063    
     84400   168.8          809.37596      94.053429      388.53935      11572.886    
     84500   169            781.45375      90.808731      388.36814      15627.614    
     84600   169.2          799.06491      92.855235      386.53901      11452.739    
     84700   169.4          809.03549      94.013864      383.35735      12964.532    
     84800   169.6          780.81994      90.73508       380.67152      16121.734    
     84900   169.8          827.84111      96.199169      382.44151      11916.05     
     85000   170            796.57874      92.56633       388.61187      16197.794    
     85100   170.2          832.0039       96.682905      390.67084      14563.339    
     85200   170.4          806.63262      93.734639      388.03778      14698.401    
     85300   170.6          792.32677      92.072229      385.49028      12830.788    
     85400   170.8          779.42725      90.573242      384.45272      15659.271    
     85500   171            823.27862      95.668985      384.29301      15795.498    
     85600   171.2          792.94732      92.144341      384.55338      13202.263    
     85700   171.4          804.6867       93.508514      385.55217      12932.407    
     85800   171.6          824.63828      95.826985      386.66093      15560.873    
     85900   171.8          786.14666      91.35407       384.61891      13730.435    
     86000   172            768.30746      89.281068      381.75163      12216.883    
     86100   172.2          826.84194      96.08306       379.73168      11216.001    
     86200   172.4          778.11954      90.42128       381.06931      14129.141    
     86300   172.6          798.96927      92.844121      387.56637      11737.88     
     86400   172.8          805.41825      93.593523      389.13444      11185.808    
     86500   173            803.88229      93.415038      384.76648      16237.43     
     86600   173.2          778.18092      90.428413      382.18093      12876.074    
     86700   173.4          794.44353      92.318207      382.12838      15567.793    
     86800   173.6          768.13931      89.261529      383.08687      18415.322    
     86900   173.8          794.5702       92.332927      387.66303      14139.112    
     87000   174            834.40976      96.962478      391.96977      14670.17     
[...]
    478600   957.2          791.13329      91.933542      384.21241      14837.085    
    478700   957.4          824.77472      95.842839      384.02667      12064.87     
    478800   957.6          759.28961      88.233151      381.91302      13686.406    
    478900   957.8          787.13567      91.468999      381.05467      14672.458    
    479000   958            820.10125      95.29976       383.26683      13502.448    
    479100   958.2          810.96469      94.238047      386.66273      13210.821    
    479200   958.4          811.06773      94.250021      389.0409       15525.006    
    479300   958.6          803.90599      93.417791      384.38716      14197.572    
    479400   958.8          785.1768       91.241368      379.17524      13903.317    
    479500   959            782.33989      90.911706      379.89011      12372.381    
    479600   959.2          798.75855      92.819634      383.19874      14478.081    
    479700   959.4          814.2759       94.622825      386.94462      14423.806    
    479800   959.6          796.60285      92.569131      386.80307      13307.645    
    479900   959.8          764.415        88.828746      379.70582      12675.703    
    480000   960            776.01739      90.177         378.9883       13377.262    
    480100   960.2          793.78287      92.241436      383.5169       12242.377    
    480200   960.4          774.94078      90.051892      386.57814      13972.297    
    480300   960.6          803.0444       93.31767       387.82233      13744.468    
    480400   960.8          810.71553      94.209093      386.41778      11709.369    
    480500   961            802.7042       93.278138      378.94115      12643.22     
    480600   961.2          787.83312      91.550046      377.36256      14194.186    
    480700   961.4          812.15209      94.376028      381.13204      11834.89     
    480800   961.6          788.91307      91.675541      384.93874      14683.856    
    480900   961.8          831.30701      96.601923      385.99511      14949.508    
    481000   962            774.29252      89.976562      384.93782      13891.182    
    481100   962.2          825.07975      95.878285      385.44815      15381.126    
    481200   962.4          828.06817      96.225555      389.84793      12152.219    
    481300   962.6          834.71451      96.997891      390.47954      14058.47     
    481400   962.8          823.88505      95.739456      385.16052      14708.548    
    481500   963            788.53928      91.632105      381.32766      13609.17     
    481600   963.2          804.85177      93.527695      382.19365      16444.197    
    481700   963.4          772.19166      89.732432      384.60422      13455.767    
    481800   963.6          812.39004      94.40368       390.18574      15304.751    
    481900   963.8          837.57915      97.330776      392.51581      14081.399    
    482000   964            766.71545      89.09607       384.48464      13276.289    
    482100   964.2          790.82062      91.897207      380.79289      13002.915    
    482200   964.4          793.83038      92.246957      381.06121      14957.269    
    482300   964.6          816.01776      94.825238      385.14161      12867.305    
    482400   964.8          817.44941      94.991603      388.99495      14580.751    
    482500   965            826.82971      96.081639      388.34917      13817.91     
    482600   965.2          805.19448      93.56752       384.00833      14949.749    
    482700   965.4          806.72248      93.745082      382.99756      14869.146    
    482800   965.6          791.50319      91.976526      384.75731      13283.573    
    482900   965.8          797.19272      92.637676      386.71947      12269.305    
    483000   966            806.50752      93.720102      389.24938      13286.89     
    483100   966.2          801.79936      93.17299       391.26677      12558.751    
    483200   966.4          805.57606      93.611861      387.45993      13889.361    
    483300   966.6          760.34773      88.356109      382.22205      14006.902    
    483400   966.8          788.03076      91.573012      382.27561      13481.809    
    483500   967            826.90087      96.089909      385.75648      13042.945    
    483600   967.2          816.96495      94.935306      386.88388      15147.85     
    483700   967.4          802.067        93.204092      386.5887       14550.793    
    483800   967.6          799.22808      92.874195      384.76767      12723.32     
    483900   967.8          786.31308      91.373409      383.84309      15423.459    
    484000   968            812.433        94.408671      384.3955       16412.787    
    484100   968.2          805.786        93.636258      386.07653      14838.091    
    484200   968.4          787.65454      91.529294      387.99079      14768.269    
    484300   968.6          814.68677      94.67057       387.47385      15398.76     
    484400   968.8          765.59803      88.96622       381.85981      12707.779    
    484500   969            799.33371      92.88647       379.93149      14089.468    
    484600   969.2          776.70082      90.256418      382.85918      18191.674    
    484700   969.4          791.62111      91.990228      387.28294      13709.824    
    484800   969.6          793.6759       92.229005      387.30679      13085.888    
    484900   969.8          812.2573       94.388255      385.40796      14734.8      
    485000   970            802.00239      93.196583      382.38576      15771.865    
    485100   970.2          795.76033      92.471226      379.11513      16368.453    
    485200   970.4          770.02826      89.481034      375.95678      11925.618    
    485300   970.6          776.44313      90.226473      377.11084      16461.905    
    485400   970.8          802.52606      93.257437      383.56468      13371.878    
    485500   971            832.10929      96.695152      386.55825      13830.21     
    485600   971.2          829.66833      96.411501      386.81289      14056.716    
    485700   971.4          823.1441       95.653353      384.1305       14175.134    
    485800   971.6          765.10919      88.909415      378.95741      14068.764    
    485900   971.8          796.85666      92.598625      379.01128      14290.002    
    486000   972            790.66329      91.878925      384.01168      14392.725    
    486100   972.2          811.31412      94.278652      386.35519      14253.979    
    486200   972.4          823.69697      95.717599      384.57945      14805.306    
    486300   972.6          792.82332      92.129931      381.96059      11770.763    
    486400   972.8          777.63219      90.364648      381.86141      14715.75     
    486500   973            803.92567      93.420078      385.27887      12806.232    
    486600   973.2          825.83906      95.966521      390.26849      12023.434    
    486700   973.4          839.04863      97.501538      390.92301      16335.961    
    486800   973.6          803.67038      93.390412      385.73429      13405.601    
    486900   973.8          772.34922      89.750741      381.38446      13672.544    
    487000   974            797.73446      92.70063       382.32172      14423.382    
    487100   974.2          796.08663      92.509144      385.67056      12076.253    
    487200   974.4          824.72338      95.836874      388.55183      12966.403    
    487300   974.6          802.48532      93.252703      388.20602      14143.421    
    487400   974.8          757.41615      88.015445      380.93282      12782.05     
    487500   975            764.54874      88.844288      379.85983      13866.485    
    487600   975.2          766.73156      89.097941      383.45872      13156.411    
    487700   975.4          824.05609      95.759331      386.99049      14866.713    
    487800   975.6          816.33029      94.861556      386.89278      15549.635    
    487900   975.8          816.31303      94.85955       384.84144      14985.495    
    488000   976            794.04566      92.271972      383.87964      13738.53     
    488100   976.2          810.1006       94.137635      384.12679      14914.843    
    488200   976.4          799.02425      92.85051       383.86548      14897.118    
    488300   976.6          795.0084       92.383848      383.53421      13170.477    
    488400   976.8          783.69479      91.069152      382.53177      14626.885    
    488500   977            802.26741      93.22738       381.58259      16479.443    
    488600   977.2          792.48988      92.091183      381.57448      11196.298    
    488700   977.4          823.68317      95.715996      384.69079      15851.245    
    488800   977.6          834.78802      97.006434      389.02641      15096.065    
    488900   977.8          812.68525      94.437985      390.0258       14960.217    
    489000   978            784.11496      91.117977      382.78205      14917.082    
    489100   978.2          783.14994      91.005838      380.86429      13792.779    
    489200   978.4          784.53092      91.166313      382.94811      13763.783    
    489300   978.6          831.69921      96.647499      386.65005      11838.032    
    489400   978.8          825.50504      95.927706      389.04172      15162.318    
    489500   979            798.57917      92.798789      384.62319      14311.962    
    489600   979.2          773.79021      89.918191      378.56567      13537.632    
    489700   979.4          774.35984      89.984385      379.34995      12927.722    
    489800   979.6          797.62646      92.68808       383.95114      13876.837    
    489900   979.8          837.59258      97.332337      386.12509      13967.601    
    490000   980            801.83388      93.177002      385.82085      9438.9987    
    490100   980.2          767.58271      89.196849      382.78338      14640.39     
    490200   980.4          801.17631      93.10059       376.94694      15777.886    
    490300   980.6          767.473        89.1841        378.81059      13155.319    
    490400   980.8          805.6141       93.616283      384.07565      15989.755    
    490500   981            807.4442       93.828948      385.48774      14336.084    
    490600   981.2          825.84715      95.967461      386.89925      11991.856    
    490700   981.4          795.08412      92.392647      386.80058      12300.949    
    490800   981.6          780.84828      90.738373      382.34363      13672.716    
    490900   981.8          743.36587      86.382734      379.00026      15689.472    
    491000   982            755.59797      87.804164      381.07513      14061.845    
    491100   982.2          800.52801      93.025253      386.47457      16351.559    
    491200   982.4          805.26171      93.575333      386.96007      12287.351    
    491300   982.6          808.8434       93.991542      385.12325      11891.674    
    491400   982.8          782.48789      90.928904      382.22555      14488.879    
    491500   983            767.01971      89.131425      382.02738      13701.503    
    491600   983.2          825.24085      95.897005      384.3845       15294.51     
    491700   983.4          848.41224      98.589634      391.87984      17681.977    
    491800   983.6          826.75911      96.073435      391.15458      13729.788    
    491900   983.8          825.98309      95.983258      386.12389      15847.755    
    492000   984            796.66525      92.576382      384.6618       13049.145    
    492100   984.2          812.58658      94.426518      384.97149      14764.119    
    492200   984.4          794.6159       92.338238      386.81774      16170.216    
    492300   984.6          823.06076      95.643669      391.19516      13606.769    
    492400   984.8          795.15517      92.400904      390.1042       17028.413    
    492500   985            763.39124      88.70978       383.47025      15093.596    
    492600   985.2          803.50567      93.371272      382.30609      15532.878    
    492700   985.4          785.6423       91.295462      383.46607      14049.61     
    492800   985.6          806.13865      93.677237      387.33732      13618.775    
    492900   985.8          816.03556      94.827307      391.11526      17228.139    
    493000   986            821.31988      95.44137       391.70259      11632.081    
    493100   986.2          777.84799      90.389725      384.56599      14229.198    
    493200   986.4          772.331        89.748624      382.26275      13241.72     
    493300   986.6          793.12602      92.165107      383.14512      11384.467    
    493400   986.8          798.86048      92.831478      386.56033      14861.297    
    493500   987            825.19945      95.892195      391.15581      14429.98     
    493600   987.2          772.58766      89.778448      389.26401      15239.535    
    493700   987.4          802.24666      93.224969      383.27096      14623.714    
    493800   987.6          779.13009      90.538711      383.22885      13888.91     
    493900   987.8          798.72064      92.815228      384.3474       14284.274    
    494000   988            817.77593      95.029546      386.8301       13900.643    
    494100   988.2          813.20981      94.498941      387.37984      14559.867    
    494200   988.4          794.58287      92.334399      383.30528      14020.7      
    494300   988.6          819.16109      95.190509      380.05208      14804.089    
    494400   988.8          759.18619      88.221132      382.3838       14073.969    
    494500   989            806.85133      93.760054      388.32869      14154.543    
    494600   989.2          811.94619      94.352101      388.48379      14796.804    
    494700   989.4          804.70399      93.510522      385.78068      13264.951    
    494800   989.6          780.93023      90.747896      383.06122      13399.406    
    494900   989.8          763.92581      88.771899      382.59453      15151.336    
    495000   990            819.78715      95.263259      389.43228      15813.939    
    495100   990.2          809.63362      94.083369      391.6757       17526.912    
    495200   990.4          822.17719      95.540994      387.09887      14253.072    
    495300   990.6          807.58517      93.84533       384.04581      15472.028    
    495400   990.8          800.67765      93.042643      382.72834      11960.885    
    495500   991            782.18126      90.893272      383.25853      13787.382    
    495600   991.2          817.97157      95.052281      390.17297      15717.732    
    495700   991.4          831.96633      96.678539      391.80565      13305.942    
    495800   991.6          816.94815      94.933354      387.7531       15015.638    
    495900   991.8          800.84474      93.062059      383.70114      14697.017    
    496000   992            777.17694      90.311745      383.79588      12980.52     
    496100   992.2          800.16111      92.982618      385.49656      16032.868    
    496200   992.4          786.33404      91.375845      386.65288      15028.128    
    496300   992.6          820.72082      95.371757      387.60955      15202.879    
    496400   992.8          803.73115      93.397474      382.40209      13391.386    
    496500   993            781.40877      90.803505      378.53635      14029.847    
    496600   993.2          778.37203      90.450621      382.13592      13473.406    
    496700   993.4          849.34365      98.697869      386.51168      11854.427    
    496800   993.6          813.51719      94.53466       387.04319      14157.73     
    496900   993.8          812.21329      94.38314       384.41645      14473.125    
    497000   994            765.29764      88.931314      378.31572      14789.44     
    497100   994.2          812.08642      94.368397      378.36665      13060.206    
    497200   994.4          771.43731      89.644772      380.53         14244.804    
    497300   994.6          808.6903       93.973752      383.9347       13440.909    
    497400   994.8          790.24104      91.829857      386.28187      12693.817    
    497500   995            800.14615      92.98088       386.88467      13153.209    
    497600   995.2          787.86557      91.553817      383.33281      14874.781    
    497700   995.4          788.91463      91.675723      379.9579       13015.714    
    497800   995.6          787.23735      91.480814      380.46693      13241.07     
    497900   995.8          780.55299      90.704058      385.58933      13031.053    
    498000   996            811.71644      94.325404      388.84052      15584.161    
    498100   996.2          857.43265      99.63785       387.21678      13737.997    
    498200   996.4          812.82601      94.454342      384.6664       12531.191    
    498300   996.6          802.81079      93.290524      384.03442      14340.042    
    498400   996.8          840.95852      97.723475      383.96622      15837.153    
    498500   997            807.64726      93.852545      381.97049      16350.963    
    498600   997.2          794.79566      92.359126      376.7714       13945.321    
    498700   997.4          770.88579      89.580684      377.48711      12255.266    
    498800   997.6          810.03625      94.130157      384.00303      15197.688    
    498900   997.8          817.99458      95.054954      385.06783      14829.21     
    499000   998            821.30455      95.439588      384.91813      12639.226    
    499100   998.2          795.76956      92.472299      384.06579      16273.288    
    499200   998.4          783.59056      91.05704       380.68125      11300.651    
    499300   998.6          803.66978      93.390343      378.02611      14751.557    
    499400   998.8          780.37866      90.683801      381.55759      17445.319    
    499500   999            806.11357      93.674323      387.16761      11353.816    
    499600   999.2          827.24347      96.129721      386.87844      15552.229    
    499700   999.4          809.39414      94.055541      384.35823      15160.126    
    499800   999.6          787.53892      91.515858      381.54957      12885.2      
    499900   999.8          738.84106      85.85693       376.21409      14936.803    
    500000   1000           747.56118      86.87025       373.71034      11178.636    
Loop time of 327.223 on 1 procs for 500000 steps with 900 atoms

Performance: 264.040 ns/day, 0.091 hours/ns, 1528.011 timesteps/s
54.2% CPU use with 1 MPI tasks x no OpenMP threads

MPI task timing breakdown:
Section |  min time  |  avg time  |  max time  |%varavg| %total
---------------------------------------------------------------
Pair    | 209.38     | 209.38     | 209.38     |   0.0 | 63.99
Neigh   | 105.52     | 105.52     | 105.52     |   0.0 | 32.25
Comm    | 3.9719     | 3.9719     | 3.9719     |   0.0 |  1.21
Output  | 2.139      | 2.139      | 2.139      |   0.0 |  0.65
Modify  | 5.5194     | 5.5194     | 5.5194     |   0.0 |  1.69
Other   |            | 0.6866     |            |       |  0.21

Nlocal:            900 ave         900 max         900 min
Histogram: 1 0 0 0 0 0 0 0 0 0
Nghost:           2802 ave        2802 max        2802 min
Histogram: 1 0 0 0 0 0 0 0 0 0
Neighs:              0 ave           0 max           0 min
Histogram: 1 0 0 0 0 0 0 0 0 0
FullNghs:        96688 ave       96688 max       96688 min
Histogram: 1 0 0 0 0 0 0 0 0 0

Total # of neighbors = 96688
Ave neighs/atom = 107.43111
Neighbor list builds = 50000
Dangerous builds not checked

Total wall time: 0:05:46
