ITEM: TIMESTEP
0
ITEM: NUMBER OF ATOMS
48
ITEM: BOX BOUNDS xy xz yz pp pp pp
-5.0219048857688904e+00 8.6109705567359924e+00 2.5110912919044495e+00
-1.0506033897399902e-02 9.6185076832771301e+00 -5.0073480606079102e+00
-2.6944518089294434e-02 1.9544072151184082e+01 3.6519104242324829e-01
ITEM: ATOMS id type xs ys zs fx fy fz
1 1 0.948346 0.165578 0.0319985 0 0 2.75546
2 1 0.502483 0.0752984 0.0528317 0 0 -0.0612173
3 1 0.572453 0.123911 0.656998 0 0 -0.00306785
4 1 0.776233 0.950298 0.927832 0 0 -2.75546
5 1 0.451411 0.158632 0.802832 0 0 -0.00021112
6 1 0.222096 0.040578 0.906998 0 0 0.0612172
7 1 0.897275 0.248911 0.781998 0 0 0.0079782
8 1 0.92281 0.207245 0.406998 0 0 0.00110471
9 1 0.12659 0.0336318 0.677832 0 0 -0.00704646
10 1 0.801769 0.241965 0.552832 0 0 -0.00110435
11 1 0.827304 0.200298 0.177832 0 0 -0.00797796
12 1 0.597989 0.0822446 0.281998 0 0 0.00704634
13 1 0.273167 0.290578 0.156998 0 0 0.000211239
14 1 0.476947 0.116965 0.427832 0 0 0.000421762
15 1 0.948346 0.498911 0.0319984 0 0 2.75546
16 1 0.502483 0.408632 0.0528317 0 0 -0.0612173
17 1 0.572453 0.457245 0.656998 0 0 -0.00306821
18 1 0.776233 0.283632 0.927832 0 0 -2.75546
19 1 0.451411 0.491965 0.802832 0 0 -0.000211239
20 1 0.222096 0.373911 0.906998 0 0 0.0612174
21 1 0.897275 0.582245 0.781998 0 0 0.00797749
22 1 0.247632 0.332245 0.531998 0 0 -0.000420809
23 1 0.92281 0.540578 0.406998 0 0 0.00110471
24 1 0.12659 0.366965 0.677832 0 0 -0.00704622
25 1 0.801769 0.575298 0.552832 0 0 -0.00110483
26 1 0.152126 0.325298 0.302832 0 0 0.00306773
27 1 0.827304 0.533632 0.177832 0 0 -0.00797844
28 1 0.597989 0.415578 0.281998 0 0 0.00704634
29 1 0.273167 0.623911 0.156998 0 0 0.00021112
30 1 0.476947 0.450298 0.427832 0 0 0.000421166
31 1 0.948346 0.832245 0.0319985 0 0 2.75546
32 1 0.502483 0.741965 0.0528317 0 0 -0.0612174
33 1 0.572453 0.790578 0.656998 0 0 -0.00306797
34 1 0.776233 0.616965 0.927832 0 0 -2.75546
35 1 0.451411 0.825298 0.802832 0 0 -0.000210762
36 1 0.222096 0.707245 0.906998 0 0 0.0612175
37 1 0.897275 0.915578 0.781998 0 0 0.0079776
38 1 0.247632 0.665578 0.531998 0 0 -0.000422001
39 1 0.92281 0.873911 0.406998 0 0 0.00110495
40 1 0.12659 0.700298 0.677832 0 0 -0.00704551
41 1 0.801769 0.908632 0.552832 0 0 -0.00110567
42 1 0.152126 0.658632 0.302832 0 0 0.00306821
43 1 0.827304 0.866965 0.177832 0 0 -0.00797808
44 1 0.597989 0.748911 0.281998 0 0 0.00704634
45 1 0.273167 0.957245 0.156998 0 0 0.000210762
46 1 0.476947 0.783632 0.427832 0 0 0.000421762
47 1 0.247632 0.998911 0.531998 0 0 -0.000421524
48 1 0.152126 0.991965 0.302832 0 0 0.00306809
ITEM: TIMESTEP
1
ITEM: NUMBER OF ATOMS
48
ITEM: BOX BOUNDS xy xz yz pp pp pp
-5.0219048857688904e+00 8.6109705567359924e+00 2.5110912919044495e+00
-1.0506033897399902e-02 9.6185076832771301e+00 -5.0073480606079102e+00
-2.6944518089294434e-02 1.9544072151184082e+01 3.6519104242324829e-01
ITEM: ATOMS id type xs ys zs fx fy fz
1 1 0.952613 0.165377 0.037108 0 0 1.4044
2 1 0.502388 0.0753029 0.0527182 0 0 -0.0636851
3 1 0.572448 0.123912 0.656993 0 0 -0.00704503
4 1 0.771966 0.9505 0.922722 0 0 -1.4044
5 1 0.451411 0.158632 0.802831 0 0 -0.0786467
6 1 0.222191 0.0405735 0.907112 0 0 0.0636846
7 1 0.897287 0.248911 0.782013 0 0 -0.0480785
8 1 0.922812 0.207245 0.407001 0 0 -7.15256e-05
9 1 0.126579 0.0336323 0.677819 0 0 -0.0111805
10 1 0.801767 0.241965 0.55283 0 0 7.14064e-05
11 1 0.827292 0.200299 0.177817 0 0 0.0480789
12 1 0.598 0.0822441 0.282012 0 0 0.0111802
13 1 0.273168 0.290578 0.156999 0 0 0.0786464
14 1 0.476948 0.116965 0.427832 0 0 -0.000465155
15 1 0.952613 0.49871 0.037108 0 0 1.4044
16 1 0.502388 0.408636 0.0527182 0 0 -0.0636851
17 1 0.572448 0.457245 0.656993 0 0 -0.00704491
18 1 0.771966 0.283833 0.922722 0 0 -1.4044
19 1 0.451411 0.491965 0.802831 0 0 -0.0786469
20 1 0.222191 0.373907 0.907112 0 0 0.0636848
21 1 0.897287 0.582244 0.782013 0 0 -0.0480791
22 1 0.247631 0.332245 0.531998 0 0 0.000465751
23 1 0.922812 0.540578 0.407001 0 0 -7.1764e-05
24 1 0.126579 0.366966 0.677819 0 0 -0.0111803
25 1 0.801767 0.575299 0.55283 0 0 7.15256e-05
26 1 0.152131 0.325298 0.302837 0 0 0.00704539
27 1 0.827292 0.533632 0.177817 0 0 0.0480783
28 1 0.598 0.415577 0.282012 0 0 0.0111798
29 1 0.273168 0.623911 0.156999 0 0 0.0786464
30 1 0.476948 0.450298 0.427832 0 0 -0.000465274
31 1 0.952613 0.832043 0.037108 0 0 1.4044
32 1 0.502388 0.74197 0.0527182 0 0 -0.0636848
33 1 0.572448 0.790578 0.656993 0 0 -0.00704515
34 1 0.771966 0.617167 0.922722 0 0 -1.4044
35 1 0.451411 0.825298 0.802831 0 0 -0.0786465
36 1 0.222191 0.70724 0.907112 0 0 0.0636847
37 1 0.897287 0.915577 0.782013 0 0 -0.0480791
38 1 0.247631 0.665578 0.531998 0 0 0.000465393
39 1 0.922812 0.873911 0.407001 0 0 -7.11679e-05
40 1 0.126579 0.700299 0.677819 0 0 -0.0111794
41 1 0.801767 0.908632 0.55283 0 0 7.08103e-05
42 1 0.15213 0.658631 0.302837 0 0 0.00704527
43 1 0.827292 0.866966 0.177817 0 0 0.0480787
44 1 0.598 0.748911 0.282012 0 0 0.01118
45 1 0.273168 0.957245 0.156999 0 0 0.0786464
46 1 0.476948 0.783632 0.427832 0 0 -0.000464797
47 1 0.247631 0.998911 0.531998 0 0 0.000464916
48 1 0.15213 0.991965 0.302837 0 0 0.00704551
ITEM: TIMESTEP
2
ITEM: NUMBER OF ATOMS
48
ITEM: BOX BOUNDS xy xz yz pp pp pp
-5.0219048857688904e+00 8.6109705567359924e+00 2.5110912919044495e+00
-1.0506033897399902e-02 9.6185076832771301e+00 -5.0073480606079102e+00
-2.6944518089294434e-02 1.9544072151184082e+01 3.6519104242324829e-01
ITEM: ATOMS id type xs ys zs fx fy fz
1 1 0.95688 0.165175 0.0422176 0 0 0.414168
2 1 0.502194 0.075312 0.0524865 0 0 -0.0561063
3 1 0.572427 0.123913 0.656967 0 0 -0.0110502
4 1 0.767698 0.950701 0.917613 0 0 -0.414168
5 1 0.451172 0.158643 0.802545 0 0 -0.161783
6 1 0.222384 0.0405644 0.907344 0 0 0.0561063
7 1 0.897141 0.248918 0.781838 0 0 -0.116909
8 1 0.922812 0.207245 0.407 0 0 -9.83477e-05
9 1 0.126545 0.0336339 0.677778 0 0 -0.0171888
10 1 0.801767 0.241965 0.55283 0 0 9.84669e-05
11 1 0.827438 0.200292 0.177992 0 0 0.116909
12 1 0.598034 0.0822425 0.282052 0 0 0.0171887
13 1 0.273407 0.290567 0.157285 0 0 0.161783
14 1 0.476946 0.116965 0.427831 0 0 -9.65595e-05
15 1 0.95688 0.498508 0.0422176 0 0 0.414169
16 1 0.502194 0.408645 0.0524865 0 0 -0.0561067
17 1 0.572427 0.457246 0.656967 0 0 -0.0110505
18 1 0.767698 0.284035 0.917613 0 0 -0.414168
19 1 0.451172 0.491976 0.802545 0 0 -0.161783
20 1 0.222384 0.373898 0.907344 0 0 0.0561067
21 1 0.897141 0.582251 0.781838 0 0 -0.116909
22 1 0.247632 0.332245 0.531999 0 0 9.69172e-05
23 1 0.922812 0.540578 0.407 0 0 -9.84669e-05
24 1 0.126545 0.366967 0.677778 0 0 -0.0171885
25 1 0.801767 0.575298 0.55283 0 0 9.82285e-05
26 1 0.152152 0.325297 0.302863 0 0 0.0110501
27 1 0.827438 0.533625 0.177992 0 0 0.116909
28 1 0.598034 0.415576 0.282052 0 0 0.0171889
29 1 0.273407 0.6239 0.157285 0 0 0.161783
30 1 0.476946 0.450298 0.427831 0 0 -9.70364e-05
31 1 0.95688 0.831842 0.0422176 0 0 0.414168
32 1 0.502194 0.741979 0.0524865 0 0 -0.0561066
33 1 0.572427 0.790579 0.656967 0 0 -0.0110505
34 1 0.767698 0.617368 0.917613 0 0 -0.414168
35 1 0.451172 0.82531 0.802545 0 0 -0.161783
36 1 0.222384 0.707231 0.907344 0 0 0.0561066
37 1 0.897141 0.915584 0.781838 0 0 -0.11691
38 1 0.247632 0.665578 0.531999 0 0 9.69172e-05
39 1 0.922812 0.873911 0.407 0 0 -9.76324e-05
40 1 0.126545 0.700301 0.677778 0 0 -0.0171884
41 1 0.801767 0.908632 0.55283 0 0 9.76324e-05
42 1 0.152152 0.65863 0.302863 0 0 0.0110503
43 1 0.827438 0.866959 0.177992 0 0 0.116909
44 1 0.598034 0.748909 0.282052 0 0 0.0171889
45 1 0.273407 0.957233 0.157285 0 0 0.161783
46 1 0.476946 0.783632 0.427831 0 0 -9.69172e-05
47 1 0.247632 0.998911 0.531999 0 0 9.69172e-05
48 1 0.152152 0.991964 0.302863 0 0 0.0110506
ITEM: TIMESTEP
3
ITEM: NUMBER OF ATOMS
48
ITEM: BOX BOUNDS xy xz yz pp pp pp
-5.0219048857688904e+00 8.6109705567359924e+00 2.5110912919044495e+00
-1.0506033897399902e-02 9.6185076832771301e+00 -5.0073480606079102e+00
-2.6944518089294434e-02 1.9544072151184082e+01 3.6519104242324829e-01
ITEM: ATOMS id type xs ys zs fx fy fz
1 1 0.960197 0.165019 0.0461888 0 0 -0.121212
2 1 0.501745 0.0753332 0.0519485 0 0 -0.00518513
3 1 0.572338 0.123917 0.656861 0 0 -0.0361346
4 1 0.764382 0.950858 0.913641 0 0 0.121213
5 1 0.449877 0.158704 0.800994 0 0 -0.159732
6 1 0.222834 0.0405432 0.907882 0 0 0.00518489
7 1 0.896205 0.248962 0.780717 0 0 -0.129928
8 1 0.922811 0.207245 0.406999 0 0 0.00446284
9 1 0.126408 0.0336404 0.677613 0 0 -0.041281
10 1 0.801768 0.241965 0.552831 0 0 -0.00446296
11 1 0.828374 0.200248 0.179113 0 0 0.129928
12 1 0.598171 0.082236 0.282217 0 0 0.0412813
13 1 0.274702 0.290505 0.158836 0 0 0.159731
14 1 0.476946 0.116965 0.42783 0 0 0.00551641
15 1 0.960197 0.498352 0.0461888 0 0 -0.121213
16 1 0.501745 0.408667 0.0519485 0 0 -0.00518489
17 1 0.572338 0.45725 0.656861 0 0 -0.0361346
18 1 0.764382 0.284191 0.913641 0 0 0.121212
19 1 0.449877 0.492038 0.800994 0 0 -0.159732
20 1 0.222834 0.373876 0.907882 0 0 0.00518501
21 1 0.896205 0.582295 0.780717 0 0 -0.129928
22 1 0.247633 0.332245 0.532 0 0 -0.00551581
23 1 0.922811 0.540578 0.406999 0 0 0.00446296
24 1 0.126408 0.366974 0.677613 0 0 -0.0412809
25 1 0.801768 0.575298 0.552831 0 0 -0.00446296
26 1 0.15224 0.325293 0.302969 0 0 0.0361345
27 1 0.828374 0.533581 0.179113 0 0 0.129928
28 1 0.598171 0.415569 0.282217 0 0 0.0412811
29 1 0.274702 0.623839 0.158836 0 0 0.159731
30 1 0.476946 0.450298 0.42783 0 0 0.00551593
31 1 0.960197 0.831685 0.0461888 0 0 -0.121213
32 1 0.501745 0.742 0.0519485 0 0 -0.00518489
33 1 0.572338 0.790583 0.656861 0 0 -0.0361348
34 1 0.764382 0.617524 0.913641 0 0 0.121213
35 1 0.449877 0.825371 0.800994 0 0 -0.159731
36 1 0.222834 0.70721 0.907882 0 0 0.00518513
37 1 0.896205 0.915628 0.780717 0 0 -0.129928
38 1 0.247633 0.665578 0.532 0 0 -0.00551605
39 1 0.922811 0.873911 0.406999 0 0 0.00446284
40 1 0.126408 0.700307 0.677613 0 0 -0.0412809
41 1 0.801768 0.908632 0.552831 0 0 -0.00446272
42 1 0.15224 0.658626 0.302969 0 0 0.0361346
43 1 0.828374 0.866915 0.179113 0 0 0.129928
44 1 0.598171 0.748903 0.282217 0 0 0.0412816
45 1 0.274702 0.957172 0.158836 0 0 0.159731
46 1 0.476946 0.783632 0.42783 0 0 0.00551605
47 1 0.247633 0.998911 0.532 0 0 -0.00551629
48 1 0.15224 0.99196 0.302969 0 0 0.0361347
ITEM: TIMESTEP
4
ITEM: NUMBER OF ATOMS
48
ITEM: BOX BOUNDS xy xz yz pp pp pp
-5.0219048857688904e+00 8.6109705567359924e+00 2.5110912919044495e+00
-1.0506033897399902e-02 9.6185076832771301e+00 -5.0073480606079102e+00
-2.6944518089294434e-02 1.9544072151184082e+01 3.6519104242324829e-01
ITEM: ATOMS id type xs ys zs fx fy fz
1 1 0.960327 0.165012 0.0463443 0 0 -0.00802851
2 1 0.501439 0.0753477 0.0515815 0 0 0.0736814
3 1 0.571809 0.123942 0.656227 0 0 -0.0822965
4 1 0.764252 0.950864 0.913486 0 0 0.00802779
5 1 0.447057 0.158837 0.797618 0 0 0.024726
6 1 0.22314 0.0405287 0.908249 0 0 -0.0736817
7 1 0.893973 0.249067 0.778045 0 0 0.00678074
8 1 0.92287 0.207242 0.40707 0 0 0.0180676
9 1 0.125783 0.0336699 0.676865 0 0 -0.0803756
10 1 0.801709 0.241968 0.55276 0 0 -0.0180677
11 1 0.830606 0.200143 0.181785 0 0 -0.00678098
12 1 0.598796 0.0822065 0.282965 0 0 0.0803754
13 1 0.277522 0.290372 0.162213 0 0 -0.0247257
14 1 0.477019 0.116962 0.427918 0 0 0.0209905
15 1 0.960327 0.498346 0.0463443 0 0 -0.00802851
16 1 0.501439 0.408681 0.0515815 0 0 0.0736817
17 1 0.571809 0.457275 0.656227 0 0 -0.0822963
18 1 0.764252 0.284197 0.913486 0 0 0.00802827
19 1 0.447057 0.492171 0.797618 0 0 0.024726
20 1 0.22314 0.373862 0.908249 0 0 -0.0736817
21 1 0.893973 0.582401 0.778045 0 0 0.00678086
22 1 0.24756 0.332248 0.531912 0 0 -0.0209906
23 1 0.92287 0.540575 0.40707 0 0 0.0180676
24 1 0.125783 0.367003 0.676865 0 0 -0.0803754
25 1 0.801709 0.575301 0.55276 0 0 -0.0180678
26 1 0.15277 0.325268 0.303603 0 0 0.0822964
27 1 0.830606 0.533476 0.181785 0 0 -0.00678086
28 1 0.598796 0.41554 0.282965 0 0 0.0803752
29 1 0.277522 0.623706 0.162213 0 0 -0.0247254
30 1 0.477019 0.450295 0.427918 0 0 0.0209908
31 1 0.960327 0.831679 0.0463443 0 0 -0.00802767
32 1 0.501439 0.742014 0.0515815 0 0 0.0736818
33 1 0.571809 0.790608 0.656227 0 0 -0.0822961
34 1 0.764252 0.617531 0.913486 0 0 0.00802803
35 1 0.447057 0.825504 0.797618 0 0 0.0247259
36 1 0.22314 0.707195 0.908249 0 0 -0.0736818
37 1 0.893973 0.915734 0.778045 0 0 0.0067811
38 1 0.24756 0.665581 0.531912 0 0 -0.0209906
39 1 0.92287 0.873908 0.40707 0 0 0.018068
40 1 0.125783 0.700337 0.676865 0 0 -0.0803754
41 1 0.801709 0.908635 0.55276 0 0 -0.0180676
42 1 0.15277 0.658601 0.303603 0 0 0.0822963
43 1 0.830606 0.866809 0.181785 0 0 -0.00678051
44 1 0.598796 0.748873 0.282965 0 0 0.0803753
45 1 0.277522 0.957039 0.162213 0 0 -0.0247256
46 1 0.477019 0.783628 0.427918 0 0 0.0209911
47 1 0.24756 0.998915 0.531912 0 0 -0.0209908
48 1 0.15277 0.991935 0.303603 0 0 0.0822957
ITEM: TIMESTEP
5
ITEM: NUMBER OF ATOMS
48
ITEM: BOX BOUNDS xy xz yz pp pp pp
-5.0219048857688904e+00 8.6109705567359924e+00 2.5110912919044495e+00
-1.0506033897399902e-02 9.6185076832771301e+00 -5.0073480606079102e+00
-2.6944518089294434e-02 1.9544072151184082e+01 3.6519104242324829e-01
ITEM: ATOMS id type xs ys zs fx fy fz
1 1 0.960212 0.165018 0.0462074 0 0 0.0474313
2 1 0.502926 0.0752775 0.053363 0 0 -0.00843644
3 1 0.569715 0.124041 0.65372 0 0 0.00486135
4 1 0.764367 0.950859 0.913623 0 0 -0.0474303
5 1 0.446211 0.158877 0.796605 0 0 0.00540912
6 1 0.221652 0.0405989 0.906467 0 0 0.0084368
7 1 0.893019 0.249112 0.776903 0 0 -0.00923872
8 1 0.923302 0.207221 0.407587 0 0 0.0340103
9 1 0.123685 0.0337689 0.674353 0 0 0.0114042
10 1 0.801277 0.241988 0.552243 0 0 -0.0340105
11 1 0.83156 0.200097 0.182927 0 0 0.00923812
12 1 0.600894 0.0821075 0.285477 0 0 -0.0114043
13 1 0.278368 0.290332 0.163225 0 0 -0.00540924
14 1 0.477522 0.116938 0.42852 0 0 0.0387527
15 1 0.960212 0.498351 0.0462074 0 0 0.0474311
16 1 0.502926 0.408611 0.0533631 0 0 -0.0084368
17 1 0.569715 0.457374 0.65372 0 0 0.00486112
18 1 0.764367 0.284192 0.913623 0 0 -0.0474309
19 1 0.446211 0.492211 0.796605 0 0 0.00540924
20 1 0.221652 0.373932 0.906467 0 0 0.00843668
21 1 0.893019 0.582446 0.776903 0 0 -0.00923836
22 1 0.247056 0.332272 0.53131 0 0 -0.0387535
23 1 0.923302 0.540555 0.407587 0 0 0.0340106
24 1 0.123685 0.367102 0.674353 0 0 0.0114042
25 1 0.801277 0.575322 0.552243 0 0 -0.0340099
26 1 0.154864 0.325169 0.30611 0 0 -0.00486088
27 1 0.83156 0.533431 0.182927 0 0 0.00923872
28 1 0.600894 0.415441 0.285477 0 0 -0.0114043
29 1 0.278368 0.623666 0.163225 0 0 -0.00540912
30 1 0.477522 0.450271 0.42852 0 0 0.0387533
31 1 0.960212 0.831684 0.0462074 0 0 0.0474302
32 1 0.502926 0.741944 0.0533631 0 0 -0.00843704
33 1 0.569715 0.790707 0.65372 0 0 0.00486112
34 1 0.764367 0.617525 0.913623 0 0 -0.0474312
35 1 0.446211 0.825544 0.796605 0 0 0.00540888
36 1 0.221652 0.707266 0.906467 0 0 0.0084368
37 1 0.893019 0.915779 0.776903 0 0 -0.0092386
38 1 0.247056 0.665605 0.53131 0 0 -0.0387532
39 1 0.923302 0.873888 0.407587 0 0 0.0340098
40 1 0.123685 0.700436 0.674353 0 0 0.0114038
41 1 0.801277 0.908655 0.552243 0 0 -0.0340102
42 1 0.154864 0.658502 0.30611 0 0 -0.00486112
43 1 0.83156 0.866764 0.182927 0 0 0.0092386
44 1 0.600894 0.748774 0.285477 0 0 -0.0114046
45 1 0.278368 0.956999 0.163225 0 0 -0.005409
46 1 0.477522 0.783605 0.42852 0 0 0.038753
47 1 0.247056 0.998938 0.53131 0 0 -0.0387523
48 1 0.154864 0.991836 0.30611 0 0 -0.00486052
ITEM: TIMESTEP
6
ITEM: NUMBER OF ATOMS
48
ITEM: BOX BOUNDS xy xz yz pp pp pp
-5.0219048857688904e+00 8.6109705567359924e+00 2.5110912919044495e+00
-1.0506033897399902e-02 9.6185076832771301e+00 -5.0073480606079102e+00
-2.6944518089294434e-02 1.9544072151184082e+01 3.6519104242324829e-01
ITEM: ATOMS id type xs ys zs fx fy fz
1 1 0.960642 0.164998 0.0467225 0 0 -0.0110543
2 1 0.503036 0.0752723 0.0534943 0 0 -0.013625
3 1 0.569495 0.124051 0.653456 0 0 0.00250554
4 1 0.763936 0.950879 0.913108 0 0 0.0110543
5 1 0.446155 0.15888 0.796537 0 0 -0.00879765
6 1 0.221543 0.0406041 0.906336 0 0 0.0136251
7 1 0.892812 0.249122 0.776655 0 0 -0.0126684
8 1 0.923675 0.207204 0.408034 0 0 0.00404477
9 1 0.123526 0.0337764 0.674163 0 0 0.00619197
10 1 0.800904 0.242006 0.551796 0 0 -0.00404441
11 1 0.831767 0.200088 0.183176 0 0 0.0126685
12 1 0.601053 0.0821 0.285667 0 0 -0.00619197
13 1 0.278424 0.29033 0.163293 0 0 0.00879788
14 1 0.47795 0.116918 0.429032 0 0 0.00717759
15 1 0.960643 0.498331 0.0467225 0 0 -0.011054
16 1 0.503036 0.408606 0.0534943 0 0 -0.013625
17 1 0.569495 0.457384 0.653456 0 0 0.00250542
18 1 0.763936 0.284212 0.913108 0 0 0.0110543
19 1 0.446155 0.492213 0.796537 0 0 -0.00879788
20 1 0.221543 0.373937 0.906336 0 0 0.0136249
21 1 0.892812 0.582455 0.776655 0 0 -0.012668
22 1 0.246629 0.332292 0.530798 0 0 -0.00717735
23 1 0.923675 0.540537 0.408034 0 0 0.00404441
24 1 0.123526 0.36711 0.674163 0 0 0.00619185
25 1 0.800904 0.575339 0.551796 0 0 -0.00404441
26 1 0.155084 0.325159 0.306374 0 0 -0.00250578
27 1 0.831767 0.533421 0.183176 0 0 0.0126686
28 1 0.601053 0.415433 0.285667 0 0 -0.00619209
29 1 0.278424 0.623663 0.163293 0 0 0.00879741
30 1 0.47795 0.450251 0.429032 0 0 0.00717759
31 1 0.960642 0.831664 0.0467225 0 0 -0.011054
32 1 0.503036 0.741939 0.0534944 0 0 -0.0136251
33 1 0.569495 0.790718 0.653456 0 0 0.00250554
34 1 0.763936 0.617546 0.913108 0 0 0.0110543
35 1 0.446155 0.825547 0.796537 0 0 -0.00879753
36 1 0.221543 0.707271 0.906336 0 0 0.013625
37 1 0.892812 0.915789 0.776655 0 0 -0.0126684
38 1 0.246629 0.665625 0.530798 0 0 -0.00717771
39 1 0.923675 0.87387 0.408034 0 0 0.00404429
40 1 0.123526 0.700443 0.674163 0 0 0.00619209
41 1 0.800904 0.908673 0.551796 0 0 -0.00404477
42 1 0.155084 0.658492 0.306374 0 0 -0.0025053
43 1 0.831767 0.866754 0.183176 0 0 0.012668
44 1 0.601053 0.748767 0.285667 0 0 -0.00619221
45 1 0.278424 0.956996 0.163293 0 0 0.00879729
46 1 0.47795 0.783584 0.429032 0 0 0.007177
47 1 0.246629 0.998959 0.530798 0 0 -0.00717747
48 1 0.155084 0.991825 0.306374 0 0 -0.00250483
ITEM: TIMESTEP
7
ITEM: NUMBER OF ATOMS
48
ITEM: BOX BOUNDS xy xz yz pp pp pp
-5.0219048857688904e+00 8.6109705567359924e+00 2.5110912919044495e+00
-1.0506033897399902e-02 9.6185076832771301e+00 -5.0073480606079102e+00
-2.6944518089294434e-02 1.9544072151184082e+01 3.6519104242324829e-01
ITEM: ATOMS id type xs ys zs fx fy fz
1 1 0.960584 0.165 0.0466518 0 0 0.00269997
2 1 0.502926 0.0752775 0.0533622 0 0 -0.00395966
3 1 0.569497 0.124051 0.653459 0 0 -0.00329399
4 1 0.763995 0.950876 0.913178 0 0 -0.00270009
5 1 0.446072 0.158884 0.796438 0 0 -0.000330687
6 1 0.221653 0.0405989 0.906468 0 0 0.00395966
7 1 0.892681 0.249128 0.776498 0 0 -0.00127876
8 1 0.923744 0.207201 0.408117 0 0 -0.00342655
9 1 0.123566 0.0337745 0.674211 0 0 -0.0014987
10 1 0.800835 0.242009 0.551713 0 0 0.00342643
11 1 0.831897 0.200082 0.183332 0 0 0.00127935
12 1 0.601013 0.0821019 0.285619 0 0 0.0014987
13 1 0.278507 0.290326 0.163392 0 0 0.000331044
14 1 0.478051 0.116913 0.429154 0 0 -0.00174701
15 1 0.960584 0.498334 0.0466518 0 0 0.00270045
16 1 0.502926 0.408611 0.0533622 0 0 -0.00395977
17 1 0.569497 0.457384 0.653459 0 0 -0.00329399
18 1 0.763995 0.284209 0.913178 0 0 -0.00270021
19 1 0.446072 0.492217 0.796438 0 0 -0.000330687
20 1 0.221653 0.373932 0.906468 0 0 0.0039593
21 1 0.892681 0.582461 0.776498 0 0 -0.001279
22 1 0.246528 0.332297 0.530677 0 0 0.00174737
23 1 0.923744 0.540534 0.408117 0 0 -0.00342655
24 1 0.123566 0.367108 0.674211 0 0 -0.00149858
25 1 0.800835 0.575343 0.551713 0 0 0.00342619
26 1 0.155081 0.325159 0.306371 0 0 0.00329399
27 1 0.831897 0.533415 0.183332 0 0 0.00127888
28 1 0.601013 0.415435 0.285619 0 0 0.00149858
29 1 0.278507 0.623659 0.163392 0 0 0.000330448
30 1 0.478051 0.450246 0.429154 0 0 -0.00174725
31 1 0.960584 0.831667 0.0466518 0 0 0.00270009
32 1 0.502926 0.741944 0.0533622 0 0 -0.00395989
33 1 0.569497 0.790718 0.653459 0 0 -0.00329411
34 1 0.763995 0.617543 0.913178 0 0 -0.00270021
35 1 0.446072 0.82555 0.796438 0 0 -0.000330448
36 1 0.221653 0.707266 0.906468 0 0 0.00395942
37 1 0.892681 0.915795 0.776498 0 0 -0.00127888
38 1 0.246528 0.66563 0.530677 0 0 0.00174737
39 1 0.923744 0.873867 0.408117 0 0 -0.00342619
40 1 0.123566 0.700441 0.674211 0 0 -0.0014987
41 1 0.800835 0.908676 0.551713 0 0 0.00342619
42 1 0.155081 0.658492 0.306371 0 0 0.00329387
43 1 0.831898 0.866748 0.183332 0 0 0.00127912
44 1 0.601013 0.748769 0.285619 0 0 0.00149858
45 1 0.278507 0.956993 0.163392 0 0 0.000331044
46 1 0.478051 0.78358 0.429154 0 0 -0.00174725
47 1 0.246528 0.998963 0.530677 0 0 0.00174725
48 1 0.155081 0.991826 0.306371 0 0 0.00329387
ITEM: TIMESTEP
8
ITEM: NUMBER OF ATOMS
48
ITEM: BOX BOUNDS xy xz yz pp pp pp
-5.0219048857688904e+00 8.6109705567359924e+00 2.5110912919044495e+00
-1.0506033897399902e-02 9.6185076832771301e+00 -5.0073480606079102e+00
-2.6944518089294434e-02 1.9544072151184082e+01 3.6519104242324829e-01
ITEM: ATOMS id type xs ys zs fx fy fz
1 1 0.96061 0.164999 0.0466838 0 0 -1.54972e-06
2 1 0.502864 0.0752804 0.0532885 0 0 0.000595689
3 1 0.569457 0.124053 0.653411 0 0 -0.000888348
4 1 0.763969 0.950877 0.913146 0 0 1.54972e-06
5 1 0.446058 0.158884 0.796422 0 0 -0.0003407
6 1 0.221715 0.040596 0.906542 0 0 -0.000595689
7 1 0.892651 0.24913 0.776462 0 0 7.60555e-05
8 1 0.92371 0.207202 0.408076 0 0 5.24521e-05
9 1 0.123552 0.0337751 0.674194 0 0 -0.000457168
10 1 0.800869 0.242008 0.551755 0 0 -5.20945e-05
11 1 0.831928 0.20008 0.183368 0 0 -7.66516e-05
12 1 0.601027 0.0821012 0.285636 0 0 0.000457168
13 1 0.27852 0.290325 0.163408 0 0 0.000340462
14 1 0.478041 0.116913 0.429142 0 0 0.000523329
15 1 0.96061 0.498332 0.0466838 0 0 -2.26498e-06
16 1 0.502864 0.408614 0.0532885 0 0 0.00059545
17 1 0.569457 0.457386 0.653411 0 0 -0.000888228
18 1 0.763969 0.284211 0.913146 0 0 2.02656e-06
19 1 0.446058 0.492218 0.796422 0 0 -0.0003407
20 1 0.221715 0.373929 0.906542 0 0 -0.000595331
21 1 0.892651 0.582463 0.776462 0 0 7.62939e-05
22 1 0.246538 0.332296 0.530689 0 0 -0.000524044
23 1 0.92371 0.540535 0.408076 0 0 5.24521e-05
24 1 0.123552 0.367108 0.674194 0 0 -0.000457287
25 1 0.800869 0.575341 0.551755 0 0 -5.20945e-05
26 1 0.155122 0.325157 0.306419 0 0 0.000888705
27 1 0.831928 0.533413 0.183368 0 0 -7.62939e-05
28 1 0.601027 0.415435 0.285636 0 0 0.000457525
29 1 0.27852 0.623659 0.163408 0 0 0.000340819
30 1 0.478041 0.450247 0.429142 0 0 0.00052309
31 1 0.96061 0.831666 0.0466838 0 0 -2.02656e-06
32 1 0.502864 0.741947 0.0532885 0 0 0.000595689
33 1 0.569457 0.790719 0.653411 0 0 -0.000888348
34 1 0.763969 0.617544 0.913146 0 0 2.26498e-06
35 1 0.446058 0.825551 0.796422 0 0 -0.000340581
36 1 0.221715 0.707263 0.906542 0 0 -0.00059545
37 1 0.892651 0.915796 0.776462 0 0 7.65324e-05
38 1 0.246538 0.66563 0.530689 0 0 -0.000523567
39 1 0.92371 0.873869 0.408076 0 0 5.20945e-05
40 1 0.123552 0.700442 0.674194 0 0 -0.000457168
41 1 0.800869 0.908674 0.551755 0 0 -5.19753e-05
42 1 0.155122 0.65849 0.306419 0 0 0.000888228
43 1 0.831928 0.866747 0.183368 0 0 -7.64132e-05
44 1 0.601027 0.748768 0.285636 0 0 0.000457406
45 1 0.27852 0.956992 0.163408 0 0 0.000340581
46 1 0.478041 0.78358 0.429142 0 0 0.000523329
47 1 0.246538 0.998963 0.530689 0 0 -0.000523686
48 1 0.155122 0.991824 0.306419 0 0 0.000888467
ITEM: TIMESTEP
9
ITEM: NUMBER OF ATOMS
48
ITEM: BOX BOUNDS xy xz yz pp pp pp
-5.0219048857688904e+00 8.6109705567359924e+00 2.5110912919044495e+00
-1.0506033897399902e-02 9.6185076832771301e+00 -5.0073480606079102e+00
-2.6944518089294434e-02 1.9544072151184082e+01 3.6519104242324829e-01
ITEM: ATOMS id type xs ys zs fx fy fz
1 1 0.960612 0.164999 0.0466857 0 0 -3.74317e-05
2 1 0.502875 0.0752799 0.0533015 0 0 -9.89437e-06
3 1 0.569433 0.124054 0.653382 0 0 0.000246406
4 1 0.763967 0.950877 0.913144 0 0 3.76701e-05
5 1 0.446049 0.158885 0.796411 0 0 -0.000386357
6 1 0.221704 0.0405965 0.906529 0 0 1.00136e-05
7 1 0.892651 0.24913 0.776462 0 0 -0.000665545
8 1 0.923709 0.207202 0.408075 0 0 0.000361085
9 1 0.12354 0.0337757 0.67418 0 0 -2.67029e-05
10 1 0.80087 0.242008 0.551756 0 0 -0.000361562
11 1 0.831928 0.20008 0.183368 0 0 0.000666738
12 1 0.601038 0.0821007 0.28565 0 0 2.64645e-05
13 1 0.27853 0.290325 0.163419 0 0 0.000386596
14 1 0.478053 0.116913 0.429156 0 0 0.000209212
15 1 0.960612 0.498332 0.0466857 0 0 -3.60012e-05
16 1 0.502875 0.408613 0.0533015 0 0 -9.41753e-06
17 1 0.569433 0.457387 0.653382 0 0 0.000246048
18 1 0.763967 0.284211 0.913145 0 0 3.67165e-05
19 1 0.446049 0.492218 0.796411 0 0 -0.000386119
20 1 0.221704 0.37393 0.906529 0 0 9.53674e-06
21 1 0.892651 0.582463 0.776462 0 0 -0.000665784
22 1 0.246526 0.332297 0.530674 0 0 -0.000208139
23 1 0.923709 0.540536 0.408075 0 0 0.000361323
24 1 0.12354 0.367109 0.67418 0 0 -2.70605e-05
25 1 0.80087 0.575341 0.551756 0 0 -0.000361443
26 1 0.155146 0.325156 0.306448 0 0 -0.000247002
27 1 0.831928 0.533413 0.183368 0 0 0.000665665
28 1 0.601038 0.415434 0.28565 0 0 2.64645e-05
29 1 0.27853 0.623658 0.163419 0 0 0.000386119
30 1 0.478053 0.450246 0.429156 0 0 0.000209212
31 1 0.960612 0.831666 0.0466857 0 0 -3.68357e-05
32 1 0.502875 0.741947 0.0533015 0 0 -9.53674e-06
33 1 0.569433 0.790721 0.653382 0 0 0.000246644
34 1 0.763967 0.617544 0.913145 0 0 3.60012e-05
35 1 0.446049 0.825552 0.796411 0 0 -0.000386834
36 1 0.221704 0.707263 0.906529 0 0 9.65595e-06
37 1 0.892651 0.915796 0.776462 0 0 -0.000666499
38 1 0.246526 0.66563 0.530674 0 0 -0.000208855
39 1 0.923709 0.873869 0.408075 0 0 0.000361681
40 1 0.12354 0.700442 0.67418 0 0 -2.68221e-05
41 1 0.80087 0.908674 0.551756 0 0 -0.000361443
42 1 0.155146 0.658489 0.306448 0 0 -0.000246286
43 1 0.831928 0.866747 0.183368 0 0 0.000665903
44 1 0.601038 0.748767 0.28565 0 0 2.65837e-05
45 1 0.278529 0.956991 0.163419 0 0 0.000386357
46 1 0.478053 0.78358 0.429156 0 0 0.000208616
47 1 0.246526 0.998964 0.530674 0 0 -0.000208497
48 1 0.155146 0.991822 0.306448 0 0 -0.000246644
ITEM: TIMESTEP
10
ITEM: NUMBER OF ATOMS
48
ITEM: BOX BOUNDS xy xz yz pp pp pp
-5.0219048857688904e+00 8.6109705567359924e+00 2.5110912919044495e+00
-1.0506033897399902e-02 9.6185076832771301e+00 -5.0073480606079102e+00
-2.6944518089294434e-02 1.9544072151184082e+01 3.6519104242324829e-01
ITEM: ATOMS id type xs ys zs fx fy fz
1 1 0.960612 0.164999 0.0466855 0 0 0.000400662
2 1 0.502878 0.0752797 0.0533052 0 0 -9.05991e-06
3 1 0.569429 0.124054 0.653378 0 0 -1.84774e-05
4 1 0.763967 0.950877 0.913145 0 0 -0.000401378
5 1 0.446041 0.158885 0.796401 0 0 5.03063e-05
6 1 0.221701 0.0405966 0.906525 0 0 8.9407e-06
7 1 0.89264 0.24913 0.776449 0 0 -0.000159144
8 1 0.923714 0.207202 0.408081 0 0 -4.70877e-05
9 1 0.123536 0.0337759 0.674175 0 0 -0.00022316
10 1 0.800865 0.242008 0.551749 0 0 4.70877e-05
11 1 0.831938 0.20008 0.183381 0 0 0.000159025
12 1 0.601043 0.0821005 0.285655 0 0 0.00022316
13 1 0.278538 0.290324 0.16343 0 0 -5.05447e-05
14 1 0.47806 0.116913 0.429164 0 0 -0.000265598
15 1 0.960612 0.498332 0.0466855 0 0 0.000399947
16 1 0.502878 0.408613 0.0533052 0 0 -8.9407e-06
17 1 0.569429 0.457387 0.653378 0 0 -1.80006e-05
18 1 0.763967 0.284211 0.913145 0 0 -0.000400543
19 1 0.446041 0.492219 0.796401 0 0 5.00679e-05
20 1 0.221701 0.37393 0.906525 0 0 9.05991e-06
21 1 0.89264 0.582463 0.776449 0 0 -0.000159383
22 1 0.246519 0.332297 0.530666 0 0 0.000265718
23 1 0.923714 0.540535 0.408081 0 0 -4.68493e-05
24 1 0.123536 0.367109 0.674175 0 0 -0.000222802
25 1 0.800865 0.575341 0.551749 0 0 4.673e-05
26 1 0.155149 0.325156 0.306452 0 0 1.8239e-05
27 1 0.831938 0.533413 0.183381 0 0 0.000159025
28 1 0.601043 0.415434 0.285655 0 0 0.000222921
29 1 0.278538 0.623658 0.16343 0 0 -5.01871e-05
30 1 0.47806 0.450246 0.429164 0 0 -0.000265479
31 1 0.960612 0.831666 0.0466855 0 0 0.00040102
32 1 0.502878 0.741946 0.0533052 0 0 -9.41753e-06
33 1 0.569429 0.790721 0.653378 0 0 -1.84774e-05
34 1 0.763967 0.617544 0.913145 0 0 -0.000399709
35 1 0.446041 0.825552 0.796401 0 0 5.05447e-05
36 1 0.221701 0.707263 0.906525 0 0 9.17912e-06
37 1 0.89264 0.915797 0.776449 0 0 -0.000158906
38 1 0.246519 0.66563 0.530666 0 0 0.000265479
39 1 0.923714 0.873869 0.408081 0 0 -4.673e-05
40 1 0.123536 0.700443 0.674175 0 0 -0.000222802
41 1 0.800865 0.908674 0.551749 0 0 4.69685e-05
42 1 0.155149 0.658489 0.306452 0 0 1.8239e-05
43 1 0.831938 0.866746 0.183381 0 0 0.000159144
44 1 0.601043 0.748767 0.285655 0 0 0.000223041
45 1 0.278538 0.956991 0.16343 0 0 -5.01871e-05
46 1 0.47806 0.783579 0.429164 0 0 -0.000265002
47 1 0.246519 0.998964 0.530666 0 0 0.00026536
48 1 0.155149 0.991822 0.306452 0 0 1.80006e-05
ITEM: TIMESTEP
11
ITEM: NUMBER OF ATOMS
48
ITEM: BOX BOUNDS xy xz yz pp pp pp
-5.0219048857688904e+00 8.6109705567359924e+00 2.5110912919044495e+00
-1.0506033897399902e-02 9.6185076832771301e+00 -5.0073480606079102e+00
-2.6944518089294434e-02 1.9544072151184082e+01 3.6519104242324829e-01
ITEM: ATOMS id type xs ys zs fx fy fz
1 1 0.960616 0.164999 0.0466911 0 0 -0.000134587
2 1 0.502879 0.0752797 0.0533062 0 0 5.126e-06
3 1 0.569428 0.124054 0.653376 0 0 -4.52995e-05
4 1 0.763963 0.950878 0.913139 0 0 0.000135303
5 1 0.446039 0.158885 0.796398 0 0 -2.98023e-05
6 1 0.2217 0.0405967 0.906524 0 0 -5.00679e-06
7 1 0.892636 0.24913 0.776444 0 0 -2.24113e-05
8 1 0.923715 0.207202 0.408082 0 0 -2.31266e-05
9 1 0.123533 0.0337761 0.674171 0 0 -7.76052e-05
10 1 0.800864 0.242008 0.551748 0 0 2.3365e-05
11 1 0.831943 0.200079 0.183387 0 0 2.19345e-05
12 1 0.601046 0.0821003 0.28566 0 0 7.78437e-05
13 1 0.27854 0.290324 0.163432 0 0 2.98023e-05
14 1 0.478059 0.116913 0.429163 0 0 -0.000123501
15 1 0.960616 0.498332 0.0466911 0 0 -0.000135303
16 1 0.502879 0.408613 0.0533062 0 0 4.52995e-06
17 1 0.569428 0.457387 0.653376 0 0 -4.55379e-05
18 1 0.763963 0.284211 0.913139 0 0 0.000134826
19 1 0.446039 0.492219 0.796398 0 0 -2.94447e-05
20 1 0.2217 0.37393 0.906524 0 0 -4.64916e-06
21 1 0.892636 0.582464 0.776444 0 0 -2.22921e-05
22 1 0.24652 0.332297 0.530667 0 0 0.000123024
23 1 0.923715 0.540535 0.408082 0 0 -2.38419e-05
24 1 0.123533 0.367109 0.674171 0 0 -7.73668e-05
25 1 0.800864 0.575341 0.551748 0 0 2.34842e-05
26 1 0.155151 0.325156 0.306454 0 0 4.54187e-05