LAMMPS data file via write_data, version 4 May 2022, timestep = 794

48 atoms
3 atom types

-0.014556825160980225 6.099879264831543 xlo xhi
-0.010506033897399902 9.253316640853882 ylo yhi
-0.026944518089294434 19.544072151184082 zlo zhi
2.5110912919044495 -5.0073480725288383 0.3651910424232483 xy xz yz
Masses

1 24.305
2 65.40900000000001
3 88.90600000000001

Atoms # atomic

1 1 6.039598372239745 1.535064191260084 0.5992977991099512 0 0 0
2 1 2.982376096684944 0.7063387382565932 1.0070261178212783 0 0 0
3 1 0.507003847914145 1.3773165818116497 12.83118351891536 0 0 0
4 1 2.4719788908693743 9.131725843305176 18.13166538504754 0 0 0
5 1 5.238286893306951 1.75221744139421 15.68528846314297 0 0 0
6 1 3.0181098618302533 0.6966288092372579 17.72393727425087 0 0 0
7 1 2.1810719038586104 2.5809433561565616 15.277560296502092 0 0 0
8 1 4.110334741041424 2.0580035737504048 7.938429380363138 0 0 0
9 1 3.564219160380927 0.5485906522180276 13.238911330455446 0 0 0
10 1 2.7271818346019705 2.4329048936406106 10.79253385727348 0 0 0
11 1 4.656444375124171 1.9099650292088919 3.4534029313499266 0 0 0
12 1 2.436266791738005 0.8543767513492864 5.492052050531229 0 0 0
13 1 1.5992296952958034 2.7386908241611763 3.0456748889868175 0 0 0
14 1 1.0531138467622396 1.2292779348249736 8.346156854844565 0 0 0
15 1 6.876629043384306 4.623005103842366 0.5992976287604905 0 0 0
16 1 3.819406415591048 3.794279576960088 1.0070261048598592 0 0 0
17 1 1.3440343193094892 4.465257373497558 12.831183579466598 0 0 0
18 1 0.7979179660583307 2.9558440701746362 18.131665403591203 0 0 0
19 1 6.075317277365141 4.840158330037253 15.685288427259625 0 0 0
20 1 3.8551403656656915 3.7845697335343056 17.72393715460728 0 0 0
21 1 3.018102410189177 5.668884161788098 15.277560478854776 0 0 0
22 1 5.784402374144691 3.2616304714809488 10.38480617043767 0 0 0
23 1 4.947365071739899 5.14594444478326 7.938429427089645 0 0 0
24 1 4.401249642561283 3.6365315397096336 13.238911123996775 0 0 0
25 1 3.564212225456198 5.5208457472156836 10.79253394906267 0 0 0
26 1 6.330512660202338 3.1135917925742262 5.8997797339372555 0 0 0
27 1 5.493474822184773 4.997905932166276 3.4534030129677604 0 0 0
28 1 3.2732972453991818 3.9423176080940854 5.4920521242931155 0 0 0
29 1 2.436260065678176 5.826631662125163 3.0456749677757107 0 0 0
30 1 1.8901443809561864 4.317218785859668 8.346156965634982 0 0 0
31 1 7.713659314177798 7.710945979078084 0.5992977349542531 0 0 0
32 1 4.656436795450086 6.88222040460622 1.007026073628483 0 0 0
33 1 2.181064705339793 7.553198185006141 12.83118356281077 0 0 0
34 1 1.634948475920761 6.043785014950134 18.131665537793676 0 0 0
35 1 6.912347754631475 7.928099203821474 15.685288357673803 0 0 0
36 1 4.692170815295706 6.872510515572971 17.72393719626976 0 0 0
37 1 3.855132768813192 8.756824984103845 15.277560476078568 0 0 0
38 1 6.621432914770055 6.349571159374335 10.384806303560024 0 0 0
39 1 5.784395477095543 8.233885151659395 7.938429191732456 0 0 0
40 1 5.238280125936686 6.724472609082424 13.238910985962788 0 0 0
41 1 4.401242616999125 8.608786570055663 10.79253414446768 0 0 0
42 1 7.1675429230839915 6.20153267473144 5.899779692116786 0 0 0
43 1 6.330505284166802 8.085846781096906 3.453402929678048 0 0 0
44 1 4.110327695085987 7.030258423431569 5.492051924617561 0 0 0
45 1 3.273290474437464 8.91457253000057 3.0456749438333244 0 0 0
46 1 2.72717491244918 7.405159513876543 8.346156835417924 0 0 0
47 1 7.458463394963444 9.437512395338507 10.384806364261888 0 0 0
48 1 8.004573412755704 9.289473715422053 5.899779662743659 0 0 0

Velocities

1 0 0 0
2 0 0 0
3 0 0 0
4 0 0 0
5 0 0 0
6 0 0 0
7 0 0 0
8 0 0 0
9 0 0 0
10 0 0 0
11 0 0 0
12 0 0 0
13 0 0 0
14 0 0 0
15 0 0 0
16 0 0 0
17 0 0 0
18 0 0 0
19 0 0 0
20 0 0 0
21 0 0 0
22 0 0 0
23 0 0 0
24 0 0 0
25 0 0 0
26 0 0 0
27 0 0 0
28 0 0 0
29 0 0 0
30 0 0 0
31 0 0 0
32 0 0 0
33 0 0 0
34 0 0 0
35 0 0 0
36 0 0 0
37 0 0 0
38 0 0 0
39 0 0 0
40 0 0 0
41 0 0 0
42 0 0 0
43 0 0 0
44 0 0 0
45 0 0 0
46 0 0 0
47 0 0 0
48 0 0 0
