ITEM: TIMESTEP
0
ITEM: NUMBER OF ATOMS
56
ITEM: BOX BOUNDS xy xz yz pp pp pp
-3.4485239849962954e+00 1.2163911692441133e+01 1.5526132515564727e-08
-3.0061665652343075e-03 5.5294143007778995e+00 -3.4697121663813228e+00
7.7232233150646462e-04 1.9019187752468508e+01 2.1812666742635317e-08
ITEM: ATOMS id type xs ys zs fx fy fz
1 1 0.58829 3.09294e-05 0.132367 0 0.0227907 0.0263328
2 1 0.338291 0.166637 0.132367 0 -0.0228114 0.0263374
3 1 0.266944 1.50434e-05 0.275226 0 -0.00612081 0.00645442
4 1 0.0169443 0.166653 0.275226 0 0.00611083 0.00645541
5 1 0.945544 1.01858e-05 0.418082 0 -0.000922449 -0.000562164
6 1 0.088291 3.06084e-05 0.132367 0 0.0228 0.0263335
7 1 0.998937 0.500062 0.06094 0 1.64642 1.137
8 1 0.838292 0.166637 0.132367 0 -0.0228024 0.0263438
9 1 0.748939 0.666605 0.06094 0 -1.6464 1.13702
10 1 0.766945 1.49384e-05 0.275226 0 -0.00611681 0.00645973
11 1 0.695543 0.166657 0.418083 0 0.00092735 -0.000563419
12 1 0.624134 1.60347e-05 0.560942 0 -0.00114334 0.000638438
13 1 0.374135 0.166652 0.560941 0 0.00112556 0.000651911
14 1 0.302732 1.61665e-05 0.703801 0 -0.00219424 0.00221587
15 1 0.052732 0.166652 0.703801 0 0.00216756 0.00220636
16 1 0.981343 1.72772e-05 0.846652 0 -0.0154423 -0.0205987
17 1 0.677634 0.500017 0.203801 0 -0.0154297 0.020609
18 1 0.516944 0.166653 0.275226 0 0.00609209 0.00645457
19 1 0.427635 0.66665 0.203801 0 0.015446 0.0206106
20 1 0.445544 1.09165e-05 0.418082 0 -0.00094317 -0.000556989
21 1 0.356245 0.500016 0.346652 0 -0.00218034 -0.00220994
22 1 0.195544 0.166657 0.418082 0 0.000929962 -0.000559009
23 1 0.106245 0.666651 0.346652 0 0.00219208 -0.00221778
24 1 0.124135 1.5722e-05 0.560941 0 -0.00113366 0.000655131
25 1 0.0348413 0.500016 0.489511 0 -0.00113076 -0.000653745
26 1 0.874136 0.166652 0.560941 0 0.00112636 0.000668667
27 1 0.784842 0.666651 0.489511 0 0.00113442 -0.000645971
28 1 0.498937 0.500061 0.0609401 0 1.64646 1.13703
29 1 0.248938 0.666605 0.06094 0 -1.64643 1.13703
30 1 0.177635 0.500017 0.203801 0 -0.0154304 0.0206126
31 1 0.927635 0.66665 0.203801 0 0.015427 0.0206132
32 1 0.856246 0.500016 0.346652 0 -0.00219182 -0.0022177
33 1 0.731341 0.16665 0.846652 0 0.0154375 -0.0206259
34 1 0.660039 6.23935e-05 0.989513 0 1.6464 -1.13699
35 1 0.410039 0.166605 0.989513 0 -1.64646 -1.13704
36 1 0.802731 1.60929e-05 0.703801 0 -0.00219228 0.00221037
37 1 0.713431 0.50001 0.632371 0 -0.000928473 0.000539077
38 1 0.552732 0.166651 0.703801 0 0.00218529 0.00221897
39 1 0.463432 0.666656 0.63237 0 0.000936592 0.000553728
40 1 0.481342 1.72431e-05 0.846652 0 -0.0154409 -0.0206131
41 1 0.392032 0.500015 0.775227 0 -0.00610801 -0.00645263
42 1 0.231342 0.16665 0.846652 0 0.0154269 -0.0206106
43 1 0.142032 0.666652 0.775227 0 0.00612293 -0.00645591
44 1 0.160039 6.17797e-05 0.989513 0 1.64644 -1.13703
45 1 0.0706862 0.50003 0.918085 0 0.022804 -0.0263179
46 1 0.606244 0.666651 0.346652 0 0.00220079 -0.0022077
47 1 0.534841 0.500015 0.489511 0 -0.00110953 -0.000646381
48 1 0.284841 0.666651 0.489511 0 0.0011362 -0.00065159
49 1 0.213432 0.500011 0.63237 0 -0.000927862 0.000555157
50 1 0.963433 0.666656 0.63237 0 0.000946527 0.000567074
51 1 0.892033 0.500015 0.775227 0 -0.00610654 -0.0064484
52 1 0.910038 0.166605 0.989513 0 -1.64642 -1.13703
53 1 0.820685 0.666636 0.918086 0 -0.0228005 -0.0263672
54 1 0.642032 0.666653 0.775227 0 0.00610556 -0.00644548
55 1 0.570686 0.50003 0.918085 0 0.0228108 -0.026335
56 1 0.320686 0.666636 0.918085 0 -0.0227987 -0.0263409
ITEM: TIMESTEP
10
ITEM: NUMBER OF ATOMS
56
ITEM: BOX BOUNDS xy xz yz pp pp pp
-3.4485239849962954e+00 1.2163911692441133e+01 1.5526132515564727e-08
-3.0061665652343075e-03 5.5294143007778995e+00 -3.4697121663813228e+00
7.7232233150646462e-04 1.9019187752468508e+01 2.1812666742635317e-08
ITEM: ATOMS id type xs ys zs fx fy fz
1 1 0.588881 0.0226164 0.134436 0 -6.52344e-05 7.01013e-06
2 1 0.338882 0.144051 0.134436 0 6.40996e-05 9.93576e-06
3 1 0.267489 0.000430048 0.277131 0 0.000396397 -0.000516753
4 1 0.0174886 0.166237 0.277131 0 -0.000394442 -0.000516772
5 1 0.945782 -0.000795514 0.418914 0 -2.24525e-05 -0.000268217
6 1 0.088882 0.0226154 0.134436 0 -6.43103e-05 8.19986e-06
7 1 0.999313 0.558558 0.0622532 0 7.06356e-05 0.000689513
8 1 0.838883 0.144051 0.134436 0 6.53315e-05 6.76152e-06
9 1 0.749314 0.608109 0.0622535 0 -7.36531e-05 0.000692371
10 1 0.76749 0.000430067 0.277131 0 0.000396961 -0.000515815
11 1 0.695781 0.167464 0.418914 0 2.28919e-05 -0.000267355
12 1 0.624056 -0.000827524 0.560666 0 -5.97638e-06 -0.000160651
13 1 0.374056 0.167495 0.560667 0 6.42609e-06 -0.000159711
14 1 0.302332 -0.000641655 0.7024 0 -0.000463854 -0.000269606
15 1 0.0523318 0.167308 0.7024 0 0.000464361 -0.000268376
16 1 0.980669 0.00553466 0.844296 0 -0.000323539 0.000501181
17 1 0.678307 0.505534 0.206157 0 -0.000321862 -0.000501384
18 1 0.517489 0.166237 0.277131 0 -0.000395689 -0.000516423
19 1 0.428308 0.661133 0.206157 0 0.000322729 -0.000501503
20 1 0.445782 -0.000795769 0.418914 0 -2.28333e-05 -0.000268379
21 1 0.356645 0.499359 0.348053 0 -0.000463552 0.000268801
22 1 0.195782 0.167463 0.418914 0 2.3324e-05 -0.000269045
23 1 0.106645 0.667309 0.348053 0 0.000462922 0.000267705
24 1 0.124056 -0.000827522 0.560667 0 -6.37394e-06 -0.000157742
25 1 0.0349199 0.499173 0.489786 0 -7.74302e-06 0.000159121
26 1 0.874057 0.167495 0.560667 0 7.74954e-06 -0.000159815
27 1 0.784921 0.667495 0.489786 0 6.75666e-06 0.00015918
28 1 0.499313 0.558558 0.0622532 0 7.51841e-05 0.000693095
29 1 0.249313 0.608109 0.0622534 0 -7.10249e-05 0.000688553
30 1 0.178308 0.505534 0.206157 0 -0.000322787 -0.000501317
31 1 0.928308 0.661132 0.206157 0 0.000319933 -0.000501329
32 1 0.856646 0.499359 0.348053 0 -0.000464276 0.00026724
33 1 0.730668 0.161133 0.844296 0 0.000322251 0.000503103
34 1 0.659664 0.0585578 0.9882 0 7.10986e-05 -0.000689355
35 1 0.409664 0.108109 0.988199 0 -7.51292e-05 -0.000691949
36 1 0.802331 -0.000641621 0.7024 0 -0.000464637 -0.000269098
37 1 0.713194 0.499204 0.631538 0 -2.3254e-05 0.000268192
38 1 0.552332 0.167308 0.7024 0 0.000464101 -0.000268086
39 1 0.463195 0.667463 0.631538 0 2.2144e-05 0.000269503
40 1 0.480669 0.00553393 0.844296 0 -0.000322497 0.000501481
41 1 0.391488 0.50043 0.773322 0 0.000394721 0.00051388
42 1 0.230668 0.161133 0.844296 0 0.000320873 0.000498624
43 1 0.141487 0.666237 0.773322 0 -0.000395769 0.000515708
44 1 0.159664 0.0585588 0.9882 0 7.33785e-05 -0.000691527
45 1 0.0700953 0.522617 0.916017 0 -6.39816e-05 -7.06105e-06
46 1 0.606644 0.667309 0.348053 0 0.0004629 0.000268938
47 1 0.53492 0.499173 0.489786 0 -7.0472e-06 0.000158876
48 1 0.28492 0.667495 0.489786 0 7.46647e-06 0.000157876
49 1 0.213195 0.499204 0.631538 0 -2.3026e-05 0.000271354
50 1 0.963195 0.667463 0.631538 0 2.24492e-05 0.000268158
51 1 0.891489 0.50043 0.773322 0 0.000397686 0.00051905
52 1 0.909663 0.108109 0.988199 0 -7.0823e-05 -0.000686833
53 1 0.820094 0.644051 0.916017 0 6.26499e-05 -1.30046e-05
54 1 0.641487 0.666236 0.773322 0 -0.000396517 0.000519795
55 1 0.570095 0.522615 0.916017 0 -6.27481e-05 -1.37904e-05
56 1 0.320095 0.644051 0.916017 0 6.74068e-05 -2.82073e-06
