ITEM: TIMESTEP
0
ITEM: NUMBER OF ATOMS
48
ITEM: BOX BOUNDS xy xz yz pp pp pp
-1.4596629999999999e+00 8.5902721822999997e+00 2.5049497494000001e+00
0.0000000000000000e+00 9.2428105916999996e+00 -1.4596629999999999e+00
0.0000000000000000e+00 1.9517127622400000e+01 0.0000000000000000e+00
ITEM: ATOMS id type xs ys zs fx fy fz
1 1 0.918114 0.167011 0.0319649 0.0881468 0.00220813 0.00102486
2 1 0.460041 0.0749164 0.0533944 0.0635531 -0.00287672 0.00136049
3 1 0.183785 0.12472 0.656965 0.000475967 0.00190462 0.000534798
4 1 0.231937 0.948865 0.927865 -0.0881485 -0.00220769 -0.00102413
5 1 0.978834 0.157171 0.8026 0.00536552 -0.00209846 -0.00111987
6 1 0.69001 0.04096 0.906436 -0.0635508 0.0028774 -0.00136201
7 1 0.436917 0.249555 0.781869 -0.00508097 0.0020962 0.00029384
8 1 0.677499 0.208207 0.407109 0.000669827 0.00265152 0.000373528
9 1 0.725732 0.0324994 0.677648 -0.000791725 -0.00262734 -0.000175293
10 1 0.472552 0.241003 0.552721 -0.000667887 -0.00265071 -0.000371078
11 1 0.713134 0.199655 0.177961 0.00507969 -0.00209704 -0.000294542
12 1 0.424319 0.083377 0.282182 0.000790338 0.00262754 0.000175538
13 1 0.171217 0.292039 0.15723 -0.00536458 0.00209841 0.00111922
14 1 0.219419 0.116069 0.427789 -0.000710706 -0.00219619 -2.14854e-05
15 1 0.918114 0.500344 0.0319649 0.0881477 0.00220757 0.00102254
16 1 0.460041 0.40825 0.0533945 0.0635527 -0.00287746 0.00136017
17 1 0.183785 0.458053 0.656965 0.000476402 0.00190435 0.000534286
18 1 0.231937 0.282199 0.927865 -0.0881491 -0.00220881 -0.00102392
19 1 0.978834 0.490504 0.8026 0.0053658 -0.00209739 -0.0011208
20 1 0.69001 0.374293 0.906436 -0.063551 0.00287566 -0.00136126
21 1 0.436917 0.582888 0.781869 -0.00508021 0.00209747 0.000293412
22 1 0.930632 0.33314 0.532041 0.000708893 0.00219573 2.17671e-05
23 1 0.677499 0.54154 0.407109 0.000669855 0.00265124 0.000373155
24 1 0.725732 0.365833 0.677648 -0.00079151 -0.0026271 -0.000175164
25 1 0.472552 0.574336 0.552721 -0.000668521 -0.00265109 -0.000370347
26 1 0.966266 0.32449 0.302865 -0.000475244 -0.00190543 -0.000534279
27 1 0.713134 0.532988 0.177961 0.00508018 -0.00209712 -0.00029395
28 1 0.424319 0.41671 0.282182 0.000789933 0.00262723 0.000175529
29 1 0.171217 0.625372 0.15723 -0.00536467 0.0020982 0.00111899
30 1 0.219419 0.449403 0.427789 -0.00071063 -0.00219671 -2.10307e-05
31 1 0.918114 0.833678 0.0319649 0.0881488 0.00220864 0.00102465
32 1 0.460041 0.741583 0.0533944 0.0635525 -0.0028761 0.00136044
33 1 0.183785 0.791386 0.656965 0.000477019 0.00190389 0.000533921
34 1 0.231937 0.615532 0.927865 -0.0881487 -0.0022079 -0.00102394
35 1 0.978834 0.823838 0.8026 0.00536626 -0.0020977 -0.00112059
36 1 0.69001 0.707627 0.906436 -0.0635511 0.00287617 -0.00136179
37 1 0.436917 0.916222 0.781869 -0.00508163 0.00209712 0.000293903
38 1 0.930632 0.666474 0.532041 0.000708988 0.0021965 2.22374e-05
39 1 0.677499 0.874873 0.407109 0.000669543 0.00265273 0.000372815
40 1 0.725732 0.699166 0.677648 -0.000792009 -0.00262802 -0.000174841
41 1 0.472552 0.90767 0.552721 -0.000668718 -0.00265233 -0.000370791
42 1 0.966266 0.657823 0.302865 -0.00047517 -0.00190378 -0.000534663
43 1 0.713134 0.866321 0.177961 0.0050797 -0.00209734 -0.000293813
44 1 0.424319 0.750044 0.282182 0.000790067 0.00262782 0.000174497
45 1 0.171217 0.958706 0.15723 -0.00536497 0.00209714 0.0011191
46 1 0.219419 0.782736 0.427789 -0.000710643 -0.00219524 -2.0978e-05
47 1 0.930632 0.999807 0.532041 0.000708844 0.00219659 2.1602e-05
48 1 0.966266 0.991157 0.302865 -0.000475418 -0.00190415 -0.000534355
ITEM: TIMESTEP
100
ITEM: NUMBER OF ATOMS
48
ITEM: BOX BOUNDS xy xz yz pp pp pp
-1.4569616054701295e+00 8.5869436157204930e+00 2.5034467795503601e+00
2.7728431775099985e-03 9.2400377485224894e+00 -1.4587872021999995e+00
5.8551382867199995e-03 1.9511272484113274e+01 0.0000000000000000e+00
ITEM: ATOMS id type xs ys zs fx fy fz
1 1 0.922762 0.16709 0.0319364 0.0387693 0.000616975 -0.00152263
2 1 0.463924 0.0746972 0.0533099 0.0369752 -0.00492275 -0.00634496
3 1 0.183757 0.124788 0.656964 -0.000989324 0.000849082 -0.000322072
4 1 0.227289 0.948786 0.927894 -0.0387698 -0.000617735 0.00152205
5 1 0.978525 0.157102 0.8026 -0.0124585 -0.000714155 0.00145068
6 1 0.686127 0.0411792 0.90652 -0.0369748 0.00492338 0.00634548
7 1 0.43638 0.249625 0.781862 -0.00931583 0.00100951 -0.000404524
8 1 0.677501 0.208312 0.407114 0.000529951 0.00152746 0.000127721
9 1 0.725676 0.0323952 0.677651 -0.00217077 -0.00157672 0.000258023
10 1 0.47255 0.240898 0.552716 -0.000528601 -0.00152779 -0.000127108
11 1 0.713671 0.199585 0.177968 0.00931559 -0.0010092 0.000404314
12 1 0.424375 0.0834812 0.282179 0.00217088 0.00157715 -0.000256046
13 1 0.171526 0.292108 0.15723 0.0124585 0.000713264 -0.00145356
14 1 0.219412 0.115985 0.427787 -0.000296097 -0.0011428 -7.37346e-05
15 1 0.922762 0.500424 0.0319364 0.0387699 0.000616757 -0.00152288
16 1 0.463924 0.408031 0.0533099 0.0369746 -0.00492308 -0.00634573
17 1 0.183757 0.458121 0.656964 -0.000988706 0.000848938 -0.000322444
18 1 0.227289 0.28212 0.927894 -0.0387699 -0.000617109 0.00152255
19 1 0.978525 0.490435 0.8026 -0.012458 -0.000712724 0.00145091
20 1 0.686127 0.374513 0.90652 -0.036975 0.00492327 0.00634588
21 1 0.43638 0.582958 0.781862 -0.00931517 0.00100887 -0.00040552
22 1 0.930639 0.333225 0.532043 0.000294951 0.00114354 7.2384e-05
23 1 0.677501 0.541645 0.407114 0.000529926 0.00152663 0.000127305
24 1 0.725676 0.365729 0.677651 -0.00217175 -0.00157663 0.000257771
25 1 0.47255 0.574231 0.552716 -0.000529829 -0.00152748 -0.000127308
26 1 0.966294 0.324422 0.302866 0.000988953 -0.000849302 0.000323822
27 1 0.713671 0.532919 0.177968 0.00931525 -0.0010092 0.000404391
28 1 0.424375 0.416815 0.282179 0.00217117 0.00157655 -0.000256957
29 1 0.171526 0.625441 0.15723 0.0124589 0.000712926 -0.00145341
30 1 0.219412 0.449318 0.427787 -0.00029604 -0.00114296 -7.28471e-05
31 1 0.922762 0.833757 0.0319364 0.0387692 0.000616679 -0.00152293
32 1 0.463924 0.741364 0.0533099 0.0369762 -0.0049238 -0.00634558
33 1 0.183757 0.791455 0.656964 -0.000988762 0.000848583 -0.000322108
34 1 0.227289 0.615453 0.927894 -0.03877 -0.000617311 0.00152249
35 1 0.978525 0.823768 0.8026 -0.0124587 -0.000714123 0.00145105
36 1 0.686127 0.707846 0.90652 -0.0369742 0.00492341 0.00634592
37 1 0.43638 0.916291 0.781862 -0.00931534 0.0010094 -0.000404956
38 1 0.930639 0.666558 0.532043 0.000294834 0.00114322 7.30249e-05
39 1 0.677501 0.874978 0.407114 0.000530162 0.00152842 0.000128147
40 1 0.725676 0.699062 0.677651 -0.00217142 -0.00157676 0.000258565
41 1 0.47255 0.907565 0.552716 -0.000529043 -0.00152747 -0.000127146
42 1 0.966294 0.657755 0.302866 0.000988994 -0.000849196 0.000324107
43 1 0.713671 0.866252 0.177968 0.00931508 -0.00100977 0.000403421
44 1 0.424375 0.750148 0.282179 0.00217127 0.00157601 -0.000257291
45 1 0.171526 0.958775 0.15723 0.0124589 0.000714558 -0.00145302
46 1 0.219412 0.782651 0.427787 -0.000295963 -0.00114368 -7.31955e-05
47 1 0.930639 0.999892 0.532043 0.00029428 0.00114404 7.27532e-05
48 1 0.966294 0.991088 0.302866 0.000989321 -0.000847137 0.000325109
ITEM: TIMESTEP
133
ITEM: NUMBER OF ATOMS
48
ITEM: BOX BOUNDS xy xz yz pp pp pp
-1.4562557095431523e+00 8.5860738347369416e+00 2.5030540415465254e+00
3.4974092057256023e-03 9.2393131824942731e+00 -1.4585583492527385e+00
7.3851325999474476e-03 1.9509742489800047e+01 0.0000000000000000e+00
ITEM: ATOMS id type xs ys zs fx fy fz
1 1 0.928419 0.167081 0.0318928 -0.00990984 -0.00228098 0.00392944
2 1 0.46974 0.0741436 0.0529497 -0.00491827 -4.52353e-05 -0.000175431
3 1 0.183313 0.124874 0.656955 -0.00624646 -8.4584e-05 0.000572622
4 1 0.221632 0.948796 0.927937 0.00990852 0.00227977 -0.0039305
5 1 0.975754 0.15705 0.80273 -0.0155509 0.000886159 0.00288228
6 1 0.680311 0.0417329 0.90688 0.00491839 4.43962e-05 0.000176088
7 1 0.434166 0.24977 0.781855 -0.0138298 0.00135224 0.00110443
8 1 0.677566 0.208472 0.407118 0.00138595 -4.08012e-05 -0.000288677
9 1 0.725139 0.0322226 0.677673 -0.00669056 -0.000112985 0.000955886
10 1 0.472485 0.240738 0.552712 -0.00138605 3.96371e-05 0.000288384
11 1 0.715885 0.19944 0.177975 0.0138297 -0.00135196 -0.00110309
12 1 0.424912 0.0836538 0.282158 0.0066918 0.00011284 -0.000957432
13 1 0.174297 0.29216 0.1571 0.0155518 -0.000884882 -0.00288113
14 1 0.219446 0.115873 0.427784 0.00108782 0.000280975 6.37872e-06
15 1 0.928419 0.500414 0.0318928 -0.00990881 -0.00228032 0.00392884
16 1 0.46974 0.407477 0.0529497 -0.00491851 -4.35336e-05 -0.000174721
17 1 0.183313 0.458207 0.656955 -0.00624628 -8.40169e-05 0.000574293
18 1 0.221632 0.282129 0.927937 0.00990911 0.00228062 -0.00393142
19 1 0.975754 0.490383 0.80273 -0.0155511 0.00088445 0.0028798
20 1 0.680311 0.375066 0.90688 0.00491923 4.32036e-05 0.000175879
21 1 0.434166 0.583103 0.781855 -0.0138305 0.00135058 0.00110159
22 1 0.930605 0.333337 0.532046 -0.00108847 -0.000280767 -5.93696e-06
23 1 0.677566 0.541805 0.407118 0.00138554 -4.07125e-05 -0.000288542
24 1 0.725139 0.365556 0.677672 -0.00669128 -0.000113147 0.000959192
25 1 0.472485 0.574071 0.552712 -0.00138536 4.14828e-05 0.000288306
26 1 0.966738 0.324336 0.302875 0.00624563 8.39131e-05 -0.000573308
27 1 0.715885 0.532773 0.177975 0.0138311 -0.00135171 -0.0011038
28 1 0.424912 0.416987 0.282158 0.00669128 0.000112172 -0.000957069
29 1 0.174297 0.625493 0.1571 0.0155514 -0.000886072 -0.00288207
30 1 0.219446 0.449206 0.427784 0.00108841 0.000281487 6.47057e-06
31 1 0.928419 0.833748 0.0318928 -0.00990817 -0.00228014 0.00392865
32 1 0.46974 0.74081 0.0529497 -0.00491957 -4.36677e-05 -0.000175351
33 1 0.183313 0.79154 0.656955 -0.0062462 -8.37085e-05 0.000573218
34 1 0.221632 0.615462 0.927937 0.00990821 0.00228166 -0.00393007
35 1 0.975754 0.823717 0.80273 -0.015551 0.000884985 0.0028829
36 1 0.680311 0.7084 0.90688 0.00491975 4.41835e-05 0.000176506
37 1 0.434166 0.916437 0.781855 -0.0138306 0.0013527 0.00110472
38 1 0.930605 0.66667 0.532046 -0.00108793 -0.000278913 -8.12637e-06
39 1 0.677566 0.875138 0.407118 0.00138632 -4.0877e-05 -0.000288226
40 1 0.725139 0.698889 0.677673 -0.00669135 -0.000113748 0.000956639
41 1 0.472485 0.907405 0.552712 -0.00138571 4.02327e-05 0.000288887
42 1 0.966738 0.65767 0.302875 0.00624606 8.40431e-05 -0.000573045
43 1 0.715885 0.866106 0.177975 0.0138286 -0.00135096 -0.00110287
44 1 0.424912 0.75032 0.282158 0.0066912 0.000114151 -0.000957118
45 1 0.174297 0.958826 0.1571 0.0155527 -0.000886068 -0.00288181
46 1 0.219447 0.78254 0.427784 0.00108692 0.000279791 6.79533e-06
47 1 0.930605 1 0.532046 -0.00108861 -0.000280308 -5.34111e-06
48 1 0.966738 0.991003 0.302875 0.00624557 8.42736e-05 -0.000573249
ITEM: TIMESTEP
154
ITEM: NUMBER OF ATOMS
48
ITEM: BOX BOUNDS xy xz yz pp pp pp
-1.4529104615530692e+00 8.5835583198330063e+00 2.5049378423683297e+00
2.1967394447893136e-05 9.2427886243055504e+00 -1.4596124169883942e+00
3.3817226751098052e-04 1.9516789450132482e+01 0.0000000000000000e+00
ITEM: ATOMS id type xs ys zs fx fy fz
1 1 0.928412 0.16708 0.0318936 -0.0100948 -0.00208541 0.0033216
2 1 0.469737 0.0741435 0.0529498 -0.00450784 -0.00023744 0.000394662
3 1 0.183308 0.124874 0.656955 -0.0064541 6.54514e-05 9.18809e-05
4 1 0.221639 0.948797 0.927937 0.0100954 0.00208553 -0.00332101
5 1 0.975743 0.15705 0.802731 -0.0150975 0.00067893 0.00341125
6 1 0.680314 0.0417329 0.90688 0.00450809 0.000237007 -0.000394441
7 1 0.434156 0.249771 0.781855 -0.0139917 0.00150682 0.000589431
8 1 0.677567 0.208472 0.407118 0.00116692 0.00011453 -0.000758305
9 1 0.725134 0.0322225 0.677673 -0.00642604 -0.000278049 0.00146064
10 1 0.472484 0.240738 0.552712 -0.00116773 -0.00011599 0.000758644
11 1 0.715895 0.199439 0.177975 0.0139919 -0.00150543 -0.000590311
12 1 0.424917 0.0836539 0.282157 0.00642736 0.000278018 -0.00146264
13 1 0.174308 0.292159 0.157099 0.0150964 -0.000678142 -0.00341021
14 1 0.219447 0.115873 0.427784 0.00130795 0.000127956 0.000474738
15 1 0.928412 0.500413 0.0318936 -0.0100957 -0.002085 0.00332102
16 1 0.469737 0.407477 0.0529498 -0.00450712 -0.000236491 0.000394525
17 1 0.183308 0.458207 0.656955 -0.00645304 6.62401e-05 9.23973e-05
18 1 0.221639 0.28213 0.927937 0.0100954 0.00208601 -0.00332124
19 1 0.975742 0.490384 0.802731 -0.0150969 0.000678071 0.00341128
20 1 0.680314 0.375066 0.90688 0.00450761 0.000237123 -0.000394991
21 1 0.434156 0.583104 0.781855 -0.0139925 0.00150474 0.000589149
22 1 0.930604 0.333337 0.532046 -0.00130658 -0.000127203 -0.000473645
23 1 0.677567 0.541805 0.407118 0.0011665 0.000115211 -0.000758578
24 1 0.725134 0.365556 0.677673 -0.00642701 -0.000278426 0.00146413
25 1 0.472484 0.574071 0.552712 -0.00116633 -0.000114149 0.000758684
26 1 0.966743 0.324336 0.302875 0.00645412 -6.50574e-05 -9.21807e-05
27 1 0.715895 0.532772 0.177975 0.0139925 -0.00150546 -0.000590542
28 1 0.424917 0.416987 0.282157 0.00642593 0.000278291 -0.00146195
29 1 0.174308 0.625493 0.157099 0.0150973 -0.000679414 -0.00341134
30 1 0.219447 0.449206 0.427784 0.00130724 0.000127761 0.000471087
31 1 0.928412 0.833746 0.0318936 -0.0100948 -0.00208576 0.00332116
32 1 0.469737 0.74081 0.0529498 -0.004508 -0.000236941 0.000394332
33 1 0.183308 0.79154 0.656955 -0.00645436 6.58826e-05 9.21002e-05
34 1 0.221639 0.615463 0.927937 0.0100948 0.00208512 -0.00332083
35 1 0.975742 0.823717 0.802731 -0.0150968 0.000677763 0.0034115
36 1 0.680314 0.7084 0.90688 0.00450874 0.000235916 -0.000394204
37 1 0.434156 0.916437 0.781855 -0.0139925 0.00150444 0.000588898
38 1 0.930604 0.66667 0.532046 -0.00130793 -0.000126518 -0.00047269
39 1 0.677567 0.875138 0.407118 0.00116737 0.000114236 -0.000758669
40 1 0.725134 0.698889 0.677673 -0.00642607 -0.000278101 0.00146179
41 1 0.472484 0.907405 0.552712 -0.00116729 -0.000114136 0.00075874
42 1 0.966743 0.65767 0.302875 0.00645359 -6.60216e-05 -9.01597e-05
43 1 0.715895 0.866106 0.177975 0.0139913 -0.00150468 -0.000589973
44 1 0.424917 0.750321 0.282157 0.00642687 0.000277866 -0.00146167
45 1 0.174308 0.958826 0.157099 0.0150979 -0.000678574 -0.00341155
46 1 0.219447 0.78254 0.427784 0.0013068 0.000126093 0.000471978
47 1 0.930604 3.34849e-06 0.532046 -0.00130758 -0.000127067 -0.000472533
48 1 0.966743 0.991003 0.302875 0.00645269 -6.56014e-05 -9.2003e-05
ITEM: TIMESTEP
254
ITEM: NUMBER OF ATOMS
48
ITEM: BOX BOUNDS xy xz yz pp pp pp
-1.4137055916229024e+00 8.5884065884571363e+00 2.5114543321346385e+00
-1.4733546470599586e-03 9.3367116129161758e+00 -1.4220757682004102e+00
-1.2685299413888529e-03 1.9518396152341392e+01 9.2427666569111125e-02
ITEM: ATOMS id type xs ys zs fx fy fz
1 1 0.928393 0.167074 0.0318954 -0.010874 -0.00581841 0.00252789
2 1 0.469728 0.0741459 0.0529503 -0.0031971 0.00358641 0.00124054
3 1 0.183295 0.124871 0.656955 -0.00762731 -0.0039038 -0.00057397
4 1 0.221657 0.948802 0.927935 0.0108754 0.00581876 -0.00252726
5 1 0.975712 0.157054 0.802733 -0.0136557 0.0046231 0.00426918
6 1 0.680323 0.0417305 0.90688 0.00319654 -0.00358645 -0.00124045
7 1 0.434126 0.24977 0.781856 -0.0149458 -0.00223115 -6.07147e-05
8 1 0.677569 0.208469 0.407118 -2.73883e-05 -0.00398521 -0.00150981
9 1 0.725122 0.032225 0.677674 -0.0052324 0.00379207 0.00230944
10 1 0.472482 0.240741 0.552713 2.66043e-05 0.00398442 0.00150917
11 1 0.715925 0.19944 0.177975 0.0149471 0.002233 6.10039e-05
12 1 0.424929 0.0836514 0.282156 0.00523338 -0.00379221 -0.00231088
13 1 0.174339 0.292156 0.157097 0.0136553 -0.00462219 -0.00426869
14 1 0.21945 0.115876 0.427785 0.00252858 0.00420797 0.00117605
15 1 0.928393 0.500408 0.0318954 -0.0108744 -0.0058187 0.00252769
16 1 0.469728 0.407479 0.0529503 -0.00319585 0.00358677 0.001241
17 1 0.183295 0.458204 0.656955 -0.00762653 -0.00390363 -0.00057341
18 1 0.221657 0.282135 0.927935 0.0108745 0.00581826 -0.00252728
19 1 0.975712 0.490387 0.802733 -0.0136554 0.00462241 0.00426916
20 1 0.680323 0.375064 0.90688 0.00319617 -0.00358682 -0.00124119
21 1 0.434126 0.583103 0.781856 -0.0149473 -0.00223352 -6.1054e-05
22 1 0.930601 0.333334 0.532045 -0.00252831 -0.00420739 -0.00117455
23 1 0.677569 0.541802 0.407117 -2.68632e-05 -0.00398371 -0.00150836
24 1 0.725122 0.365558 0.677674 -0.00523331 0.00379229 0.00231154
25 1 0.472482 0.574074 0.552713 2.74938e-05 0.00398532 0.00150923
26 1 0.966756 0.324339 0.302875 0.00762732 0.00390363 0.000572784
27 1 0.715924 0.532773 0.177975 0.0149464 0.00223166 6.06859e-05
28 1 0.424929 0.416985 0.282156 0.00523182 -0.00379239 -0.00231084
29 1 0.174338 0.625489 0.157097 0.0136556 -0.00462393 -0.00426946
30 1 0.21945 0.449209 0.427785 0.00252843 0.00420677 0.0011732
31 1 0.928393 0.833741 0.0318954 -0.0108748 -0.00581905 0.00252722
32 1 0.469728 0.740813 0.0529503 -0.00319701 0.00358747 0.00124023
33 1 0.183295 0.791537 0.656955 -0.00762706 -0.0039034 -0.000573638
34 1 0.221657 0.615469 0.927935 0.0108749 0.00581921 -0.00252716
35 1 0.975712 0.823721 0.802733 -0.0136557 0.00462186 0.00426965
36 1 0.680323 0.708397 0.90688 0.0031972 -0.00358724 -0.00124092
37 1 0.434126 0.916437 0.781856 -0.0149469 -0.00223314 -6.11883e-05
38 1 0.930601 0.666667 0.532045 -0.0025293 -0.00420754 -0.00117373
39 1 0.677569 0.875136 0.407117 -2.75299e-05 -0.00398486 -0.00150846
40 1 0.725122 0.698892 0.677674 -0.00523232 0.00379153 0.00230987
41 1 0.472482 0.907407 0.552713 2.70724e-05 0.00398456 0.00150917
42 1 0.966756 0.657672 0.302875 0.00762678 0.00390365 0.00057476
43 1 0.715925 0.866106 0.177975 0.0149459 0.00223393 6.09746e-05
44 1 0.424929 0.750318 0.282156 0.0052332 -0.00379253 -0.00231061
45 1 0.174338 0.958822 0.157097 0.0136565 -0.00462183 -0.00426975
46 1 0.21945 0.782543 0.427785 0.00252906 0.00420787 0.00117333
47 1 0.930601 2.88316e-07 0.532045 -0.00252847 -0.00420733 -0.00117343
48 1 0.966756 0.991006 0.302875 0.00762548 0.00390324 0.000573148
ITEM: TIMESTEP
354
ITEM: NUMBER OF ATOMS
48
ITEM: BOX BOUNDS xy xz yz pp pp pp
-1.3655487008824141e+00 8.5894669707073454e+00 2.5125777379307070e+00
-2.1780331172155470e-03 9.4290352158729576e+00 -1.3739819010057803e+00
4.5438559027902723e-04 1.9516673236809719e+01 1.8404659105574289e-01
ITEM: ATOMS id type xs ys zs fx fy fz
1 1 0.928363 0.167057 0.0318978 -0.0112369 -0.00934258 0.00223703
2 1 0.469715 0.0741583 0.0529518 -0.00204955 0.00722742 0.00144214
3 1 0.183272 0.124857 0.656954 -0.00867438 -0.00765866 -0.000646774
4 1 0.221687 0.948819 0.927932 0.011237 0.00934127 -0.00223884
5 1 0.975663 0.157069 0.802738 -0.0123253 0.00838078 0.00448312
6 1 0.680336 0.0417181 0.906878 0.00204976 -0.00722772 -0.00144403
7 1 0.434078 0.249761 0.781855 -0.0156758 -0.00578104 -0.000108271
8 1 0.677572 0.208455 0.407116 -0.00106378 -0.00788387 -0.0016983
9 1 0.725101 0.0322382 0.677677 -0.00422988 0.00767118 0.00259517
10 1 0.472479 0.240754 0.552714 0.00106265 0.00788306 0.00169805
11 1 0.715973 0.199449 0.177975 0.0156764 0.00578157 0.0001114
12 1 0.42495 0.0836382 0.282154 0.00423079 -0.00767022 -0.00259735
13 1 0.174387 0.292141 0.157092 0.0123253 -0.00837948 -0.00448047
14 1 0.219455 0.11589 0.427786 0.0036247 0.00808057 0.00129855
15 1 0.928363 0.50039 0.0318978 -0.0112361 -0.00934193 0.00223599
16 1 0.469715 0.407492 0.0529518 -0.0020492 0.00722869 0.00144201
17 1 0.183272 0.458191 0.656954 -0.00867423 -0.00765835 -0.000645724
18 1 0.221687 0.282153 0.927932 0.0112368 0.00934306 -0.00223828
19 1 0.975663 0.490402 0.802738 -0.012325 0.0083779 0.00447906
20 1 0.680336 0.375051 0.906878 0.00204891 -0.00722903 -0.00144368
21 1 0.434078 0.583094 0.781855 -0.015677 -0.00578236 -0.000112246
22 1 0.930596 0.333319 0.532044 -0.00362421 -0.00808047 -0.00129831
23 1 0.677572 0.541789 0.407116 -0.00106315 -0.00788288 -0.00169659
24 1 0.725101 0.365572 0.677677 -0.0042303 0.00767085 0.002598
25 1 0.472479 0.574088 0.552714 0.00106317 0.00788423 0.00169762
26 1 0.966779 0.324352 0.302876 0.00867386 0.00765834 0.000645277
27 1 0.715973 0.532782 0.177975 0.0156778 0.00578239 0.000110787
28 1 0.42495 0.416971 0.282153 0.00423034 -0.00767121 -0.00259748
29 1 0.174387 0.625474 0.157092 0.0123243 -0.00838018 -0.00448106
30 1 0.219455 0.449224 0.427786 0.00362429 0.00808164 0.0012982
31 1 0.928363 0.833724 0.0318978 -0.0112364 -0.0093437 0.00223583
32 1 0.469715 0.740825 0.0529518 -0.0020497 0.00722788 0.00144131
33 1 0.183272 0.791524 0.656954 -0.00867426 -0.00765886 -0.000646642
34 1 0.221687 0.615486 0.927932 0.0112366 0.00934321 -0.00223401
35 1 0.975663 0.823736 0.802738 -0.0123239 0.00837962 0.00448255
36 1 0.680336 0.708385 0.906878 0.0020491 -0.0072269 -0.00144024
37 1 0.434078 0.916427 0.781855 -0.0156775 -0.00578196 -0.000108193
38 1 0.930596 0.666653 0.532044 -0.00362485 -0.00808025 -0.0012981
39 1 0.677572 0.875122 0.407116 -0.00106292 -0.00788326 -0.00169649
40 1 0.725101 0.698905 0.677677 -0.00423053 0.00767038 0.00259544
41 1 0.472479 0.907421 0.552714 0.0010633 0.00788244 0.00169846
42 1 0.966779 0.657686 0.302876 0.00867439 0.00765869 0.000646221
43 1 0.715973 0.866116 0.177975 0.0156767 0.00578144 0.000111258
44 1 0.42495 0.750305 0.282153 0.00422993 -0.00767106 -0.00259752
45 1 0.174387 0.958807 0.157092 0.0123252 -0.00837879 -0.00448034
46 1 0.219455 0.782557 0.427786 0.00362397 0.00808056 0.00129793
47 1 0.930596 -1.38511e-05 0.532044 -0.0036244 -0.00808128 -0.00129796
48 1 0.966779 0.991019 0.302876 0.00867382 0.00765889 0.00064536
ITEM: TIMESTEP
383
ITEM: NUMBER OF ATOMS
48
ITEM: BOX BOUNDS xy xz yz pp pp pp
-1.3504702983388910e+00 8.5889536499827912e+00 2.5120357483981479e+00
-2.3252728783138264e-03 9.4515407374878730e+00 -1.3588748296542501e+00
9.2526380721303085e-04 1.9516202358592782e+01 2.0640487290955647e-01
ITEM: ATOMS id type xs ys zs fx fy fz
1 1 0.928352 0.167048 0.0318988 -0.0112078 -0.0101642 0.00224912
2 1 0.469709 0.074165 0.0529524 -0.00178371 0.00808803 0.00136014
3 1 0.183263 0.12485 0.656954 -0.0088999 -0.00853833 -0.000537263
4 1 0.221699 0.948828 0.927931 0.0112085 0.0101642 -0.00224917
5 1 0.975644 0.157077 0.80274 -0.0119944 0.00926823 0.00439666
6 1 0.680341 0.0417114 0.906878 0.00178319 -0.00808898 -0.00136074
7 1 0.434059 0.249755 0.781855 -0.01579 -0.00661844 2.38161e-06
8 1 0.677573 0.208448 0.407115 -0.00127697 -0.00880315 -0.00162701
9 1 0.725093 0.0322453 0.677678 -0.00402567 0.00858953 0.00255502
10 1 0.472478 0.240762 0.552715 0.00127676 0.00880287 0.00162849
11 1 0.715992 0.199455 0.177975 0.0157906 0.00661967 -1.53348e-06
12 1 0.424958 0.083631 0.282152 0.00402625 -0.00858964 -0.00255527
13 1 0.174406 0.292133 0.15709 0.0119932 -0.0092671 -0.00439621
14 1 0.219457 0.115898 0.427787 0.00386295 0.00899155 0.00120689
15 1 0.928352 0.500382 0.0318988 -0.0112087 -0.0101644 0.00224921
16 1 0.469709 0.407498 0.0529524 -0.00178256 0.0080898 0.00136027
17 1 0.183263 0.458184 0.656954 -0.00889932 -0.0085392 -0.00053687
18 1 0.221699 0.282161 0.927931 0.0112083 0.0101648 -0.00225016
19 1 0.975644 0.49041 0.80274 -0.0119935 0.00926698 0.00439659
20 1 0.680341 0.375045 0.906878 0.00178362 -0.0080895 -0.00136097
21 1 0.434059 0.583088 0.781855 -0.0157907 -0.00661988 2.31725e-06
22 1 0.930594 0.333312 0.532044 -0.00386299 -0.00899165 -0.00120697
23 1 0.677573 0.541781 0.407115 -0.00127635 -0.00880211 -0.00162722
24 1 0.725093 0.365579 0.677678 -0.00402734 0.00858826 0.00255512
25 1 0.472478 0.574095 0.552715 0.00127754 0.00880473 0.00162805
26 1 0.966788 0.324359 0.302876 0.00890051 0.00853894 0.000536903
27 1 0.715992 0.532788 0.177975 0.0157913 0.00661917 -1.82971e-06
28 1 0.424958 0.416964 0.282152 0.00402568 -0.00858906 -0.00255494
29 1 0.174406 0.625466 0.15709 0.0119938 -0.00926881 -0.00439798
30 1 0.219457 0.449231 0.427787 0.00386247 0.00899261 0.00120601
31 1 0.928352 0.833715 0.0318988 -0.0112073 -0.010165 0.00224896
32 1 0.469709 0.740832 0.0529524 -0.00178419 0.00808874 0.00135956
33 1 0.183263 0.791517 0.656954 -0.00889981 -0.0085393 -0.00053739
34 1 0.221699 0.615495 0.927931 0.0112082 0.0101654 -0.00224932
35 1 0.975644 0.823743 0.80274 -0.0119936 0.00926684 0.00439672
36 1 0.680341 0.708378 0.906878 0.00178289 -0.00808953 -0.00136033
37 1 0.434059 0.916422 0.781855 -0.0157907 -0.00661977 2.3726e-06
38 1 0.930594 0.666645 0.532044 -0.00386428 -0.00899132 -0.00120675
39 1 0.677573 0.875115 0.407115 -0.0012778 -0.00880386 -0.00162727
40 1 0.725093 0.698912 0.677678 -0.00402621 0.00858885 0.00255439
41 1 0.472478 0.907428 0.552715 0.00127745 0.00880239 0.0016255
42 1 0.966788 0.657693 0.302876 0.00889918 0.00853815 0.000539117
43 1 0.715992 0.866121 0.177975 0.0157899 0.00662073 -1.15838e-06
44 1 0.424958 0.750298 0.282152 0.00402669 -0.0085882 -0.00255423
45 1 0.174406 0.9588 0.15709 0.0119945 -0.00926725 -0.00439652
46 1 0.219457 0.782564 0.427787 0.0038631 0.00899268 0.00120663
47 1 0.930594 -2.1333e-05 0.532044 -0.00386315 -0.00899286 -0.00120706
48 1 0.966788 0.991026 0.302876 0.0089004 0.0085383 0.000537386
