ITEM: TIMESTEP
0
ITEM: NUMBER OF ATOMS
48
ITEM: BOX BOUNDS xy xz yz pp pp pp
-1.4596629738807678e+00 8.5902721881866455e+00 2.5049497485160828e+00
0.0000000000000000e+00 9.2428106069564819e+00 -1.4596629738807678e+00
0.0000000000000000e+00 1.9517127633094788e+01 0.0000000000000000e+00
ITEM: ATOMS id type xs ys zs fx fy fz
1 1 0.918114 0.167011 0.0319649 0.0835377 0.00657523 0.00173509
2 1 0.460041 0.0749164 0.0533944 0.0583297 -0.00647032 0.00357807
3 1 0.183785 0.12472 0.656965 0.00116646 0.0053159 0.000306726
4 1 0.231937 0.948865 0.927865 -0.0835392 -0.00657558 -0.00173581
5 1 0.978834 0.157171 0.8026 0.00344932 -0.00577521 -0.00110614
6 1 0.69001 0.04096 0.906436 -0.0583285 0.00647044 -0.0035789
7 1 0.436917 0.249555 0.781869 -0.00442803 0.00566459 -0.000714064
8 1 0.677499 0.208207 0.407109 0.00148904 0.00596642 0.000486851
9 1 0.725732 0.0324994 0.677648 -0.00185394 -0.00596094 -6.35386e-05
10 1 0.472552 0.241003 0.552721 -0.00148857 -0.00596631 -0.00048542
11 1 0.713134 0.199655 0.177961 0.00442648 -0.00566518 0.00071311
12 1 0.424319 0.083377 0.282182 0.00185335 0.00596106 6.4373e-05
13 1 0.171217 0.292039 0.15723 -0.00344837 0.00577497 0.0011059
14 1 0.219419 0.116069 0.427789 -0.00156522 -0.00551534 -0.000225663
15 1 0.918114 0.500344 0.0319649 0.0835379 0.00657558 0.00173473
16 1 0.460041 0.40825 0.0533945 0.0583298 -0.00647068 0.00357819
17 1 0.183785 0.458053 0.656965 0.00116718 0.00531638 0.000306726
18 1 0.231937 0.282199 0.927865 -0.0835388 -0.00657606 -0.00173581
19 1 0.978834 0.490504 0.8026 0.00344968 -0.00577438 -0.00110626
20 1 0.69001 0.374293 0.906436 -0.0583289 0.00647056 -0.00357938
21 1 0.436917 0.582888 0.781869 -0.00442779 0.00566483 -0.000713944
22 1 0.930632 0.33314 0.532041 0.00156438 0.00551462 0.000227332
23 1 0.677499 0.54154 0.407109 0.00148976 0.00596702 0.000487089
24 1 0.725732 0.365833 0.677648 -0.00185394 -0.00596106 -6.36578e-05
25 1 0.472552 0.574336 0.552721 -0.00148857 -0.00596642 -0.000486135
26 1 0.966266 0.32449 0.302865 -0.00116611 -0.00531566 -0.000306606
27 1 0.713134 0.532988 0.177961 0.00442708 -0.00566506 0.00071311
28 1 0.424319 0.41671 0.282182 0.00185239 0.0059607 6.41346e-05
29 1 0.171217 0.625372 0.15723 -0.00344884 0.00577438 0.00110531
30 1 0.219419 0.449403 0.427789 -0.00156498 -0.00551522 -0.000226498
31 1 0.918114 0.833678 0.0319649 0.0835384 0.00657547 0.00173461
32 1 0.460041 0.741583 0.0533944 0.0583299 -0.00647056 0.00357831
33 1 0.183785 0.791386 0.656965 0.00116682 0.00531602 0.000306845
34 1 0.231937 0.615532 0.927865 -0.0835387 -0.00657582 -0.00173569
35 1 0.978834 0.823838 0.8026 0.0034498 -0.00577438 -0.0011059
36 1 0.69001 0.707627 0.906436 -0.0583279 0.00646996 -0.00357914
37 1 0.436917 0.916222 0.781869 -0.00442791 0.0056653 -0.000714064
38 1 0.930632 0.666474 0.532041 0.00156391 0.00551498 0.000226974
39 1 0.677499 0.874873 0.407109 0.00148869 0.00596654 0.000487208
40 1 0.725732 0.699166 0.677648 -0.00185418 -0.00596023 -6.36578e-05
41 1 0.472552 0.90767 0.552721 -0.00148857 -0.00596654 -0.000485778
42 1 0.966266 0.657823 0.302865 -0.00116539 -0.00531542 -0.000306726
43 1 0.713134 0.866321 0.177961 0.00442684 -0.00566494 0.00071311
44 1 0.424319 0.750044 0.282182 0.00185299 0.00596094 6.40154e-05
45 1 0.171217 0.958706 0.15723 -0.00344896 0.00577474 0.00110555
46 1 0.219419 0.782736 0.427789 -0.00156462 -0.00551534 -0.000226259
47 1 0.930632 0.999807 0.532041 0.00156415 0.00551534 0.000227571
48 1 0.966266 0.991157 0.302865 -0.00116587 -0.0053153 -0.000305891
ITEM: TIMESTEP
1
ITEM: NUMBER OF ATOMS
48
ITEM: BOX BOUNDS xy xz yz pp pp pp
-1.4601132273674011e+00 8.5908269882202148e+00 2.5052002668380737e+00
-4.6211481094360352e-04 9.2432727217674255e+00 -1.4598089456558228e+00
-9.7584724426269531e-04 1.9518103480339050e+01 0.0000000000000000e+00
ITEM: ATOMS id type xs ys zs fx fy fz
1 1 0.918114 0.167011 0.0319649 0.083491 0.0065707 0.00176668
2 1 0.460041 0.0749164 0.0533945 0.0583138 -0.00645852 0.00360119
3 1 0.183785 0.12472 0.656965 0.00116336 0.00530648 0.000306726
4 1 0.231936 0.948865 0.927865 -0.0834924 -0.00657058 -0.00176752
5 1 0.978834 0.157171 0.8026 0.00344181 -0.00576377 -0.00110781
6 1 0.69001 0.04096 0.906436 -0.0583123 0.0064584 -0.00360119
7 1 0.436917 0.249555 0.781869 -0.00442958 0.00565696 -0.00071609
8 1 0.677499 0.208207 0.407109 0.00148547 0.0059582 0.000485897
9 1 0.725732 0.0324994 0.677648 -0.00185132 -0.00595212 -6.24657e-05
10 1 0.472552 0.241003 0.552721 -0.00148523 -0.00595772 -0.000484586
11 1 0.713134 0.199655 0.177961 0.00442827 -0.00565743 0.000715613
12 1 0.424319 0.083377 0.282182 0.00185049 0.005952 6.27041e-05
13 1 0.171217 0.292039 0.15723 -0.00344086 0.00576353 0.00110686
14 1 0.219419 0.116069 0.427789 -0.00156116 -0.00550628 -0.000224471
15 1 0.918114 0.500344 0.0319649 0.0834914 0.00657082 0.0017662
16 1 0.460041 0.40825 0.0533945 0.058314 -0.00645864 0.00360048
17 1 0.183785 0.458053 0.656965 0.00116408 0.00530708 0.000306845
18 1 0.231937 0.282199 0.927865 -0.0834929 -0.00657117 -0.00176728
19 1 0.978834 0.490504 0.8026 0.00344205 -0.00576329 -0.00110781
20 1 0.69001 0.374293 0.906436 -0.0583125 0.0064584 -0.00360155
21 1 0.436917 0.582888 0.781869 -0.0044291 0.00565779 -0.000715852
22 1 0.930632 0.33314 0.532041 0.00156009 0.00550616 0.00022614
23 1 0.677499 0.54154 0.407109 0.00148594 0.00595844 0.000485897
24 1 0.725732 0.365833 0.677648 -0.00185168 -0.005952 -6.24657e-05
25 1 0.472552 0.574336 0.552721 -0.00148499 -0.00595784 -0.000485182
26 1 0.966266 0.32449 0.302865 -0.00116229 -0.00530744 -0.000306487
27 1 0.713134 0.532988 0.177961 0.00442922 -0.00565732 0.000715971
28 1 0.424319 0.41671 0.282182 0.00185001 0.005952 6.28233e-05
29 1 0.171217 0.625372 0.15723 -0.00344145 0.00576293 0.00110674
30 1 0.219419 0.449403 0.427789 -0.00156164 -0.00550628 -0.000225663
31 1 0.918114 0.833678 0.0319649 0.0834912 0.00657117 0.00176585
32 1 0.460041 0.741583 0.0533945 0.0583141 -0.00645888 0.00360119
33 1 0.183785 0.791386 0.656965 0.00116372 0.00530708 0.000307202
34 1 0.231936 0.615532 0.927865 -0.0834926 -0.0065707 -0.00176752
35 1 0.978834 0.823838 0.8026 0.00344193 -0.00576329 -0.00110769
36 1 0.69001 0.707627 0.906436 -0.0583119 0.00645792 -0.00360119
37 1 0.436917 0.916222 0.781869 -0.00442946 0.00565743 -0.000716209
38 1 0.930632 0.666474 0.532041 0.00156021 0.00550663 0.00022614
39 1 0.677499 0.874873 0.407109 0.00148559 0.00595832 0.000485897
40 1 0.725732 0.699166 0.677648 -0.00185132 -0.00595176 -6.23465e-05
41 1 0.472552 0.90767 0.552721 -0.00148511 -0.00595808 -0.000484705
42 1 0.966266 0.657823 0.302865 -0.00116265 -0.00530708 -0.000306845
43 1 0.713134 0.866321 0.177961 0.00442886 -0.00565696 0.000715375
44 1 0.424319 0.750044 0.282182 0.00185025 0.00595212 6.27041e-05
45 1 0.171217 0.958706 0.15723 -0.0034411 0.00576317 0.00110674
46 1 0.219419 0.782736 0.427789 -0.00156128 -0.00550604 -0.000224829
47 1 0.930632 0.999807 0.532041 0.00156045 0.00550663 0.000226378
48 1 0.966266 0.991157 0.302865 -0.00116241 -0.0053072 -0.000306487
ITEM: TIMESTEP
2
ITEM: NUMBER OF ATOMS
48
ITEM: BOX BOUNDS xy xz yz pp pp pp
-1.4605634808540344e+00 8.5913817286491394e+00 2.5054507255554199e+00
-9.2422962188720703e-04 9.2437348365783691e+00 -1.4599549174308777e+00
-1.9516944885253906e-03 1.9519079327583313e+01 0.0000000000000000e+00
ITEM: ATOMS id type xs ys zs fx fy fz
1 1 0.918115 0.167011 0.0319649 0.0834451 0.00656641 0.00179911
2 1 0.460041 0.0749164 0.0533945 0.0582966 -0.00644565 0.00362265
3 1 0.183785 0.12472 0.656965 0.00115979 0.00529885 0.000306726
4 1 0.231936 0.948865 0.927865 -0.0834465 -0.00656617 -0.00179994
5 1 0.978834 0.157171 0.8026 0.00343382 -0.00575173 -0.00110769
6 1 0.69001 0.0409601 0.906436 -0.0582947 0.00644457 -0.0036236
7 1 0.436917 0.249555 0.781869 -0.00443268 0.00564933 -0.000718594
8 1 0.677499 0.208207 0.407109 0.00148308 0.00594914 0.000484228
9 1 0.725732 0.0324993 0.677648 -0.00184739 -0.00594532 -6.07967e-05
10 1 0.472552 0.241003 0.552721 -0.00148213 -0.00594842 -0.000483274
11 1 0.713134 0.199655 0.177961 0.00443125 -0.00564933 0.000717759
12 1 0.424319 0.083377 0.282182 0.00184655 0.00594544 6.12736e-05
13 1 0.171217 0.292039 0.15723 -0.00343287 0.00575113 0.00110781
14 1 0.219419 0.116069 0.427789 -0.00155759 -0.00549877 -0.000223279
15 1 0.918115 0.500344 0.0319649 0.0834458 0.00656652 0.00179815
16 1 0.460041 0.40825 0.0533945 0.0582966 -0.00644505 0.00362253
17 1 0.183785 0.458053 0.656965 0.00116074 0.00529945 0.000306964
18 1 0.231936 0.282199 0.927865 -0.0834469 -0.00656641 -0.00179958
19 1 0.978834 0.490504 0.8026 0.00343406 -0.00575066 -0.00110805
20 1 0.69001 0.374293 0.906436 -0.058295 0.00644493 -0.00362349
21 1 0.436917 0.582888 0.781869 -0.00443256 0.00564945 -0.000718594
22 1 0.930632 0.33314 0.532041 0.00155675 0.00549936 0.00022471
23 1 0.677499 0.54154 0.407109 0.00148273 0.00594914 0.000484347
24 1 0.725732 0.365833 0.677648 -0.00184751 -0.00594532 -6.05583e-05
25 1 0.472552 0.574336 0.552721 -0.00148189 -0.00594914 -0.000483871
26 1 0.966266 0.32449 0.302865 -0.00115955 -0.00529933 -0.000306368
27 1 0.713134 0.532988 0.177961 0.00443196 -0.00564933 0.00071764
28 1 0.424319 0.41671 0.282182 0.00184631 0.00594449 6.12736e-05
29 1 0.171217 0.625372 0.15723 -0.00343335 0.00575066 0.00110734
30 1 0.219419 0.449403 0.427789 -0.00155818 -0.00549912 -0.000224113
31 1 0.918115 0.833678 0.0319649 0.0834454 0.00656629 0.00179803
32 1 0.460041 0.741583 0.0533945 0.0582963 -0.00644565 0.00362277
33 1 0.183785 0.791386 0.656965 0.00116038 0.00529957 0.000306964
34 1 0.231936 0.615532 0.927865 -0.0834465 -0.00656652 -0.00179923
35 1 0.978834 0.823838 0.8026 0.00343418 -0.00575054 -0.00110769
36 1 0.690009 0.707627 0.906436 -0.0582944 0.00644433 -0.00362337
37 1 0.436917 0.916222 0.781869 -0.00443292 0.00564969 -0.000718355
38 1 0.930632 0.666474 0.532041 0.00155652 0.00549889 0.00022471
39 1 0.677499 0.874873 0.407109 0.00148273 0.00594902 0.000484586
40 1 0.725732 0.699166 0.677648 -0.00184762 -0.00594461 -6.05583e-05
41 1 0.472552 0.90767 0.552721 -0.00148225 -0.0059489 -0.000483751
42 1 0.966266 0.657823 0.302865 -0.00115931 -0.00529897 -0.000306964
43 1 0.713134 0.866321 0.177961 0.00443232 -0.00564921 0.000718117
44 1 0.424319 0.750044 0.282182 0.00184619 0.00594521 6.11544e-05
45 1 0.171217 0.958706 0.15723 -0.00343311 0.00575125 0.00110781
46 1 0.219419 0.782736 0.427789 -0.00155735 -0.00549901 -0.000223756
47 1 0.930632 0.999807 0.532041 0.00155663 0.00549912 0.000225186
48 1 0.966266 0.991157 0.302865 -0.00115955 -0.00529909 -0.000306368
ITEM: TIMESTEP
3
ITEM: NUMBER OF ATOMS
48
ITEM: BOX BOUNDS xy xz yz pp pp pp
-1.4610137343406677e+00 8.5919364690780640e+00 2.5057011842727661e+00
-1.3863444328308105e-03 9.2441969513893127e+00 -1.4601008892059326e+00
-2.9275417327880859e-03 1.9520055174827576e+01 0.0000000000000000e+00
ITEM: ATOMS id type xs ys zs fx fy fz
1 1 0.918115 0.167011 0.0319649 0.0833982 0.00656259 0.00182998
2 1 0.460041 0.0749164 0.0533945 0.0582786 -0.00643337 0.00364506
3 1 0.183785 0.12472 0.656965 0.00115621 0.00529015 0.000306249
4 1 0.231936 0.948865 0.927865 -0.0834006 -0.00656223 -0.00183117
5 1 0.978834 0.157171 0.8026 0.00342679 -0.00574183 -0.00110829
6 1 0.690009 0.0409601 0.906436 -0.0582769 0.00643337 -0.00364542
7 1 0.436917 0.249555 0.781869 -0.0044353 0.00564229 -0.000721097
8 1 0.677499 0.208207 0.407109 0.00147998 0.00594163 0.000483871
9 1 0.725732 0.0324993 0.677648 -0.00184405 -0.00593686 -6.02007e-05
10 1 0.472552 0.241003 0.552721 -0.00147843 -0.00594091 -0.000482321
11 1 0.713134 0.199655 0.177961 0.0044328 -0.00564277 0.000719786
12 1 0.424319 0.083377 0.282182 0.00184333 0.0059365 6.10352e-05
13 1 0.171217 0.292039 0.15723 -0.003425 0.00574172 0.00110793
14 1 0.219419 0.116069 0.427789 -0.00155437 -0.00549042 -0.000222802
15 1 0.918115 0.500344 0.0319649 0.0833988 0.00656319 0.00182974
16 1 0.460041 0.40825 0.0533945 0.0582786 -0.00643325 0.00364482
17 1 0.183785 0.458053 0.656965 0.00115705 0.00529051 0.000306606
18 1 0.231936 0.282199 0.927865 -0.0834006 -0.00656319 -0.00183141
19 1 0.978834 0.490504 0.8026 0.00342679 -0.005741 -0.00110829
20 1 0.690009 0.374293 0.906436 -0.0582772 0.00643289 -0.00364578
21 1 0.436917 0.582888 0.781869 -0.00443387 0.00564253 -0.000721097
22 1 0.930632 0.33314 0.532041 0.00155342 0.0054903 0.000224233
23 1 0.677499 0.54154 0.407109 0.00147974 0.00594175 0.000483871
24 1 0.725732 0.365833 0.677648 -0.00184429 -0.00593615 -6.03199e-05
25 1 0.472552 0.574336 0.552721 -0.00147915 -0.00594139 -0.000482678
26 1 0.966266 0.32449 0.302865 -0.00115633 -0.00529075 -0.000306606
27 1 0.713134 0.532988 0.177961 0.00443375 -0.00564277 0.000720024
28 1 0.424319 0.41671 0.282182 0.00184286 0.00593615 6.12736e-05
29 1 0.171217 0.625372 0.15723 -0.00342536 0.00574076 0.00110781
30 1 0.219419 0.449403 0.427789 -0.00155461 -0.0054903 -0.000223398
31 1 0.918115 0.833678 0.0319649 0.0833995 0.00656295 0.00182998
32 1 0.460041 0.741583 0.0533945 0.0582789 -0.00643373 0.00364518
33 1 0.183785 0.791386 0.656965 0.00115657 0.00529051 0.000306845
34 1 0.231936 0.615532 0.927865 -0.0834001 -0.00656295 -0.00183094
35 1 0.978834 0.823838 0.8026 0.00342667 -0.00574076 -0.00110841
36 1 0.690009 0.707627 0.906436 -0.0582763 0.00643289 -0.00364542
37 1 0.436917 0.916222 0.781869 -0.00443459 0.00564241 -0.000721335
38 1 0.930632 0.666474 0.532041 0.00155342 0.00549078 0.000224113
39 1 0.677499 0.874873 0.407109 0.00147974 0.00594163 0.000483751
40 1 0.725732 0.699166 0.677648 -0.00184441 -0.0059365 -6.02007e-05
41 1 0.472552 0.90767 0.552721 -0.00147891 -0.00594151 -0.00048244
42 1 0.966266 0.657823 0.302865 -0.00115573 -0.00529027 -0.000306726
43 1 0.713134 0.866321 0.177961 0.00443375 -0.00564253 0.000719905
44 1 0.424319 0.750044 0.282182 0.00184309 0.00593674 6.07967e-05
45 1 0.171217 0.958706 0.15723 -0.00342548 0.00574124 0.00110805
46 1 0.219419 0.782736 0.427789 -0.00155425 -0.00549018 -0.00022316
47 1 0.930632 0.999807 0.532041 0.0015533 0.00549102 0.000224829
48 1 0.966266 0.991157 0.302865 -0.00115597 -0.00529087 -0.000306249
ITEM: TIMESTEP
4
ITEM: NUMBER OF ATOMS
48
ITEM: BOX BOUNDS xy xz yz pp pp pp
-1.4614639878273010e+00 8.5924912691116333e+00 2.5059517025947571e+00
-1.8484592437744141e-03 9.2446590662002563e+00 -1.4602468609809875e+00
-3.9033889770507812e-03 1.9521031022071838e+01 0.0000000000000000e+00
ITEM: ATOMS id type xs ys zs fx fy fz
1 1 0.918115 0.167011 0.0319649 0.0833514 0.00655806 0.00186157
2 1 0.460042 0.0749163 0.0533945 0.0582613 -0.00642037 0.00366664
3 1 0.183785 0.12472 0.656965 0.00115311 0.00528276 0.000306249
4 1 0.231936 0.948865 0.927865 -0.0833536 -0.00655854 -0.00186276
5 1 0.978834 0.157171 0.8026 0.00341928 -0.00572956 -0.00110984
6 1 0.690009 0.0409601 0.906436 -0.0582587 0.00642049 -0.00366724
7 1 0.436917 0.249555 0.781869 -0.00443745 0.00563371 -0.000723124
8 1 0.677499 0.208207 0.407109 0.00147629 0.00593293 0.000482798
9 1 0.725732 0.0324993 0.677648 -0.00184131 -0.00592864 -6.03199e-05
10 1 0.472552 0.241003 0.552721 -0.00147533 -0.00593281 -0.000481725
11 1 0.713134 0.199655 0.177961 0.0044359 -0.00563407 0.000722408
12 1 0.424319 0.083377 0.282182 0.00184035 0.00592911 6.11544e-05
13 1 0.171217 0.292039 0.15723 -0.00341821 0.0057292 0.00110936
14 1 0.219419 0.116069 0.427789 -0.00155044 -0.00548267 -0.000222325
15 1 0.918115 0.500344 0.0319649 0.0833519 0.0065583 0.0018611
16 1 0.460042 0.40825 0.0533945 0.0582604 -0.00642037 0.00366676
17 1 0.183785 0.458053 0.656965 0.0011543 0.00528288 0.000306606
18 1 0.231936 0.282199 0.927865 -0.0833533 -0.00655854 -0.00186265
19 1 0.978834 0.490504 0.8026 0.00341928 -0.00572908 -0.00111008
20 1 0.690009 0.374293 0.906436 -0.0582591 0.00642061 -0.00366724
21 1 0.436917 0.582888 0.781869 -0.00443697 0.00563395 -0.000723243
22 1 0.930632 0.33314 0.532041 0.00154996 0.00548244 0.000223756
23 1 0.677499 0.54154 0.407109 0.00147653 0.00593317 0.000482798
24 1 0.725732 0.365833 0.677648 -0.00184155 -0.00592875 -5.98431e-05
25 1 0.472552 0.574336 0.552721 -0.00147569 -0.00593281 -0.000481367
26 1 0.966266 0.32449 0.302865 -0.00115311 -0.00528228 -0.000306726
27 1 0.713134 0.532988 0.177961 0.00443649 -0.00563419 0.000722766
28 1 0.424319 0.41671 0.282182 0.00183964 0.00592816 6.04391e-05
29 1 0.171217 0.625372 0.15723 -0.00341845 0.00572824 0.00110924
30 1 0.219419 0.449403 0.427789 -0.00155067 -0.00548267 -0.000223041
31 1 0.918115 0.833678 0.0319649 0.083352 0.00655818 0.00186145
32 1 0.460042 0.741583 0.0533945 0.058261 -0.00642061 0.00366652
33 1 0.183785 0.791386 0.656965 0.00115383 0.00528288 0.000306368
34 1 0.231936 0.615532 0.927865 -0.0833533 -0.0065583 -0.00186253
35 1 0.978834 0.823838 0.8026 0.00341928 -0.0057286 -0.00111008
36 1 0.690009 0.707627 0.906436 -0.0582587 0.00642014 -0.00366712
37 1 0.436917 0.916222 0.781869 -0.00443733 0.00563383 -0.000723243
38 1 0.930632 0.666474 0.532041 0.00154936 0.00548291 0.000223756
39 1 0.677499 0.874873 0.407109 0.00147641 0.00593328 0.000483155
40 1 0.725732 0.699166 0.677648 -0.00184119 -0.00592816 -6.02007e-05
41 1 0.472552 0.90767 0.552721 -0.00147521 -0.00593305 -0.000481248
42 1 0.966266 0.657823 0.302865 -0.0011524 -0.00528228 -0.000306845
43 1 0.713134 0.866321 0.177961 0.00443637 -0.00563383 0.000722766
44 1 0.424319 0.750044 0.282182 0.00183964 0.00592887 6.06775e-05
45 1 0.171217 0.958706 0.15723 -0.00341821 0.00572884 0.00110936
46 1 0.219419 0.782736 0.427789 -0.00155032 -0.00548267 -0.000222683
47 1 0.930632 0.999807 0.532041 0.00154924 0.00548267 0.000224113
48 1 0.966266 0.991157 0.302865 -0.00115275 -0.00528276 -0.000306368
ITEM: TIMESTEP
5
ITEM: NUMBER OF ATOMS
48
ITEM: BOX BOUNDS xy xz yz pp pp pp
-1.4619141817092896e+00 8.5930460095405579e+00 2.5062021613121033e+00
-2.3105740547180176e-03 9.2451211810112000e+00 -1.4603927731513977e+00
-4.8792362213134766e-03 1.9522006869316101e+01 0.0000000000000000e+00
ITEM: ATOMS id type xs ys zs fx fy fz
1 1 0.918115 0.167011 0.0319649 0.0833051 0.00655413 0.00189281
2 1 0.460042 0.0749163 0.0533945 0.0582433 -0.00640798 0.00368822
3 1 0.183785 0.12472 0.656965 0.00115001 0.0052743 0.000306249
4 1 0.231936 0.948865 0.927865 -0.0833063 -0.0065546 -0.00189388
5 1 0.978834 0.157171 0.8026 0.00341094 -0.0057168 -0.00111139
6 1 0.690009 0.0409601 0.906436 -0.0582411 0.00640821 -0.00368834
7 1 0.436917 0.249555 0.781869 -0.00443852 0.00562513 -0.000726104
8 1 0.677499 0.208207 0.407109 0.00147307 0.00592494 0.000481963
9 1 0.725732 0.0324993 0.677648 -0.00183761 -0.00592101 -5.91278e-05
10 1 0.472552 0.241003 0.552721 -0.001472 -0.00592458 -0.000480652
11 1 0.713134 0.199655 0.177961 0.00443661 -0.00562572 0.000725389
12 1 0.424319 0.0833771 0.282182 0.00183678 0.00592089 5.99623e-05
13 1 0.171217 0.292039 0.15723 -0.00340974 0.00571704 0.00111067
14 1 0.219419 0.116069 0.427789 -0.00154769 -0.00547373 -0.000221252
15 1 0.918115 0.500344 0.0319649 0.0833054 0.00655448 0.00189209
16 1 0.460042 0.40825 0.0533945 0.0582423 -0.00640798 0.00368726
17 1 0.183785 0.458053 0.656965 0.00115073 0.00527477 0.00030601
18 1 0.231936 0.282199 0.927865 -0.0833063 -0.0065546 -0.00189376
19 1 0.978834 0.490504 0.8026 0.00341105 -0.00571609 -0.00111127
20 1 0.690009 0.374293 0.906436 -0.058242 0.00640821 -0.00368822
21 1 0.436917 0.582888 0.781869 -0.00443733 0.00562525 -0.000726104
22 1 0.930632 0.33314 0.532041 0.0015465 0.00547314 0.000223041
23 1 0.677499 0.54154 0.407109 0.00147319 0.00592554 0.000481963
24 1 0.725732 0.365833 0.677648 -0.00183797 -0.0059216 -5.8651e-05
25 1 0.472552 0.574336 0.552721 -0.00147235 -0.00592458 -0.000481009
26 1 0.966266 0.32449 0.302865 -0.00114965 -0.00527465 -0.000306129
27 1 0.713134 0.532988 0.177961 0.00443745 -0.00562537 0.000725031
28 1 0.424319 0.41671 0.282182 0.00183618 0.00592101 5.96046e-05
29 1 0.171217 0.625372 0.15723 -0.00340974 0.0057162 0.00111008
30 1 0.219419 0.449403 0.427789 -0.00154769 -0.00547314 -0.000221491
31 1 0.918115 0.833678 0.0319649 0.0833052 0.00655437 0.00189245
32 1 0.460042 0.741583 0.0533945 0.0582428 -0.00640821 0.00368786
33 1 0.183785 0.791386 0.656965 0.00115061 0.00527442 0.000305891
34 1 0.231936 0.615532 0.927865 -0.0833062 -0.00655484 -0.00189364
35 1 0.978834 0.823837 0.8026 0.00341105 -0.00571609 -0.00111115
36 1 0.690009 0.707627 0.906436 -0.0582412 0.00640821 -0.00368857
37 1 0.436917 0.916222 0.781869 -0.00443864 0.00562537 -0.000725627
38 1 0.930632 0.666474 0.532041 0.00154626 0.00547326 0.000222683
39 1 0.677499 0.874873 0.407109 0.00147307 0.0059253 0.000482202
40 1 0.725732 0.699166 0.677648 -0.00183773 -0.00592101 -5.88894e-05
41 1 0.472552 0.90767 0.552721 -0.00147212 -0.00592494 -0.000480771
42 1 0.966266 0.657823 0.302865 -0.00114918 -0.00527442 -0.00030601
43 1 0.713134 0.866321 0.177961 0.00443745 -0.00562549 0.000725269
44 1 0.424319 0.750044 0.282182 0.00183654 0.00592113 5.96046e-05
45 1 0.171217 0.958706 0.15723 -0.0034101 0.00571668 0.0011102
46 1 0.219419 0.782736 0.427789 -0.00154734 -0.00547338 -0.000221372
47 1 0.930632 0.999807 0.532041 0.00154614 0.00547349 0.000222921
48 1 0.966266 0.991157 0.302865 -0.00114918 -0.00527465 -0.00030601
ITEM: TIMESTEP
6
ITEM: NUMBER OF ATOMS
48
ITEM: BOX BOUNDS xy xz yz pp pp pp
-1.4623644351959229e+00 8.5936007499694824e+00 2.5064526200294495e+00
-2.7726888656616211e-03 9.2455832958221436e+00 -1.4605387449264526e+00
-5.8550834655761719e-03 1.9522982716560364e+01 0.0000000000000000e+00
ITEM: ATOMS id type xs ys zs fx fy fz
1 1 0.918115 0.167011 0.0319649 0.0832591 0.00655055 0.00192273
2 1 0.460042 0.0749163 0.0533945 0.0582263 -0.00639582 0.00370824
3 1 0.183785 0.12472 0.656965 0.00114775 0.00526631 0.000306249
4 1 0.231936 0.948865 0.927865 -0.0832604 -0.00655043 -0.00192416
5 1 0.978834 0.157171 0.8026 0.0034039 -0.005705 -0.00111234
6 1 0.690009 0.0409601 0.906436 -0.0582241 0.00639606 -0.00370896
7 1 0.436917 0.249555 0.781869 -0.00444114 0.00561726 -0.000727892
8 1 0.677499 0.208207 0.407109 0.0014708 0.00591636 0.000480771
9 1 0.725732 0.0324993 0.677648 -0.00183451 -0.0059129 -5.88894e-05
10 1 0.472552 0.241003 0.552721 -0.00146973 -0.00591564 -0.000479221
11 1 0.713134 0.199655 0.177961 0.00443959 -0.0056175 0.000727892
12 1 0.424319 0.0833771 0.282182 0.00183368 0.00591278 5.98431e-05
13 1 0.171217 0.292039 0.15723 -0.00340331 0.00570476 0.00111187
14 1 0.219419 0.116069 0.427789 -0.00154471 -0.00546527 -0.000219703
15 1 0.918115 0.500344 0.0319649 0.0832593 0.00655079 0.00192273
16 1 0.460042 0.40825 0.0533945 0.0582261 -0.00639546 0.00370789
17 1 0.183785 0.458053 0.656965 0.00114834 0.00526619 0.000306487
18 1 0.231936 0.282199 0.927865 -0.0832602 -0.00655091 -0.00192416
19 1 0.978834 0.490504 0.8026 0.0034045 -0.00570452 -0.00111234
20 1 0.690009 0.374293 0.906436 -0.0582244 0.0063957 -0.00370932
21 1 0.436916 0.582888 0.781869 -0.0044409 0.00561774 -0.00072825
22 1 0.930632 0.33314 0.532041 0.00154388 0.00546491 0.000221133
23 1 0.677499 0.54154 0.407109 0.00147104 0.00591671 0.00048089
24 1 0.725732 0.365833 0.677648 -0.00183487 -0.00591326 -5.8651e-05
25 1 0.472552 0.574336 0.552721 -0.00146997 -0.005916 -0.000479937
26 1 0.966266 0.32449 0.302865 -0.00114703 -0.00526607 -0.000306129
27 1 0.713134 0.532988 0.177961 0.00444007 -0.0056175 0.000727534
28 1 0.424319 0.41671 0.282182 0.00183296 0.00591242 5.98431e-05
29 1 0.171217 0.625372 0.15723 -0.00340378 0.00570381 0.00111127
30 1 0.219419 0.449403 0.427789 -0.00154507 -0.00546491 -0.000220537
31 1 0.918115 0.833678 0.0319649 0.0832592 0.00655091 0.00192249
32 1 0.460042 0.741583 0.0533945 0.058226 -0.00639582 0.00370836
33 1 0.183785 0.791386 0.656965 0.00114799 0.00526607 0.000306606
34 1 0.231936 0.615532 0.927865 -0.0832601 -0.00655127 -0.0019238
35 1 0.978834 0.823837 0.8026 0.00340414 -0.00570428 -0.00111222
36 1 0.690009 0.707627 0.906436 -0.0582241 0.00639582 -0.0037092
37 1 0.436917 0.916222 0.781869 -0.00444126 0.00561726 -0.000727892
38 1 0.930632 0.666474 0.532041 0.00154364 0.00546503 0.000221014
39 1 0.677499 0.874873 0.407109 0.0014708 0.00591683 0.000480771
40 1 0.725732 0.699166 0.677648 -0.00183463 -0.00591266 -5.88894e-05
41 1 0.472552 0.90767 0.552721 -0.00146961 -0.00591612 -0.000479579
42 1 0.966266 0.657823 0.302865 -0.00114667 -0.00526631 -0.000306487
43 1 0.713134 0.866321 0.177961 0.00444031 -0.00561738 0.000727654
44 1 0.424319 0.750044 0.282182 0.0018332 0.00591266 5.97239e-05
45 1 0.171217 0.958706 0.15723 -0.0034039 0.00570464 0.00111127
46 1 0.219419 0.782736 0.427789 -0.00154471 -0.00546527 -0.00022006
47 1 0.930632 0.999807 0.532041 0.00154364 0.00546503 0.000221252
48 1 0.966266 0.991157 0.302865 -0.00114727 -0.00526631 -0.000305891
ITEM: TIMESTEP
7
ITEM: NUMBER OF ATOMS
48
ITEM: BOX BOUNDS xy xz yz pp pp pp
-1.4628146886825562e+00 8.5941555500030518e+00 2.5067031383514404e+00
-3.2348036766052246e-03 9.2460454106330872e+00 -1.4606847167015076e+00
-6.8309307098388672e-03 1.9523958563804626e+01 0.0000000000000000e+00
ITEM: ATOMS id type xs ys zs fx fy fz
1 1 0.918116 0.167011 0.0319649 0.0832117 0.00654387 0.00195479
2 1 0.460042 0.0749163 0.0533945 0.0582081 -0.00638247 0.00373089
3 1 0.183785 0.12472 0.656965 0.00114417 0.00525701 0.000304699
4 1 0.231935 0.948865 0.927865 -0.0832132 -0.00654435 -0.00195563
5 1 0.978834 0.157171 0.8026 0.00339651 -0.00569367 -0.0011121
6 1 0.690009 0.0409601 0.906436 -0.0582057 0.00638258 -0.00373149
7 1 0.436917 0.249555 0.781869 -0.004444 0.0056088 -0.00072968
8 1 0.677499 0.208207 0.407109 0.00146782 0.00590765 0.000479698
9 1 0.725732 0.0324993 0.677648 -0.00183129 -0.00590408 -5.82933e-05
10 1 0.472552 0.241003 0.552721 -0.00146651 -0.00590742 -0.000478506
11 1 0.713134 0.199655 0.177961 0.0044421 -0.00560904 0.000729799
12 1 0.424319 0.0833771 0.282182 0.0018301 0.0059042 5.8651e-05
13 1 0.171217 0.292039 0.15723 -0.00339544 0.00569379 0.00111115
14 1 0.219419 0.116069 0.427789 -0.00154078 -0.00545692 -0.000218868
15 1 0.918116 0.500344 0.0319649 0.0832117 0.00654507 0.00195432
16 1 0.460042 0.40825 0.0533945 0.0582079 -0.00638247 0.00373042
17 1 0.183785 0.458053 0.656965 0.00114465 0.00525713 0.000304937
18 1 0.231935 0.282199 0.927865 -0.0832133 -0.00654495 -0.00195563
19 1 0.978834 0.490504 0.8026 0.00339687 -0.0056932 -0.00111187
20 1 0.690009 0.374293 0.906436 -0.0582064 0.0063827 -0.00373149
21 1 0.436916 0.582888 0.781869 -0.00444293 0.00560892 -0.000730157
22 1 0.930632 0.33314 0.532041 0.00154006 0.00545645 0.000220656
23 1 0.677499 0.54154 0.407109 0.00146806 0.00590765 0.000479937
24 1 0.725732 0.365833 0.677648 -0.00183141 -0.0059036 -5.76973e-05
25 1 0.472552 0.574336 0.552721 -0.00146663 -0.00590777 -0.000479102
26 1 0.966266 0.32449 0.302865 -0.00114298 -0.00525749 -0.000304222
27 1 0.713134 0.532988 0.177961 0.00444245 -0.0056088 0.000729322
28 1 0.424319 0.41671 0.282182 0.00182915 0.00590396 5.84126e-05
29 1 0.171217 0.625372 0.15723 -0.00339568 0.00569284 0.00111067
30 1 0.219419 0.449403 0.427789 -0.00154161 -0.00545633 -0.00022018
31 1 0.918116 0.833678 0.0319649 0.0832121 0.00654435 0.00195456
32 1 0.460042 0.741583 0.0533945 0.0582082 -0.00638294 0.0037303
33 1 0.183785 0.791386 0.656965 0.00114441 0.00525713 0.000305057
34 1 0.231935 0.615532 0.927865 -0.0832129 -0.00654471 -0.00195515
35 1 0.978834 0.823837 0.8026 0.00339651 -0.00569284 -0.00111175
36 1 0.690009 0.707627 0.906436 -0.0582056 0.00638223 -0.00373161
37 1 0.436917 0.916222 0.781869 -0.004444 0.00560904 -0.000730157
38 1 0.930632 0.666474 0.532041 0.00153983 0.00545681 0.000220299
39 1 0.677499 0.874873 0.407109 0.00146711 0.00590789 0.000479817
40 1 0.725732 0.699166 0.677648 -0.00183129 -0.00590348 -5.76973e-05
41 1 0.472552 0.90767 0.552721 -0.00146711 -0.00590777 -0.000478745
42 1 0.966266 0.657823 0.302865 -0.0011425 -0.00525725 -0.000304818
43 1 0.713134 0.866321 0.177961 0.00444245 -0.00560856 0.00072968
44 1 0.424319 0.750044 0.282182 0.00182986 0.00590396 5.82933e-05
45 1 0.171217 0.958706 0.15723 -0.00339568 0.00569332 0.00111115
46 1 0.219419 0.782736 0.427789 -0.0015409 -0.00545681 -0.000218987
47 1 0.930632 0.999807 0.532041 0.00153959 0.00545692 0.000220537
48 1 0.966266 0.991157 0.302865 -0.00114346 -0.00525737 -0.000304222
ITEM: TIMESTEP
8
ITEM: NUMBER OF ATOMS
48
ITEM: BOX BOUNDS xy xz yz pp pp pp
-1.4632649421691895e+00 8.5947102904319763e+00 2.5069535970687866e+00
-3.6969184875488281e-03 9.2465075254440308e+00 -1.4608306884765625e+00
-7.8067779541015625e-03 1.9524934411048889e+01 0.0000000000000000e+00
ITEM: ATOMS id type xs ys zs fx fy fz
1 1 0.918116 0.167011 0.0319649 0.0831633 0.00653994 0.00198662
2 1 0.460042 0.0749163 0.0533945 0.0581905 -0.00636983 0.00375235
3 1 0.183785 0.12472 0.656965 0.00114059 0.00524879 0.000305891
4 1 0.231935 0.948865 0.927865 -0.0831648 -0.00654042 -0.0019877
5 1 0.978834 0.157171 0.8026 0.00338888 -0.00568283 -0.00111246
6 1 0.690009 0.0409601 0.906436 -0.0581888 0.00637007 -0.00375271
7 1 0.436917 0.249555 0.781869 -0.00444603 0.00560057 -0.000732303
8 1 0.677499 0.208207 0.407109 0.00146461 0.00589943 0.00047791
9 1 0.725732 0.0324993 0.677648 -0.00182712 -0.00589633 -5.75781e-05
10 1 0.472552 0.241003 0.552721 -0.00146389 -0.00589907 -0.000476599
11 1 0.713135 0.199655 0.177961 0.00444436 -0.00560105 0.000732064
12 1 0.424319 0.0833771 0.282182 0.00182688 0.00589621 5.79357e-05
13 1 0.171217 0.292039 0.15723 -0.00338733 0.00568247 0.00111163
14 1 0.219419 0.116069 0.427789 -0.0015384 -0.00544894 -0.000218391
15 1 0.918116 0.500345 0.0319649 0.0831634 0.00654066 0.00198603
16 1 0.460042 0.40825 0.0533945 0.0581901 -0.00636983 0.00375235
17 1 0.183785 0.458053 0.656965 0.00114107 0.0052495 0.00030601
18 1 0.231935 0.282199 0.927865 -0.0831645 -0.00654078 -0.00198758
19 1 0.978834 0.490504 0.8026 0.0033896 -0.00568247 -0.0011121
20 1 0.690009 0.374293 0.906436 -0.0581894 0.00636959 -0.00375295
21 1 0.436916 0.582888 0.781869 -0.00444555 0.00560093 -0.000732541
22 1 0.930632 0.33314 0.532041 0.00153744 0.00544846 0.000219703
23 1 0.677499 0.54154 0.407109 0.00146461 0.00590003 0.000478387
24 1 0.725732 0.365833 0.677648 -0.0018276 -0.00589621 -5.74589e-05