LAMMPS data file via write_data, version 4 May 2022, timestep = 84

32 atoms
3 atom types

-0.002101302146911621 6.396650314331055 xlo xhi
-0.04152494668960571 22.124402940273285 ylo yhi
-0.014066457748413086 5.196532428264618 zlo zhi
0 -0 0 xy xz yz
Masses

1 24.305
2 65.40900000000001
3 88.90600000000001

Atoms # atomic

1 1 0.1208435102894415 7.419983147237443 3.078929921400517 0 0 0
2 1 3.3202194395744784 7.419982857185583 3.07893001430523 0 0 0
3 1 1.720531547573774 6.496399691569221 0.4736302051006085 0 0 0
4 1 4.919907344750117 6.496399912125601 0.47363023841660257 0 0 0
5 1 1.720531626687303 10.190723768552877 3.078929845149599 0 0 0
6 1 4.91990770451448 10.190723930360267 3.0789299662003535 0 0 0
7 1 0.12084349020879279 9.267144001287205 0.47363069607762603 0 0 0
8 1 3.320219181175828 9.267144106569756 0.4736305365305551 0 0 0
9 1 0.12084344410288353 12.961465458434867 3.078929992673433 0 0 0
10 1 3.3202196680468603 12.961465428761484 3.0789300873318144 0 0 0
11 1 1.7205314121859427 15.732205826532 3.078930217280518 0 0 0
12 1 4.919907343454822 15.73220583478135 3.0789301931595614 0 0 0
13 1 0.12084357260062434 14.808625914820972 0.47363013446215524 0 0 0
14 1 1.7205315513106638 12.0378842937362 0.4736305098954584 0 0 0
15 1 4.919907568279874 12.037884151142844 0.4736305375504564 0 0 0
16 1 3.3202195672083583 14.808625763757863 0.47363004953685806 0 0 0
17 1 0.12084367811473953 18.502943477766788 3.07892968945633 0 0 0
18 1 3.3202191912707972 18.5029438269787 3.078929725411879 0 0 0
19 1 1.7205315864447024 21.273684497254433 3.0789297536218405 0 0 0
20 1 4.919907587319914 21.27368445007389 3.0789296690247685 0 0 0
21 1 1.7205317047311934 17.579363684894616 0.4736301857916895 0 0 0
22 1 4.919907584328417 17.579363629729148 0.4736302667406748 0 0 0
23 1 0.1208437240352771 20.3501040154228 0.4736304030868051 0 0 0
24 1 3.3202195225157505 20.35010409991636 0.4736299978665023 0 0 0
25 1 0.12084392961243448 1.8784979029905298 3.078929874086793 0 0 0
26 1 3.3202189722618485 1.8784978952557787 3.07892984796011 0 0 0
27 1 1.720531606123525 0.9549181798941411 0.4736298602858728 0 0 0
28 1 4.919907522460287 0.9549181399681507 0.4736300985406076 0 0 0
29 1 1.7205316555161487 4.649241361652565 3.0789299297735107 0 0 0
30 1 4.919907340376905 4.6492413838360545 3.078929937989487 0 0 0
31 1 0.1208439502551626 3.725658097882214 0.473630089725227 0 0 0
32 1 3.3202192063892166 3.725658101572369 0.47363036260490743 0 0 0

Velocities

1 0 0 0
2 0 0 0
3 0 0 0
4 0 0 0
5 0 0 0
6 0 0 0
7 0 0 0
8 0 0 0
9 0 0 0
10 0 0 0
11 0 0 0
12 0 0 0
13 0 0 0
14 0 0 0
15 0 0 0
16 0 0 0
17 0 0 0
18 0 0 0
19 0 0 0
20 0 0 0
21 0 0 0
22 0 0 0
23 0 0 0
24 0 0 0
25 0 0 0
26 0 0 0
27 0 0 0
28 0 0 0
29 0 0 0
30 0 0 0
31 0 0 0
32 0 0 0
