ITEM: TIMESTEP
0
ITEM: NUMBER OF ATOMS
32
ITEM: BOX BOUNDS xy xz yz pp pp pp
-4.0532350540161133e-03 6.4008854031562805e+00 0.0000000000000000e+00
-9.1640949249267578e-03 9.2620720267295837e+00 0.0000000000000000e+00
-4.7960281372070312e-02 2.0773346722126007e+01 3.7324767708778381e+00
ITEM: ATOMS id type xs ys zs fx fy fz
1 1 0.999986 0.625894 0.0597509 0 0 0.00689507
2 1 0.499986 0.625894 0.0597509 0 0 0.00689507
3 1 0.249986 0.125893 0.0597519 0 0 0.00686073
4 1 0.749986 0.125893 0.0597519 0 0 0.00686073
5 1 0.999986 0.457435 0.309753 0 0 0.000642776
6 1 0.249986 0.376012 0.184753 0 0 0.00734138
7 1 0.749986 0.376012 0.184753 0 0 0.00734138
8 1 0.499986 0.457435 0.309753 0 0 0.000642776
9 1 0.999986 0.876011 0.184753 0 0 0.00736427
10 1 0.249986 0.957435 0.309753 0 0 0.000595093
11 1 0.499986 0.876011 0.184753 0 0 0.00736427
12 1 0.749986 0.957435 0.309753 0 0 0.000595093
13 1 0.999986 0.288953 0.559749 0 0 6.10352e-05
14 1 0.499986 0.288953 0.559749 0 0 6.10352e-05
15 1 0.249986 0.788951 0.55975 0 0 4.95911e-05
16 1 0.749986 0.788951 0.55975 0 0 4.95911e-05
17 1 0.249986 0.207543 0.434752 0 0 -6.10352e-05
18 1 0.749986 0.207543 0.434752 0 0 -6.10352e-05
19 1 0.999986 0.707542 0.434752 0 0 -3.8147e-05
20 1 0.499986 0.707542 0.434752 0 0 -3.8147e-05
21 1 0.999986 0.120474 0.809748 0 0 -0.00734901
22 1 0.249986 0.0390556 0.684748 0 0 -0.000623703
23 1 0.499986 0.120474 0.809748 0 0 -0.00734901
24 1 0.749986 0.0390556 0.684748 0 0 -0.000623703
25 1 0.999986 0.539055 0.684749 0 0 -0.000646591
26 1 0.249986 0.620474 0.809748 0 0 -0.00733566
27 1 0.749986 0.620474 0.809748 0 0 -0.00733566
28 1 0.499986 0.539055 0.684749 0 0 -0.000646591
29 1 0.249986 0.870589 0.934749 0 0 -0.00686073
30 1 0.749986 0.870589 0.934749 0 0 -0.00686073
31 1 0.999986 0.37059 0.93475 0 0 -0.00689507
32 1 0.499986 0.37059 0.93475 0 0 -0.00689507
ITEM: TIMESTEP
1
ITEM: NUMBER OF ATOMS
32
ITEM: BOX BOUNDS xy xz yz pp pp pp
-4.0532350540161133e-03 6.4008854031562805e+00 0.0000000000000000e+00
-9.1640949249267578e-03 9.2620720267295837e+00 0.0000000000000000e+00
-4.7960281372070312e-02 2.0773346722126007e+01 3.7324767708778381e+00
ITEM: ATOMS id type xs ys zs fx fy fz
1 1 0.999986 0.625768 0.0599373 0 0 -0.0024147
2 1 0.499986 0.625768 0.0599373 0 0 -0.0024147
3 1 0.249986 0.125768 0.0599374 0 0 -0.00240898
4 1 0.749986 0.125768 0.0599374 0 0 -0.00240898
5 1 0.999986 0.457423 0.30977 0 0 0.00478363
6 1 0.249986 0.375879 0.184952 0 0 0.0018692
7 1 0.749986 0.375879 0.184952 0 0 0.0018692
8 1 0.499986 0.457423 0.30977 0 0 0.00478363
9 1 0.999986 0.875877 0.184952 0 0 0.00184631
10 1 0.249986 0.957424 0.309769 0 0 0.00481606
11 1 0.499986 0.875877 0.184952 0 0 0.00184631
12 1 0.749986 0.957424 0.309769 0 0 0.00481606
13 1 0.999986 0.288952 0.559751 0 0 -0.000738144
14 1 0.499986 0.288952 0.559751 0 0 -0.000738144
15 1 0.249986 0.78895 0.559751 0 0 -0.000740051
16 1 0.749986 0.78895 0.559751 0 0 -0.000740051
17 1 0.249986 0.207544 0.434751 0 0 0.000738144
18 1 0.749986 0.207544 0.434751 0 0 0.000738144
19 1 0.999986 0.707543 0.434751 0 0 0.000717163
20 1 0.499986 0.707543 0.434751 0 0 0.000717163
21 1 0.999986 0.120608 0.80955 0 0 -0.00187111
22 1 0.249986 0.039067 0.684731 0 0 -0.00478172
23 1 0.499986 0.120608 0.80955 0 0 -0.00187111
24 1 0.749986 0.039067 0.684731 0 0 -0.00478172
25 1 0.999986 0.539067 0.684731 0 0 -0.004776
26 1 0.249986 0.620608 0.80955 0 0 -0.00188065
27 1 0.749986 0.620608 0.80955 0 0 -0.00188065
28 1 0.499986 0.539067 0.684731 0 0 -0.004776
29 1 0.249986 0.870714 0.934564 0 0 0.00241852
30 1 0.749986 0.870714 0.934564 0 0 0.00241852
31 1 0.999986 0.370715 0.934564 0 0 0.00242233
32 1 0.499986 0.370715 0.934564 0 0 0.00242233
ITEM: TIMESTEP
2
ITEM: NUMBER OF ATOMS
32
ITEM: BOX BOUNDS xy xz yz pp pp pp
-4.0532350540161133e-03 6.4008854031562805e+00 0.0000000000000000e+00
-9.1640949249267578e-03 9.2620720267295837e+00 0.0000000000000000e+00
-4.7960281372070312e-02 2.0773346722126007e+01 3.7324767708778381e+00
ITEM: ATOMS id type xs ys zs fx fy fz
1 1 0.999986 0.625772 0.0599313 0 0 0.00114441
2 1 0.499986 0.625772 0.0599313 0 0 0.00114441
3 1 0.249986 0.125772 0.0599313 0 0 0.00114441
4 1 0.749986 0.125772 0.0599313 0 0 0.00114441
5 1 0.999986 0.457321 0.309922 0 0 0.000616074
6 1 0.249986 0.375792 0.18508 0 0 -0.00113297
7 1 0.749986 0.375792 0.18508 0 0 -0.00113297
8 1 0.499986 0.457321 0.309922 0 0 0.000616074
9 1 0.999986 0.87579 0.18508 0 0 -0.00112915
10 1 0.249986 0.957321 0.309922 0 0 0.000612259
11 1 0.499986 0.87579 0.18508 0 0 -0.00112915
12 1 0.749986 0.957321 0.309922 0 0 0.000612259
13 1 0.999986 0.288966 0.559729 0 0 -0.00271416
14 1 0.499986 0.288966 0.559729 0 0 -0.00271416
15 1 0.249986 0.788965 0.559729 0 0 -0.00271034
16 1 0.749986 0.788965 0.559729 0 0 -0.00271034
17 1 0.249986 0.207529 0.434772 0 0 0.00271034
18 1 0.749986 0.207529 0.434772 0 0 0.00271034
19 1 0.999986 0.707529 0.434772 0 0 0.00272179
20 1 0.499986 0.707529 0.434772 0 0 0.00272179
21 1 0.999986 0.120695 0.809421 0 0 0.00114822
22 1 0.249986 0.039169 0.68458 0 0 -0.00062561
23 1 0.499986 0.120694 0.809421 0 0 0.00114822
24 1 0.749986 0.039169 0.68458 0 0 -0.00062561
25 1 0.999986 0.539169 0.68458 0 0 -0.000623703
26 1 0.249986 0.620695 0.809421 0 0 0.0011425
27 1 0.749986 0.620695 0.809421 0 0 0.0011425
28 1 0.499986 0.539169 0.68458 0 0 -0.000623703
29 1 0.249986 0.87071 0.93457 0 0 -0.00115967
30 1 0.749986 0.87071 0.93457 0 0 -0.00115967
31 1 0.999986 0.370711 0.93457 0 0 -0.00114441
32 1 0.499986 0.370711 0.93457 0 0 -0.00114441
ITEM: TIMESTEP
3
ITEM: NUMBER OF ATOMS
32
ITEM: BOX BOUNDS xy xz yz pp pp pp
-4.0532350540161133e-03 6.4008854031562805e+00 0.0000000000000000e+00
-9.1640949249267578e-03 9.2620720267295837e+00 0.0000000000000000e+00
-4.7960281372070312e-02 2.0773346722126007e+01 3.7324767708778381e+00
ITEM: ATOMS id type xs ys zs fx fy fz
1 1 0.999986 0.625761 0.0599484 0 0 1.90735e-05
2 1 0.499986 0.625761 0.0599484 0 0 1.90735e-05
3 1 0.249986 0.125761 0.0599483 0 0 1.90735e-05
4 1 0.749986 0.125761 0.0599483 0 0 1.90735e-05
5 1 0.999986 0.457298 0.309956 0 0 1.90735e-06
6 1 0.249986 0.37579 0.185083 0 0 -1.14441e-05
7 1 0.749986 0.37579 0.185083 0 0 -1.14441e-05
8 1 0.499986 0.457298 0.309956 0 0 1.90735e-06
9 1 0.999986 0.875788 0.185083 0 0 -1.52588e-05
10 1 0.249986 0.957298 0.309956 0 0 5.72205e-06
11 1 0.499986 0.875788 0.185083 0 0 -1.52588e-05
12 1 0.749986 0.957298 0.309956 0 0 5.72205e-06
13 1 0.999986 0.288998 0.559683 0 0 -2.47955e-05
14 1 0.499986 0.288998 0.559683 0 0 -2.47955e-05
15 1 0.249986 0.788996 0.559683 0 0 -1.71661e-05
16 1 0.749986 0.788996 0.559683 0 0 -1.71661e-05
17 1 0.249986 0.207498 0.434819 0 0 2.47955e-05
18 1 0.749986 0.207498 0.434819 0 0 2.47955e-05
19 1 0.999986 0.707497 0.434819 0 0 2.47955e-05
20 1 0.499986 0.707497 0.434819 0 0 2.47955e-05
21 1 0.999986 0.120696 0.809418 0 0 1.14441e-05
22 1 0.249986 0.0391922 0.684546 0 0 -1.14441e-05
23 1 0.499986 0.120696 0.809418 0 0 1.14441e-05
24 1 0.749986 0.0391922 0.684546 0 0 -1.14441e-05
25 1 0.999986 0.539192 0.684545 0 0 -3.8147e-06
26 1 0.249986 0.620697 0.809418 0 0 1.14441e-05
27 1 0.749986 0.620697 0.809418 0 0 1.14441e-05
28 1 0.499986 0.539192 0.684545 0 0 -3.8147e-06
29 1 0.249986 0.870722 0.934553 0 0 -1.71661e-05
30 1 0.749986 0.870722 0.934553 0 0 -1.71661e-05
31 1 0.999986 0.370722 0.934553 0 0 -1.71661e-05
32 1 0.499986 0.370722 0.934553 0 0 -1.71661e-05
ITEM: TIMESTEP
4
ITEM: NUMBER OF ATOMS
32
ITEM: BOX BOUNDS xy xz yz pp pp pp
-4.0532350540161133e-03 6.4008854031562805e+00 0.0000000000000000e+00
-9.1640949249267578e-03 9.2620720267295837e+00 0.0000000000000000e+00
-4.7960281372070312e-02 2.0773346722126007e+01 3.7324767708778381e+00
ITEM: ATOMS id type xs ys zs fx fy fz
1 1 0.999986 0.625761 0.0599486 0 0 -3.8147e-06
2 1 0.499986 0.625761 0.0599486 0 0 -3.8147e-06
3 1 0.249986 0.125761 0.0599485 0 0 3.8147e-06
4 1 0.749986 0.125761 0.0599485 0 0 3.8147e-06
5 1 0.999986 0.457298 0.309956 0 0 1.90735e-06
6 1 0.249986 0.37579 0.185083 0 0 3.8147e-06
7 1 0.749986 0.37579 0.185083 0 0 3.8147e-06
8 1 0.499986 0.457298 0.309956 0 0 1.90735e-06
9 1 0.999986 0.875788 0.185083 0 0 1.14441e-05
10 1 0.249986 0.957298 0.309956 0 0 -1.90735e-06
11 1 0.499986 0.875788 0.185083 0 0 1.14441e-05
12 1 0.749986 0.957298 0.309956 0 0 -1.90735e-06
13 1 0.999986 0.288998 0.559683 0 0 1.90735e-06
14 1 0.499986 0.288998 0.559683 0 0 1.90735e-06
15 1 0.249986 0.788996 0.559683 0 0 -5.72205e-06
16 1 0.749986 0.788996 0.559683 0 0 -5.72205e-06
17 1 0.249986 0.207498 0.434819 0 0 1.90735e-06
18 1 0.749986 0.207498 0.434819 0 0 1.90735e-06
19 1 0.999986 0.707497 0.434819 0 0 5.72205e-06
20 1 0.499986 0.707497 0.434819 0 0 5.72205e-06
21 1 0.999986 0.120696 0.809418 0 0 1.90735e-06
22 1 0.249986 0.0391923 0.684545 0 0 -1.14441e-05
23 1 0.499986 0.120696 0.809418 0 0 1.90735e-06
24 1 0.749986 0.0391923 0.684545 0 0 -1.14441e-05
25 1 0.999986 0.539192 0.684545 0 0 -7.62939e-06
26 1 0.249986 0.620697 0.809418 0 0 -1.90735e-06
27 1 0.749986 0.620697 0.809418 0 0 -1.90735e-06
28 1 0.499986 0.539192 0.684545 0 0 -7.62939e-06
29 1 0.249986 0.870722 0.934553 0 0 0
30 1 0.749986 0.870722 0.934553 0 0 0
31 1 0.999986 0.370723 0.934553 0 0 0
32 1 0.499986 0.370723 0.934553 0 0 0
ITEM: TIMESTEP
5
ITEM: NUMBER OF ATOMS
32
ITEM: BOX BOUNDS xy xz yz pp pp pp
-4.0532350540161133e-03 6.4008854031562805e+00 0.0000000000000000e+00
-9.1640949249267578e-03 9.2620720267295837e+00 0.0000000000000000e+00
-4.7960281372070312e-02 2.0773346722126007e+01 3.7324767708778381e+00
ITEM: ATOMS id type xs ys zs fx fy fz
1 1 0.999986 0.625761 0.0599486 0 0 -3.8147e-06
2 1 0.499986 0.625761 0.0599486 0 0 -3.8147e-06
3 1 0.249986 0.125761 0.0599485 0 0 3.8147e-06
4 1 0.749986 0.125761 0.0599485 0 0 3.8147e-06
5 1 0.999986 0.457298 0.309956 0 0 1.90735e-06
6 1 0.249986 0.37579 0.185083 0 0 3.8147e-06
7 1 0.749986 0.37579 0.185083 0 0 3.8147e-06
8 1 0.499986 0.457298 0.309956 0 0 1.90735e-06
9 1 0.999986 0.875788 0.185083 0 0 1.14441e-05
10 1 0.249986 0.957298 0.309956 0 0 -1.90735e-06
11 1 0.499986 0.875788 0.185083 0 0 1.14441e-05
12 1 0.749986 0.957298 0.309956 0 0 -1.90735e-06
13 1 0.999986 0.288998 0.559683 0 0 1.90735e-06
14 1 0.499986 0.288998 0.559683 0 0 1.90735e-06
15 1 0.249986 0.788996 0.559683 0 0 -5.72205e-06
16 1 0.749986 0.788996 0.559683 0 0 -5.72205e-06
17 1 0.249986 0.207498 0.434819 0 0 1.90735e-06
18 1 0.749986 0.207498 0.434819 0 0 1.90735e-06
19 1 0.999986 0.707497 0.434819 0 0 5.72205e-06
20 1 0.499986 0.707497 0.434819 0 0 5.72205e-06
21 1 0.999986 0.120696 0.809418 0 0 1.90735e-06
22 1 0.249986 0.0391923 0.684545 0 0 -1.14441e-05
23 1 0.499986 0.120696 0.809418 0 0 1.90735e-06
24 1 0.749986 0.0391923 0.684545 0 0 -1.14441e-05
25 1 0.999986 0.539192 0.684545 0 0 -7.62939e-06
26 1 0.249986 0.620697 0.809418 0 0 -1.90735e-06
27 1 0.749986 0.620697 0.809418 0 0 -1.90735e-06
28 1 0.499986 0.539192 0.684545 0 0 -7.62939e-06
29 1 0.249986 0.870722 0.934553 0 0 0
30 1 0.749986 0.870722 0.934553 0 0 0
31 1 0.999986 0.370723 0.934553 0 0 0
32 1 0.499986 0.370723 0.934553 0 0 0
