ITEM: TIMESTEP
0
ITEM: NUMBER OF ATOMS
32
ITEM: BOX BOUNDS xy xz yz pp pp pp
-4.0532350540161133e-03 6.4008854031562805e+00 0.0000000000000000e+00
-9.1640949249267578e-03 1.0644470870494843e+01 0.0000000000000000e+00
-4.7960281372070312e-02 2.0773346722126007e+01 5.1148756146430969e+00
ITEM: ATOMS id type xs ys zs fx fy fz
1 1 0.999986 0.610981 0.0597509 0 0 0.0395527
2 1 0.499986 0.610981 0.0597509 0 0 0.0395527
3 1 0.249986 0.11098 0.0597519 0 0 0.0395298
4 1 0.749986 0.11098 0.0597519 0 0 0.0395298
5 1 0.999986 0.380125 0.309753 0 0 -1.33514e-05
6 1 0.249986 0.3299 0.184753 0 0 -0.000871658
7 1 0.749986 0.3299 0.184753 0 0 -0.000871658
8 1 0.499986 0.380125 0.309753 0 0 -1.33514e-05
9 1 0.999986 0.829899 0.184753 0 0 -0.000850677
10 1 0.249986 0.880125 0.309753 0 0 -6.10352e-05
11 1 0.499986 0.829899 0.184753 0 0 -0.000850677
12 1 0.749986 0.880125 0.309753 0 0 -6.10352e-05
13 1 0.999986 0.149247 0.559749 0 0 5.72205e-05
14 1 0.499986 0.149247 0.559749 0 0 5.72205e-05
15 1 0.249986 0.649245 0.55975 0 0 4.57764e-05
16 1 0.749986 0.649245 0.55975 0 0 4.57764e-05
17 1 0.249986 0.0990343 0.434752 0 0 -5.72205e-05
18 1 0.749986 0.0990343 0.434752 0 0 -5.72205e-05
19 1 0.999986 0.599034 0.434752 0 0 -3.43323e-05
20 1 0.499986 0.599034 0.434752 0 0 -3.43323e-05
21 1 0.999986 0.918372 0.809748 0 0 0.0008564
22 1 0.249986 0.868152 0.684748 0 0 3.62396e-05
23 1 0.499986 0.918372 0.809748 0 0 0.0008564
24 1 0.749986 0.868152 0.684748 0 0 3.62396e-05
25 1 0.999986 0.368151 0.684749 0 0 1.33514e-05
26 1 0.249986 0.418372 0.809748 0 0 0.00087738
27 1 0.749986 0.418372 0.809748 0 0 0.00087738
28 1 0.499986 0.368151 0.684749 0 0 1.33514e-05
29 1 0.249986 0.637289 0.934749 0 0 -0.0395336
30 1 0.749986 0.637289 0.934749 0 0 -0.0395336
31 1 0.999986 0.137289 0.93475 0 0 -0.039547
32 1 0.499986 0.137289 0.93475 0 0 -0.039547
ITEM: TIMESTEP
1
ITEM: NUMBER OF ATOMS
32
ITEM: BOX BOUNDS xy xz yz pp pp pp
-4.0532350540161133e-03 6.4008854031562805e+00 0.0000000000000000e+00
-9.1640949249267578e-03 1.0644470870494843e+01 0.0000000000000000e+00
-4.7960281372070312e-02 2.0773346722126007e+01 5.1148756146430969e+00
ITEM: ATOMS id type xs ys zs fx fy fz
1 1 0.999986 0.610526 0.0602438 0 0 -0.000711441
2 1 0.499986 0.610526 0.0602438 0 0 -0.000711441
3 1 0.249986 0.110525 0.0602445 0 0 -0.000722885
4 1 0.749986 0.110525 0.0602445 0 0 -0.000722885
5 1 0.999986 0.380125 0.309753 0 0 0.000530243
6 1 0.249986 0.32991 0.184742 0 0 0.0112801
7 1 0.749986 0.32991 0.184742 0 0 0.0112801
8 1 0.499986 0.380125 0.309753 0 0 0.000530243
9 1 0.999986 0.829909 0.184743 0 0 0.0112915
10 1 0.249986 0.880125 0.309753 0 0 0.000534058
11 1 0.499986 0.829909 0.184743 0 0 0.0112915
12 1 0.749986 0.880125 0.309753 0 0 0.000534058
13 1 0.999986 0.149246 0.55975 0 0 7.05719e-05
14 1 0.499986 0.149246 0.55975 0 0 7.05719e-05
15 1 0.249986 0.649245 0.55975 0 0 6.48499e-05
16 1 0.749986 0.649245 0.55975 0 0 6.48499e-05
17 1 0.249986 0.099035 0.434752 0 0 -7.05719e-05
18 1 0.749986 0.099035 0.434752 0 0 -7.05719e-05
19 1 0.999986 0.599035 0.434751 0 0 -6.29425e-05
20 1 0.499986 0.599035 0.434751 0 0 -6.29425e-05
21 1 0.999986 0.918362 0.809759 0 0 -0.0112915
22 1 0.249986 0.868151 0.684749 0 0 -0.000534058
23 1 0.499986 0.918362 0.809759 0 0 -0.0112915
24 1 0.749986 0.868151 0.684749 0 0 -0.000534058
25 1 0.999986 0.368151 0.684749 0 0 -0.00053215
26 1 0.249986 0.418362 0.809759 0 0 -0.0112915
27 1 0.749986 0.418362 0.809759 0 0 -0.0112915
28 1 0.499986 0.368151 0.684749 0 0 -0.00053215
29 1 0.249986 0.637744 0.934257 0 0 0.000732422
30 1 0.749986 0.637744 0.934257 0 0 0.000732422
31 1 0.999986 0.137744 0.934257 0 0 0.000713348
32 1 0.499986 0.137744 0.934257 0 0 0.000713348
ITEM: TIMESTEP
2
ITEM: NUMBER OF ATOMS
32
ITEM: BOX BOUNDS xy xz yz pp pp pp
-4.0532350540161133e-03 6.4008854031562805e+00 0.0000000000000000e+00
-9.1640949249267578e-03 1.0644470870494843e+01 0.0000000000000000e+00
-4.7960281372070312e-02 2.0773346722126007e+01 5.1148756146430969e+00
ITEM: ATOMS id type xs ys zs fx fy fz
1 1 0.999986 0.61045 0.0603256 0 0 -0.000972748
2 1 0.499986 0.61045 0.0603256 0 0 -0.000972748
3 1 0.249986 0.11045 0.060326 0 0 -0.000988007
4 1 0.749986 0.11045 0.060326 0 0 -0.000988007
5 1 0.999986 0.380113 0.309765 0 0 0.00627899
6 1 0.249986 0.329669 0.185004 0 0 4.00543e-05
7 1 0.749986 0.329669 0.185004 0 0 4.00543e-05
8 1 0.499986 0.380113 0.309765 0 0 0.00627899
9 1 0.999986 0.829667 0.185005 0 0 2.67029e-05
10 1 0.249986 0.880114 0.309765 0 0 0.00628281
11 1 0.499986 0.829667 0.185005 0 0 2.67029e-05
12 1 0.749986 0.880114 0.309765 0 0 0.00628281
13 1 0.999986 0.149245 0.559752 0 0 -0.000761032
14 1 0.499986 0.149245 0.559752 0 0 -0.000761032
15 1 0.249986 0.649243 0.559752 0 0 -0.000761032
16 1 0.749986 0.649243 0.559752 0 0 -0.000761032
17 1 0.249986 0.0990366 0.43475 0 0 0.000759125
18 1 0.749986 0.0990366 0.43475 0 0 0.000759125
19 1 0.999986 0.599036 0.43475 0 0 0.00075531
20 1 0.499986 0.599036 0.43475 0 0 0.00075531
21 1 0.999986 0.918604 0.809497 0 0 -2.86102e-05
22 1 0.249986 0.868163 0.684736 0 0 -0.00627327
23 1 0.499986 0.918604 0.809497 0 0 -2.86102e-05
24 1 0.749986 0.868163 0.684736 0 0 -0.00627327
25 1 0.999986 0.368163 0.684737 0 0 -0.00628281
26 1 0.249986 0.418604 0.809497 0 0 -3.05176e-05
27 1 0.749986 0.418604 0.809497 0 0 -3.05176e-05
28 1 0.499986 0.368163 0.684737 0 0 -0.00628281
29 1 0.249986 0.637819 0.934175 0 0 0.00097847
30 1 0.749986 0.637819 0.934175 0 0 0.00097847
31 1 0.999986 0.137819 0.934176 0 0 0.000976562
32 1 0.499986 0.137819 0.934176 0 0 0.000976562
ITEM: TIMESTEP
3
ITEM: NUMBER OF ATOMS
32
ITEM: BOX BOUNDS xy xz yz pp pp pp
-4.0532350540161133e-03 6.4008854031562805e+00 0.0000000000000000e+00
-9.1640949249267578e-03 1.0644470870494843e+01 0.0000000000000000e+00
-4.7960281372070312e-02 2.0773346722126007e+01 5.1148756146430969e+00
ITEM: ATOMS id type xs ys zs fx fy fz
1 1 0.999986 0.610449 0.0603263 0 0 0.00141525
2 1 0.499986 0.610449 0.0603263 0 0 0.00141525
3 1 0.249986 0.11045 0.0603262 0 0 0.00141525
4 1 0.749986 0.11045 0.0603262 0 0 0.00141525
5 1 0.999986 0.379947 0.309945 0 0 -0.000272751
6 1 0.249986 0.329585 0.185095 0 0 -0.00025177
7 1 0.749986 0.329585 0.185095 0 0 -0.00025177
8 1 0.499986 0.379947 0.309945 0 0 -0.000272751
9 1 0.999986 0.829583 0.185095 0 0 -0.000249863
10 1 0.249986 0.879948 0.309945 0 0 -0.000282288
11 1 0.499986 0.829583 0.185095 0 0 -0.000249863
12 1 0.749986 0.879948 0.309945 0 0 -0.000282288
13 1 0.999986 0.149264 0.559731 0 0 -0.00341606
14 1 0.499986 0.149264 0.559731 0 0 -0.00341606
15 1 0.249986 0.649262 0.559731 0 0 -0.00341225
16 1 0.749986 0.649262 0.559731 0 0 -0.00341225
17 1 0.249986 0.0990176 0.43477 0 0 0.00340652
18 1 0.749986 0.0990176 0.43477 0 0 0.00340652
19 1 0.999986 0.599017 0.43477 0 0 0.00341415
20 1 0.499986 0.599017 0.43477 0 0 0.00341415
21 1 0.999986 0.918687 0.809407 0 0 0.000257492
22 1 0.249986 0.868329 0.684556 0 0 0.000272751
23 1 0.499986 0.918687 0.809407 0 0 0.000257492
24 1 0.749986 0.868329 0.684556 0 0 0.000272751
25 1 0.999986 0.368329 0.684557 0 0 0.000284195
26 1 0.249986 0.418687 0.809407 0 0 0.000244141
27 1 0.749986 0.418687 0.809407 0 0 0.000244141
28 1 0.499986 0.368329 0.684557 0 0 0.000284195
29 1 0.249986 0.637819 0.934175 0 0 -0.00141525
30 1 0.749986 0.637819 0.934175 0 0 -0.00141525
31 1 0.999986 0.13782 0.934175 0 0 -0.00140953
32 1 0.499986 0.13782 0.934175 0 0 -0.00140953
ITEM: TIMESTEP
4
ITEM: NUMBER OF ATOMS
32
ITEM: BOX BOUNDS xy xz yz pp pp pp
-4.0532350540161133e-03 6.4008854031562805e+00 0.0000000000000000e+00
-9.1640949249267578e-03 1.0644470870494843e+01 0.0000000000000000e+00
-4.7960281372070312e-02 2.0773346722126007e+01 5.1148756146430969e+00
ITEM: ATOMS id type xs ys zs fx fy fz
1 1 0.999986 0.61043 0.0603475 0 0 8.2016e-05
2 1 0.499986 0.61043 0.0603475 0 0 8.2016e-05
3 1 0.249986 0.11043 0.0603473 0 0 0.000101089
4 1 0.749986 0.11043 0.0603473 0 0 0.000101089
5 1 0.999986 0.37992 0.309974 0 0 -0.000198364
6 1 0.249986 0.329573 0.185108 0 0 0.000360489
7 1 0.749986 0.329573 0.185108 0 0 0.000360489
8 1 0.499986 0.37992 0.309974 0 0 -0.000198364
9 1 0.999986 0.829571 0.185108 0 0 0.000356674
10 1 0.249986 0.879921 0.309974 0 0 -0.000192642
11 1 0.499986 0.829571 0.185108 0 0 0.000356674
12 1 0.749986 0.879921 0.309974 0 0 -0.000192642
13 1 0.999986 0.149314 0.559677 0 0 2.86102e-05
14 1 0.499986 0.149314 0.559677 0 0 2.86102e-05
15 1 0.249986 0.649313 0.559677 0 0 2.28882e-05
16 1 0.749986 0.649313 0.559677 0 0 2.28882e-05
17 1 0.249986 0.0989674 0.434825 0 0 -7.62939e-06
18 1 0.749986 0.0989674 0.434825 0 0 -7.62939e-06
19 1 0.999986 0.598967 0.434825 0 0 -3.8147e-05
20 1 0.499986 0.598967 0.434825 0 0 -3.8147e-05
21 1 0.999986 0.918699 0.809394 0 0 -0.000362396
22 1 0.249986 0.868356 0.684527 0 0 0.000192642
23 1 0.499986 0.918699 0.809394 0 0 -0.000362396
24 1 0.749986 0.868356 0.684527 0 0 0.000192642
25 1 0.999986 0.368356 0.684527 0 0 0.000183105
26 1 0.249986 0.4187 0.809394 0 0 -0.000360489
27 1 0.749986 0.4187 0.809394 0 0 -0.000360489
28 1 0.499986 0.368356 0.684527 0 0 0.000183105
29 1 0.249986 0.637838 0.934154 0 0 -8.2016e-05
30 1 0.749986 0.637838 0.934154 0 0 -8.2016e-05
31 1 0.999986 0.137839 0.934154 0 0 -8.58307e-05
32 1 0.499986 0.137839 0.934154 0 0 -8.58307e-05
ITEM: TIMESTEP
5
ITEM: NUMBER OF ATOMS
32
ITEM: BOX BOUNDS xy xz yz pp pp pp
-4.0532350540161133e-03 6.4008854031562805e+00 0.0000000000000000e+00
-9.1640949249267578e-03 1.0644470870494843e+01 0.0000000000000000e+00
-4.7960281372070312e-02 2.0773346722126007e+01 5.1148756146430969e+00
ITEM: ATOMS id type xs ys zs fx fy fz
1 1 0.999986 0.61043 0.0603475 0 0 8.2016e-05
2 1 0.499986 0.61043 0.0603475 0 0 8.2016e-05
3 1 0.249986 0.11043 0.0603473 0 0 0.000101089
4 1 0.749986 0.11043 0.0603473 0 0 0.000101089
5 1 0.999986 0.37992 0.309974 0 0 -0.000198364
6 1 0.249986 0.329573 0.185108 0 0 0.000360489
7 1 0.749986 0.329573 0.185108 0 0 0.000360489
8 1 0.499986 0.37992 0.309974 0 0 -0.000198364
9 1 0.999986 0.829571 0.185108 0 0 0.000356674
10 1 0.249986 0.879921 0.309974 0 0 -0.000192642
11 1 0.499986 0.829571 0.185108 0 0 0.000356674
12 1 0.749986 0.879921 0.309974 0 0 -0.000192642
13 1 0.999986 0.149314 0.559677 0 0 2.86102e-05
14 1 0.499986 0.149314 0.559677 0 0 2.86102e-05
15 1 0.249986 0.649313 0.559677 0 0 2.28882e-05
16 1 0.749986 0.649313 0.559677 0 0 2.28882e-05
17 1 0.249986 0.0989674 0.434825 0 0 -7.62939e-06
18 1 0.749986 0.0989674 0.434825 0 0 -7.62939e-06
19 1 0.999986 0.598967 0.434825 0 0 -3.8147e-05
20 1 0.499986 0.598967 0.434825 0 0 -3.8147e-05
21 1 0.999986 0.918699 0.809394 0 0 -0.000362396
22 1 0.249986 0.868356 0.684527 0 0 0.000192642
23 1 0.499986 0.918699 0.809394 0 0 -0.000362396
24 1 0.749986 0.868356 0.684527 0 0 0.000192642
25 1 0.999986 0.368356 0.684527 0 0 0.000183105
26 1 0.249986 0.4187 0.809394 0 0 -0.000360489
27 1 0.749986 0.4187 0.809394 0 0 -0.000360489
28 1 0.499986 0.368356 0.684527 0 0 0.000183105
29 1 0.249986 0.637838 0.934154 0 0 -8.2016e-05
30 1 0.749986 0.637838 0.934154 0 0 -8.2016e-05
31 1 0.999986 0.137839 0.934154 0 0 -8.58307e-05
32 1 0.499986 0.137839 0.934154 0 0 -8.58307e-05
