ITEM: TIMESTEP
0
ITEM: NUMBER OF ATOMS
56
ITEM: BOX BOUNDS xy xz yz pp pp pp
-3.6900796890258789e+00 1.2203788340091705e+01 0.0000000000000000e+00
-8.4733366966247559e-03 5.5348814725875854e+00 -3.6713911890983582e+00
-2.9168844223022461e-02 1.9049128890037537e+01 0.0000000000000000e+00
ITEM: ATOMS id type xs ys zs fx fy fz
1 1 0.589832 4.41887e-05 0.132366 0 0.0361423 -0.0216236
2 1 0.339832 0.166624 0.132366 0 -0.0361729 -0.0216122
3 1 0.270153 2.39879e-05 0.275225 0 0.00235367 -0.00351524
4 1 0.0201522 0.166644 0.275225 0 -0.00237274 -0.00351334
5 1 0.95042 1.9421e-05 0.418082 0 2.47955e-05 0.000810623
6 1 0.0898322 4.41295e-05 0.132366 0 0.0361557 -0.0216179
7 1 0.999645 0.500074 0.0609403 0 1.89184 1.27978
8 1 0.839833 0.166623 0.132366 0 -0.0361633 -0.0215855
9 1 0.749646 0.666593 0.0609403 0 -1.8918 1.27977
10 1 0.770154 2.39872e-05 0.275225 0 0.00235176 -0.0035038
11 1 0.700419 0.166647 0.418082 0 -2.09808e-05 0.000802994
12 1 0.630676 2.47556e-05 0.560942 0 -8.58307e-05 -0.000350952
13 1 0.380676 0.166643 0.560942 0 7.62939e-05 -0.000352859
14 1 0.310941 2.39811e-05 0.703801 0 -0.000362396 -0.000772476
15 1 0.0609409 0.166644 0.703801 0 0.000331879 -0.000776291
16 1 0.991218 2.63435e-05 0.846651 0 0.00552368 -0.00534821
17 1 0.68001 0.500026 0.203802 0 0.00554466 0.00535202
18 1 0.520152 0.166645 0.275225 0 -0.00239372 -0.00350761
19 1 0.430011 0.66664 0.203802 0 -0.00551033 0.00536728
20 1 0.45042 2.01694e-05 0.418082 0 7.62939e-06 0.000806808
21 1 0.360287 0.500023 0.346651 0 -0.000337601 0.000789642
22 1 0.200419 0.166648 0.418082 0 -2.47955e-05 0.000806808
23 1 0.110287 0.666642 0.346651 0 0.00037384 0.000768661
24 1 0.130676 2.49573e-05 0.560941 0 -8.96454e-05 -0.000343323
25 1 0.0405507 0.500025 0.489511 0 -8.2016e-05 0.000337601
26 1 0.880677 0.166643 0.560941 0 7.62939e-05 -0.000337601
27 1 0.790552 0.666642 0.489511 0 8.7738e-05 0.000360489
28 1 0.499644 0.500073 0.0609404 0 1.8919 1.27982
29 1 0.249645 0.666593 0.0609403 0 -1.89185 1.27981
30 1 0.180011 0.500026 0.203802 0 0.00553513 0.00535583
31 1 0.930011 0.666641 0.203802 0 -0.00553513 0.00535965
32 1 0.860288 0.500024 0.346651 0 -0.000364304 0.000766754
33 1 0.741216 0.166641 0.846652 0 -0.00552368 -0.00538635
34 1 0.671583 7.47473e-05 0.989512 0 1.8918 -1.27974
35 1 0.421583 0.166594 0.989513 0 -1.89189 -1.27983
36 1 0.81094 2.44315e-05 0.703801 0 -0.000370026 -0.000772476
37 1 0.720806 0.50002 0.632371 0 1.90735e-05 -0.000822067
38 1 0.560941 0.166643 0.703801 0 0.000343323 -0.000768661
39 1 0.470808 0.666647 0.632371 0 -1.52588e-05 -0.000808716
40 1 0.491217 2.63314e-05 0.846651 0 0.0055294 -0.00536346
41 1 0.401075 0.500023 0.775228 0 0.00236893 0.00351715
42 1 0.241216 0.166641 0.846651 0 -0.00553513 -0.00536346
43 1 0.151075 0.666644 0.775228 0 -0.00235748 0.00349617
44 1 0.171583 7.37033e-05 0.989512 0 1.89186 -1.27979
45 1 0.0813957 0.500043 0.918087 0 0.0361691 0.0216312
46 1 0.610286 0.666643 0.346651 0 0.00037384 0.000776291
47 1 0.540551 0.500025 0.489511 0 -7.82013e-05 0.000341415
48 1 0.290551 0.666642 0.489511 0 9.15527e-05 0.000341415
49 1 0.220808 0.500019 0.632371 0 3.24249e-05 -0.000802994
50 1 0.970809 0.666647 0.63237 0 -3.8147e-06 -0.00078392
51 1 0.901076 0.500022 0.775228 0 0.00238228 0.00351143
52 1 0.921581 0.166594 0.989513 0 -1.89183 -1.27979
53 1 0.831395 0.666624 0.918087 0 -0.0361633 0.0215759
54 1 0.651075 0.666643 0.775228 0 -0.0023632 0.00351143
55 1 0.581395 0.500044 0.918087 0 0.036171 0.0216103
56 1 0.331395 0.666624 0.918087 0 -0.0361614 0.0216141
ITEM: TIMESTEP
1
ITEM: NUMBER OF ATOMS
56
ITEM: BOX BOUNDS xy xz yz pp pp pp
-3.6900796890258789e+00 1.2203788340091705e+01 0.0000000000000000e+00
-8.4733366966247559e-03 5.5348814725875854e+00 -3.6713911890983582e+00
-2.9168844223022461e-02 1.9049128890037537e+01 0.0000000000000000e+00
ITEM: ATOMS id type xs ys zs fx fy fz
1 1 0.589814 0.000388812 0.132306 0 0.126646 -0.0350838
2 1 0.339814 0.166279 0.132306 0 -0.126667 -0.035078
3 1 0.27015 4.64305e-05 0.275215 0 0.00282669 -0.00125504
4 1 0.0201493 0.166622 0.275215 0 -0.00284195 -0.00126266
5 1 0.95042 1.96574e-05 0.418084 0 -0.000205994 -0.00124741
6 1 0.0898142 0.000388881 0.132306 0 0.126644 -0.0350838
7 1 1.00071 0.518113 0.0644859 0 0.819284 0.413225
8 1 0.839815 0.166279 0.132306 0 -0.12665 -0.0350609
9 1 0.750711 0.648554 0.0644859 0 -0.819275 0.413231
10 1 0.770151 4.64116e-05 0.275215 0 0.00283432 -0.00125504
11 1 0.700419 0.166647 0.418084 0 0.000217438 -0.00126076
12 1 0.630675 2.39372e-05 0.560941 0 -4.95911e-05 -8.96454e-05
13 1 0.380676 0.166643 0.560941 0 4.57764e-05 -8.39233e-05
14 1 0.31094 2.05256e-05 0.703799 0 -0.000341415 -0.00373268
15 1 0.0609402 0.166647 0.703799 0 0.000318527 -0.00374603
16 1 0.991213 7.90128e-05 0.846636 0 -0.00771332 -0.0822392
17 1 0.680014 0.500079 0.203816 0 -0.00770569 0.0822449
18 1 0.520149 0.166622 0.275215 0 -0.00285149 -0.00125504
19 1 0.430015 0.666587 0.203816 0 0.00772476 0.0822487
20 1 0.450421 2.02422e-05 0.418084 0 -0.000225067 -0.00125122
21 1 0.360287 0.50002 0.346653 0 -0.000326157 0.00374222
22 1 0.20042 0.166648 0.418084 0 0.000207901 -0.00125313
23 1 0.110287 0.666646 0.346654 0 0.000349045 0.00373268
24 1 0.130676 2.41025e-05 0.560941 0 -4.57764e-05 -8.39233e-05
25 1 0.040551 0.500024 0.489512 0 -4.95911e-05 8.2016e-05
26 1 0.880677 0.166644 0.56094 0 4.3869e-05 -7.05719e-05
27 1 0.790552 0.666643 0.489512 0 5.14984e-05 9.34601e-05
28 1 0.500709 0.518113 0.0644861 0 0.819288 0.413208
29 1 0.25071 0.648553 0.064486 0 -0.819263 0.413216
30 1 0.180015 0.500079 0.203816 0 -0.00771141 0.0822392
31 1 0.930015 0.666588 0.203816 0 0.0077095 0.0822563
32 1 0.860288 0.500021 0.346654 0 -0.000341415 0.00372887
33 1 0.741212 0.166588 0.846637 0 0.00771904 -0.0822792
34 1 0.670518 0.0181134 0.985967 0 0.819273 -0.413204
35 1 0.420518 0.148554 0.985967 0 -0.81929 -0.413221
36 1 0.810939 2.09032e-05 0.703799 0 -0.000343323 -0.00372505
37 1 0.720806 0.50002 0.632369 0 -0.00021553 0.00122833
38 1 0.56094 0.166647 0.703799 0 0.000333786 -0.00373077
39 1 0.470807 0.666647 0.632369 0 0.000217438 0.0012455
40 1 0.491212 7.90552e-05 0.846636 0 -0.00771141 -0.0822506
41 1 0.401078 0.500046 0.775237 0 0.00283241 0.00126266
42 1 0.241212 0.166588 0.846636 0 0.00771523 -0.0822582
43 1 0.151078 0.666621 0.775238 0 -0.00284004 0.00126076
44 1 0.170518 0.0181129 0.985967 0 0.819281 -0.413197
45 1 0.0814137 0.500388 0.918147 0 0.12665 0.0350914
46 1 0.610287 0.666646 0.346654 0 0.00034523 0.00373077
47 1 0.540551 0.500024 0.489512 0 -3.8147e-05 8.01086e-05
48 1 0.290551 0.666643 0.489512 0 5.14984e-05 8.01086e-05
49 1 0.220807 0.500019 0.632368 0 -0.000207901 0.00125313
50 1 0.970808 0.666647 0.632368 0 0.000226974 0.00126457
51 1 0.901079 0.500045 0.775238 0 0.00284958 0.00126266
52 1 0.920516 0.148555 0.985967 0 -0.819277 -0.413239
53 1 0.831413 0.666279 0.918147 0 -0.126661 0.0350571
54 1 0.651078 0.666621 0.775238 0 -0.00284004 0.00126266
55 1 0.581413 0.500388 0.918147 0 0.126659 0.0350876
56 1 0.331413 0.666279 0.918147 0 -0.126657 0.0350819
ITEM: TIMESTEP
2
ITEM: NUMBER OF ATOMS
56
ITEM: BOX BOUNDS xy xz yz pp pp pp
-3.6900796890258789e+00 1.2203788340091705e+01 0.0000000000000000e+00
-8.4733366966247559e-03 5.5348814725875854e+00 -3.6713911890983582e+00
-2.9168844223022461e-02 1.9049128890037537e+01 0.0000000000000000e+00
ITEM: ATOMS id type xs ys zs fx fy fz
1 1 0.589746 0.00317738 0.132082 0 0.210932 -0.0219269
2 1 0.339747 0.16349 0.132082 0 -0.210938 -0.0219193
3 1 0.270147 0.00010867 0.275207 0 0.00265884 0.00297165
4 1 0.0201469 0.166559 0.275207 0 -0.00267792 0.00296974
5 1 0.950418 1.51217e-05 0.418076 0 -0.000528336 -0.00200272
6 1 0.0897468 0.00317741 0.132082 0 0.210932 -0.021925
7 1 1.0015 0.536152 0.0671296 0 0.189554 -0.095541
8 1 0.839748 0.16349 0.132082 0 -0.210934 -0.0219154
9 1 0.751505 0.630515 0.0671296 0 -0.189558 -0.0955353
10 1 0.770148 0.000108819 0.275207 0 0.00266075 0.00296974
11 1 0.700417 0.166652 0.418076 0 0.000535965 -0.00200462
12 1 0.630675 2.28453e-05 0.56094 0 -0.000144958 -0.000890732
13 1 0.380676 0.166644 0.56094 0 0.000143051 -0.000888824
14 1 0.310933 1.30081e-05 0.703775 0 -0.0010643 -0.0126953
15 1 0.060933 0.166654 0.703775 0 0.00105286 -0.0126991
16 1 0.991055 -9.08236e-05 0.84611 0 -0.0100422 -0.128042
17 1 0.680172 0.499909 0.204343 0 -0.0100365 0.128065
18 1 0.520147 0.166559 0.275207 0 -0.00267982 0.00297165
19 1 0.430173 0.666757 0.204343 0 0.0100517 0.128067
20 1 0.450418 1.52865e-05 0.418076 0 -0.000543594 -0.00200844
21 1 0.360295 0.500013 0.346677 0 -0.00105286 0.0127087
22 1 0.200418 0.166652 0.418076 0 0.000528336 -0.00200844
23 1 0.110295 0.666654 0.346678 0 0.00107384 0.0126934
24 1 0.130676 2.30946e-05 0.56094 0 -0.000141144 -0.000881195
25 1 0.0405511 0.500023 0.489513 0 -0.000139236 0.000879288
26 1 0.880677 0.166645 0.56094 0 0.0001297 -0.000881195
27 1 0.790552 0.666644 0.489513 0 0.000146866 0.000892639
28 1 0.501503 0.536152 0.0671297 0 0.189562 -0.0955505
29 1 0.251504 0.630514 0.0671297 0 -0.189558 -0.0955391
30 1 0.180173 0.499909 0.204343 0 -0.0100403 0.128073
31 1 0.930173 0.666758 0.204343 0 0.0100384 0.128069
32 1 0.860295 0.500013 0.346677 0 -0.0010643 0.0127029
33 1 0.741054 0.166758 0.84611 0 0.0100441 -0.128078
34 1 0.669724 0.0361526 0.983323 0 0.189558 0.0955486
35 1 0.419724 0.130514 0.983323 0 -0.18956 0.0955429
36 1 0.810932 1.33437e-05 0.703775 0 -0.00107002 -0.012701
37 1 0.720808 0.500015 0.632377 0 -0.000535965 0.00199699
38 1 0.560933 0.166654 0.703775 0 0.0010643 -0.0127048
39 1 0.47081 0.666652 0.632377 0 0.00053215 0.00200462
40 1 0.491054 -9.07392e-05 0.84611 0 -0.0100441 -0.128067
41 1 0.40108 0.500108 0.775246 0 0.00266457 -0.00296974
42 1 0.241054 0.166758 0.84611 0 0.0100422 -0.128071
43 1 0.15108 0.666559 0.775246 0 -0.00265884 -0.00297356
44 1 0.169724 0.0361523 0.983323 0 0.189562 0.0955467
45 1 0.0814811 0.503177 0.918371 0 0.210943 0.0219307
46 1 0.610294 0.666654 0.346677 0 0.00107002 0.012701
47 1 0.540551 0.500023 0.489513 0 -0.000135422 0.00087738
48 1 0.290551 0.666644 0.489513 0 0.000146866 0.000879288
49 1 0.220809 0.500015 0.632376 0 -0.00053215 0.00201035
50 1 0.97081 0.666652 0.632376 0 0.00053978 0.00200653
51 1 0.901081 0.500108 0.775246 0 0.00267029 -0.00297737
52 1 0.919722 0.130515 0.983323 0 -0.189556 0.0955296
53 1 0.83148 0.66349 0.918371 0 -0.210938 0.0219097
54 1 0.65108 0.666558 0.775246 0 -0.00266647 -0.00296783
55 1 0.581481 0.503177 0.918371 0 0.210939 0.021925
56 1 0.331481 0.66349 0.918371 0 -0.210938 0.0219231
ITEM: TIMESTEP
3
ITEM: NUMBER OF ATOMS
56
ITEM: BOX BOUNDS xy xz yz pp pp pp
-3.6900796890258789e+00 1.2203788340091705e+01 0.0000000000000000e+00
-8.4733366966247559e-03 5.5348814725875854e+00 -3.6713911890983582e+00
-2.9168844223022461e-02 1.9049128890037537e+01 0.0000000000000000e+00
ITEM: ATOMS id type xs ys zs fx fy fz
1 1 0.589582 0.021216 0.131537 0 0.0362587 0.0355625
2 1 0.339583 0.14545 0.131537 0 -0.0362434 0.0355511
3 1 0.270169 0.000336051 0.275281 0 0.00235367 0.0220871
4 1 0.020169 0.16633 0.275281 0 -0.0023365 0.0220814
5 1 0.950403 -3.00609e-05 0.418026 0 -0.000598907 0.00401688
6 1 0.0895831 0.021216 0.131537 0 0.0362568 0.0355511
7 1 1.00079 0.552363 0.0647556 0 0.0642147 -0.00482559
8 1 0.839584 0.145451 0.131537 0 -0.036253 0.0355511
9 1 0.750792 0.614304 0.0647558 0 -0.0642128 -0.00482941
10 1 0.770171 0.000336364 0.275281 0 0.00235367 0.0220833
11 1 0.700402 0.166698 0.418027 0 0.000602722 0.00401688
12 1 0.630668 1.04486e-05 0.560918 0 -0.00158882 -0.00764465
13 1 0.380669 0.166657 0.560918 0 0.00159073 -0.007658
14 1 0.310838 -7.80096e-05 0.70346 0 -0.00564575 -0.0508385
15 1 0.0608383 0.166745 0.70346 0 0.00565147 -0.0508232
16 1 0.9901 -0.00094962 0.842929 0 0.0728703 0.0743141
17 1 0.681128 0.499051 0.207525 0 0.0728493 -0.0743389
18 1 0.520169 0.16633 0.275281 0 -0.00233078 0.0220814
19 1 0.431129 0.667617 0.207525 0 -0.072876 -0.0743389
20 1 0.450403 -3.12011e-05 0.418026 0 -0.000593185 0.00401306
21 1 0.360389 0.499923 0.346993 0 -0.0056591 0.0508232
22 1 0.200403 0.166697 0.418026 0 0.000606537 0.00402069
23 1 0.110389 0.666746 0.346993 0 0.00564194 0.0508423
24 1 0.130669 1.10241e-05 0.560918 0 -0.00159264 -0.00765038
25 1 0.0405577 0.500011 0.489535 0 -0.00159645 0.007658
26 1 0.88067 0.166656 0.560918 0 0.00160217 -0.00764847
27 1 0.790559 0.666656 0.489535 0 0.00159073 0.00764275
28 1 0.50079 0.552363 0.0647555 0 0.064209 -0.00482559
29 1 0.250791 0.614304 0.0647557 0 -0.0642128 -0.00482941
30 1 0.181129 0.499051 0.207525 0 0.0728493 -0.0743389
31 1 0.931129 0.667617 0.207525 0 -0.0728722 -0.0743408
32 1 0.86039 0.499922 0.346993 0 -0.00565147 0.0508251
33 1 0.740098 0.167617 0.842928 0 -0.0728683 0.0743408
34 1 0.670437 0.0523634 0.985698 0 0.0642147 0.00481987
35 1 0.420437 0.114304 0.985697 0 -0.0642109 0.00482368
36 1 0.810837 -7.81633e-05 0.70346 0 -0.00565338 -0.0508251
37 1 0.720823 0.499969 0.632426 0 -0.000593185 -0.00401306
38 1 0.560838 0.166745 0.70346 0 0.00564957 -0.0508404
39 1 0.470825 0.666698 0.632426 0 0.000597 -0.0040226
40 1 0.490098 -0.000949699 0.842928 0 0.0728683 0.0743427
41 1 0.401058 0.500336 0.775172 0 0.00234795 -0.0220795
42 1 0.240098 0.167617 0.842928 0 -0.0728588 0.0743465
43 1 0.151058 0.666331 0.775172 0 -0.00235939 -0.0220776
44 1 0.170437 0.0523634 0.985697 0 0.0642223 0.00482941
45 1 0.0816448 0.521216 0.918916 0 0.0362396 -0.035553
46 1 0.610389 0.666745 0.346993 0 0.00564575 0.0508423
47 1 0.540558 0.500011 0.489535 0 -0.00160027 0.00765038
48 1 0.290558 0.666656 0.489535 0 0.00159836 0.00765419
49 1 0.220824 0.499969 0.632426 0 -0.000593185 -0.0040226
50 1 0.970825 0.666698 0.632426 0 0.000589371 -0.00401115
51 1 0.901059 0.500336 0.775172 0 0.00234985 -0.0220852
52 1 0.920435 0.114305 0.985697 0 -0.0642204 0.00483704
53 1 0.831644 0.645451 0.918916 0 -0.0362511 -0.0355492
54 1 0.651058 0.66633 0.775172 0 -0.00234222 -0.022089
55 1 0.581644 0.521217 0.918916 0 0.0362415 -0.0355568
56 1 0.331644 0.645451 0.918916 0 -0.0362511 -0.035553
ITEM: TIMESTEP
4
ITEM: NUMBER OF ATOMS
56
ITEM: BOX BOUNDS xy xz yz pp pp pp
-3.6900796890258789e+00 1.2203788340091705e+01 0.0000000000000000e+00
-8.4733366966247559e-03 5.5348814725875854e+00 -3.6713911890983582e+00
-2.9168844223022461e-02 1.9049128890037537e+01 0.0000000000000000e+00
ITEM: ATOMS id type xs ys zs fx fy fz
1 1 0.589849 0.0264795 0.132423 0 0.0247765 0.0107689
2 1 0.339849 0.140188 0.132423 0 -0.0247955 0.0107861
3 1 0.270348 0.000575842 0.275876 0 0.0148315 0.010128
4 1 0.0203477 0.166092 0.275876 0 -0.0148506 0.0101414
5 1 0.950433 -8.97087e-05 0.418128 0 -0.00110817 0.0156174
6 1 0.0898492 0.0264793 0.132423 0 0.0247784 0.0107727
7 1 1.00068 0.559985 0.064371 0 -0.0282879 -0.0848789
8 1 0.83985 0.140188 0.132423 0 -0.0247917 0.0107803
9 1 0.750676 0.606682 0.0643711 0 0.0282822 -0.0848694
10 1 0.770349 0.000576172 0.275876 0 0.0148335 0.0101395
11 1 0.700432 0.166758 0.418128 0 0.00109863 0.0156136
12 1 0.630607 -0.000136186 0.560712 0 -0.00411606 -0.0162678
13 1 0.380607 0.166803 0.560712 0 0.00412369 -0.0162563
14 1 0.310422 -0.000604135 0.702075 0 0.00794411 0.0280094
15 1 0.0604224 0.167271 0.702075 0 -0.00795364 0.0279961
16 1 0.99059 0.00562157 0.84456 0 0.0241337 -0.0351906
17 1 0.680638 0.50562 0.205893 0 0.0241528 0.0352097
18 1 0.520348 0.166092 0.275876 0 -0.0148525 0.0101376
19 1 0.430639 0.661045 0.205893 0 -0.0241203 0.035202
20 1 0.450434 -9.04665e-05 0.418128 0 -0.00110435 0.015625
21 1 0.360805 0.499395 0.348378 0 0.00794983 -0.0280018
22 1 0.200433 0.166758 0.418128 0 0.00110245 0.0156193
23 1 0.110805 0.667271 0.348378 0 -0.0079422 -0.0279999
24 1 0.130607 -0.000135924 0.560712 0 -0.0041256 -0.0162659
25 1 0.0406195 0.499864 0.48974 0 -0.00411034 0.0162582
26 1 0.880608 0.166803 0.560713 0 0.00411987 -0.0162544
27 1 0.790621 0.666803 0.48974 0 0.00412369 0.0162697
28 1 0.500675 0.559986 0.0643709 0 -0.0282745 -0.0848713
29 1 0.250675 0.606681 0.0643711 0 0.0282898 -0.0848713
30 1 0.180639 0.50562 0.205893 0 0.0241432 0.0351982
31 1 0.930639 0.661045 0.205893 0 -0.024128 0.035202
32 1 0.860806 0.499396 0.348378 0 0.00795174 -0.0280056
33 1 0.740588 0.161046 0.84456 0 -0.0241261 -0.0352039
34 1 0.670553 0.059986 0.986082 0 -0.0282936 0.0848808
35 1 0.420552 0.106681 0.986082 0 0.0282841 0.0848789
36 1 0.810421 -0.000605039 0.702075 0 0.00795746 0.0279961
37 1 0.720792 0.49991 0.632325 0 -0.00111008 -0.0156193
38 1 0.560422 0.167271 0.702075 0 -0.00795555 0.0280075
39 1 0.470794 0.666757 0.632325 0 0.00110626 -0.0156136
40 1 0.490589 0.0056213 0.84456 0 0.0241356 -0.0352058
41 1 0.400879 0.500575 0.774577 0 0.0148468 -0.0101414
42 1 0.240588 0.161047 0.84456 0 -0.0241394 -0.0352077
43 1 0.150879 0.666091 0.774577 0 -0.0148411 -0.0101414
44 1 0.170553 0.0599868 0.986082 0 -0.0282993 0.0848751
45 1 0.0813787 0.526478 0.91803 0 0.0248146 -0.0107803
46 1 0.610805 0.667271 0.348378 0 -0.00794411 -0.028017
47 1 0.54062 0.499864 0.48974 0 -0.00411987 0.0162716
48 1 0.29062 0.666804 0.48974 0 0.00412178 0.0162544
49 1 0.220794 0.49991 0.632325 0 -0.00111008 -0.0156116
50 1 0.970795 0.666757 0.632325 0 0.00110817 -0.0156097
51 1 0.90088 0.500576 0.774577 0 0.0148392 -0.0101376
52 1 0.920551 0.106682 0.986082 0 0.0282841 0.0848694
53 1 0.831377 0.640188 0.91803 0 -0.0247936 -0.0107918
54 1 0.650879 0.666092 0.774577 0 -0.0148525 -0.0101395
55 1 0.581378 0.526479 0.91803 0 0.0248013 -0.0107784
56 1 0.331378 0.640188 0.91803 0 -0.0247879 -0.0107765
ITEM: TIMESTEP
5
ITEM: NUMBER OF ATOMS
56
ITEM: BOX BOUNDS xy xz yz pp pp pp
-3.6900796890258789e+00 1.2203788340091705e+01 0.0000000000000000e+00
-8.4733366966247559e-03 5.5348814725875854e+00 -3.6713911890983582e+00
-2.9168844223022461e-02 1.9049128890037537e+01 0.0000000000000000e+00
ITEM: ATOMS id type xs ys zs fx fy fz
1 1 0.590036 0.0305807 0.133047 0 -0.0162315 0.00959778
2 1 0.340037 0.136087 0.133047 0 0.0162277 0.00959778
3 1 0.27049 0.0016365 0.276349 0 0.0185051 0.0050106
4 1 0.0204897 0.16503 0.276349 0 -0.0185223 0.00502014
5 1 0.950535 -0.000188948 0.418466 0 -0.00244522 0.00683594
6 1 0.0900366 0.0305806 0.133047 0 -0.016243 0.00960541
7 1 1.00015 0.561833 0.0626141 0 0.0159073 0.000707626
8 1 0.840038 0.136086 0.133047 0 0.0162354 0.00959778
9 1 0.750149 0.604834 0.0626144 0 -0.015913 0.000717163
10 1 0.770491 0.00163696 0.276348 0 0.0184937 0.00501442
11 1 0.700534 0.166857 0.418466 0 0.00245094 0.00683784
12 1 0.630487 -0.000468904 0.560313 0 -0.00113869 0.00470161
13 1 0.380487 0.167137 0.560312 0 0.00112915 0.00470161
14 1 0.310379 -0.00034957 0.701931 0 0.00908661 0.0238152
15 1 0.060379 0.167016 0.701931 0 -0.00909042 0.0238037
16 1 0.990628 0.0103083 0.844689 0 -0.00281143 -0.015974
17 1 0.680599 0.510307 0.205764 0 -0.00279999 0.0159931
18 1 0.52049 0.165031 0.276348 0 -0.0185184 0.00502396
19 1 0.4306 0.656359 0.205764 0 0.00280571 0.0159931
20 1 0.450535 -0.000189279 0.418466 0 -0.00245285 0.00683212
21 1 0.360849 0.49965 0.348522 0 0.00909424 -0.0238018
22 1 0.200535 0.166857 0.418466 0 0.00244713 0.00683212
23 1 0.110849 0.667017 0.348523 0 -0.00908089 -0.0238266
24 1 0.130487 -0.0004694 0.560313 0 -0.00112152 0.00470161
25 1 0.0407396 0.499531 0.49014 0 -0.00113106 -0.00470734
26 1 0.880488 0.167137 0.560313 0 0.00111961 0.00470352
27 1 0.790741 0.667137 0.49014 0 0.00112915 -0.00469398
28 1 0.500147 0.561834 0.0626141 0 0.0159073 0.000717163
29 1 0.250147 0.604834 0.0626143 0 -0.0159111 0.000713348
30 1 0.1806 0.510306 0.205764 0 -0.00278664 0.015995
31 1 0.9306 0.656359 0.205764 0 0.00281143 0.0159988
32 1 0.860849 0.499651 0.348522 0 0.00909233 -0.0237999
33 1 0.740627 0.15636 0.844689 0 0.00279808 -0.0159931
34 1 0.671081 0.0618332 0.987839 0 0.0159111 -0.000715256
35 1 0.42108 0.104834 0.987838 0 -0.0159054 -0.000709534
36 1 0.810378 -0.000349982 0.701931 0 0.00909615 0.0238018
37 1 0.720691 0.499811 0.631987 0 -0.00245285 -0.00684738
38 1 0.560379 0.167016 0.70193 0 -0.0090847 0.0238247
39 1 0.470693 0.666856 0.631987 0 0.00244904 -0.00682831
40 1 0.490627 0.010308 0.844689 0 -0.00281143 -0.0160007
41 1 0.400737 0.501637 0.774104 0 0.018507 -0.00501633
42 1 0.240627 0.15636 0.844689 0 0.00278664 -0.0159931
43 1 0.150737 0.665029 0.774104 0 -0.0184956 -0.00501823
44 1 0.171081 0.0618339 0.987839 0 0.015913 -0.0007267
45 1 0.0811913 0.530581 0.917406 0 -0.0162334 -0.00959396
46 1 0.610848 0.667017 0.348522 0 -0.0090847 -0.023819
47 1 0.54074 0.49953 0.49014 0 -0.00111008 -0.00470543
48 1 0.29074 0.667138 0.49014 0 0.00112343 -0.00470352
49 1 0.220692 0.499811 0.631987 0 -0.00245285 -0.00683403
50 1 0.970693 0.666856 0.631987 0 0.00245667 -0.00683784
51 1 0.900738 0.501637 0.774104 0 0.0185165 -0.00501251
52 1 0.921078 0.104834 0.987839 0 -0.0159092 -0.0007267
53 1 0.83119 0.636086 0.917406 0 0.0162334 -0.00959778
54 1 0.650737 0.66503 0.774104 0 -0.0185108 -0.00501251
55 1 0.581191 0.530581 0.917406 0 -0.0162277 -0.00960159
56 1 0.331191 0.636086 0.917406 0 0.016243 -0.00959778
ITEM: TIMESTEP
6
ITEM: NUMBER OF ATOMS
56
ITEM: BOX BOUNDS xy xz yz pp pp pp
-3.6900796890258789e+00 1.2203788340091705e+01 0.0000000000000000e+00
-8.4733366966247559e-03 5.5348814725875854e+00 -3.6713911890983582e+00
-2.9168844223022461e-02 1.9049128890037537e+01 0.0000000000000000e+00
ITEM: ATOMS id type xs ys zs fx fy fz
1 1 0.590115 0.029875 0.133309 0 -0.00244522 0.00678253
2 1 0.340116 0.136792 0.133309 0 0.00245476 0.00678253
3 1 0.270536 0.00304887 0.276501 0 0.00477219 0.00416183
4 1 0.0205355 0.163617 0.276501 0 -0.00475693 0.00414848
5 1 0.950588 -0.00037124 0.418641 0 0.000408173 0.00056076
6 1 0.0901154 0.0298741 0.133309 0 -0.00244141 0.00678825
7 1 1.0001 0.563146 0.0624424 0 -0.00497437 0.000366211
8 1 0.840116 0.136792 0.133309 0 0.00244331 0.00678635
9 1 0.750097 0.60352 0.0624429 0 0.00497437 0.000349045
10 1 0.770537 0.00304854 0.276501 0 0.00477791 0.00415993
11 1 0.700586 0.167039 0.418641 0 -0.000415802 0.000555038
12 1 0.630503 -0.000584151 0.560366 0 0.000556946 0.0105343
13 1 0.380503 0.167251 0.560366 0 -0.000555038 0.0105343
14 1 0.31052 0.000315736 0.702401 0 0.00357056 -0.0025959
15 1 0.0605203 0.16635 0.702401 0 -0.00357056 -0.00258827
16 1 0.990535 0.0106074 0.844377 0 -0.00401306 0.00754166
17 1 0.680693 0.510607 0.206077 0 -0.00402451 -0.00755501
18 1 0.520536 0.163618 0.276501 0 -0.00477028 0.00415802
19 1 0.430694 0.65606 0.206077 0 0.00401878 -0.00755119
20 1 0.450588 -0.000372062 0.418641 0 0.000423431 0.000555038
21 1 0.360707 0.500316 0.348052 0 0.00357246 0.00258827
22 1 0.200587 0.167039 0.418641 0 -0.000411987 0.000555038
23 1 0.110707 0.666352 0.348052 0 -0.00357628 0.00259399
24 1 0.130503 -0.000583522 0.560366 0 0.000545502 0.0105267
25 1 0.0407235 0.499416 0.490087 0 0.000549316 -0.0105267
26 1 0.880505 0.167251 0.560367 0 -0.00053978 0.0105247
27 1 0.790725 0.667251 0.490087 0 -0.000549316 -0.0105343
28 1 0.500095 0.563147 0.0624426 0 -0.00497246 0.000360489
29 1 0.250096 0.60352 0.0624427 0 0.00497818 0.000370026
30 1 0.180694 0.510607 0.206077 0 -0.00402451 -0.00756073
31 1 0.930694 0.65606 0.206077 0 0.00401306 -0.00756264
32 1 0.860708 0.500316 0.348051 0 0.00356483 0.00259209
33 1 0.740533 0.15606 0.844376 0 0.0040226 0.00756073
34 1 0.671132 0.0631466 0.98801 0 -0.00496483 -0.000368118
35 1 0.421132 0.103521 0.98801 0 0.00498009 -0.000358582
36 1 0.810519 0.000316045 0.702401 0 0.00356674 -0.00258636
37 1 0.720638 0.499628 0.631811 0 0.000417709 -0.000545502
38 1 0.56052 0.166351 0.702401 0 -0.00357628 -0.00259781
39 1 0.47064 0.667039 0.631812 0 -0.000408173 -0.000558853
40 1 0.490533 0.0106071 0.844376 0 -0.00401878 0.00756073
41 1 0.400692 0.503049 0.773952 0 0.00477219 -0.00415421
42 1 0.240533 0.156059 0.844376 0 0.00403023 0.00755119
43 1 0.150691 0.663618 0.773952 0 -0.004776 -0.00415039
44 1 0.171132 0.0631475 0.98801 0 -0.00497246 -0.000358582
45 1 0.0811126 0.529875 0.917144 0 -0.00245094 -0.00679588
46 1 0.610707 0.666352 0.348052 0 -0.00358009 0.00259209
47 1 0.540724 0.499417 0.490087 0 0.000537872 -0.0105343
48 1 0.290724 0.667252 0.490087 0 -0.000549316 -0.0105267
49 1 0.22064 0.499628 0.631812 0 0.000413895 -0.000558853
50 1 0.970641 0.667039 0.631812 0 -0.000415802 -0.00056076
51 1 0.900693 0.50305 0.773952 0 0.00476456 -0.00415039
52 1 0.92113 0.10352 0.98801 0 0.00497627 -0.00034523
53 1 0.831111 0.636792 0.917144 0 0.00244522 -0.00678825
54 1 0.650691 0.663617 0.773952 0 -0.00477219 -0.00415802
55 1 0.581112 0.529875 0.917144 0 -0.00246048 -0.00677872
56 1 0.331112 0.636793 0.917144 0 0.00243568 -0.00679016
ITEM: TIMESTEP
7
ITEM: NUMBER OF ATOMS
56
ITEM: BOX BOUNDS xy xz yz pp pp pp
-3.6900796890258789e+00 1.2203788340091705e+01 0.0000000000000000e+00
-8.4733366966247559e-03 5.5348814725875854e+00 -3.6713911890983582e+00
-2.9168844223022461e-02 1.9049128890037537e+01 0.0000000000000000e+00
ITEM: ATOMS id type xs ys zs fx fy fz
1 1 0.590171 0.0295874 0.133495 0 -0.00317574 -0.00114822
2 1 0.340172 0.13708 0.133495 0 0.00317574 -0.00113869
3 1 0.27057 0.00361536 0.276614 0 -0.00319481 0.00205612
4 1 0.0205694 0.163051 0.276614 0 0.00319481 0.00205231
5 1 0.950599 -0.000367686 0.418679 0 0.00242043 0.00335693
6 1 0.0901714 0.0295867 0.133495 0 -0.00317574 -0.00115204
7 1 1.00009 0.562968 0.062425 0 -0.0016861 -0.00253105
8 1 0.840172 0.13708 0.133496 0 0.00317764 -0.00115395
9 1 0.750092 0.603698 0.0624251 0 0.00169373 -0.00251579
10 1 0.770571 0.00361534 0.276614 0 -0.00319481 0.00204849
11 1 0.700598 0.167035 0.418679 0 -0.00242043 0.00336456
12 1 0.630574 -0.000559528 0.560603 0 -0.000150681 -0.000720978
13 1 0.380575 0.167227 0.560603 0 0.000165939 -0.000707626
14 1 0.310524 0.000681603 0.702415 0 0.00069809 0.0020504
15 1 0.0605244 0.165985 0.702415 0 -0.000699997 0.00204659
16 1 0.99057 0.0103512 0.844494 0 0.00119209 0.000934601
17 1 0.680658 0.51035 0.205959 0 0.00119591 -0.000932693
18 1 0.52057 0.163051 0.276614 0 0.00319099 0.00204086
19 1 0.430659 0.656316 0.205959 0 -0.00119019 -0.000928879
20 1 0.450599 -0.000367439 0.418679 0 0.0024147 0.00336647
21 1 0.360703 0.500682 0.348038 0 0.00069809 -0.0020504
22 1 0.200599 0.167036 0.418679 0 -0.00241852 0.00335121
23 1 0.110703 0.665986 0.348038 0 -0.000703812 -0.00205421
24 1 0.130574 -0.000559589 0.560603 0 -0.000154495 -0.000707626
25 1 0.0406523 0.499441 0.48985 0 -0.000162125 0.000709534
26 1 0.880576 0.167227 0.560603 0 0.000156403 -0.000707626
27 1 0.790654 0.667227 0.48985 0 0.000154495 0.000709534
28 1 0.50009 0.562969 0.062425 0 -0.00168228 -0.00253105
29 1 0.250091 0.603699 0.0624253 0 0.00169563 -0.00253677
30 1 0.180659 0.51035 0.205958 0 0.001194 -0.000923157
31 1 0.930659 0.656316 0.205958 0 -0.00118637 -0.000921249
32 1 0.860704 0.500682 0.348038 0 0.000696182 -0.00205231
33 1 0.740568 0.156316 0.844494 0 -0.00119209 0.000917435
34 1 0.671137 0.0629695 0.988028 0 -0.0017128 0.00254631
35 1 0.421137 0.103699 0.988028 0 0.00167847 0.00252342
36 1 0.810523 0.000681734 0.702415 0 0.000703812 0.00205421
37 1 0.720627 0.499632 0.631774 0 0.00242043 -0.00336075
38 1 0.560524 0.165985 0.702415 0 -0.000699997 0.00206184
39 1 0.470628 0.667035 0.631774 0 -0.00242043 -0.00336266
40 1 0.490569 0.0103506 0.844494 0 0.00119209 0.000925064
41 1 0.400658 0.503616 0.773839 0 -0.00320625 -0.00205421
42 1 0.240568 0.156316 0.844494 0 -0.00118637 0.000926971
43 1 0.150657 0.663051 0.773839 0 0.00319481 -0.00205803
44 1 0.171137 0.0629698 0.988028 0 -0.00170517 0.00253296
45 1 0.0810565 0.529587 0.916957 0 -0.00316811 0.00115776
46 1 0.610703 0.665985 0.348038 0 -0.000694275 -0.00205421
47 1 0.540652 0.499441 0.489849 0 -0.000154495 0.000715256
48 1 0.290653 0.667228 0.48985 0 0.000150681 0.000703812
49 1 0.220628 0.499632 0.631774 0 0.0024147 -0.00335312
50 1 0.970629 0.667035 0.631774 0 -0.00241852 -0.00336456
51 1 0.900659 0.503616 0.773839 0 -0.00320435 -0.0020504
52 1 0.921135 0.103698 0.988028 0 0.00168419 0.00251007
53 1 0.831055 0.637079 0.916957 0 0.00318336 0.00115585
54 1 0.650657 0.663051 0.773839 0 0.00320244 -0.00204659
55 1 0.581056 0.529587 0.916958 0 -0.00316238 0.00114822
56 1 0.331056 0.63708 0.916957 0 0.00318146 0.00115204
ITEM: TIMESTEP
8
ITEM: NUMBER OF ATOMS
56
ITEM: BOX BOUNDS xy xz yz pp pp pp
-3.6900796890258789e+00 1.2203788340091705e+01 0.0000000000000000e+00
-8.4733366966247559e-03 5.5348814725875854e+00 -3.6713911890983582e+00
-2.9168844223022461e-02 1.9049128890037537e+01 0.0000000000000000e+00
ITEM: ATOMS id type xs ys zs fx fy fz
1 1 0.590175 0.0292618 0.133509 0 -0.000860214 0.000841141
2 1 0.340176 0.137406 0.133509 0 0.000871658 0.000818253
3 1 0.270592 0.00347667 0.276688 0 -0.000724792 -0.000490189
4 1 0.0205917 0.16319 0.276688 0 0.000720978 -0.000476837
5 1 0.950626 -0.000167112 0.418768 0 0.000150681 0.000562668
6 1 0.0901755 0.0292611 0.133509 0 -0.000862122 0.000829697
7 1 1.00007 0.56279 0.0623604 0 0.00154495 0.000617981
8 1 0.840176 0.137405 0.133509 0 0.000869751 0.000827789
9 1 0.750073 0.603877 0.0623608 0 -0.00156212 0.000617981
10 1 0.770593 0.00347672 0.276688 0 -0.0007267 -0.000473022
11 1 0.700625 0.166834 0.418768 0 -0.000146866 0.000558853
12 1 0.630584 -0.000566532 0.560638 0 0.000562668 -0.000457764
13 1 0.380585 0.167235 0.560638 0 -0.000572205 -0.000469208
14 1 0.31054 0.000819967 0.702467 0 -0.00082016 9.91821e-05
15 1 0.06054 0.165846 0.702467 0 0.000812531 0.000101089
16 1 0.990585 0.0103931 0.844543 0 -0.00101471 0.000776291
17 1 0.680643 0.510392 0.20591 0 -0.0010128 -0.000776291
18 1 0.520592 0.16319 0.276688 0 0.0007267 -0.000471115
19 1 0.430644 0.656275 0.20591 0 0.0010128 -0.000774384
20 1 0.450626 -0.0001671 0.418768 0 0.000152588 0.000566483
21 1 0.360688 0.50082 0.347986 0 -0.000816345 -9.91821e-05
22 1 0.200625 0.166835 0.418768 0 -0.000156403 0.000570297
23 1 0.110688 0.665847 0.347986 0 0.00082016 -9.72748e-05
24 1 0.130585 -0.00056706 0.560638 0 0.000564575 -0.000469208
25 1 0.0406417 0.499432 0.489814 0 0.000570297 0.000463486
26 1 0.880586 0.167235 0.560639 0 -0.000572205 -0.000463486
27 1 0.790643 0.667234 0.489814 0 -0.000570297 0.000465393
28 1 0.500071 0.562791 0.0623605 0 0.00154305 0.000610352