ITEM: TIMESTEP
0
ITEM: NUMBER OF ATOMS
48
ITEM: BOX BOUNDS xy xz yz pp pp pp
-1.6669713258743286e+00 8.6109705567359924e+00 2.5110912919044495e+00
-1.0506033897399902e-02 9.6185076832771301e+00 -1.6524145007133484e+00
-2.6944518089294434e-02 1.9544072151184082e+01 3.6519104242324829e-01
ITEM: ATOMS id type xs ys zs fx fy fz
1 1 0.930789 0.165578 0.0319985 0 0 0.034371
2 1 0.473494 0.0752984 0.0528317 0 0 0.0901051
3 1 0.211964 0.123911 0.656998 0 0 -0.000262499
4 1 0.26714 0.950298 0.927832 0 0 -0.0343705
5 1 0.0109053 0.158632 0.802832 0 0 -0.000303864
6 1 0.724435 0.040578 0.906998 0 0 -0.0901057
7 1 0.468199 0.248911 0.781998 0 0 -0.00316787
8 1 0.699494 0.207245 0.406998 0 0 0.000160098
9 1 0.75467 0.0336318 0.677832 0 0 0.000493765
10 1 0.498435 0.241965 0.552832 0 0 -0.00015974
11 1 0.72973 0.200298 0.177832 0 0 0.00316811
12 1 0.443259 0.0822446 0.281998 0 0 -0.000493407
13 1 0.187024 0.290578 0.156998 0 0 0.000303745
14 1 0.2422 0.116965 0.427832 0 0 7.66516e-05
15 1 0.930789 0.498911 0.0319984 0 0 0.0343714
16 1 0.473494 0.408632 0.0528317 0 0 0.0901053
17 1 0.211964 0.457245 0.656998 0 0 -0.000262976
18 1 0.26714 0.283632 0.927832 0 0 -0.0343705
19 1 0.0109053 0.491965 0.802832 0 0 -0.000303864
20 1 0.724435 0.373911 0.906998 0 0 -0.0901052
21 1 0.468199 0.582245 0.781998 0 0 -0.00316846
22 1 0.955729 0.332245 0.531998 0 0 -7.56979e-05
23 1 0.699494 0.540578 0.406998 0 0 0.000160098
24 1 0.75467 0.366965 0.677832 0 0 0.000493646
25 1 0.498435 0.575298 0.552832 0 0 -0.000160217
26 1 0.985965 0.325298 0.302832 0 0 0.000262141
27 1 0.72973 0.533632 0.177832 0 0 0.00316775
28 1 0.443259 0.415578 0.281998 0 0 -0.000493646
29 1 0.187024 0.623911 0.156998 0 0 0.000303626
30 1 0.2422 0.450298 0.427832 0 0 7.60555e-05
31 1 0.930789 0.832245 0.0319985 0 0 0.0343711
32 1 0.473494 0.741965 0.0528317 0 0 0.0901057
33 1 0.211964 0.790578 0.656998 0 0 -0.00026238
34 1 0.26714 0.616965 0.927832 0 0 -0.0343713
35 1 0.0109053 0.825298 0.802832 0 0 -0.000303507
36 1 0.724435 0.707245 0.906998 0 0 -0.0901055
37 1 0.468199 0.915578 0.781998 0 0 -0.00316882
38 1 0.955729 0.665578 0.531998 0 0 -7.689e-05
39 1 0.699494 0.873911 0.406998 0 0 0.000160336
40 1 0.75467 0.700298 0.677832 0 0 0.000494361
41 1 0.498435 0.908632 0.552832 0 0 -0.000161052
42 1 0.985965 0.658632 0.302832 0 0 0.000262618
43 1 0.72973 0.866965 0.177832 0 0 0.00316811
44 1 0.443259 0.748911 0.281998 0 0 -0.000493646
45 1 0.187024 0.957245 0.156998 0 0 0.000303507
46 1 0.2422 0.783632 0.427832 0 0 7.66516e-05
47 1 0.955729 0.998911 0.531998 0 0 -7.64132e-05
48 1 0.985965 0.991965 0.302832 0 0 0.000262856
ITEM: TIMESTEP
1
ITEM: NUMBER OF ATOMS
48
ITEM: BOX BOUNDS xy xz yz pp pp pp
-1.6669713258743286e+00 8.6109705567359924e+00 2.5110912919044495e+00
-1.0506033897399902e-02 9.6185076832771301e+00 -1.6524145007133484e+00
-2.6944518089294434e-02 1.9544072151184082e+01 3.6519104242324829e-01
ITEM: ATOMS id type xs ys zs fx fy fz
1 1 0.930941 0.165557 0.0325285 0 0 -0.0236632
2 1 0.473892 0.0752436 0.0542212 0 0 0.00278807
3 1 0.211963 0.123911 0.656994 0 0 -0.00324225
4 1 0.266988 0.950319 0.927302 0 0 0.0236632
5 1 0.0109039 0.158632 0.802827 0 0 -0.0188473
6 1 0.724037 0.0406327 0.905609 0 0 -0.00278807
7 1 0.468185 0.248913 0.78195 0 0 -0.022894
8 1 0.699495 0.207245 0.407001 0 0 -0.00055933
9 1 0.754672 0.0336315 0.677839 0 0 -0.00201952
10 1 0.498434 0.241965 0.552829 0 0 0.000558972
11 1 0.729744 0.200296 0.177881 0 0 0.022894
12 1 0.443257 0.0822449 0.281991 0 0 0.00201964
13 1 0.187025 0.290578 0.157003 0 0 0.0188473
14 1 0.2422 0.116965 0.427833 0 0 -0.000312805
15 1 0.930941 0.49889 0.0325285 0 0 -0.023663
16 1 0.473892 0.408577 0.0542212 0 0 0.00278759
17 1 0.211963 0.457245 0.656994 0 0 -0.00324202
18 1 0.266988 0.283653 0.927302 0 0 0.023663
19 1 0.0109039 0.491965 0.802827 0 0 -0.0188476
20 1 0.724037 0.373966 0.905609 0 0 -0.00278783
21 1 0.468185 0.582247 0.78195 0 0 -0.022894
22 1 0.955729 0.332245 0.531997 0 0 0.000312805
23 1 0.699495 0.540578 0.407001 0 0 -0.000559568
24 1 0.754672 0.366965 0.677839 0 0 -0.00201929
25 1 0.498434 0.575299 0.552829 0 0 0.00055933
26 1 0.985966 0.325298 0.302836 0 0 0.00324249
27 1 0.729744 0.53363 0.177881 0 0 0.0228939
28 1 0.443257 0.415578 0.281991 0 0 0.00201941
29 1 0.187025 0.623911 0.157003 0 0 0.0188475
30 1 0.2422 0.450298 0.427833 0 0 -0.000312924
31 1 0.930941 0.832224 0.0325285 0 0 -0.023663
32 1 0.473892 0.74191 0.0542212 0 0 0.00278759
33 1 0.211963 0.790578 0.656994 0 0 -0.00324261
34 1 0.266988 0.616986 0.927302 0 0 0.0236633
35 1 0.0109039 0.825299 0.802827 0 0 -0.0188477
36 1 0.724037 0.707299 0.905609 0 0 -0.00278807
37 1 0.468185 0.91558 0.78195 0 0 -0.0228939
38 1 0.955729 0.665578 0.531997 0 0 0.000313759
39 1 0.699495 0.873911 0.407001 0 0 -0.000559211
40 1 0.754672 0.700298 0.677839 0 0 -0.00201941
41 1 0.498434 0.908632 0.552829 0 0 0.000559211
42 1 0.985966 0.658632 0.302836 0 0 0.00324225
43 1 0.729744 0.866963 0.177881 0 0 0.0228939
44 1 0.443257 0.748912 0.281991 0 0 0.00201952
45 1 0.187025 0.957244 0.157003 0 0 0.0188476
46 1 0.2422 0.783632 0.427833 0 0 -0.000312686
47 1 0.955729 0.998911 0.531997 0 0 0.000312805
48 1 0.985966 0.991965 0.302836 0 0 0.00324225
ITEM: TIMESTEP
2
ITEM: NUMBER OF ATOMS
48
ITEM: BOX BOUNDS xy xz yz pp pp pp
-1.6669713258743286e+00 8.6109705567359924e+00 2.5110912919044495e+00
-1.0506033897399902e-02 9.6185076832771301e+00 -1.6524145007133484e+00
-2.6944518089294434e-02 1.9544072151184082e+01 3.6519104242324829e-01
ITEM: ATOMS id type xs ys zs fx fy fz
1 1 0.930833 0.165572 0.0321545 0 0 -0.00278831
2 1 0.474033 0.0752243 0.054712 0 0 -0.00541759
3 1 0.211942 0.123914 0.65692 0 0 -0.0105271
4 1 0.267096 0.950305 0.927676 0 0 0.00278819
5 1 0.010781 0.158649 0.802398 0 0 0.00127161
6 1 0.723896 0.0406521 0.905118 0 0 0.0054177
7 1 0.468032 0.248934 0.781415 0 0 -0.000980496
8 1 0.699491 0.207245 0.406989 0 0 0.00214386
9 1 0.75466 0.0336332 0.677796 0 0 -0.00989187
10 1 0.498438 0.241965 0.552841 0 0 -0.00214422
11 1 0.729897 0.200275 0.178415 0 0 0.000980377
12 1 0.443269 0.0822432 0.282034 0 0 0.00989091
13 1 0.187148 0.290561 0.157432 0 0 -0.00127125
14 1 0.242198 0.116965 0.427826 0 0 0.00287592
15 1 0.930834 0.498905 0.0321545 0 0 -0.00278854
16 1 0.474033 0.408558 0.054712 0 0 -0.00541723
17 1 0.211942 0.457248 0.65692 0 0 -0.0105264
18 1 0.267096 0.283638 0.927676 0 0 0.00278795
19 1 0.010781 0.491982 0.802398 0 0 0.00127172
20 1 0.723896 0.373985 0.905118 0 0 0.00541747
21 1 0.468032 0.582268 0.781415 0 0 -0.000980496
22 1 0.955731 0.332244 0.532004 0 0 -0.00287628
23 1 0.699491 0.540578 0.406989 0 0 0.00214469
24 1 0.75466 0.366967 0.677796 0 0 -0.00989127
25 1 0.498438 0.575298 0.552841 0 0 -0.0021441
26 1 0.985987 0.325295 0.302911 0 0 0.0105269
27 1 0.729897 0.533609 0.178415 0 0 0.000980377
28 1 0.443269 0.415577 0.282034 0 0 0.00989139
29 1 0.187148 0.623894 0.157432 0 0 -0.00127172
30 1 0.242198 0.450299 0.427826 0 0 0.0028764
31 1 0.930833 0.832238 0.0321545 0 0 -0.00278866
32 1 0.474033 0.741891 0.054712 0 0 -0.00541747
33 1 0.211942 0.790581 0.65692 0 0 -0.0105273
34 1 0.267096 0.616971 0.927676 0 0 0.00278807
35 1 0.010781 0.825316 0.802398 0 0 0.00127196
36 1 0.723896 0.707319 0.905118 0 0 0.00541782
37 1 0.468032 0.915601 0.781415 0 0 -0.000980139
38 1 0.955731 0.665578 0.532004 0 0 -0.00287652
39 1 0.699491 0.873912 0.406989 0 0 0.0021441
40 1 0.75466 0.7003 0.677796 0 0 -0.00989199
41 1 0.498438 0.908631 0.552841 0 0 -0.00214314
42 1 0.985987 0.658629 0.302911 0 0 0.0105268
43 1 0.729897 0.866942 0.178415 0 0 0.000980854
44 1 0.443269 0.74891 0.282034 0 0 0.00989187
45 1 0.187148 0.957227 0.157432 0 0 -0.00127184
46 1 0.242198 0.783632 0.427826 0 0 0.00287521
47 1 0.955731 0.998911 0.532004 0 0 -0.00287557
48 1 0.985987 0.991962 0.302911 0 0 0.0105274
ITEM: TIMESTEP
3
ITEM: NUMBER OF ATOMS
48
ITEM: BOX BOUNDS xy xz yz pp pp pp
-1.6669713258743286e+00 8.6109705567359924e+00 2.5110912919044495e+00
-1.0506033897399902e-02 9.6185076832771301e+00 -1.6524145007133484e+00
-2.6944518089294434e-02 1.9544072151184082e+01 3.6519104242324829e-01
ITEM: ATOMS id type xs ys zs fx fy fz
1 1 0.930803 0.165576 0.0320493 0 0 0.00586534
2 1 0.474013 0.075227 0.054642 0 0 0.00201356
3 1 0.21187 0.123924 0.65667 0 0 -0.000575304
4 1 0.267126 0.9503 0.927781 0 0 -0.00586569
5 1 0.0107758 0.15865 0.80238 0 0 -0.00154376
6 1 0.723916 0.0406493 0.905188 0 0 -0.00201356
7 1 0.468009 0.248938 0.781333 0 0 -0.000679612
8 1 0.699505 0.207243 0.407037 0 0 0.0033288
9 1 0.754594 0.0336423 0.677564 0 0 -0.000543594
10 1 0.498424 0.241967 0.552793 0 0 -0.00332844
11 1 0.72992 0.200272 0.178497 0 0 0.000679731
12 1 0.443335 0.0822341 0.282266 0 0 0.00054431
13 1 0.187153 0.29056 0.157451 0 0 0.0015434
14 1 0.242217 0.116963 0.427891 0 0 0.00373554
15 1 0.930803 0.498909 0.0320493 0 0 0.00586545
16 1 0.474013 0.40856 0.054642 0 0 0.00201356
17 1 0.21187 0.457258 0.65667 0 0 -0.000576019
18 1 0.267126 0.283634 0.927781 0 0 -0.00586522
19 1 0.0107757 0.491983 0.80238 0 0 -0.00154364
20 1 0.723916 0.373983 0.905188 0 0 -0.00201368
21 1 0.468009 0.582271 0.781333 0 0 -0.000679731
22 1 0.955712 0.332247 0.531939 0 0 -0.00373542
23 1 0.699505 0.540576 0.407037 0 0 0.00332808
24 1 0.754594 0.366976 0.677564 0 0 -0.00054431
25 1 0.498424 0.5753 0.552793 0 0 -0.00332844
26 1 0.986059 0.325285 0.30316 0 0 0.000575423
27 1 0.72992 0.533605 0.178497 0 0 0.000679851
28 1 0.443335 0.415567 0.282266 0 0 0.00054431
29 1 0.187153 0.623893 0.157451 0 0 0.00154388
30 1 0.242217 0.450296 0.427891 0 0 0.00373518
31 1 0.930803 0.832243 0.0320493 0 0 0.00586557
32 1 0.474013 0.741894 0.054642 0 0 0.00201333
33 1 0.21187 0.790591 0.65667 0 0 -0.000574708
34 1 0.267126 0.616967 0.927781 0 0 -0.00586498
35 1 0.0107758 0.825316 0.80238 0 0 -0.00154424
36 1 0.723916 0.707316 0.905188 0 0 -0.00201356
37 1 0.468009 0.915604 0.781333 0 0 -0.000679493
38 1 0.955712 0.66558 0.531939 0 0 -0.00373554
39 1 0.699505 0.87391 0.407037 0 0 0.00332916
40 1 0.754594 0.700309 0.677564 0 0 -0.000543714
41 1 0.498424 0.908633 0.552793 0 0 -0.00332952
42 1 0.986059 0.658619 0.30316 0 0 0.000575781
43 1 0.72992 0.866939 0.178497 0 0 0.000679135
44 1 0.443335 0.748901 0.282266 0 0 0.000543952
45 1 0.187153 0.957227 0.157451 0 0 0.00154412
46 1 0.242217 0.783629 0.427891 0 0 0.0037365
47 1 0.955712 0.998914 0.531939 0 0 -0.0037365
48 1 0.986059 0.991952 0.30316 0 0 0.000574708
ITEM: TIMESTEP
4
ITEM: NUMBER OF ATOMS
48
ITEM: BOX BOUNDS xy xz yz pp pp pp
-1.6669713258743286e+00 8.6109705567359924e+00 2.5110912919044495e+00
-1.0506033897399902e-02 9.6185076832771301e+00 -1.6524145007133484e+00
-2.6944518089294434e-02 1.9544072151184082e+01 3.6519104242324829e-01
ITEM: ATOMS id type xs ys zs fx fy fz
1 1 0.930832 0.165572 0.0321504 0 0 0.00083375
2 1 0.474021 0.075226 0.0546687 0 0 -0.000587821
3 1 0.21185 0.123927 0.656599 0 0 5.14984e-05
4 1 0.267097 0.950304 0.92768 0 0 -0.000833392
5 1 0.010765 0.158651 0.802342 0 0 -0.00299883
6 1 0.723908 0.0406504 0.905161 0 0 0.000587821
7 1 0.467999 0.248939 0.7813 0 0 -0.00196159
8 1 0.699529 0.20724 0.40712 0 0 -0.00138414
9 1 0.754575 0.0336449 0.677498 0 0 -4.74453e-05
10 1 0.4984 0.24197 0.55271 0 0 0.00138402
11 1 0.72993 0.200271 0.178531 0 0 0.00196135
12 1 0.443355 0.0822314 0.282332 0 0 4.70877e-05
13 1 0.187164 0.290559 0.157488 0 0 0.00299847
14 1 0.242244 0.116959 0.427987 0 0 -0.00136459
15 1 0.930832 0.498905 0.0321504 0 0 0.000834107
16 1 0.474021 0.408559 0.0546687 0 0 -0.00058794
17 1 0.21185 0.45726 0.656599 0 0 5.16176e-05
18 1 0.267097 0.283638 0.92768 0 0 -0.000833511
19 1 0.010765 0.491984 0.802342 0 0 -0.00299859
20 1 0.723908 0.373984 0.905161 0 0 0.000587821
21 1 0.467999 0.582272 0.7813 0 0 -0.00196147
22 1 0.955685 0.332251 0.531843 0 0 0.00136471
23 1 0.699529 0.540573 0.40712 0 0 -0.00138402
24 1 0.754575 0.366978 0.677498 0 0 -4.68493e-05
25 1 0.4984 0.575303 0.55271 0 0 0.0013839
26 1 0.986079 0.325283 0.303232 0 0 -5.14984e-05
27 1 0.72993 0.533604 0.178531 0 0 0.00196183
28 1 0.443355 0.415565 0.282332 0 0 4.69685e-05
29 1 0.187164 0.623892 0.157488 0 0 0.00299823
30 1 0.242244 0.450292 0.427987 0 0 -0.00136447
31 1 0.930832 0.832239 0.0321504 0 0 0.000834346
32 1 0.474021 0.741893 0.0546687 0 0 -0.000587463
33 1 0.21185 0.790594 0.656599 0 0 5.13792e-05
34 1 0.267097 0.616971 0.92768 0 0 -0.000834465
35 1 0.010765 0.825318 0.802342 0 0 -0.00299823
36 1 0.723908 0.707317 0.905161 0 0 0.000587583
37 1 0.467999 0.915606 0.7813 0 0 -0.00196195
38 1 0.955685 0.665584 0.531843 0 0 0.00136459
39 1 0.699529 0.873906 0.40712 0 0 -0.00138438
40 1 0.754575 0.700312 0.677498 0 0 -4.70877e-05
41 1 0.4984 0.908637 0.55271 0 0 0.00138426
42 1 0.986079 0.658616 0.303232 0 0 -5.14984e-05
43 1 0.72993 0.866937 0.178531 0 0 0.00196135
44 1 0.443355 0.748898 0.282332 0 0 4.68493e-05
45 1 0.187164 0.957225 0.157488 0 0 0.00299847
46 1 0.242244 0.783626 0.427987 0 0 -0.00136471
47 1 0.955685 0.998917 0.531843 0 0 0.0013653
48 1 0.986079 0.991949 0.303232 0 0 -5.13792e-05
ITEM: TIMESTEP
5
ITEM: NUMBER OF ATOMS
48
ITEM: BOX BOUNDS xy xz yz pp pp pp
-1.6669713258743286e+00 8.6109705567359924e+00 2.5110912919044495e+00
-1.0506033897399902e-02 9.6185076832771301e+00 -1.6524145007133484e+00
-2.6944518089294434e-02 1.9544072151184082e+01 3.6519104242324829e-01
ITEM: ATOMS id type xs ys zs fx fy fz
1 1 0.930847 0.16557 0.0322017 0 0 -0.000167727
2 1 0.474019 0.0752262 0.0546623 0 0 0.000278592
3 1 0.211844 0.123928 0.656578 0 0 -0.00047946
4 1 0.267082 0.950306 0.927628 0 0 0.000167489
5 1 0.0107405 0.158654 0.802257 0 0 0.000127196
6 1 0.72391 0.0406501 0.905168 0 0 -0.000278711
7 1 0.467982 0.248941 0.781241 0 0 8.08239e-05
8 1 0.699526 0.20724 0.407111 0 0 -0.000242352
9 1 0.754568 0.0336458 0.677476 0 0 -0.000576735
10 1 0.498403 0.24197 0.552719 0 0 0.000242114
11 1 0.729947 0.200268 0.178589 0 0 -8.05855e-05
12 1 0.443361 0.0822306 0.282354 0 0 0.000576973
13 1 0.187189 0.290555 0.157574 0 0 -0.000126719
14 1 0.242243 0.116959 0.427982 0 0 -0.000337005
15 1 0.930847 0.498903 0.0322017 0 0 -0.000167966
16 1 0.474019 0.40856 0.0546623 0 0 0.000278473
17 1 0.211844 0.457261 0.656578 0 0 -0.000479341
18 1 0.267082 0.28364 0.927628 0 0 0.000167489
19 1 0.0107405 0.491988 0.802257 0 0 0.000126958
20 1 0.72391 0.373983 0.905168 0 0 -0.000278473
21 1 0.467982 0.582275 0.781241 0 0 8.08239e-05
22 1 0.955686 0.332251 0.531848 0 0 0.000337124
23 1 0.699526 0.540574 0.407111 0 0 -0.000242114
24 1 0.754568 0.366979 0.677476 0 0 -0.000576973
25 1 0.498403 0.575303 0.552719 0 0 0.000242233
26 1 0.986085 0.325282 0.303252 0 0 0.000479341
27 1 0.729947 0.533602 0.178589 0 0 -8.11815e-05
28 1 0.443361 0.415564 0.282354 0 0 0.000576854
29 1 0.187189 0.623889 0.157574 0 0 -0.000126123
30 1 0.242243 0.450292 0.427982 0 0 -0.000337124
31 1 0.930847 0.832237 0.0322017 0 0 -0.000168324
32 1 0.474019 0.741893 0.0546623 0 0 0.000278354
33 1 0.211844 0.790595 0.656578 0 0 -0.00047946
34 1 0.267082 0.616973 0.927628 0 0 0.000168085
35 1 0.0107405 0.825321 0.802257 0 0 0.000126839
36 1 0.72391 0.707317 0.905168 0 0 -0.000278234
37 1 0.467982 0.915608 0.781241 0 0 8.08239e-05
38 1 0.955686 0.665584 0.531848 0 0 0.000337005
39 1 0.699526 0.873907 0.407111 0 0 -0.000241995
40 1 0.754568 0.700312 0.677476 0 0 -0.000576973
41 1 0.498403 0.908636 0.552719 0 0 0.000242352
42 1 0.986085 0.658615 0.303252 0 0 0.000478983
43 1 0.729947 0.866935 0.178589 0 0 -8.01086e-05
44 1 0.443361 0.748897 0.282354 0 0 0.000576854
45 1 0.187189 0.957222 0.157574 0 0 -0.000127196
46 1 0.242243 0.783626 0.427982 0 0 -0.000337243
47 1 0.955686 0.998917 0.531848 0 0 0.000336885
48 1 0.986085 0.991948 0.303252 0 0 0.00047946
ITEM: TIMESTEP
6
ITEM: NUMBER OF ATOMS
48
ITEM: BOX BOUNDS xy xz yz pp pp pp
-1.6669713258743286e+00 8.6109705567359924e+00 2.5110912919044495e+00
-1.0506033897399902e-02 9.6185076832771301e+00 -1.6524145007133484e+00
-2.6944518089294434e-02 1.9544072151184082e+01 3.6519104242324829e-01
ITEM: ATOMS id type xs ys zs fx fy fz
1 1 0.930847 0.16557 0.0322008 0 0 -0.00015521
2 1 0.47402 0.0752261 0.0546661 0 0 0.000121355
3 1 0.211842 0.123928 0.656571 0 0 -4.07696e-05
4 1 0.267082 0.950306 0.927629 0 0 0.000155449
5 1 0.0107403 0.158654 0.802256 0 0 -3.63588e-05
6 1 0.723909 0.0406503 0.905164 0 0 -0.000121117
7 1 0.467982 0.248941 0.78124 0 0 -0.00010097
8 1 0.699525 0.20724 0.407107 0 0 0.000207186
9 1 0.754566 0.0336461 0.677467 0 0 -7.27177e-05
10 1 0.498404 0.241969 0.552723 0 0 -0.000207186
11 1 0.729947 0.200268 0.17859 0 0 0.000100851
12 1 0.443363 0.0822302 0.282363 0 0 7.28369e-05
13 1 0.187189 0.290555 0.157574 0 0 3.6478e-05
14 1 0.242242 0.116959 0.427978 0 0 0.000170946
15 1 0.930847 0.498903 0.0322008 0 0 -0.000155449
16 1 0.47402 0.408559 0.0546661 0 0 0.000121355
17 1 0.211842 0.457262 0.656571 0 0 -4.1008e-05
18 1 0.267082 0.28364 0.927629 0 0 0.000155449
19 1 0.0107403 0.491988 0.802256 0 0 -3.63588e-05
20 1 0.723909 0.373984 0.905164 0 0 -0.000121236
21 1 0.467982 0.582275 0.78124 0 0 -0.00010097
22 1 0.955687 0.33225 0.531853 0 0 -0.000171185
23 1 0.699525 0.540574 0.407107 0 0 0.000207067
24 1 0.754566 0.366979 0.677467 0 0 -7.29561e-05
25 1 0.498404 0.575303 0.552723 0 0 -0.000207186
26 1 0.986087 0.325281 0.30326 0 0 4.11272e-05
27 1 0.729947 0.533602 0.17859 0 0 0.000100613
28 1 0.443363 0.415564 0.282363 0 0 7.24792e-05
29 1 0.187189 0.623889 0.157574 0 0 3.63588e-05
30 1 0.242242 0.450293 0.427978 0 0 0.000171065
31 1 0.930847 0.832237 0.0322008 0 0 -0.000155568
32 1 0.47402 0.741893 0.0546661 0 0 0.000121236
33 1 0.211842 0.790595 0.656571 0 0 -4.1008e-05
34 1 0.267082 0.616973 0.927629 0 0 0.000155568
35 1 0.0107403 0.825321 0.802256 0 0 -3.62396e-05
36 1 0.723909 0.707317 0.905164 0 0 -0.000121355
37 1 0.467982 0.915608 0.78124 0 0 -0.000100851
38 1 0.955687 0.665584 0.531853 0 0 -0.000170708
39 1 0.699525 0.873907 0.407107 0 0 0.000207186
40 1 0.754566 0.700313 0.677467 0 0 -7.28369e-05
41 1 0.498404 0.908636 0.552723 0 0 -0.000207305
42 1 0.986087 0.658615 0.30326 0 0 4.08888e-05
43 1 0.729947 0.866935 0.17859 0 0 0.000100851
44 1 0.443363 0.748897 0.282363 0 0 7.30753e-05
45 1 0.187189 0.957222 0.157574 0 0 3.63588e-05
46 1 0.242242 0.783626 0.427978 0 0 0.000170827
47 1 0.955687 0.998917 0.531853 0 0 -0.000171185
48 1 0.986087 0.991948 0.30326 0 0 4.11272e-05
ITEM: TIMESTEP
7
ITEM: NUMBER OF ATOMS
48
ITEM: BOX BOUNDS xy xz yz pp pp pp
-1.6669713258743286e+00 8.6109705567359924e+00 2.5110912919044495e+00
-1.0506033897399902e-02 9.6185076832771301e+00 -1.6524145007133484e+00
-2.6944518089294434e-02 1.9544072151184082e+01 3.6519104242324829e-01
ITEM: ATOMS id type xs ys zs fx fy fz
1 1 0.930845 0.16557 0.0321963 0 0 4.80413e-05
2 1 0.474021 0.0752259 0.0546705 0 0 2.75373e-05
3 1 0.211841 0.123928 0.656567 0 0 -7.7486e-06
4 1 0.267084 0.950306 0.927634 0 0 -4.80413e-05
5 1 0.01074 0.158655 0.802255 0 0 -6.04391e-05
6 1 0.723908 0.0406505 0.90516 0 0 -2.76566e-05
7 1 0.467981 0.248941 0.781237 0 0 -6.75917e-05
8 1 0.699526 0.20724 0.407112 0 0 -2.24113e-05
9 1 0.754565 0.0336463 0.677463 0 0 2.77758e-05
10 1 0.498403 0.24197 0.552719 0 0 2.26498e-05
11 1 0.729948 0.200268 0.178593 0 0 6.77109e-05
12 1 0.443365 0.0822301 0.282367 0 0 -2.77758e-05
13 1 0.187189 0.290555 0.157575 0 0 5.99623e-05
14 1 0.242243 0.116959 0.427981 0 0 7.03335e-06
15 1 0.930846 0.498903 0.0321963 0 0 4.81606e-05
16 1 0.474021 0.408559 0.0546705 0 0 2.7895e-05
17 1 0.211841 0.457262 0.656567 0 0 -7.62939e-06
18 1 0.267084 0.28364 0.927634 0 0 -4.79221e-05
19 1 0.01074 0.491988 0.802255 0 0 -6.04391e-05
20 1 0.723908 0.373984 0.90516 0 0 -2.76566e-05
21 1 0.467981 0.582275 0.781237 0 0 -6.77109e-05
22 1 0.955686 0.332251 0.531849 0 0 -7.03335e-06
23 1 0.699526 0.540573 0.407112 0 0 -2.22921e-05
24 1 0.754565 0.36698 0.677463 0 0 2.7895e-05
25 1 0.498403 0.575303 0.552719 0 0 2.26498e-05
26 1 0.986088 0.325281 0.303263 0 0 7.62939e-06
27 1 0.729948 0.533602 0.178593 0 0 6.80685e-05
28 1 0.443365 0.415563 0.282367 0 0 -2.7895e-05
29 1 0.187189 0.623889 0.157575 0 0 5.96046e-05
30 1 0.242243 0.450293 0.427981 0 0 6.91414e-06
31 1 0.930845 0.832237 0.0321963 0 0 4.85182e-05
32 1 0.474021 0.741893 0.0546705 0 0 2.77758e-05
33 1 0.211841 0.790595 0.656567 0 0 -7.86781e-06
34 1 0.267084 0.616973 0.927634 0 0 -4.8399e-05
35 1 0.01074 0.825321 0.802255 0 0 -6.05583e-05
36 1 0.723908 0.707317 0.90516 0 0 -2.76566e-05
37 1 0.467981 0.915608 0.781237 0 0 -6.78301e-05
38 1 0.955686 0.665584 0.531849 0 0 -7.15256e-06
39 1 0.699526 0.873907 0.407112 0 0 -2.30074e-05
40 1 0.754565 0.700313 0.677463 0 0 2.82526e-05
41 1 0.498403 0.908636 0.552719 0 0 2.24113e-05
42 1 0.986088 0.658615 0.303263 0 0 8.22544e-06
43 1 0.729948 0.866935 0.178593 0 0 6.75917e-05
44 1 0.443365 0.748897 0.282367 0 0 -2.81334e-05
45 1 0.187189 0.957222 0.157575 0 0 6.04391e-05
46 1 0.242243 0.783626 0.427981 0 0 7.27177e-06
47 1 0.955686 0.998917 0.531849 0 0 -6.79493e-06
48 1 0.986088 0.991948 0.303263 0 0 7.62939e-06
ITEM: TIMESTEP
8
ITEM: NUMBER OF ATOMS
48
ITEM: BOX BOUNDS xy xz yz pp pp pp
-1.6669713258743286e+00 8.6109705567359924e+00 2.5110912919044495e+00
-1.0506033897399902e-02 9.6185076832771301e+00 -1.6524145007133484e+00
-2.6944518089294434e-02 1.9544072151184082e+01 3.6519104242324829e-01
ITEM: ATOMS id type xs ys zs fx fy fz
1 1 0.930846 0.16557 0.0321971 0 0 1.97887e-05
2 1 0.474021 0.0752259 0.0546716 0 0 -8.10623e-06
3 1 0.211841 0.123928 0.656567 0 0 -3.51667e-05
4 1 0.267083 0.950306 0.927633 0 0 -2.02656e-05
5 1 0.0107395 0.158655 0.802253 0 0 2.38419e-07
6 1 0.723908 0.0406505 0.905159 0 0 7.98702e-06
7 1 0.467981 0.248941 0.781235 0 0 7.03335e-06
8 1 0.699526 0.20724 0.407111 0 0 -1.66893e-05
9 1 0.754565 0.0336463 0.677463 0 0 -3.18289e-05
10 1 0.498403 0.24197 0.552719 0 0 1.68085e-05
11 1 0.729948 0.200268 0.178595 0 0 -6.91414e-06
12 1 0.443364 0.0822301 0.282367 0 0 3.17097e-05
13 1 0.18719 0.290555 0.157577 0 0 1.07288e-06
14 1 0.242243 0.116959 0.427981 0 0 -1.21593e-05
15 1 0.930846 0.498903 0.0321971 0 0 1.96695e-05
16 1 0.474021 0.408559 0.0546716 0 0 -8.70228e-06
17 1 0.211841 0.457262 0.656567 0 0 -3.50475e-05
18 1 0.267083 0.28364 0.927633 0 0 -2.03848e-05
19 1 0.0107395 0.491988 0.802253 0 0 -1.19209e-07
20 1 0.723908 0.373984 0.905159 0 0 8.22544e-06
21 1 0.467981 0.582275 0.781235 0 0 6.91414e-06
22 1 0.955686 0.332251 0.531849 0 0 1.2517e-05
23 1 0.699526 0.540573 0.407111 0 0 -1.65701e-05
24 1 0.754565 0.36698 0.677463 0 0 -3.18289e-05
25 1 0.498403 0.575303 0.552719 0 0 1.64509e-05
26 1 0.986088 0.325281 0.303263 0 0 3.46899e-05
27 1 0.729948 0.533602 0.178595 0 0 -6.91414e-06
28 1 0.443364 0.415563 0.282367 0 0 3.20673e-05
29 1 0.18719 0.623888 0.157577 0 0 9.53674e-07
30 1 0.242243 0.450293 0.427981 0 0 -1.2517e-05
31 1 0.930846 0.832237 0.0321971 0 0 1.91927e-05
32 1 0.474021 0.741893 0.0546716 0 0 -8.46386e-06
33 1 0.211841 0.790595 0.656567 0 0 -3.45707e-05
34 1 0.267083 0.616973 0.927633 0 0 -1.93119e-05
35 1 0.0107395 0.825321 0.802253 0 0 -1.19209e-07
36 1 0.723908 0.707317 0.905159 0 0 8.22544e-06
37 1 0.467981 0.915608 0.781235 0 0 7.15256e-06
38 1 0.955686 0.665584 0.531849 0 0 1.23978e-05
39 1 0.699526 0.873907 0.407111 0 0 -1.68085e-05
40 1 0.754565 0.700313 0.677463 0 0 -3.21865e-05
41 1 0.498403 0.908636 0.552719 0 0 1.69277e-05
42 1 0.986088 0.658615 0.303263 0 0 3.42131e-05
43 1 0.729948 0.866935 0.178595 0 0 -6.91414e-06
44 1 0.443364 0.748897 0.282367 0 0 3.17097e-05
45 1 0.18719 0.957222 0.157577 0 0 5.96046e-07
46 1 0.242243 0.783626 0.427981 0 0 -1.23978e-05
47 1 0.955686 0.998917 0.531849 0 0 1.26362e-05
48 1 0.986088 0.991948 0.303263 0 0 3.48091e-05
ITEM: TIMESTEP
9
ITEM: NUMBER OF ATOMS
48
ITEM: BOX BOUNDS xy xz yz pp pp pp
-1.6669713258743286e+00 8.6109705567359924e+00 2.5110912919044495e+00
-1.0506033897399902e-02 9.6185076832771301e+00 -1.6524145007133484e+00
-2.6944518089294434e-02 1.9544072151184082e+01 3.6519104242324829e-01
ITEM: ATOMS id type xs ys zs fx fy fz
1 1 0.930846 0.16557 0.0321976 0 0 2.38419e-07
2 1 0.474021 0.0752259 0.0546717 0 0 -1.52588e-05
3 1 0.21184 0.123928 0.656566 0 0 -2.38419e-06
4 1 0.267083 0.950306 0.927633 0 0 3.57628e-07
5 1 0.0107394 0.158655 0.802253 0 0 -6.07967e-06
6 1 0.723908 0.0406505 0.905159 0 0 1.56164e-05
7 1 0.467981 0.248941 0.781235 0 0 -1.43051e-06
8 1 0.699526 0.20724 0.407111 0 0 1.57356e-05
9 1 0.754564 0.0336463 0.677463 0 0 -7.03335e-06
10 1 0.498403 0.24197 0.552719 0 0 -1.56164e-05
11 1 0.729948 0.200268 0.178595 0 0 1.07288e-06
12 1 0.443365 0.0822301 0.282367 0 0 7.27177e-06
13 1 0.18719 0.290555 0.157577 0 0 5.00679e-06
14 1 0.242243 0.116959 0.427981 0 0 1.38283e-05
15 1 0.930846 0.498903 0.0321976 0 0 3.57628e-07
16 1 0.474021 0.408559 0.0546717 0 0 -1.52588e-05
17 1 0.21184 0.457262 0.656566 0 0 -2.74181e-06
18 1 0.267083 0.28364 0.927633 0 0 1.19209e-07
19 1 0.0107394 0.491988 0.802253 0 0 -5.96046e-06
20 1 0.723908 0.373984 0.905159 0 0 1.52588e-05
21 1 0.467981 0.582275 0.781235 0 0 -8.34465e-07
22 1 0.955686 0.332251 0.531849 0 0 -1.43051e-05
23 1 0.699526 0.540574 0.407111 0 0 1.52588e-05
24 1 0.754564 0.36698 0.677463 0 0 -6.79493e-06
25 1 0.498403 0.575303 0.552719 0 0 -1.54972e-05
26 1 0.986089 0.325281 0.303264 0 0 2.98023e-06
27 1 0.729948 0.533602 0.178595 0 0 1.07288e-06
28 1 0.443365 0.415563 0.282367 0 0 7.15256e-06
29 1 0.18719 0.623888 0.157577 0 0 5.72205e-06
30 1 0.242243 0.450293 0.427981 0 0 1.46627e-05
31 1 0.930846 0.832237 0.0321976 0 0 2.38419e-07
32 1 0.474021 0.741893 0.0546717 0 0 -1.51396e-05
33 1 0.21184 0.790595 0.656566 0 0 -2.86102e-06
34 1 0.267083 0.616973 0.927633 0 0 -1.19209e-07
35 1 0.0107394 0.825321 0.802253 0 0 -6.07967e-06
36 1 0.723908 0.707317 0.905159 0 0 1.51396e-05
37 1 0.467981 0.915608 0.781235 0 0 -1.3113e-06
38 1 0.955686 0.665584 0.531849 0 0 -1.41859e-05
39 1 0.699526 0.873907 0.407111 0 0 1.5974e-05
40 1 0.754564 0.700313 0.677463 0 0 -7.27177e-06
41 1 0.498403 0.908636 0.552719 0 0 -1.54972e-05
42 1 0.986089 0.658615 0.303264 0 0 2.6226e-06
43 1 0.729948 0.866935 0.178595 0 0 1.3113e-06
44 1 0.443365 0.748897 0.282367 0 0 7.51019e-06
45 1 0.18719 0.957222 0.157577 0 0 5.126e-06
46 1 0.242243 0.783626 0.427981 0 0 1.43051e-05
47 1 0.955686 0.998917 0.531849 0 0 -1.4782e-05
48 1 0.986089 0.991948 0.303264 0 0 2.5034e-06
ITEM: TIMESTEP
10
ITEM: NUMBER OF ATOMS
48
ITEM: BOX BOUNDS xy xz yz pp pp pp
-1.6669713258743286e+00 8.6109705567359924e+00 2.5110912919044495e+00
-1.0506033897399902e-02 9.6185076832771301e+00 -1.6524145007133484e+00
-2.6944518089294434e-02 1.9544072151184082e+01 3.6519104242324829e-01
ITEM: ATOMS id type xs ys zs fx fy fz
1 1 0.930846 0.16557 0.0321978 0 0 2.6226e-06
2 1 0.474021 0.0752259 0.0546713 0 0 4.88758e-06
3 1 0.21184 0.123928 0.656566 0 0 2.74181e-06
4 1 0.267083 0.950306 0.927632 0 0 -3.33786e-06
5 1 0.0107394 0.158655 0.802252 0 0 -5.96046e-07
6 1 0.723908 0.0406505 0.905159 0 0 -5.126e-06
7 1 0.467981 0.248941 0.781235 0 0 -8.34465e-07
8 1 0.699526 0.20724 0.407111 0 0 2.6226e-06
9 1 0.754564 0.0336463 0.677462 0 0 -1.78814e-06
10 1 0.498403 0.24197 0.552719 0 0 -2.6226e-06
11 1 0.729948 0.200268 0.178595 0 0 1.07288e-06
12 1 0.443365 0.08223 0.282368 0 0 8.34465e-07
13 1 0.18719 0.290555 0.157578 0 0 1.3113e-06
14 1 0.242243 0.116959 0.427981 0 0 1.3113e-06
15 1 0.930846 0.498903 0.0321978 0 0 2.74181e-06
16 1 0.474021 0.408559 0.0546713 0 0 5.00679e-06
17 1 0.21184 0.457262 0.656566 0 0 2.86102e-06
18 1 0.267083 0.28364 0.927632 0 0 -3.21865e-06
19 1 0.0107393 0.491988 0.802252 0 0 -7.15256e-07
20 1 0.723908 0.373984 0.905159 0 0 -4.88758e-06
21 1 0.467981 0.582275 0.781235 0 0 -9.53674e-07
22 1 0.955686 0.332251 0.531849 0 0 -8.34465e-07
23 1 0.699526 0.540573 0.407111 0 0 2.5034e-06
24 1 0.754564 0.36698 0.677462 0 0 -1.78814e-06
25 1 0.498403 0.575303 0.552719 0 0 -2.5034e-06
26 1 0.986089 0.325281 0.303264 0 0 -2.74181e-06
27 1 0.729948 0.533602 0.178595 0 0 7.15256e-07
28 1 0.443365 0.415563 0.282368 0 0 1.66893e-06
29 1 0.18719 0.623888 0.157578 0 0 7.15256e-07
30 1 0.242243 0.450292 0.427981 0 0 7.15256e-07
31 1 0.930846 0.832237 0.0321978 0 0 3.21865e-06
32 1 0.474021 0.741893 0.0546713 0 0 5.24521e-06
33 1 0.21184 0.790595 0.656566 0 0 3.09944e-06
34 1 0.267083 0.616973 0.927632 0 0 -3.57628e-06
35 1 0.0107394 0.825321 0.802252 0 0 -2.38419e-07
36 1 0.723908 0.707317 0.905159 0 0 -4.52995e-06
37 1 0.467981 0.915608 0.781235 0 0 -8.34465e-07
38 1 0.955686 0.665584 0.531849 0 0 -1.19209e-06
39 1 0.699526 0.873907 0.407111 0 0 2.5034e-06
40 1 0.754564 0.700313 0.677462 0 0 -1.19209e-06
41 1 0.498403 0.908636 0.552719 0 0 -2.5034e-06
42 1 0.986089 0.658615 0.303264 0 0 -2.6226e-06
43 1 0.729948 0.866935 0.178595 0 0 4.76837e-07
44 1 0.443365 0.748897 0.282368 0 0 1.3113e-06
45 1 0.18719 0.957222 0.157578 0 0 1.3113e-06
46 1 0.242243 0.783626 0.427981 0 0 7.15256e-07
47 1 0.955686 0.998917 0.531849 0 0 -9.53674e-07
48 1 0.986089 0.991948 0.303264 0 0 -2.6226e-06
ITEM: TIMESTEP
11
ITEM: NUMBER OF ATOMS
48
ITEM: BOX BOUNDS xy xz yz pp pp pp
-1.6669713258743286e+00 8.6109705567359924e+00 2.5110912919044495e+00
-1.0506033897399902e-02 9.6185076832771301e+00 -1.6524145007133484e+00
-2.6944518089294434e-02 1.9544072151184082e+01 3.6519104242324829e-01
ITEM: ATOMS id type xs ys zs fx fy fz
1 1 0.930846 0.16557 0.0321979 0 0 -9.53674e-07
2 1 0.474021 0.0752259 0.0546714 0 0 5.96046e-07
3 1 0.21184 0.123928 0.656566 0 0 0
4 1 0.267083 0.950306 0.927632 0 0 1.43051e-06
5 1 0.0107393 0.158655 0.802252 0 0 -1.3113e-06
6 1 0.723908 0.0406505 0.905159 0 0 -8.34465e-07
7 1 0.467981 0.248941 0.781235 0 0 -9.53674e-07
8 1 0.699526 0.20724 0.407111 0 0 -7.15256e-07
9 1 0.754564 0.0336463 0.677462 0 0 -3.57628e-07
10 1 0.498403 0.24197 0.552719 0 0 4.76837e-07
11 1 0.729948 0.200268 0.178595 0 0 1.3113e-06
12 1 0.443365 0.08223 0.282368 0 0 7.15256e-07
13 1 0.18719 0.290555 0.157578 0 0 1.3113e-06
14 1 0.242243 0.116959 0.427981 0 0 -2.14577e-06
15 1 0.930846 0.498903 0.0321979 0 0 -9.53674e-07
16 1 0.474021 0.408559 0.0546714 0 0 8.34465e-07
17 1 0.21184 0.457262 0.656566 0 0 -3.57628e-07
18 1 0.267083 0.28364 0.927632 0 0 1.43051e-06