ITEM: TIMESTEP
0
ITEM: NUMBER OF ATOMS
32
ITEM: BOX BOUNDS xy xz yz pp pp pp
-2.1013021469116211e-03 7.1962316036224365e+00 7.9958128929138184e-01
-4.1524946689605713e-02 2.2124402940273285e+01 -0.0000000000000000e+00
-1.4066457748413086e-02 5.1965324282646179e+00 0.0000000000000000e+00
ITEM: ATOMS id type xs ys zs fx fy fz
1 1 0.97715 0.336621 0.593597 0 0.000760317 -1.19209e-07
2 1 0.47715 0.336621 0.593597 0 0.000761032 -4.76837e-07
3 1 0.232357 0.294954 0.093597 0 0.00114989 7.15256e-07
4 1 0.732357 0.294954 0.0935971 0 0.00114882 3.57628e-07
5 1 0.21153 0.461621 0.593597 0 -2.11e-05 3.57628e-07
6 1 0.71153 0.461621 0.593597 0 -2.15769e-05 1.19209e-07
7 1 0.966737 0.419954 0.0935971 0 -4.50611e-05 -4.76837e-07
8 1 0.466737 0.419954 0.0935971 0 -4.52995e-05 0
9 1 0.94591 0.586621 0.593597 0 4.02927e-05 -3.57628e-07
10 1 0.44591 0.586621 0.593597 0 4.00543e-05 -7.15256e-07
11 1 0.180291 0.711621 0.593597 0 -0.00115001 -1.43051e-06
12 1 0.680291 0.711621 0.593597 0 -0.00114989 -1.19209e-06
13 1 0.935497 0.669954 0.093597 0 -0.000766397 1.3113e-06
14 1 0.201117 0.544954 0.0935971 0 2.26498e-05 1.19209e-07
15 1 0.701117 0.544954 0.0935971 0 2.30074e-05 -1.19209e-07
16 1 0.435497 0.669954 0.093597 0 -0.000766039 1.43051e-06
17 1 0.914671 0.83662 0.593597 0 0.00759983 2.38419e-07
18 1 0.414671 0.83662 0.593597 0 0.00759888 -3.57628e-07
19 1 0.149051 0.96162 0.593597 0 -0.194316 -3.57628e-07
20 1 0.649051 0.96162 0.593597 0 -0.194315 2.38419e-07
21 1 0.169877 0.794954 0.093597 0 0.00244689 4.76837e-07
22 1 0.669877 0.794954 0.0935971 0 0.00244725 1.19209e-07
23 1 0.904257 0.919954 0.0935971 0 -0.322286 -2.38419e-07
24 1 0.404257 0.919954 0.093597 0 -0.322285 7.15256e-07
25 1 0.00838994 0.0866205 0.593597 0 0.32229 -1.07288e-06
26 1 0.50839 0.0866205 0.593597 0 0.322289 -7.15256e-07
27 1 0.263597 0.0449538 0.093597 0 0.194314 9.53674e-07
28 1 0.763597 0.0449538 0.093597 0 0.194315 3.57628e-07
29 1 0.24277 0.211621 0.593597 0 -0.00244582 -4.76837e-07
30 1 0.74277 0.211621 0.593597 0 -0.00244713 -4.76837e-07
31 1 0.997977 0.169954 0.093597 0 -0.00759351 9.53674e-07
32 1 0.497977 0.169954 0.0935971 0 -0.00759351 1.19209e-07
ITEM: TIMESTEP
1
ITEM: NUMBER OF ATOMS
32
ITEM: BOX BOUNDS xy xz yz pp pp pp
-2.1013021469116211e-03 7.1962316036224365e+00 7.9958128929138184e-01
-4.1524946689605713e-02 2.2124402940273285e+01 -0.0000000000000000e+00
-1.4066457748413086e-02 5.1965324282646179e+00 0.0000000000000000e+00
ITEM: ATOMS id type xs ys zs fx fy fz
1 1 0.977149 0.336628 0.593597 0 0.00201869 -1.19209e-07
2 1 0.477149 0.336628 0.593597 0 0.00201964 1.19209e-07
3 1 0.232355 0.294965 0.0935971 0 0.00897336 1.19209e-07
4 1 0.732355 0.294965 0.0935971 0 0.00897241 0
5 1 0.21153 0.46162 0.593597 0 0.000237226 3.57628e-07
6 1 0.71153 0.46162 0.593597 0 0.000237107 -1.19209e-07
7 1 0.966737 0.419954 0.0935971 0 -0.00075841 -3.57628e-07
8 1 0.466737 0.419954 0.0935971 0 -0.000758052 -2.38419e-07
9 1 0.94591 0.586621 0.593597 0 0.00075531 2.38419e-07
10 1 0.44591 0.586621 0.593597 0 0.000755191 1.19209e-07
11 1 0.180292 0.711609 0.593597 0 -0.00897288 -2.38419e-07
12 1 0.680292 0.711609 0.593597 0 -0.00897241 -3.57628e-07
13 1 0.935498 0.669946 0.0935971 0 -0.00202 0
14 1 0.201117 0.544954 0.0935971 0 -0.000239134 -2.38419e-07
15 1 0.701117 0.544954 0.0935971 0 -0.000239015 1.19209e-07
16 1 0.435498 0.669946 0.0935971 0 -0.00202 1.19209e-07
17 1 0.914661 0.836694 0.593597 0 -0.0658913 1.19209e-07
18 1 0.414661 0.836694 0.593597 0 -0.0658916 -1.19209e-07
19 1 0.149287 0.959728 0.593597 0 0.0550085 -2.38419e-07
20 1 0.649287 0.959728 0.593597 0 0.0550081 -1.19209e-07
21 1 0.169874 0.794978 0.0935971 0 -0.0722923 3.57628e-07
22 1 0.669874 0.794978 0.0935971 0 -0.0722921 3.57628e-07
23 1 0.90465 0.916815 0.0935971 0 -0.0180283 -1.19209e-07
24 1 0.40465 0.916815 0.093597 0 -0.0180289 1.19209e-07
25 1 0.00799776 0.0897589 0.593597 0 0.0180309 2.38419e-07
26 1 0.507998 0.0897589 0.593597 0 0.0180311 0
27 1 0.26336 0.0468461 0.093597 0 -0.0550066 3.57628e-07
28 1 0.76336 0.0468461 0.093597 0 -0.0550067 0
29 1 0.242773 0.211597 0.593597 0 0.072292 0
30 1 0.742773 0.211597 0.593597 0 0.0722921 0
31 1 0.997986 0.16988 0.0935971 0 0.0658929 -2.38419e-07
32 1 0.497986 0.16988 0.0935971 0 0.0658932 -2.38419e-07
ITEM: TIMESTEP
2
ITEM: NUMBER OF ATOMS
32
ITEM: BOX BOUNDS xy xz yz pp pp pp
-2.1013021469116211e-03 7.1962316036224365e+00 7.9958128929138184e-01
-4.1524946689605713e-02 2.2124402940273285e+01 -0.0000000000000000e+00
-1.4066457748413086e-02 5.1965324282646179e+00 0.0000000000000000e+00
ITEM: ATOMS id type xs ys zs fx fy fz
1 1 0.977143 0.336679 0.593597 0 0.0388207 0
2 1 0.477143 0.336679 0.593597 0 0.0388198 -3.57628e-07
3 1 0.232328 0.295186 0.0935971 0 0.0455383 0
4 1 0.732328 0.295186 0.0935971 0 0.0455389 1.19209e-07
5 1 0.21153 0.461626 0.593597 0 0.00257492 -7.15256e-07
6 1 0.71153 0.461626 0.593597 0 0.00257516 1.19209e-07
7 1 0.966739 0.419935 0.0935971 0 0.0106071 2.38419e-07
8 1 0.466739 0.419935 0.0935971 0 0.0106065 2.38419e-07
9 1 0.945908 0.586639 0.593597 0 -0.0106069 -2.38419e-07
10 1 0.445908 0.586639 0.593597 0 -0.0106068 -1.19209e-07
11 1 0.18032 0.711388 0.593597 0 -0.0455396 5.96046e-07
12 1 0.68032 0.711388 0.593597 0 -0.0455397 5.96046e-07
13 1 0.935505 0.669895 0.0935971 0 -0.0388218 -3.57628e-07
14 1 0.201118 0.544948 0.0935971 0 -0.00257647 4.76837e-07
15 1 0.701118 0.544948 0.0935971 0 -0.00257707 0
16 1 0.435505 0.669895 0.0935971 0 -0.0388222 -4.76837e-07
17 1 0.914858 0.83512 0.593597 0 0.0152346 3.57628e-07
18 1 0.414858 0.83512 0.593597 0 0.0152351 5.96046e-07
19 1 0.149198 0.960446 0.593597 0 0.00959074 3.57628e-07
20 1 0.649198 0.960446 0.593597 0 0.00959134 0
21 1 0.170093 0.793231 0.0935971 0 -0.00696552 -4.76837e-07
22 1 0.670093 0.793231 0.0935971 0 -0.00696552 -7.15256e-07
23 1 0.904832 0.915354 0.0935971 0 0.0073806 -2.38419e-07
24 1 0.404832 0.915354 0.0935971 0 0.00738108 -1.19209e-07
25 1 0.00781516 0.0912202 0.593597 0 -0.0073812 1.19209e-07
26 1 0.507815 0.0912202 0.593597 0 -0.00738215 2.38419e-07
27 1 0.26345 0.0461285 0.0935971 0 -0.00958848 -2.38419e-07
28 1 0.76345 0.0461285 0.093597 0 -0.009588 0
29 1 0.242555 0.213343 0.593597 0 0.00696766 0
30 1 0.742555 0.213343 0.593597 0 0.0069679 -2.38419e-07
31 1 0.997789 0.171455 0.0935971 0 -0.0152342 1.19209e-07
32 1 0.497789 0.171455 0.0935971 0 -0.0152348 1.19209e-07
ITEM: TIMESTEP
3
ITEM: NUMBER OF ATOMS
32
ITEM: BOX BOUNDS xy xz yz pp pp pp
-2.1013021469116211e-03 7.1962316036224365e+00 7.9958128929138184e-01
-4.1524946689605713e-02 2.2124402940273285e+01 -0.0000000000000000e+00
-1.4066457748413086e-02 5.1965324282646179e+00 0.0000000000000000e+00
ITEM: ATOMS id type xs ys zs fx fy fz
1 1 0.977022 0.337642 0.593597 0 0.00380266 3.57628e-07
2 1 0.477023 0.337642 0.593597 0 0.00380242 4.76837e-07
3 1 0.232181 0.296362 0.0935971 0 -0.00642729 -3.57628e-07
4 1 0.732181 0.296362 0.0935971 0 -0.00642657 -3.57628e-07
5 1 0.211522 0.461691 0.593597 0 0.0117016 3.57628e-07
6 1 0.711522 0.461691 0.593597 0 0.0117012 -1.19209e-07
7 1 0.966708 0.420188 0.0935971 0 0.0286152 -2.38419e-07
8 1 0.466708 0.420188 0.0935971 0 0.0286157 -2.38419e-07
9 1 0.94594 0.586386 0.593597 0 -0.0286158 0
10 1 0.44594 0.586386 0.593597 0 -0.028616 1.19209e-07
11 1 0.180467 0.710212 0.593597 0 0.00642788 -4.76837e-07
12 1 0.680467 0.710212 0.593597 0 0.00642776 -4.76837e-07
13 1 0.935625 0.668932 0.0935971 0 -0.00380147 3.57628e-07
14 1 0.201126 0.544884 0.0935971 0 -0.0117027 -3.57628e-07
15 1 0.701126 0.544884 0.0935971 0 -0.0117019 -1.19209e-07
16 1 0.435625 0.668932 0.0935971 0 -0.00380087 4.76837e-07
17 1 0.914869 0.835034 0.593597 0 -0.00102878 -7.15256e-07
18 1 0.414869 0.835034 0.593597 0 -0.00102925 -4.76837e-07
19 1 0.149142 0.960888 0.593597 0 -0.0174668 -1.19209e-07
20 1 0.649142 0.960888 0.593597 0 -0.0174676 1.19209e-07
21 1 0.170177 0.792554 0.0935971 0 -0.00290203 2.38419e-07
22 1 0.670177 0.792554 0.093597 0 -0.00290227 8.34465e-07
23 1 0.904863 0.91511 0.093597 0 -0.00673091 4.76837e-07
24 1 0.404863 0.91511 0.0935971 0 -0.00673151 0
25 1 0.00778466 0.0914642 0.593597 0 0.00673342 -1.19209e-07
26 1 0.507785 0.0914642 0.593597 0 0.00673425 -2.38419e-07
27 1 0.263505 0.0456861 0.0935971 0 0.0174671 1.19209e-07
28 1 0.763505 0.0456862 0.093597 0 0.0174662 2.38419e-07
29 1 0.24247 0.21402 0.593597 0 0.00289893 -2.38419e-07
30 1 0.74247 0.21402 0.593597 0 0.00289869 3.57628e-07
31 1 0.997778 0.17154 0.0935971 0 0.00102925 1.19209e-07
32 1 0.497778 0.17154 0.0935971 0 0.00102937 0
ITEM: TIMESTEP
4
ITEM: NUMBER OF ATOMS
32
ITEM: BOX BOUNDS xy xz yz pp pp pp
-2.1013021469116211e-03 7.1962316036224365e+00 7.9958128929138184e-01
-4.1524946689605713e-02 2.2124402940273285e+01 -0.0000000000000000e+00
-1.4066457748413086e-02 5.1965324282646179e+00 0.0000000000000000e+00
ITEM: ATOMS id type xs ys zs fx fy fz
1 1 0.976988 0.337914 0.593597 0 0.000312328 -3.57628e-07
2 1 0.476989 0.337914 0.593597 0 0.000312686 0
3 1 0.232161 0.296519 0.0935971 0 -0.000790715 1.19209e-07
4 1 0.732161 0.296519 0.0935971 0 -0.000790477 1.19209e-07
5 1 0.211497 0.461891 0.593597 0 -0.00566471 2.38419e-07
6 1 0.711497 0.461891 0.593597 0 -0.00566483 0
7 1 0.966644 0.420699 0.0935971 0 0.000974417 2.38419e-07
8 1 0.466644 0.420699 0.0935971 0 0.000975251 0
9 1 0.946003 0.585876 0.593597 0 -0.000975013 0
10 1 0.446004 0.585876 0.593597 0 -0.000975013 0
11 1 0.180486 0.710056 0.593597 0 0.000791192 0
12 1 0.680486 0.710056 0.593597 0 0.000790954 2.38419e-07
13 1 0.935659 0.66866 0.0935971 0 -0.000313878 0
14 1 0.201151 0.544684 0.0935971 0 0.00566494 -4.76837e-07
15 1 0.701151 0.544684 0.0935971 0 0.00566483 -1.19209e-07
16 1 0.435659 0.66866 0.0935971 0 -0.00031352 0
17 1 0.914873 0.834999 0.593597 0 -0.00835109 -1.19209e-07
18 1 0.414873 0.834999 0.593597 0 -0.00835133 1.19209e-07
19 1 0.149165 0.960708 0.593597 0 -0.00234663 0
20 1 0.649165 0.960708 0.593597 0 -0.00234628 0
21 1 0.170202 0.792359 0.0935971 0 -0.00362408 0
22 1 0.670202 0.792359 0.0935971 0 -0.00362396 -2.38419e-07
23 1 0.904883 0.91495 0.0935971 0 0.00355399 1.19209e-07
24 1 0.404883 0.91495 0.0935971 0 0.00355399 1.19209e-07
25 1 0.0077646 0.0916248 0.593597 0 -0.00355458 0
26 1 0.507764 0.0916248 0.593597 0 -0.00355458 1.19209e-07
27 1 0.263483 0.0458662 0.0935971 0 0.00234652 0
28 1 0.763483 0.0458662 0.0935971 0 0.00234699 0
29 1 0.242446 0.214215 0.593597 0 0.00362432 1.19209e-07
30 1 0.742446 0.214215 0.593597 0 0.00362444 0
31 1 0.997774 0.171575 0.0935971 0 0.0083518 -1.19209e-07
32 1 0.497774 0.171575 0.0935971 0 0.00835204 -1.19209e-07
ITEM: TIMESTEP
5
ITEM: NUMBER OF ATOMS
32
ITEM: BOX BOUNDS xy xz yz pp pp pp
-2.1013021469116211e-03 7.1962316036224365e+00 7.9958128929138184e-01
-4.1524946689605713e-02 2.2124402940273285e+01 -0.0000000000000000e+00
-1.4066457748413086e-02 5.1965324282646179e+00 0.0000000000000000e+00
ITEM: ATOMS id type xs ys zs fx fy fz
1 1 0.976984 0.33795 0.593597 0 -0.000693917 0
2 1 0.476984 0.33795 0.593597 0 -0.00069344 0
3 1 0.232161 0.296522 0.0935971 0 0.00467896 1.19209e-07
4 1 0.732161 0.296522 0.0935971 0 0.00467873 2.38419e-07
5 1 0.211507 0.461807 0.593597 0 -0.000752211 -1.19209e-07
6 1 0.711507 0.461807 0.593597 0 -0.000751972 0
7 1 0.966634 0.420774 0.0935971 0 -0.00115836 0
8 1 0.466634 0.420774 0.0935971 0 -0.00115871 0
9 1 0.946013 0.5858 0.593597 0 0.0011586 -2.38419e-07
10 1 0.446013 0.5858 0.593597 0 0.00115883 -2.38419e-07
11 1 0.180486 0.710053 0.593597 0 -0.00467885 1.19209e-07
12 1 0.680486 0.710053 0.593597 0 -0.00467885 -2.38419e-07
13 1 0.935663 0.668624 0.0935971 0 0.000694036 1.19209e-07
14 1 0.20114 0.544767 0.0935971 0 0.000751734 4.76837e-07
15 1 0.70114 0.544767 0.0935971 0 0.000751615 0
16 1 0.435663 0.668624 0.0935971 0 0.00069356 0
17 1 0.914893 0.834839 0.593597 0 -0.000885725 -1.19209e-07
18 1 0.414893 0.834839 0.593597 0 -0.000885487 -1.19209e-07
19 1 0.149173 0.960644 0.593597 0 -0.00228655 0
20 1 0.649173 0.960644 0.593597 0 -0.00228608 1.19209e-07
21 1 0.170213 0.792269 0.0935971 0 0.00174987 0
22 1 0.670213 0.792269 0.0935971 0 0.00174952 3.57628e-07
23 1 0.904877 0.914998 0.0935971 0 -0.0019716 -1.19209e-07
24 1 0.404877 0.914998 0.0935971 0 -0.0019716 0
25 1 0.00777066 0.0915763 0.593597 0 0.00197172 0
26 1 0.507771 0.0915763 0.593597 0 0.00197184 -1.19209e-07
27 1 0.263474 0.0459304 0.0935971 0 0.00228655 0
28 1 0.763475 0.0459304 0.0935971 0 0.00228655 0
29 1 0.242435 0.214305 0.593597 0 -0.00174975 -1.19209e-07
30 1 0.742435 0.214305 0.593597 0 -0.00175047 -2.38419e-07
31 1 0.997754 0.171736 0.0935971 0 0.000885725 0
32 1 0.497754 0.171736 0.0935971 0 0.000885725 1.19209e-07
ITEM: TIMESTEP
6
ITEM: NUMBER OF ATOMS
32
ITEM: BOX BOUNDS xy xz yz pp pp pp
-2.1013021469116211e-03 7.1962316036224365e+00 7.9958128929138184e-01
-4.1524946689605713e-02 2.2124402940273285e+01 -0.0000000000000000e+00
-1.4066457748413086e-02 5.1965324282646179e+00 0.0000000000000000e+00
ITEM: ATOMS id type xs ys zs fx fy fz
1 1 0.976984 0.337948 0.593597 0 -0.00113559 2.38419e-07
2 1 0.476984 0.337948 0.593597 0 -0.00113595 0
3 1 0.23215 0.296608 0.0935971 0 0.00105143 -2.38419e-07
4 1 0.73215 0.296608 0.0935971 0 0.00105107 -2.38419e-07
5 1 0.211512 0.46177 0.593597 0 0.00165725 -3.57628e-07
6 1 0.711512 0.46177 0.593597 0 0.00165665 -2.38419e-07
7 1 0.966634 0.420774 0.0935971 0 0.0013721 2.38419e-07
8 1 0.466634 0.420774 0.0935971 0 0.0013715 3.57628e-07
9 1 0.946013 0.5858 0.593597 0 -0.00137222 4.76837e-07
10 1 0.446013 0.5858 0.593597 0 -0.0013721 3.57628e-07
11 1 0.180497 0.709967 0.593597 0 -0.00105155 0
12 1 0.680497 0.709967 0.593597 0 -0.00105095 4.76837e-07
13 1 0.935663 0.668626 0.0935971 0 0.00113606 -4.76837e-07
14 1 0.201136 0.544805 0.0935971 0 -0.00165737 -2.38419e-07
15 1 0.701136 0.544805 0.0935971 0 -0.00165689 -1.19209e-07
16 1 0.435663 0.668626 0.0935971 0 0.0011363 -4.76837e-07
17 1 0.914901 0.834778 0.593597 0 -0.000605106 1.19209e-07
18 1 0.414901 0.834778 0.593597 0 -0.000604868 2.38419e-07
19 1 0.14918 0.960584 0.593597 0 0.000988603 1.19209e-07
20 1 0.64918 0.960584 0.593597 0 0.000987649 0
21 1 0.170212 0.792276 0.0935971 0 -0.000128388 1.19209e-07
22 1 0.670212 0.792276 0.0935971 0 -0.000128031 -4.76837e-07
23 1 0.90488 0.914976 0.0935971 0 0.000433922 0
24 1 0.40488 0.914976 0.0935971 0 0.00043416 -1.19209e-07
25 1 0.00776786 0.0915988 0.593597 0 -0.000434041 -1.19209e-07
26 1 0.507768 0.0915987 0.593597 0 -0.000433087 1.19209e-07
27 1 0.263467 0.0459901 0.0935971 0 -0.000988126 -1.19209e-07
28 1 0.763467 0.0459901 0.0935971 0 -0.000988483 0
29 1 0.242435 0.214298 0.593597 0 0.000128031 2.38419e-07
30 1 0.742435 0.214298 0.593597 0 0.000128746 0
31 1 0.997746 0.171797 0.0935971 0 0.00060463 1.19209e-07
32 1 0.497746 0.171797 0.0935971 0 0.00060463 0
ITEM: TIMESTEP
7
ITEM: NUMBER OF ATOMS
32
ITEM: BOX BOUNDS xy xz yz pp pp pp
-2.1013021469116211e-03 7.1962316036224365e+00 7.9958128929138184e-01
-4.1524946689605713e-02 2.2124402940273285e+01 -0.0000000000000000e+00
-1.4066457748413086e-02 5.1965324282646179e+00 0.0000000000000000e+00
ITEM: ATOMS id type xs ys zs fx fy fz
1 1 0.976986 0.337931 0.593597 0 0.000456095 2.38419e-07
2 1 0.476986 0.337931 0.593597 0 0.000455856 0
3 1 0.232146 0.296639 0.0935971 0 5.84126e-05 0
4 1 0.732146 0.296639 0.0935971 0 5.84126e-05 0
5 1 0.211509 0.461787 0.593597 0 -0.000224233 4.76837e-07
6 1 0.711509 0.461787 0.593597 0 -0.000224113 2.38419e-07
7 1 0.966632 0.420794 0.0935971 0 0.000407577 -4.76837e-07
8 1 0.466632 0.420794 0.0935971 0 0.000407457 -3.57628e-07
9 1 0.946015 0.58578 0.593597 0 -0.000407457 -3.57628e-07
10 1 0.446015 0.58578 0.593597 0 -0.000407696 -2.38419e-07
11 1 0.180501 0.709935 0.593597 0 -5.85318e-05 -1.19209e-07
12 1 0.680501 0.709935 0.593597 0 -5.9247e-05 -4.76837e-07
13 1 0.935661 0.668644 0.0935971 0 -0.000455976 3.57628e-07
14 1 0.201138 0.544787 0.0935971 0 0.000224352 -1.19209e-07
15 1 0.701138 0.544787 0.0935971 0 0.000224233 1.19209e-07
16 1 0.435661 0.668644 0.0935971 0 -0.000455856 4.76837e-07
17 1 0.914903 0.834758 0.593597 0 -3.88622e-05 1.19209e-07
18 1 0.414903 0.834758 0.593597 0 -3.88622e-05 -1.19209e-07
19 1 0.14918 0.960588 0.593597 0 0.000272393 0
20 1 0.64918 0.960588 0.593597 0 0.000273466 0
21 1 0.170212 0.792276 0.0935971 0 -8.07047e-05 -2.38419e-07
22 1 0.670212 0.792276 0.0935971 0 -8.08239e-05 2.38419e-07
23 1 0.904879 0.914978 0.0935971 0 -6.00815e-05 0
24 1 0.404879 0.914978 0.0935971 0 -5.97239e-05 2.38419e-07
25 1 0.00776814 0.0915965 0.593597 0 5.98431e-05 1.19209e-07
26 1 0.507768 0.0915965 0.593597 0 5.90086e-05 -1.19209e-07
27 1 0.263467 0.0459865 0.0935971 0 -0.000273108 0
28 1 0.763467 0.0459865 0.0935971 0 -0.000272393 -1.19209e-07
29 1 0.242435 0.214299 0.593597 0 8.10623e-05 -1.19209e-07
30 1 0.742435 0.214299 0.593597 0 8.11815e-05 1.19209e-07
31 1 0.997744 0.171817 0.0935971 0 3.92199e-05 -1.19209e-07
32 1 0.497744 0.171817 0.0935971 0 3.91006e-05 2.38419e-07
ITEM: TIMESTEP
8
ITEM: NUMBER OF ATOMS
32
ITEM: BOX BOUNDS xy xz yz pp pp pp
-2.1013021469116211e-03 7.1962316036224365e+00 7.9958128929138184e-01
-4.1524946689605713e-02 2.2124402940273285e+01 -0.0000000000000000e+00
-1.4066457748413086e-02 5.1965324282646179e+00 0.0000000000000000e+00
ITEM: ATOMS id type xs ys zs fx fy fz
1 1 0.976985 0.33794 0.593597 0 2.65837e-05 -1.19209e-07
2 1 0.476985 0.33794 0.593597 0 2.69413e-05 0
3 1 0.232146 0.296643 0.0935971 0 0.000136375 -1.19209e-07
4 1 0.732146 0.296643 0.0935971 0 0.00013721 0
5 1 0.21151 0.461784 0.593597 0 -3.25441e-05 -7.15256e-07
6 1 0.71151 0.461784 0.593597 0 -3.20673e-05 -3.57628e-07
7 1 0.96663 0.420805 0.0935971 0 -1.41859e-05 4.76837e-07
8 1 0.46663 0.420805 0.0935971 0 -1.43051e-05 4.76837e-07
9 1 0.946017 0.585769 0.593597 0 1.40667e-05 3.57628e-07
10 1 0.446017 0.585769 0.593597 0 1.45435e-05 1.19209e-07
11 1 0.180502 0.709931 0.593597 0 -0.000136614 0
12 1 0.680502 0.709931 0.593597 0 -0.000136256 4.76837e-07
13 1 0.935662 0.668635 0.0935971 0 -2.65837e-05 -2.38419e-07
14 1 0.201137 0.544791 0.0935971 0 3.19481e-05 2.38419e-07
15 1 0.701137 0.544791 0.0935971 0 3.19481e-05 -3.57628e-07
16 1 0.435662 0.668635 0.0935971 0 -2.70605e-05 -2.38419e-07
17 1 0.914904 0.834755 0.593597 0 0.000100851 0
18 1 0.414904 0.834755 0.593597 0 0.00010097 2.38419e-07
19 1 0.149179 0.960594 0.593597 0 -0.000184178 0
20 1 0.649179 0.960594 0.593597 0 -0.00018549 1.19209e-07
21 1 0.170212 0.792274 0.0935971 0 -0.000235558 1.19209e-07
22 1 0.670212 0.792274 0.0935971 0 -0.000235915 -2.38419e-07
23 1 0.904879 0.914977 0.0935971 0 -0.000225067 -1.19209e-07
24 1 0.404879 0.914977 0.0935971 0 -0.000225902 -2.38419e-07
25 1 0.00776799 0.0915977 0.593597 0 0.000225663 0
26 1 0.507768 0.0915977 0.593597 0 0.000226974 2.38419e-07
27 1 0.263468 0.04598 0.0935971 0 0.000185251 0
28 1 0.763468 0.04598 0.0935971 0 0.000184059 -1.19209e-07
29 1 0.242435 0.214301 0.593597 0 0.000235438 1.19209e-07
30 1 0.742435 0.214301 0.593597 0 0.000235558 1.19209e-07
31 1 0.997744 0.171819 0.0935971 0 -0.000101447 1.19209e-07
32 1 0.497744 0.171819 0.0935971 0 -0.000101209 -3.57628e-07
ITEM: TIMESTEP
9
ITEM: NUMBER OF ATOMS
32
ITEM: BOX BOUNDS xy xz yz pp pp pp
-2.1013021469116211e-03 7.1962316036224365e+00 7.9958128929138184e-01
-4.1524946689605713e-02 2.2124402940273285e+01 -0.0000000000000000e+00
-1.4066457748413086e-02 5.1965324282646179e+00 0.0000000000000000e+00
ITEM: ATOMS id type xs ys zs fx fy fz
1 1 0.976985 0.337943 0.593597 0 -4.24385e-05 -2.38419e-07
2 1 0.476985 0.337943 0.593597 0 -4.26769e-05 0
3 1 0.232145 0.296647 0.0935971 0 2.22921e-05 0
4 1 0.732145 0.296647 0.0935971 0 2.13385e-05 1.19209e-07
5 1 0.21151 0.461782 0.593597 0 9.0003e-05 1.19209e-07
6 1 0.71151 0.461782 0.593597 0 8.9407e-05 0
7 1 0.96663 0.420808 0.0935971 0 -3.86238e-05 0
8 1 0.46663 0.420808 0.0935971 0 -3.86238e-05 -2.38419e-07
9 1 0.946017 0.585766 0.593597 0 3.85046e-05 -1.19209e-07
10 1 0.446017 0.585766 0.593597 0 3.8147e-05 -1.19209e-07
11 1 0.180502 0.709927 0.593597 0 -2.14577e-05 1.19209e-07
12 1 0.680502 0.709927 0.593597 0 -2.09808e-05 0
13 1 0.935662 0.668632 0.0935971 0 4.23193e-05 0
14 1 0.201137 0.544792 0.0935971 0 -8.92878e-05 1.19209e-07
15 1 0.701137 0.544792 0.0935971 0 -8.9407e-05 1.19209e-07
16 1 0.435662 0.668632 0.0935971 0 4.24385e-05 -1.19209e-07
17 1 0.914904 0.834756 0.593597 0 -0.000139713 -1.19209e-07
18 1 0.414904 0.834756 0.593597 0 -0.000140667 -3.57628e-07
19 1 0.149179 0.960593 0.593597 0 6.24657e-05 0
20 1 0.649179 0.960593 0.593597 0 6.31809e-05 -2.38419e-07
21 1 0.170213 0.792268 0.0935971 0 -0.000137329 2.38419e-07
22 1 0.670213 0.792268 0.0935971 0 -0.000137091 0
23 1 0.90488 0.914972 0.0935971 0 2.57492e-05 1.19209e-07
24 1 0.40488 0.914972 0.0935971 0 2.61068e-05 4.76837e-07
25 1 0.00776739 0.0916025 0.593597 0 -2.58684e-05 -2.38419e-07
26 1 0.507767 0.0916025 0.593597 0 -2.70605e-05 -1.19209e-07
27 1 0.263468 0.0459817 0.0935971 0 -6.30617e-05 0
28 1 0.763468 0.0459817 0.093597 0 -6.23465e-05 2.38419e-07
29 1 0.242434 0.214306 0.593597 0 0.000136971 1.19209e-07
30 1 0.742434 0.214306 0.593597 0 0.000137329 -1.19209e-07
31 1 0.997744 0.171818 0.0935971 0 0.000140548 2.38419e-07
32 1 0.497744 0.171818 0.0935971 0 0.000139832 0
ITEM: TIMESTEP
10
ITEM: NUMBER OF ATOMS
32
ITEM: BOX BOUNDS xy xz yz pp pp pp
-2.1013021469116211e-03 7.1962316036224365e+00 7.9958128929138184e-01
-4.1524946689605713e-02 2.2124402940273285e+01 -0.0000000000000000e+00
-1.4066457748413086e-02 5.1965324282646179e+00 0.0000000000000000e+00
ITEM: ATOMS id type xs ys zs fx fy fz
1 1 0.976985 0.337943 0.593597 0 6.18696e-05 1.19209e-07
2 1 0.476985 0.337943 0.593597 0 6.16312e-05 1.19209e-07
3 1 0.232145 0.296649 0.0935971 0 2.02656e-05 0
4 1 0.732145 0.296649 0.0935971 0 2.02656e-05 -1.19209e-07
5 1 0.21151 0.461783 0.593597 0 1.72853e-05 4.76837e-07
6 1 0.71151 0.461783 0.593597 0 1.74046e-05 3.57628e-07
7 1 0.96663 0.420809 0.0935971 0 -2.58684e-05 -5.96046e-07
8 1 0.46663 0.420809 0.0935971 0 -2.55108e-05 -4.76837e-07
9 1 0.946017 0.585766 0.593597 0 2.59876e-05 -1.19209e-07
10 1 0.446017 0.585766 0.593597 0 2.59876e-05 2.38419e-07
11 1 0.180502 0.709926 0.593597 0 -2.0504e-05 0
12 1 0.680502 0.709926 0.593597 0 -2.09808e-05 -2.38419e-07
13 1 0.935662 0.668631 0.0935971 0 -6.19888e-05 0
14 1 0.201137 0.544791 0.0935971 0 -1.72853e-05 -1.19209e-07
15 1 0.701137 0.544791 0.0935971 0 -1.75238e-05 1.19209e-07
16 1 0.435662 0.668631 0.0935971 0 -6.1512e-05 -1.19209e-07
17 1 0.914904 0.834754 0.593597 0 -6.29425e-05 0
18 1 0.414904 0.834754 0.593597 0 -6.23465e-05 1.19209e-07
19 1 0.149179 0.960593 0.593597 0 -8.34465e-07 1.19209e-07
20 1 0.649179 0.960593 0.593597 0 -1.43051e-06 2.38419e-07
21 1 0.170213 0.792265 0.0935971 0 5.60284e-05 0
22 1 0.670213 0.792265 0.0935971 0 5.62668e-05 2.38419e-07
23 1 0.90488 0.914971 0.0935971 0 -4.26769e-05 0
24 1 0.40488 0.914971 0.0935971 0 -4.27961e-05 -4.76837e-07
25 1 0.00776728 0.0916034 0.593597 0 4.25577e-05 0
26 1 0.507767 0.0916034 0.593597 0 4.30346e-05 0
27 1 0.263468 0.0459811 0.0935971 0 1.19209e-06 0
28 1 0.763468 0.0459811 0.0935971 0 9.53674e-07 0
29 1 0.242434 0.21431 0.593597 0 -5.57899e-05 -1.19209e-07
30 1 0.742434 0.21431 0.593597 0 -5.65052e-05 1.19209e-07
31 1 0.997743 0.17182 0.0935971 0 6.25849e-05 0
32 1 0.497743 0.17182 0.0935971 0 6.31809e-05 1.19209e-07
ITEM: TIMESTEP
11
ITEM: NUMBER OF ATOMS
32
ITEM: BOX BOUNDS xy xz yz pp pp pp
-2.1013021469116211e-03 7.1962316036224365e+00 7.9958128929138184e-01
-4.1524946689605713e-02 2.2124402940273285e+01 -0.0000000000000000e+00
-1.4066457748413086e-02 5.1965324282646179e+00 0.0000000000000000e+00
ITEM: ATOMS id type xs ys zs fx fy fz
1 1 0.976985 0.337944 0.593597 0 8.22544e-06 -2.38419e-07
2 1 0.476985 0.337944 0.593597 0 8.58307e-06 -7.15256e-07
3 1 0.232145 0.296649 0.0935971 0 4.76837e-06 2.38419e-07
4 1 0.732145 0.296649 0.0935971 0 4.29153e-06 1.19209e-07
5 1 0.21151 0.461784 0.593597 0 6.67572e-06 -4.76837e-07
6 1 0.71151 0.461784 0.593597 0 6.19888e-06 -2.38419e-07
7 1 0.96663 0.420808 0.0935971 0 1.40667e-05 4.76837e-07
8 1 0.46663 0.420808 0.0935971 0 1.38283e-05 5.96046e-07
9 1 0.946017 0.585766 0.593597 0 -1.39475e-05 3.57628e-07
10 1 0.446017 0.585766 0.593597 0 -1.38283e-05 0
11 1 0.180502 0.709925 0.593597 0 -4.64916e-06 1.19209e-07
12 1 0.680502 0.709925 0.593597 0 -5.00679e-06 0
13 1 0.935663 0.66863 0.0935971 0 -8.46386e-06 -5.96046e-07
14 1 0.201137 0.544791 0.0935971 0 -6.19888e-06 -1.19209e-07
15 1 0.701137 0.544791 0.0935971 0 -6.4373e-06 0
16 1 0.435663 0.66863 0.0935971 0 -8.34465e-06 2.38419e-07
17 1 0.914904 0.834753 0.593597 0 3.33786e-06 0
18 1 0.414904 0.834753 0.593597 0 3.8147e-06 3.57628e-07
19 1 0.149179 0.960593 0.593597 0 -1.58548e-05 0
20 1 0.649179 0.960593 0.593597 0 -1.5378e-05 -1.19209e-07
21 1 0.170213 0.792265 0.0935971 0 -7.15256e-07 -1.19209e-07
22 1 0.670213 0.792265 0.0935971 0 -7.15256e-07 -1.19209e-07
23 1 0.90488 0.91497 0.0935971 0 1.3113e-06 0
24 1 0.40488 0.91497 0.0935971 0 1.43051e-06 1.19209e-07
25 1 0.00776716 0.0916044 0.593597 0 -1.19209e-06 2.38419e-07
26 1 0.507767 0.0916043 0.593597 0 -1.66893e-06 -1.19209e-07
27 1 0.263468 0.045981 0.0935971 0 1.57356e-05 1.19209e-07
28 1 0.763468 0.045981 0.0935971 0 1.60933e-05 0
29 1 0.242434 0.21431 0.593597 0 4.76837e-07 0
30 1 0.742434 0.21431 0.593597 0 5.96046e-07 0
31 1 0.997743 0.171822 0.0935971 0 -3.69549e-06 -3.57628e-07
32 1 0.497743 0.171822 0.0935971 0 -3.33786e-06 2.38419e-07
ITEM: TIMESTEP
12
ITEM: NUMBER OF ATOMS
32
ITEM: BOX BOUNDS xy xz yz pp pp pp
-2.1013021469116211e-03 7.1962316036224365e+00 7.9958128929138184e-01
-4.1524946689605713e-02 2.2124402940273285e+01 -0.0000000000000000e+00
-1.4066457748413086e-02 5.1965324282646179e+00 0.0000000000000000e+00
ITEM: ATOMS id type xs ys zs fx fy fz
1 1 0.976985 0.337944 0.593597 0 2.98023e-06 5.96046e-07
2 1 0.476985 0.337944 0.593597 0 2.6226e-06 7.15256e-07
3 1 0.232145 0.29665 0.0935971 0 4.05312e-06 -4.76837e-07
4 1 0.732145 0.296649 0.0935971 0 5.00679e-06 -7.15256e-07
5 1 0.21151 0.461784 0.593597 0 -4.29153e-06 2.38419e-07
6 1 0.71151 0.461784 0.593597 0 -3.93391e-06 0
7 1 0.96663 0.420808 0.0935971 0 2.5034e-06 -3.57628e-07
8 1 0.46663 0.420808 0.0935971 0 2.74181e-06 -4.76837e-07
9 1 0.946017 0.585766 0.593597 0 -2.38419e-06 -2.38419e-07
10 1 0.446017 0.585766 0.593597 0 -2.26498e-06 -1.19209e-07
11 1 0.180502 0.709925 0.593597 0 -4.64916e-06 -2.38419e-07
12 1 0.680502 0.709925 0.593597 0 -4.17233e-06 -1.19209e-07
13 1 0.935663 0.66863 0.093597 0 -2.86102e-06 7.15256e-07
14 1 0.201137 0.54479 0.0935971 0 3.57628e-06 0
15 1 0.701137 0.54479 0.0935971 0 4.05312e-06 0
16 1 0.435663 0.66863 0.0935971 0 -3.33786e-06 -1.19209e-07
17 1 0.914904 0.834753 0.593597 0 -4.76837e-06 0
18 1 0.414904 0.834753 0.593597 0 -4.52995e-06 -1.19209e-07
19 1 0.149179 0.960593 0.593597 0 2.98023e-06 0
20 1 0.649179 0.960593 0.593597 0 2.26498e-06 1.19209e-07
21 1 0.170213 0.792265 0.0935971 0 -5.00679e-06 1.19209e-07
22 1 0.670213 0.792265 0.0935971 0 -5.24521e-06 1.19209e-07
23 1 0.90488 0.91497 0.0935971 0 9.17912e-06 1.19209e-07
24 1 0.40488 0.91497 0.0935971 0 9.41753e-06 -2.38419e-07
25 1 0.00776715 0.0916044 0.593597 0 -9.65595e-06 0
26 1 0.507767 0.0916044 0.593597 0 -8.58307e-06 2.38419e-07
27 1 0.263468 0.0459813 0.0935971 0 -3.09944e-06 0
28 1 0.763468 0.0459813 0.0935971 0 -2.98023e-06 0
29 1 0.242434 0.21431 0.593597 0 5.84126e-06 1.19209e-07
30 1 0.742434 0.21431 0.593597 0 5.24521e-06 3.57628e-07
31 1 0.997743 0.171822 0.0935971 0 4.76837e-06 0
32 1 0.497743 0.171822 0.0935971 0 4.52995e-06 -2.38419e-07
ITEM: TIMESTEP
13
ITEM: NUMBER OF ATOMS
32
ITEM: BOX BOUNDS xy xz yz pp pp pp
-2.1013021469116211e-03 7.1962316036224365e+00 7.9958128929138184e-01
-4.1524946689605713e-02 2.2124402940273285e+01 -0.0000000000000000e+00
-1.4066457748413086e-02 5.1965324282646179e+00 0.0000000000000000e+00
ITEM: ATOMS id type xs ys zs fx fy fz
1 1 0.976985 0.337944 0.593597 0 -5.96046e-07 -5.96046e-07
2 1 0.476985 0.337944 0.593597 0 -9.53674e-07 -3.57628e-07
3 1 0.232145 0.29665 0.0935971 0 3.09944e-06 4.76837e-07
4 1 0.732145 0.29665 0.093597 0 3.09944e-06 7.15256e-07
5 1 0.21151 0.461784 0.593597 0 -2.86102e-06 0
6 1 0.71151 0.461784 0.593597 0 -2.6226e-06 0
7 1 0.96663 0.420808 0.0935971 0 -1.07288e-06 1.19209e-07
8 1 0.46663 0.420808 0.0935971 0 -8.34465e-07 0
9 1 0.946017 0.585766 0.593597 0 5.96046e-07 -1.19209e-07
10 1 0.446017 0.585766 0.593597 0 8.34465e-07 1.19209e-07
11 1 0.180502 0.709925 0.593597 0 -2.98023e-06 0
12 1 0.680502 0.709925 0.593597 0 -2.86102e-06 3.57628e-07
13 1 0.935663 0.66863 0.0935971 0 1.07288e-06 0
14 1 0.201137 0.54479 0.0935971 0 2.5034e-06 0
15 1 0.701137 0.54479 0.0935971 0 2.74181e-06 0
16 1 0.435663 0.66863 0.0935971 0 1.3113e-06 -2.38419e-07
17 1 0.914904 0.834752 0.593597 0 -1.78814e-06 1.19209e-07
18 1 0.414904 0.834752 0.593597 0 -2.02656e-06 -2.38419e-07
19 1 0.149179 0.960593 0.593597 0 -4.76837e-07 0
20 1 0.649179 0.960593 0.593597 0 -1.19209e-07 -2.38419e-07
21 1 0.170213 0.792264 0.0935971 0 -2.38419e-07 -1.19209e-07
22 1 0.670213 0.792264 0.0935971 0 -7.15256e-07 -1.19209e-07
23 1 0.90488 0.91497 0.0935971 0 -4.05312e-06 0
24 1 0.40488 0.91497 0.0935971 0 -4.41074e-06 2.38419e-07
25 1 0.00776717 0.0916042 0.593597 0 4.64916e-06 -2.38419e-07
26 1 0.507767 0.0916042 0.593597 0 4.41074e-06 0
27 1 0.263468 0.0459813 0.0935971 0 7.15256e-07 0
28 1 0.763468 0.0459813 0.0935971 0 -2.38419e-07 3.57628e-07
29 1 0.242434 0.21431 0.593597 0 -4.76837e-07 -3.57628e-07
30 1 0.742434 0.21431 0.593597 0 5.96046e-07 -7.15256e-07
31 1 0.997743 0.171822 0.0935971 0 1.78814e-06 5.96046e-07
32 1 0.497743 0.171822 0.0935971 0 1.90735e-06 2.38419e-07
ITEM: TIMESTEP
14
ITEM: NUMBER OF ATOMS
32
ITEM: BOX BOUNDS xy xz yz pp pp pp
-2.1013021469116211e-03 7.1962316036224365e+00 7.9958128929138184e-01
-4.1524946689605713e-02 2.2124402940273285e+01 -0.0000000000000000e+00
-1.4066457748413086e-02 5.1965324282646179e+00 0.0000000000000000e+00
ITEM: ATOMS id type xs ys zs fx fy fz
1 1 0.976985 0.337944 0.593597 0 -1.78814e-06 2.38419e-07
2 1 0.476985 0.337944 0.593597 0 -1.54972e-06 1.19209e-07