ITEM: TIMESTEP
0
ITEM: NUMBER OF ATOMS
32
ITEM: BOX BOUNDS xy xz yz pp pp pp
-4.0532350540161133e-03 6.4008854031562805e+00 0.0000000000000000e+00
-9.1640949249267578e-03 7.7414333820343018e+00 0.0000000000000000e+00
-4.7960281372070312e-02 2.0773346722126007e+01 2.2118381261825562e+00
ITEM: ATOMS id type xs ys zs fx fy fz
1 1 0.999986 0.642298 0.0597509 0 0 0.9813
2 1 0.499986 0.642298 0.0597509 0 0 0.9813
3 1 0.249986 0.142298 0.0597519 0 0 0.981123
4 1 0.749986 0.142298 0.0597519 0 0 0.981123
5 1 0.999986 0.542476 0.309753 0 0 0.000640869
6 1 0.249986 0.426735 0.184753 0 0 0.00285912
7 1 0.749986 0.426735 0.184753 0 0 0.00285912
8 1 0.499986 0.542476 0.309753 0 0 0.000640869
9 1 0.999986 0.926734 0.184753 0 0 0.00288391
10 1 0.249986 0.042476 0.309753 0 0 0.000595093
11 1 0.499986 0.926734 0.184753 0 0 0.00288391
12 1 0.749986 0.042476 0.309753 0 0 0.000595093
13 1 0.999986 0.442629 0.559749 0 0 6.10352e-05
14 1 0.499986 0.442629 0.559749 0 0 6.10352e-05
15 1 0.249986 0.942628 0.55975 0 0 4.95911e-05
16 1 0.749986 0.942628 0.55975 0 0 4.95911e-05
17 1 0.249986 0.326902 0.434752 0 0 -6.10352e-05
18 1 0.749986 0.326902 0.434752 0 0 -6.10352e-05
19 1 0.999986 0.826901 0.434752 0 0 -3.8147e-05
20 1 0.499986 0.826901 0.434752 0 0 -3.8147e-05
21 1 0.999986 0.342786 0.809748 0 0 -0.00287628
22 1 0.249986 0.22705 0.684748 0 0 -0.000623703
23 1 0.499986 0.342786 0.809748 0 0 -0.00287628
24 1 0.749986 0.22705 0.684748 0 0 -0.000623703
25 1 0.999986 0.72705 0.684749 0 0 -0.000644684
26 1 0.249986 0.842787 0.809748 0 0 -0.00286293
27 1 0.749986 0.842787 0.809748 0 0 -0.00286293
28 1 0.499986 0.72705 0.684749 0 0 -0.000644684
29 1 0.249986 0.12722 0.934749 0 0 -0.98111
30 1 0.749986 0.12722 0.934749 0 0 -0.98111
31 1 0.999986 0.62722 0.93475 0 0 -0.981297
32 1 0.499986 0.62722 0.93475 0 0 -0.981297
ITEM: TIMESTEP
1
ITEM: NUMBER OF ATOMS
32
ITEM: BOX BOUNDS xy xz yz pp pp pp
-4.0532350540161133e-03 6.4008854031562805e+00 0.0000000000000000e+00
-9.1640949249267578e-03 7.7414333820343018e+00 0.0000000000000000e+00
-4.7960281372070312e-02 2.0773346722126007e+01 2.2118381261825562e+00
ITEM: ATOMS id type xs ys zs fx fy fz
1 1 0.999986 0.64038 0.0645537 0 0 0.193678
2 1 0.499986 0.64038 0.0645537 0 0 0.193678
3 1 0.249986 0.14038 0.0645538 0 0 0.193686
4 1 0.749986 0.14038 0.0645538 0 0 0.193686
5 1 0.999986 0.542474 0.309756 0 0 0.0082798
6 1 0.249986 0.42673 0.184767 0 0 0.148024
7 1 0.749986 0.42673 0.184767 0 0 0.148024
8 1 0.499986 0.542474 0.309756 0 0 0.0082798
9 1 0.999986 0.926728 0.184767 0 0 0.148033
10 1 0.249986 0.0424749 0.309756 0 0 0.00825691
11 1 0.499986 0.926728 0.184767 0 0 0.148033
12 1 0.749986 0.0424749 0.309756 0 0 0.00825691
13 1 0.999986 0.442629 0.55975 0 0 0.000423431
14 1 0.499986 0.442629 0.55975 0 0 0.000423431
15 1 0.249986 0.942627 0.55975 0 0 0.00041008
16 1 0.749986 0.942627 0.55975 0 0 0.00041008
17 1 0.249986 0.326902 0.434752 0 0 -0.000429153
18 1 0.749986 0.326902 0.434752 0 0 -0.000429153
19 1 0.999986 0.826901 0.434752 0 0 -0.000413895
20 1 0.499986 0.826901 0.434752 0 0 -0.000413895
21 1 0.999986 0.342792 0.809734 0 0 -0.148037
22 1 0.249986 0.227051 0.684745 0 0 -0.00825882
23 1 0.499986 0.342792 0.809734 0 0 -0.148037
24 1 0.749986 0.227051 0.684745 0 0 -0.00825882
25 1 0.999986 0.727051 0.684746 0 0 -0.00827789
26 1 0.249986 0.842792 0.809734 0 0 -0.148022
27 1 0.749986 0.842792 0.809734 0 0 -0.148022
28 1 0.499986 0.727051 0.684746 0 0 -0.00827789
29 1 0.249986 0.129138 0.929947 0 0 -0.193678
30 1 0.749986 0.129138 0.929947 0 0 -0.193678
31 1 0.999986 0.629138 0.929947 0 0 -0.193674
32 1 0.499986 0.629138 0.929947 0 0 -0.193674
ITEM: TIMESTEP
2
ITEM: NUMBER OF ATOMS
32
ITEM: BOX BOUNDS xy xz yz pp pp pp
-4.0532350540161133e-03 6.4008854031562805e+00 0.0000000000000000e+00
-9.1640949249267578e-03 7.7414333820343018e+00 0.0000000000000000e+00
-4.7960281372070312e-02 2.0773346722126007e+01 2.2118381261825562e+00
ITEM: ATOMS id type xs ys zs fx fy fz
1 1 0.999986 0.639113 0.0677281 0 0 -0.105583
2 1 0.499986 0.639113 0.0677281 0 0 -0.105583
3 1 0.249986 0.139113 0.0677284 0 0 -0.105593
4 1 0.749986 0.139113 0.0677284 0 0 -0.105593
5 1 0.999986 0.54242 0.309892 0 0 0.0687599
6 1 0.249986 0.425761 0.187193 0 0 0.10664
7 1 0.749986 0.425761 0.187193 0 0 0.10664
8 1 0.499986 0.54242 0.309892 0 0 0.0687599
9 1 0.999986 0.925759 0.187194 0 0 0.106634
10 1 0.249986 0.0424208 0.309892 0 0 0.0687523
11 1 0.499986 0.925759 0.187194 0 0 0.106634
12 1 0.749986 0.0424208 0.309892 0 0 0.0687523
13 1 0.999986 0.442626 0.559757 0 0 -0.00685883
14 1 0.499986 0.442626 0.559757 0 0 -0.00685883
15 1 0.249986 0.942625 0.559757 0 0 -0.00686646
16 1 0.749986 0.942625 0.559757 0 0 -0.00686646
17 1 0.249986 0.326905 0.434745 0 0 0.00687218
18 1 0.749986 0.326905 0.434745 0 0 0.00687218
19 1 0.999986 0.826904 0.434745 0 0 0.00686836
20 1 0.499986 0.826904 0.434745 0 0 0.00686836
21 1 0.999986 0.343761 0.807308 0 0 -0.106623
22 1 0.249986 0.227105 0.68461 0 0 -0.0687695
23 1 0.499986 0.343761 0.807308 0 0 -0.106623
24 1 0.749986 0.227105 0.68461 0 0 -0.0687695
25 1 0.999986 0.727105 0.68461 0 0 -0.0687771
26 1 0.249986 0.843761 0.807308 0 0 -0.106642
27 1 0.749986 0.843761 0.807308 0 0 -0.106642
28 1 0.499986 0.727105 0.68461 0 0 -0.0687771
29 1 0.249986 0.130405 0.926773 0 0 0.105602
30 1 0.749986 0.130405 0.926773 0 0 0.105602
31 1 0.999986 0.630406 0.926773 0 0 0.105583
32 1 0.499986 0.630406 0.926773 0 0 0.105583
ITEM: TIMESTEP
3
ITEM: NUMBER OF ATOMS
32
ITEM: BOX BOUNDS xy xz yz pp pp pp
-4.0532350540161133e-03 6.4008854031562805e+00 0.0000000000000000e+00
-9.1640949249267578e-03 7.7414333820343018e+00 0.0000000000000000e+00
-4.7960281372070312e-02 2.0773346722126007e+01 2.2118381261825562e+00
ITEM: ATOMS id type xs ys zs fx fy fz
1 1 0.999986 0.639132 0.0676783 0 0 -0.00942802
2 1 0.499986 0.639132 0.0676783 0 0 -0.00942802
3 1 0.249986 0.139133 0.0676785 0 0 -0.00942612
4 1 0.749986 0.139133 0.0676785 0 0 -0.00942612
5 1 0.999986 0.541989 0.31097 0 0 0.0875568
6 1 0.249986 0.424672 0.189919 0 0 -0.0396957
7 1 0.749986 0.424672 0.189919 0 0 -0.0396957
8 1 0.499986 0.541989 0.31097 0 0 0.0875568
9 1 0.999986 0.924671 0.189919 0 0 -0.0396996
10 1 0.249986 0.0419901 0.31097 0 0 0.0875702
11 1 0.499986 0.924671 0.189919 0 0 -0.0396996
12 1 0.749986 0.0419901 0.31097 0 0 0.0875702
13 1 0.999986 0.442665 0.559659 0 0 -0.029047
14 1 0.499986 0.442665 0.559659 0 0 -0.029047
15 1 0.249986 0.942664 0.559659 0 0 -0.0290375
16 1 0.749986 0.942664 0.559659 0 0 -0.0290375
17 1 0.249986 0.326865 0.434843 0 0 0.0290356
18 1 0.749986 0.326865 0.434843 0 0 0.0290356
19 1 0.999986 0.826865 0.434843 0 0 0.029026
20 1 0.499986 0.826865 0.434843 0 0 0.029026
21 1 0.999986 0.344849 0.804582 0 0 0.0396957
22 1 0.249986 0.227536 0.683531 0 0 -0.087553
23 1 0.499986 0.344849 0.804582 0 0 0.0396957
24 1 0.749986 0.227536 0.683531 0 0 -0.087553
25 1 0.999986 0.727536 0.683531 0 0 -0.0875397
26 1 0.249986 0.84485 0.804582 0 0 0.03969
27 1 0.749986 0.84485 0.804582 0 0 0.03969
28 1 0.499986 0.727536 0.683531 0 0 -0.0875397
29 1 0.249986 0.130385 0.926823 0 0 0.00942802
30 1 0.749986 0.130385 0.926823 0 0 0.00942802
31 1 0.999986 0.630386 0.926823 0 0 0.00942421
32 1 0.499986 0.630386 0.926823 0 0 0.00942421
ITEM: TIMESTEP
4
ITEM: NUMBER OF ATOMS
32
ITEM: BOX BOUNDS xy xz yz pp pp pp
-4.0532350540161133e-03 6.4008854031562805e+00 0.0000000000000000e+00
-9.1640949249267578e-03 7.7414333820343018e+00 0.0000000000000000e+00
-4.7960281372070312e-02 2.0773346722126007e+01 2.2118381261825562e+00
ITEM: ATOMS id type xs ys zs fx fy fz
1 1 0.999986 0.639208 0.0674877 0 0 0.0190067
2 1 0.499986 0.639208 0.0674877 0 0 0.0190067
3 1 0.249986 0.139209 0.0674879 0 0 0.0189972
4 1 0.749986 0.139209 0.0674879 0 0 0.0189972
5 1 0.999986 0.541201 0.312944 0 0 -0.00827789
6 1 0.249986 0.424606 0.190085 0 0 0.00100517
7 1 0.749986 0.424606 0.190085 0 0 0.00100517
8 1 0.499986 0.541201 0.312944 0 0 -0.00827789
9 1 0.999986 0.924605 0.190085 0 0 0.00100899
10 1 0.249986 0.041202 0.312944 0 0 -0.00828362
11 1 0.499986 0.924605 0.190085 0 0 0.00100899
12 1 0.749986 0.041202 0.312944 0 0 -0.00828362
13 1 0.999986 0.442893 0.55909 0 0 -0.0328712
14 1 0.499986 0.442893 0.55909 0 0 -0.0328712
15 1 0.249986 0.942891 0.55909 0 0 -0.0328636
16 1 0.749986 0.942891 0.55909 0 0 -0.0328636
17 1 0.249986 0.326638 0.435412 0 0 0.0328617
18 1 0.749986 0.326638 0.435412 0 0 0.0328617
19 1 0.999986 0.826638 0.435411 0 0 0.0328693
20 1 0.499986 0.826638 0.435411 0 0 0.0328693
21 1 0.999986 0.344915 0.804416 0 0 -0.000995636
22 1 0.249986 0.228324 0.681558 0 0 0.00827217
23 1 0.499986 0.344915 0.804416 0 0 -0.000995636
24 1 0.749986 0.228324 0.681558 0 0 0.00827217
25 1 0.999986 0.728324 0.681558 0 0 0.00827599
26 1 0.249986 0.844916 0.804416 0 0 -0.000997543
27 1 0.749986 0.844916 0.804416 0 0 -0.000997543
28 1 0.499986 0.728324 0.681558 0 0 0.00827599
29 1 0.249986 0.130309 0.927014 0 0 -0.0190067
30 1 0.749986 0.130309 0.927014 0 0 -0.0190067
31 1 0.999986 0.63031 0.927013 0 0 -0.019001
32 1 0.499986 0.63031 0.927013 0 0 -0.019001
ITEM: TIMESTEP
5
ITEM: NUMBER OF ATOMS
32
ITEM: BOX BOUNDS xy xz yz pp pp pp
-4.0532350540161133e-03 6.4008854031562805e+00 0.0000000000000000e+00
-9.1640949249267578e-03 7.7414333820343018e+00 0.0000000000000000e+00
-4.7960281372070312e-02 2.0773346722126007e+01 2.2118381261825562e+00
ITEM: ATOMS id type xs ys zs fx fy fz
1 1 0.999986 0.639133 0.0676775 0 0 0.000413895
2 1 0.499986 0.639133 0.0676775 0 0 0.000413895
3 1 0.249986 0.139133 0.0676776 0 0 0.000425339
4 1 0.749986 0.139133 0.0676776 0 0 0.000425339
5 1 0.999986 0.541169 0.313025 0 0 -0.00165749
6 1 0.249986 0.424596 0.19011 0 0 0.00801659
7 1 0.749986 0.424596 0.19011 0 0 0.00801659
8 1 0.499986 0.541169 0.313025 0 0 -0.00165749
9 1 0.999986 0.924594 0.19011 0 0 0.00802231
10 1 0.249986 0.0411696 0.313025 0 0 -0.00164795
11 1 0.499986 0.924594 0.19011 0 0 0.00802231
12 1 0.749986 0.0411696 0.313025 0 0 -0.00164795
13 1 0.999986 0.443055 0.558684 0 0 -0.00155067
14 1 0.499986 0.443055 0.558684 0 0 -0.00155067
15 1 0.249986 0.943053 0.558684 0 0 -0.00154495
16 1 0.749986 0.943053 0.558684 0 0 -0.00154495
17 1 0.249986 0.326476 0.435818 0 0 0.00154305
18 1 0.749986 0.326476 0.435818 0 0 0.00154305
19 1 0.999986 0.826476 0.435817 0 0 0.0015564
20 1 0.499986 0.826476 0.435817 0 0 0.0015564
21 1 0.999986 0.344926 0.804391 0 0 -0.00802422
22 1 0.249986 0.228356 0.681476 0 0 0.00164986
23 1 0.499986 0.344926 0.804391 0 0 -0.00802422
24 1 0.749986 0.228356 0.681476 0 0 0.00164986
25 1 0.999986 0.728356 0.681477 0 0 0.00164795
26 1 0.249986 0.844926 0.804391 0 0 -0.00801659
27 1 0.749986 0.844926 0.804391 0 0 -0.00801659
28 1 0.499986 0.728356 0.681477 0 0 0.00164795
29 1 0.249986 0.130385 0.926824 0 0 -0.000429153
30 1 0.749986 0.130385 0.926824 0 0 -0.000429153
31 1 0.999986 0.630386 0.926824 0 0 -0.000404358
32 1 0.499986 0.630386 0.926824 0 0 -0.000404358
ITEM: TIMESTEP
6
ITEM: NUMBER OF ATOMS
32
ITEM: BOX BOUNDS xy xz yz pp pp pp
-4.0532350540161133e-03 6.4008854031562805e+00 0.0000000000000000e+00
-9.1640949249267578e-03 7.7414333820343018e+00 0.0000000000000000e+00
-4.7960281372070312e-02 2.0773346722126007e+01 2.2118381261825562e+00
ITEM: ATOMS id type xs ys zs fx fy fz
1 1 0.999986 0.63913 0.0676836 0 0 0.00321198
2 1 0.499986 0.63913 0.0676836 0 0 0.00321198
3 1 0.249986 0.13913 0.0676838 0 0 0.00320435
4 1 0.749986 0.13913 0.0676838 0 0 0.00320435
5 1 0.999986 0.541179 0.313001 0 0 0.00341034
6 1 0.249986 0.424549 0.190228 0 0 0.000684738
7 1 0.749986 0.424549 0.190228 0 0 0.000684738
8 1 0.499986 0.541179 0.313001 0 0 0.00341034
9 1 0.999986 0.924548 0.190228 0 0 0.000682831
10 1 0.249986 0.0411792 0.313001 0 0 0.00340462
11 1 0.499986 0.924548 0.190228 0 0 0.000682831
12 1 0.749986 0.0411792 0.313001 0 0 0.00340462
13 1 0.999986 0.443064 0.558661 0 0 0.000741959
14 1 0.499986 0.443064 0.558661 0 0 0.000741959
15 1 0.249986 0.943062 0.558661 0 0 0.000734329
16 1 0.749986 0.943062 0.558661 0 0 0.000734329
17 1 0.249986 0.326467 0.43584 0 0 -0.000740051
18 1 0.749986 0.326467 0.43584 0 0 -0.000740051
19 1 0.999986 0.826467 0.43584 0 0 -0.000747681
20 1 0.499986 0.826467 0.43584 0 0 -0.000747681
21 1 0.999986 0.344972 0.804274 0 0 -0.000682831
22 1 0.249986 0.228347 0.681501 0 0 -0.0034008
23 1 0.499986 0.344972 0.804274 0 0 -0.000682831
24 1 0.749986 0.228347 0.681501 0 0 -0.0034008
25 1 0.999986 0.728347 0.681501 0 0 -0.00340462
26 1 0.249986 0.844973 0.804273 0 0 -0.000679016
27 1 0.749986 0.844973 0.804273 0 0 -0.000679016
28 1 0.499986 0.728347 0.681501 0 0 -0.00340462
29 1 0.249986 0.130387 0.926818 0 0 -0.00320435
30 1 0.749986 0.130387 0.926818 0 0 -0.00320435
31 1 0.999986 0.630388 0.926818 0 0 -0.00321579
32 1 0.499986 0.630388 0.926818 0 0 -0.00321579
ITEM: TIMESTEP
7
ITEM: NUMBER OF ATOMS
32
ITEM: BOX BOUNDS xy xz yz pp pp pp
-4.0532350540161133e-03 6.4008854031562805e+00 0.0000000000000000e+00
-9.1640949249267578e-03 7.7414333820343018e+00 0.0000000000000000e+00
-4.7960281372070312e-02 2.0773346722126007e+01 2.2118381261825562e+00
ITEM: ATOMS id type xs ys zs fx fy fz
1 1 0.999986 0.639102 0.0677542 0 0 -0.00173187
2 1 0.499986 0.639102 0.0677542 0 0 -0.00173187
3 1 0.249986 0.139102 0.0677544 0 0 -0.00174141
4 1 0.749986 0.139102 0.0677544 0 0 -0.00174141
5 1 0.999986 0.541154 0.313061 0 0 0.00182152
6 1 0.249986 0.424521 0.190298 0 0 0.000234604
7 1 0.749986 0.424521 0.190298 0 0 0.000234604
8 1 0.499986 0.541154 0.313061 0 0 0.00182152
9 1 0.999986 0.92452 0.190298 0 0 0.000230789
10 1 0.249986 0.0411551 0.313061 0 0 0.00181961
11 1 0.499986 0.92452 0.190298 0 0 0.000230789
12 1 0.749986 0.0411551 0.313061 0 0 0.00181961
13 1 0.999986 0.443062 0.558666 0 0 -0.00131798
14 1 0.499986 0.443062 0.558666 0 0 -0.00131798
15 1 0.249986 0.94306 0.558666 0 0 -0.00132179
16 1 0.749986 0.94306 0.558666 0 0 -0.00132179
17 1 0.249986 0.326469 0.435835 0 0 0.00133133
18 1 0.749986 0.326469 0.435835 0 0 0.00133133
19 1 0.999986 0.826469 0.435835 0 0 0.00132561
20 1 0.499986 0.826469 0.435835 0 0 0.00132561
21 1 0.999986 0.345 0.804204 0 0 -0.000238419
22 1 0.249986 0.228371 0.68144 0 0 -0.00183105
23 1 0.499986 0.345 0.804204 0 0 -0.000238419
24 1 0.749986 0.228371 0.68144 0 0 -0.00183105
25 1 0.999986 0.728371 0.68144 0 0 -0.00182724
26 1 0.249986 0.845001 0.804204 0 0 -0.000242233
27 1 0.749986 0.845001 0.804204 0 0 -0.000242233
28 1 0.499986 0.728371 0.68144 0 0 -0.00182724
29 1 0.249986 0.130416 0.926747 0 0 0.00175095
30 1 0.749986 0.130416 0.926747 0 0 0.00175095
31 1 0.999986 0.630416 0.926747 0 0 0.00173759
32 1 0.499986 0.630416 0.926747 0 0 0.00173759
ITEM: TIMESTEP
8
ITEM: NUMBER OF ATOMS
32
ITEM: BOX BOUNDS xy xz yz pp pp pp
-4.0532350540161133e-03 6.4008854031562805e+00 0.0000000000000000e+00
-9.1640949249267578e-03 7.7414333820343018e+00 0.0000000000000000e+00
-4.7960281372070312e-02 2.0773346722126007e+01 2.2118381261825562e+00
ITEM: ATOMS id type xs ys zs fx fy fz
1 1 0.999986 0.639106 0.0677436 0 0 0.000314713
2 1 0.499986 0.639106 0.0677436 0 0 0.000314713
3 1 0.249986 0.139107 0.0677436 0 0 0.000335693
4 1 0.749986 0.139107 0.0677436 0 0 0.000335693
5 1 0.999986 0.541131 0.313121 0 0 -0.000125885
6 1 0.249986 0.424509 0.190328 0 0 -0.000217438
7 1 0.749986 0.424509 0.190328 0 0 -0.000217438
8 1 0.499986 0.541131 0.313121 0 0 -0.000125885
9 1 0.999986 0.924508 0.190328 0 0 -0.00022316
10 1 0.249986 0.0411314 0.313121 0 0 -0.000114441
11 1 0.499986 0.924508 0.190328 0 0 -0.00022316
12 1 0.749986 0.0411314 0.313121 0 0 -0.000114441
13 1 0.999986 0.443072 0.55864 0 0 -0.000707626
14 1 0.499986 0.443072 0.55864 0 0 -0.000707626
15 1 0.249986 0.943071 0.55864 0 0 -0.000701904
16 1 0.749986 0.943071 0.55864 0 0 -0.000701904
17 1 0.249986 0.326459 0.435861 0 0 0.000709534
18 1 0.749986 0.326459 0.435861 0 0 0.000709534
19 1 0.999986 0.826458 0.435861 0 0 0.000694275
20 1 0.499986 0.826458 0.435861 0 0 0.000694275
21 1 0.999986 0.345012 0.804174 0 0 0.000232697
22 1 0.249986 0.228395 0.681381 0 0 0.000118256
23 1 0.499986 0.345012 0.804174 0 0 0.000232697
24 1 0.749986 0.228395 0.681381 0 0 0.000118256
25 1 0.999986 0.728395 0.681381 0 0 0.00012207
26 1 0.249986 0.845013 0.804174 0 0 0.00022316
27 1 0.749986 0.845013 0.804174 0 0 0.00022316
28 1 0.499986 0.728395 0.681381 0 0 0.00012207
29 1 0.249986 0.130411 0.926758 0 0 -0.000333786
30 1 0.749986 0.130411 0.926758 0 0 -0.000333786
31 1 0.999986 0.630412 0.926758 0 0 -0.000326157
32 1 0.499986 0.630412 0.926758 0 0 -0.000326157
ITEM: TIMESTEP
9
ITEM: NUMBER OF ATOMS
32
ITEM: BOX BOUNDS xy xz yz pp pp pp
-4.0532350540161133e-03 6.4008854031562805e+00 0.0000000000000000e+00
-9.1640949249267578e-03 7.7414333820343018e+00 0.0000000000000000e+00
-4.7960281372070312e-02 2.0773346722126007e+01 2.2118381261825562e+00
ITEM: ATOMS id type xs ys zs fx fy fz
1 1 0.999986 0.639105 0.0677466 0 0 -5.72205e-06
2 1 0.499986 0.639105 0.0677466 0 0 -5.72205e-06
3 1 0.249986 0.139105 0.0677468 0 0 -3.8147e-06
4 1 0.749986 0.139105 0.0677468 0 0 -3.8147e-06
5 1 0.999986 0.54113 0.313121 0 0 2.28882e-05
6 1 0.249986 0.42451 0.190327 0 0 -1.90735e-05
7 1 0.749986 0.42451 0.190327 0 0 -1.90735e-05
8 1 0.499986 0.54113 0.313121 0 0 2.28882e-05
9 1 0.999986 0.924508 0.190327 0 0 -1.71661e-05
10 1 0.249986 0.041131 0.313121 0 0 1.33514e-05
11 1 0.499986 0.924508 0.190327 0 0 -1.71661e-05
12 1 0.749986 0.041131 0.313121 0 0 1.33514e-05
13 1 0.999986 0.443075 0.558632 0 0 -1.90735e-05
14 1 0.499986 0.443075 0.558632 0 0 -1.90735e-05
15 1 0.249986 0.943074 0.558632 0 0 -2.86102e-05
16 1 0.749986 0.943074 0.558632 0 0 -2.86102e-05
17 1 0.249986 0.326455 0.43587 0 0 2.47955e-05
18 1 0.749986 0.326455 0.43587 0 0 2.47955e-05
19 1 0.999986 0.826455 0.435869 0 0 1.90735e-05
20 1 0.499986 0.826455 0.435869 0 0 1.90735e-05
21 1 0.999986 0.345012 0.804175 0 0 1.71661e-05
22 1 0.249986 0.228395 0.68138 0 0 -1.71661e-05
23 1 0.499986 0.345012 0.804175 0 0 1.71661e-05
24 1 0.749986 0.228395 0.68138 0 0 -1.71661e-05
25 1 0.999986 0.728395 0.68138 0 0 -1.33514e-05
26 1 0.249986 0.845012 0.804175 0 0 1.52588e-05
27 1 0.749986 0.845012 0.804175 0 0 1.52588e-05
28 1 0.499986 0.728395 0.68138 0 0 -1.33514e-05
29 1 0.249986 0.130412 0.926755 0 0 -3.8147e-06
30 1 0.749986 0.130412 0.926755 0 0 -3.8147e-06
31 1 0.999986 0.630413 0.926755 0 0 1.52588e-05
32 1 0.499986 0.630413 0.926755 0 0 1.52588e-05
ITEM: TIMESTEP
10
ITEM: NUMBER OF ATOMS
32
ITEM: BOX BOUNDS xy xz yz pp pp pp
-4.0532350540161133e-03 6.4008854031562805e+00 0.0000000000000000e+00
-9.1640949249267578e-03 7.7414333820343018e+00 0.0000000000000000e+00
-4.7960281372070312e-02 2.0773346722126007e+01 2.2118381261825562e+00
ITEM: ATOMS id type xs ys zs fx fy fz
1 1 0.999986 0.639105 0.0677466 0 0 -5.72205e-06
2 1 0.499986 0.639105 0.0677466 0 0 -5.72205e-06
3 1 0.249986 0.139105 0.0677468 0 0 -3.8147e-06
4 1 0.749986 0.139105 0.0677468 0 0 -3.8147e-06
5 1 0.999986 0.54113 0.313121 0 0 2.28882e-05
6 1 0.249986 0.42451 0.190327 0 0 -1.90735e-05
7 1 0.749986 0.42451 0.190327 0 0 -1.90735e-05
8 1 0.499986 0.54113 0.313121 0 0 2.28882e-05
9 1 0.999986 0.924508 0.190327 0 0 -1.71661e-05
10 1 0.249986 0.041131 0.313121 0 0 1.33514e-05
11 1 0.499986 0.924508 0.190327 0 0 -1.71661e-05
12 1 0.749986 0.041131 0.313121 0 0 1.33514e-05
13 1 0.999986 0.443075 0.558632 0 0 -1.90735e-05
14 1 0.499986 0.443075 0.558632 0 0 -1.90735e-05
15 1 0.249986 0.943074 0.558632 0 0 -2.86102e-05
16 1 0.749986 0.943074 0.558632 0 0 -2.86102e-05
17 1 0.249986 0.326455 0.43587 0 0 2.47955e-05
18 1 0.749986 0.326455 0.43587 0 0 2.47955e-05
19 1 0.999986 0.826455 0.435869 0 0 1.90735e-05
20 1 0.499986 0.826455 0.435869 0 0 1.90735e-05
21 1 0.999986 0.345012 0.804175 0 0 1.71661e-05
22 1 0.249986 0.228395 0.68138 0 0 -1.71661e-05
23 1 0.499986 0.345012 0.804175 0 0 1.71661e-05
24 1 0.749986 0.228395 0.68138 0 0 -1.71661e-05
25 1 0.999986 0.728395 0.68138 0 0 -1.33514e-05
26 1 0.249986 0.845012 0.804175 0 0 1.52588e-05
27 1 0.749986 0.845012 0.804175 0 0 1.52588e-05
28 1 0.499986 0.728395 0.68138 0 0 -1.33514e-05
29 1 0.249986 0.130412 0.926755 0 0 -3.8147e-06
30 1 0.749986 0.130412 0.926755 0 0 -3.8147e-06
31 1 0.999986 0.630413 0.926755 0 0 1.52588e-05
32 1 0.499986 0.630413 0.926755 0 0 1.52588e-05
