ITEM: TIMESTEP
0
ITEM: NUMBER OF ATOMS
56
ITEM: BOX BOUNDS xy xz yz pp pp pp
-6.1308373808860779e+00 1.2203788340091705e+01 0.0000000000000000e+00
-8.4733366966247559e-03 5.5348814725875854e+00 -6.1121488809585571e+00
-2.9168844223022461e-02 1.9049128890037537e+01 0.0000000000000000e+00
ITEM: ATOMS id type xs ys zs fx fy fz
1 1 0.616264 4.41887e-05 0.132366 0 -0.0374775 0.0617809
2 1 0.366265 0.166624 0.132366 0 0.0374584 0.0617867
3 1 0.325113 2.39879e-05 0.275225 0 -0.000453949 -0.00323105
4 1 0.0751131 0.166644 0.275225 0 0.000432968 -0.00322914
5 1 0.0339081 1.9421e-05 0.418082 0 0.000232697 -0.0007267
6 1 0.116265 4.41295e-05 0.132366 0 -0.0374718 0.0618019
7 1 0.0118139 0.500074 0.0609403 0 0.206095 0.181252
8 1 0.866266 0.166623 0.132366 0 0.0374622 0.0618
9 1 0.761815 0.666593 0.0609403 0 -0.206066 0.181248
10 1 0.825115 2.39872e-05 0.275225 0 -0.000452042 -0.00322342
11 1 0.783907 0.166647 0.418082 0 -0.000228882 -0.000734329
12 1 0.742692 2.47556e-05 0.560942 0 4.00543e-05 0.000312805
13 1 0.492693 0.166643 0.560942 0 -4.95911e-05 0.000310898
14 1 0.451486 2.39811e-05 0.703801 0 -8.39233e-05 0.00111008
15 1 0.201486 0.166644 0.703801 0 5.14984e-05 0.00110245
16 1 0.160289 2.63435e-05 0.846651 0 -0.00138474 0.00956154
17 1 0.720708 0.500026 0.203802 0 -0.00137711 -0.00955009
18 1 0.575113 0.166645 0.275225 0 0.000427246 -0.00322533
19 1 0.470709 0.66664 0.203802 0 0.00139236 -0.00954628
20 1 0.533908 2.01694e-05 0.418082 0 0.00021553 -0.000730515
21 1 0.429511 0.500023 0.346651 0 -5.34058e-05 -0.00109291
22 1 0.283908 0.166648 0.418082 0 -0.000232697 -0.000730515
23 1 0.179511 0.666642 0.346651 0 9.15527e-05 -0.00111008
24 1 0.242693 2.49573e-05 0.560941 0 3.62396e-05 0.000320435
25 1 0.138303 0.500025 0.489511 0 4.3869e-05 -0.000326157
26 1 0.992694 0.166643 0.560941 0 -4.95911e-05 0.000326157
27 1 0.888304 0.666642 0.489511 0 -3.8147e-05 -0.000303268
28 1 0.511814 0.500073 0.0609404 0 0.206087 0.181217
29 1 0.261814 0.666593 0.0609403 0 -0.206059 0.181221
30 1 0.220709 0.500026 0.203802 0 -0.00139046 -0.009552
31 1 0.970709 0.666641 0.203802 0 0.00137901 -0.00954628
32 1 0.929512 0.500024 0.346651 0 -8.2016e-05 -0.00111008
33 1 0.910288 0.166641 0.846652 0 0.00139427 0.00952721
34 1 0.869183 7.47473e-05 0.989512 0 0.206078 -0.181217
35 1 0.619183 0.166594 0.989513 0 -0.206081 -0.181223
36 1 0.951485 2.44315e-05 0.703801 0 -8.96454e-05 0.00110626
37 1 0.847087 0.50002 0.632371 0 0.000226974 0.000711441
38 1 0.701486 0.166643 0.703801 0 6.48499e-05 0.00111198
39 1 0.597089 0.666647 0.632371 0 -0.00022316 0.000728607
40 1 0.660288 2.63314e-05 0.846651 0 -0.00138283 0.00954437
41 1 0.555883 0.500023 0.775228 0 -0.000440598 0.00323105
42 1 0.410288 0.166641 0.846651 0 0.00138474 0.00954628
43 1 0.305883 0.666644 0.775228 0 0.000453949 0.00321579
44 1 0.369183 7.37033e-05 0.989512 0 0.206068 -0.181215
45 1 0.264732 0.500043 0.918087 0 -0.0374641 -0.0617733
46 1 0.679511 0.666643 0.346651 0 9.15527e-05 -0.00110435
47 1 0.638303 0.500025 0.489511 0 4.76837e-05 -0.000322342
48 1 0.388304 0.666642 0.489511 0 -3.43323e-05 -0.000322342
49 1 0.347088 0.500019 0.632371 0 0.000240326 0.000736237
50 1 0.0970893 0.666647 0.63237 0 -0.000209808 0.000749588
51 1 0.0558844 0.500022 0.775228 0 -0.000432968 0.00322342
52 1 0.119181 0.166594 0.989513 0 -0.206091 -0.181255
53 1 0.0147313 0.666624 0.918087 0 0.0374603 -0.0618191
54 1 0.805883 0.666643 0.775228 0 0.00044632 0.00322914
55 1 0.764732 0.500044 0.918087 0 -0.0374603 -0.0618057
56 1 0.514732 0.666624 0.918087 0 0.0374584 -0.0617867
ITEM: TIMESTEP
1
ITEM: NUMBER OF ATOMS
56
ITEM: BOX BOUNDS xy xz yz pp pp pp
-6.1308373808860779e+00 1.2203788340091705e+01 0.0000000000000000e+00
-8.4733366966247559e-03 5.5348814725875854e+00 -6.1121488809585571e+00
-2.9168844223022461e-02 1.9049128890037537e+01 0.0000000000000000e+00
ITEM: ATOMS id type xs ys zs fx fy fz
1 1 0.616688 -0.00172538 0.133214 0 0.0491447 0.00128746
2 1 0.366689 0.168392 0.133214 0 -0.0491486 0.00128555
3 1 0.325091 2.55378e-06 0.275181 0 -0.0020771 0.0110798
4 1 0.0750909 0.166665 0.275181 0 0.00207329 0.0110703
5 1 0.0339031 3.04082e-05 0.418072 0 -8.58307e-05 -0.00203514
6 1 0.116689 -0.00172517 0.133214 0 0.0491524 0.00127983
7 1 0.0130574 0.509805 0.0634269 0 0.0234737 -0.030489
8 1 0.86669 0.168392 0.133214 0 -0.0491409 0.00130081
9 1 0.763059 0.656863 0.0634269 0 -0.0234814 -0.0304928
10 1 0.825092 2.64313e-06 0.275181 0 -0.0020771 0.0110798
11 1 0.783902 0.166636 0.418072 0 9.34601e-05 -0.00204659
12 1 0.742694 2.66469e-05 0.560946 0 0.000183105 0.00094223
13 1 0.492695 0.16664 0.560946 0 -0.000185013 0.00094223
14 1 0.451493 2.00185e-05 0.703817 0 -0.000461578 5.14984e-05
15 1 0.201494 0.166647 0.703817 0 0.0004673 4.3869e-05
16 1 0.160355 -3.90395e-05 0.846782 0 -0.0126114 -0.0545864
17 1 0.720642 0.499961 0.203671 0 -0.0126019 0.0545921
18 1 0.575091 0.166665 0.275181 0 0.00206375 0.0110817
19 1 0.470643 0.666706 0.203671 0 0.0126057 0.054594
20 1 0.533903 3.03461e-05 0.418072 0 -8.58307e-05 -0.00204086
21 1 0.429503 0.500021 0.346636 0 -0.000469208 -5.14984e-05
22 1 0.283903 0.166637 0.418072 0 8.01086e-05 -0.00204277
23 1 0.179503 0.666647 0.346636 0 0.0004673 -4.95911e-05
24 1 0.242695 2.66684e-05 0.560946 0 0.00019455 0.000944138
25 1 0.138301 0.500027 0.489507 0 0.000185013 -0.00094223
26 1 0.992696 0.166641 0.560946 0 -0.000183105 0.000953674
27 1 0.888302 0.66664 0.489507 0 -0.000179291 -0.00094223
28 1 0.513057 0.509804 0.0634265 0 0.0234852 -0.0304832
29 1 0.263057 0.656863 0.0634265 0 -0.0234833 -0.0304756
30 1 0.220643 0.499961 0.203671 0 -0.0125923 0.0545998
31 1 0.970643 0.666706 0.203671 0 0.012598 0.0545998
32 1 0.929504 0.50002 0.346636 0 -0.0004673 -4.95911e-05
33 1 0.910353 0.166706 0.846782 0 0.0125961 -0.0546055
34 1 0.86794 0.0098051 0.987026 0 0.0234776 0.0304794
35 1 0.61794 0.156863 0.987026 0 -0.0234852 0.0304794
36 1 0.951492 2.01987e-05 0.703816 0 -0.000473022 5.53131e-05
37 1 0.847092 0.50003 0.632381 0 -8.96454e-05 0.00203514
38 1 0.701494 0.166646 0.703817 0 0.00047493 4.3869e-05
39 1 0.597094 0.666637 0.632381 0 8.01086e-05 0.00203514
40 1 0.660354 -3.89615e-05 0.846782 0 -0.0125961 -0.0545826
41 1 0.555905 0.500002 0.775272 0 -0.00208282 -0.011076
42 1 0.410353 0.166706 0.846782 0 0.0126038 -0.0545998
43 1 0.305905 0.666665 0.775272 0 0.00206947 -0.011076
44 1 0.36794 0.0098036 0.987026 0 0.023489 0.030489
45 1 0.264308 0.498274 0.917239 0 0.0491467 -0.00127602
46 1 0.679503 0.666647 0.346636 0 0.000469208 -4.76837e-05
47 1 0.638301 0.500027 0.489507 0 0.00018692 -0.00094986
48 1 0.388301 0.66664 0.489507 0 -0.000181198 -0.000947952
49 1 0.347093 0.50003 0.632381 0 -8.58307e-05 0.00204086
50 1 0.0970944 0.666637 0.632381 0 8.39233e-05 0.00204086
51 1 0.0559065 0.500002 0.775272 0 -0.00207329 -0.0110817
52 1 0.117938 0.156863 0.987026 0 -0.0234776 0.0304852
53 1 0.0143072 0.668393 0.917239 0 -0.0491467 -0.00129128
54 1 0.805905 0.666665 0.775272 0 0.00206947 -0.0110855
55 1 0.764308 0.498275 0.917239 0 0.0491486 -0.00127411
56 1 0.514308 0.668392 0.917239 0 -0.0491409 -0.00129128
ITEM: TIMESTEP
2
ITEM: NUMBER OF ATOMS
56
ITEM: BOX BOUNDS xy xz yz pp pp pp
-6.1308373808860779e+00 1.2203788340091705e+01 0.0000000000000000e+00
-8.4733366966247559e-03 5.5348814725875854e+00 -6.1121488809585571e+00
-2.9168844223022461e-02 1.9049128890037537e+01 0.0000000000000000e+00
ITEM: ATOMS id type xs ys zs fx fy fz
1 1 0.616797 0.00196291 0.133432 0 0.00871086 0.0117893
2 1 0.366798 0.164703 0.133432 0 -0.00869179 0.0118065
3 1 0.32522 -0.000174635 0.275438 0 -0.00159645 0.0130768
4 1 0.0752195 0.166841 0.275438 0 0.00160599 0.0130901
5 1 0.0338775 2.57149e-05 0.418021 0 -0.00107574 0.00510788
6 1 0.116798 0.00196381 0.133432 0 0.00869942 0.011797
7 1 0.0129649 0.513908 0.0632419 0 -0.0076561 -0.00335312
8 1 0.866799 0.164704 0.133433 0 -0.00870705 0.0117779
9 1 0.762966 0.65276 0.0632418 0 0.00765991 -0.00332832
10 1 0.825221 -0.000174526 0.275438 0 -0.00160789 0.0130806
11 1 0.783876 0.166642 0.41802 0 0.00107956 0.00512886
12 1 0.742706 4.22672e-05 0.56097 0 -0.000364304 -0.00170898
13 1 0.492707 0.166625 0.56097 0 0.00037384 -0.0017128
14 1 0.451496 -1.91795e-05 0.703821 0 -0.00291634 -0.0203419
15 1 0.201496 0.166686 0.703821 0 0.00290871 -0.0203266
16 1 0.159711 -0.00110053 0.845495 0 0.0138149 0.00495911
17 1 0.721286 0.4989 0.204958 0 0.0138054 -0.00497437
18 1 0.57522 0.166841 0.275438 0 0.00160789 0.0130787
19 1 0.471287 0.667767 0.204959 0 -0.0138149 -0.00496674
20 1 0.533878 2.54733e-05 0.418021 0 -0.00106812 0.00511169
21 1 0.429501 0.499981 0.346632 0 -0.00291824 0.02034
22 1 0.283877 0.166641 0.418021 0 0.00108147 0.00510979
23 1 0.179501 0.666687 0.346632 0 0.00291061 0.0203438
24 1 0.242707 4.31989e-05 0.56097 0 -0.00037384 -0.00170898
25 1 0.138289 0.500043 0.489483 0 -0.000362396 0.00170898
26 1 0.992708 0.166625 0.56097 0 0.000368118 -0.00172424
27 1 0.888291 0.666625 0.489483 0 0.000362396 0.00171471
28 1 0.512964 0.513908 0.0632416 0 -0.007658 -0.0033493
29 1 0.262965 0.65276 0.0632418 0 0.00765038 -0.0033474
30 1 0.221287 0.498901 0.204959 0 0.0138073 -0.00496674
31 1 0.971287 0.667767 0.204959 0 -0.0138111 -0.00496674
32 1 0.929502 0.499981 0.346632 0 -0.00292015 0.02034
33 1 0.909709 0.167767 0.845494 0 -0.0138073 0.00496674
34 1 0.868032 0.0139084 0.987211 0 -0.0076561 0.00335503
35 1 0.618032 0.152759 0.987211 0 0.00766373 0.00335884
36 1 0.951495 -2.00092e-05 0.703821 0 -0.00291252 -0.0203342
37 1 0.847118 0.500025 0.632432 0 -0.00107384 -0.00510788
38 1 0.701496 0.166686 0.703821 0 0.0029068 -0.02034
39 1 0.597119 0.666641 0.632432 0 0.00107956 -0.00510979
40 1 0.65971 -0.00109916 0.845495 0 0.0138016 0.00495911
41 1 0.555777 0.499825 0.775015 0 -0.00159073 -0.0130844
42 1 0.409709 0.167767 0.845494 0 -0.013813 0.00497055
43 1 0.305776 0.666842 0.775015 0 0.00160027 -0.0130749
44 1 0.368033 0.0139078 0.987211 0 -0.0076561 0.00333977
45 1 0.264199 0.501963 0.917021 0 0.00870514 -0.011795
46 1 0.679501 0.666687 0.346632 0 0.0029068 0.0203323
47 1 0.638289 0.500043 0.489483 0 -0.000366211 0.00170898
48 1 0.388289 0.666625 0.489483 0 0.000360489 0.00170898
49 1 0.347119 0.500026 0.632432 0 -0.00107384 -0.00510979
50 1 0.0971202 0.666642 0.632432 0 0.00107384 -0.00511932
51 1 0.0557777 0.499825 0.775015 0 -0.00160408 -0.0130749
52 1 0.11803 0.152759 0.987211 0 0.00766373 0.00333214
53 1 0.0141978 0.664704 0.91702 0 -0.00870895 -0.011797
54 1 0.805776 0.666841 0.775015 0 0.00160217 -0.0130768
55 1 0.764199 0.501964 0.917021 0 0.00869942 -0.0118008
56 1 0.514199 0.664704 0.91702 0 -0.00870514 -0.0117931
ITEM: TIMESTEP
3
ITEM: NUMBER OF ATOMS
56
ITEM: BOX BOUNDS xy xz yz pp pp pp
-6.1308373808860779e+00 1.2203788340091705e+01 0.0000000000000000e+00
-8.4733366966247559e-03 5.5348814725875854e+00 -6.1121488809585571e+00
-2.9168844223022461e-02 1.9049128890037537e+01 0.0000000000000000e+00
ITEM: ATOMS id type xs ys zs fx fy fz
1 1 0.617019 0.00374337 0.133876 0 -0.0104618 0.00340462
2 1 0.36702 0.162925 0.133876 0 0.010437 0.00338745
3 1 0.325467 -0.000396901 0.275933 0 0.00284386 0.00558472
4 1 0.0754671 0.167065 0.275933 0 -0.00285339 0.00557709
5 1 0.0339582 -0.000100129 0.418182 0 -0.000974655 0.0092144
6 1 0.11702 0.00374309 0.133876 0 -0.0104542 0.00338554
7 1 0.0128891 0.513875 0.0630903 0 0.00486755 0.00510979
8 1 0.867021 0.162924 0.133876 0 0.0104542 0.00341606
9 1 0.762891 0.652793 0.063091 0 -0.00486183 0.00507545
10 1 0.825469 -0.000398116 0.275933 0 0.00285721 0.00557327
11 1 0.783957 0.166768 0.418183 0 0.000961304 0.00919342
12 1 0.74268 3.23967e-06 0.560917 0 -0.00257301 -0.00754929
13 1 0.492681 0.166665 0.560917 0 0.00257111 -0.00755501
14 1 0.451153 -0.000365864 0.703136 0 0.00082016 0.00239754
15 1 0.201153 0.167032 0.703136 0 -0.000833511 0.002388
16 1 0.15966 0.000281593 0.845393 0 0.00370216 -0.00269508
17 1 0.721337 0.500282 0.205059 0 0.00369263 0.00272369
18 1 0.575467 0.167064 0.275933 0 -0.00283813 0.00558281
19 1 0.471338 0.666384 0.20506 0 -0.00368118 0.00270462
20 1 0.533959 -9.95225e-05 0.418182 0 -0.000984192 0.0092144
21 1 0.429844 0.499634 0.347317 0 0.00082016 -0.00240135
22 1 0.283958 0.166768 0.418182 0 0.000967026 0.00921822
23 1 0.179844 0.667033 0.347317 0 -0.000827789 -0.00240707
24 1 0.242681 3.25434e-06 0.560917 0 -0.00256729 -0.00755692
25 1 0.138315 0.500004 0.489536 0 -0.00258827 0.00755692
26 1 0.992682 0.166664 0.560917 0 0.00257492 -0.00752831
27 1 0.888317 0.666664 0.489536 0 0.00258446 0.00753784
28 1 0.512889 0.513875 0.0630901 0 0.00486755 0.00510406
29 1 0.262889 0.652792 0.0630904 0 -0.00484467 0.00509644
30 1 0.221338 0.500282 0.20506 0 0.00370026 0.0026989
31 1 0.971338 0.666385 0.20506 0 -0.00369453 0.00270844
32 1 0.929844 0.499634 0.347317 0 0.000825882 -0.00239944
33 1 0.909658 0.166385 0.845393 0 -0.00370407 -0.00270462
34 1 0.868108 0.0138757 0.987363 0 0.00485611 -0.00512505
35 1 0.618108 0.152793 0.987363 0 -0.00486946 -0.00512314
36 1 0.951152 -0.000366462 0.703136 0 0.000825882 0.00238228
37 1 0.847037 0.4999 0.63227 0 -0.000968933 -0.0092144
38 1 0.701153 0.167032 0.703136 0 -0.000837326 0.00240517
39 1 0.597039 0.666767 0.632271 0 0.000980377 -0.00921822
40 1 0.659659 0.000281676 0.845393 0 0.00370598 -0.00270462
41 1 0.555529 0.499603 0.77452 0 0.00284004 -0.00557327
42 1 0.409659 0.166385 0.845393 0 -0.00368881 -0.0026989
43 1 0.305529 0.667064 0.77452 0 -0.00284958 -0.00558472
44 1 0.368108 0.0138752 0.987363 0 0.00485992 -0.00509262
45 1 0.263978 0.503743 0.916577 0 -0.0104523 -0.0034008
46 1 0.679843 0.667033 0.347317 0 -0.000827789 -0.00239182
47 1 0.638316 0.500004 0.489536 0 -0.00257492 0.00755882
48 1 0.388316 0.666664 0.489536 0 0.0025959 0.00755882
49 1 0.347038 0.4999 0.632271 0 -0.00097084 -0.00921822
50 1 0.0970392 0.666767 0.63227 0 0.00097084 -0.00920105
51 1 0.0555303 0.499602 0.77452 0 0.00284767 -0.00558853
52 1 0.118106 0.152793 0.987362 0 -0.00487518 -0.00507927
53 1 0.013976 0.662924 0.916577 0 0.0104675 -0.00339127
54 1 0.805529 0.667064 0.77452 0 -0.00284386 -0.00558662
55 1 0.763977 0.503743 0.916577 0 -0.0104504 -0.00338364
56 1 0.513977 0.662924 0.916577 0 0.0104542 -0.00338554
ITEM: TIMESTEP
4
ITEM: NUMBER OF ATOMS
56
ITEM: BOX BOUNDS xy xz yz pp pp pp
-6.1308373808860779e+00 1.2203788340091705e+01 0.0000000000000000e+00
-8.4733366966247559e-03 5.5348814725875854e+00 -6.1121488809585571e+00
-2.9168844223022461e-02 1.9049128890037537e+01 0.0000000000000000e+00
ITEM: ATOMS id type xs ys zs fx fy fz
1 1 0.617105 0.00333863 0.134046 0 -0.000253677 -0.000549316
2 1 0.367105 0.163328 0.134047 0 0.000261307 -0.000553131
3 1 0.325582 -0.000230144 0.276163 0 0.00281525 0.00237274
4 1 0.0755821 0.166897 0.276163 0 -0.00282288 0.00236702
5 1 0.034077 -0.000201074 0.41842 0 -0.00170708 0.00135994
6 1 0.117105 0.00333867 0.134046 0 -0.000246048 -0.000543594
7 1 0.0129288 0.514236 0.0631696 0 -0.000986099 -0.00295448
8 1 0.867106 0.163328 0.134047 0 0.000261307 -0.000553131
9 1 0.76293 0.652432 0.0631697 0 0.000976562 -0.00294304
10 1 0.825583 -0.000230637 0.276163 0 0.00281143 0.00238037
11 1 0.784076 0.166868 0.41842 0 0.0017128 0.00135231
12 1 0.742591 -0.00019969 0.56074 0 -0.00110626 0.00201607
13 1 0.492592 0.166868 0.560739 0 0.00110435 0.00203705
14 1 0.451105 -0.00037903 0.70304 0 0.00121117 -0.000375748
15 1 0.201105 0.167044 0.70304 0 -0.00118065 -0.000375748
16 1 0.15962 0.000861017 0.845312 0 -0.00457001 -0.00466347
17 1 0.721378 0.50086 0.205141 0 -0.00456238 0.00465012
18 1 0.575582 0.166898 0.276163 0 -0.00284004 0.00237083
19 1 0.471379 0.665807 0.205141 0 0.00456619 0.00465775
20 1 0.534077 -0.000201004 0.41842 0 -0.00170898 0.00134659
21 1 0.429892 0.499621 0.347413 0 0.00121117 0.000377655
22 1 0.284077 0.166868 0.41842 0 0.00171471 0.00135231
23 1 0.179892 0.667045 0.347413 0 -0.00118828 0.000379562
24 1 0.242592 -0.000199441 0.56074 0 -0.00110435 0.00202942
25 1 0.138404 0.4998 0.489713 0 -0.00111198 -0.0020237
26 1 0.992593 0.166868 0.56074 0 0.00110435 0.00201988
27 1 0.888405 0.666867 0.489713 0 0.00110245 -0.00201797
28 1 0.512928 0.514236 0.0631693 0 -0.000984192 -0.00294685
29 1 0.262929 0.652432 0.0631695 0 0.000972748 -0.00295639
30 1 0.221379 0.500861 0.205141 0 -0.00457573 0.00465584
31 1 0.971379 0.665806 0.205141 0 0.0045681 0.0046463
32 1 0.929892 0.499621 0.347413 0 0.00120926 0.000379562
33 1 0.909618 0.165806 0.845311 0 0.00457573 -0.00465393
34 1 0.868068 0.0142356 0.987283 0 -0.000980377 0.00295639
35 1 0.618068 0.152432 0.987283 0 0.000980377 0.00296021
36 1 0.951104 -0.000379145 0.70304 0 0.00120163 -0.000375748
37 1 0.846918 0.499799 0.632033 0 -0.00171852 -0.00135231
38 1 0.701105 0.167044 0.70304 0 -0.00117683 -0.000385284
39 1 0.59692 0.666869 0.632033 0 0.00169754 -0.0013485
40 1 0.659618 0.000861111 0.845312 0 -0.00457191 -0.00465393
41 1 0.555414 0.49977 0.77429 0 0.00281715 -0.00237083
42 1 0.409618 0.165807 0.845312 0 0.00455856 -0.00466156
43 1 0.305414 0.666897 0.77429 0 -0.00282288 -0.0023632
44 1 0.368069 0.0142355 0.987284 0 -0.00097084 0.00296211
45 1 0.263892 0.503339 0.916407 0 -0.000255585 0.000553131
46 1 0.679891 0.667045 0.347413 0 -0.00118637 0.000379562
47 1 0.638404 0.499801 0.489713 0 -0.00110435 -0.00201797
48 1 0.388404 0.666868 0.489713 0 0.001091 -0.00203323
49 1 0.34692 0.499799 0.632033 0 -0.00171471 -0.00135612
50 1 0.0969206 0.666868 0.632033 0 0.00170326 -0.00135994
51 1 0.0554153 0.499769 0.77429 0 0.00281715 -0.00237274
52 1 0.118066 0.152432 0.987283 0 0.000982285 0.00296593
53 1 0.0138906 0.663329 0.916406 0 0.000247955 0.00053978
54 1 0.805414 0.666897 0.77429 0 -0.0028286 -0.00237083
55 1 0.763892 0.503339 0.916407 0 -0.000257492 0.000535965
56 1 0.513892 0.663329 0.916406 0 0.000261307 0.000528336
ITEM: TIMESTEP
5
ITEM: NUMBER OF ATOMS
56
ITEM: BOX BOUNDS xy xz yz pp pp pp
-6.1308373808860779e+00 1.2203788340091705e+01 0.0000000000000000e+00
-8.4733366966247559e-03 5.5348814725875854e+00 -6.1121488809585571e+00
-2.9168844223022461e-02 1.9049128890037537e+01 0.0000000000000000e+00
ITEM: ATOMS id type xs ys zs fx fy fz
1 1 0.617116 0.00323262 0.13407 0 5.72205e-06 0.000968933
2 1 0.367117 0.163435 0.13407 0 -3.8147e-06 0.000976562
3 1 0.325634 2.86834e-05 0.276266 0 -0.000667572 0.00050354
4 1 0.0756337 0.166638 0.276266 0 0.000675201 0.000509262
5 1 0.0341178 -0.000357983 0.418501 0 -6.48499e-05 -0.000143051
6 1 0.117117 0.00323334 0.13407 0 -1.90735e-06 0.000972748
7 1 0.0129031 0.514235 0.0631183 0 -0.00018692 0.00168037
8 1 0.867118 0.163435 0.13407 0 -1.90735e-05 0.000963211
9 1 0.762905 0.652433 0.0631186 0 0.00019455 0.00168228
10 1 0.825635 2.8041e-05 0.276266 0 -0.000663757 0.000501633
11 1 0.784117 0.167025 0.418501 0 6.48499e-05 -0.000135422
12 1 0.742596 -0.000330547 0.560749 0 -0.000558853 0.00170517
13 1 0.492597 0.166998 0.560749 0 0.000545502 0.00169373
14 1 0.451091 -0.000285692 0.703011 0 4.19617e-05 -0.00153351
15 1 0.201091 0.166953 0.703011 0 -5.53131e-05 -0.00154686
16 1 0.159557 0.00062122 0.845187 0 -0.000909805 0.00063324
17 1 0.72144 0.500621 0.205266 0 -0.000898361 -0.000617981
18 1 0.575634 0.166637 0.276266 0 0.000677109 0.000509262
19 1 0.471441 0.666046 0.205266 0 0.000898361 -0.000619888
20 1 0.534118 -0.000358178 0.418501 0 -6.29425e-05 -0.000135422
21 1 0.429906 0.499714 0.347442 0 4.3869e-05 0.00153732
22 1 0.284118 0.167025 0.418501 0 6.48499e-05 -0.000137329
23 1 0.179906 0.666953 0.347442 0 -5.53131e-05 0.00153542
24 1 0.242596 -0.000330098 0.560749 0 -0.000562668 0.00170708
25 1 0.1384 0.499668 0.489704 0 -0.000534058 -0.00170898
26 1 0.992598 0.166998 0.560749 0 0.000543594 0.00169945
27 1 0.888401 0.666998 0.489704 0 0.000555038 -0.00169945
28 1 0.512903 0.514234 0.0631182 0 -0.000196457 0.00167465
29 1 0.262903 0.652433 0.0631181 0 0.000202179 0.00168991
30 1 0.221441 0.500621 0.205266 0 -0.000902176 -0.000614166
31 1 0.971441 0.666046 0.205266 0 0.000905991 -0.000616074
32 1 0.929907 0.499714 0.347442 0 4.76837e-05 0.00154305
33 1 0.909555 0.166046 0.845187 0 0.000894547 0.000619888
34 1 0.868094 0.0142342 0.987334 0 -0.000196457 -0.00167847
35 1 0.618094 0.152433 0.987335 0 0.000205994 -0.00168419
36 1 0.95109 -0.000286461 0.703011 0 4.76837e-05 -0.00154305
37 1 0.846877 0.499641 0.631952 0 -5.91278e-05 0.000133514
38 1 0.701091 0.166953 0.703011 0 -5.34058e-05 -0.00153542
39 1 0.596879 0.667025 0.631952 0 6.86646e-05 0.000137329
40 1 0.659556 0.000621165 0.845187 0 -0.000902176 0.000619888
41 1 0.555363 0.500029 0.774187 0 -0.000665665 -0.000509262
42 1 0.409556 0.166046 0.845187 0 0.000904083 0.000619888
43 1 0.305363 0.666638 0.774187 0 0.000673294 -0.000511169
44 1 0.368094 0.0142348 0.987335 0 -0.000205994 -0.00170135
45 1 0.26388 0.503233 0.916383 0 5.72205e-06 -0.000972748
46 1 0.679906 0.666953 0.347442 0 -5.34058e-05 0.00154686
47 1 0.6384 0.49967 0.489704 0 -0.000551224 -0.00172043
48 1 0.3884 0.666998 0.489704 0 0.000551224 -0.00169945
49 1 0.346879 0.499642 0.631951 0 -5.72205e-05 0.000143051
50 1 0.0968798 0.667025 0.631952 0 7.05719e-05 0.000144958
51 1 0.0553636 0.500028 0.774186 0 -0.000659943 -0.00050354
52 1 0.118092 0.152433 0.987335 0 0.000196457 -0.00170517
53 1 0.0138788 0.663434 0.916382 0 -1.14441e-05 -0.000959396
54 1 0.805362 0.666637 0.774186 0 0.000673294 -0.000505447
55 1 0.76388 0.503233 0.916383 0 1.14441e-05 -0.000963211
56 1 0.51388 0.663435 0.916382 0 -9.53674e-06 -0.000951767
ITEM: TIMESTEP
6
ITEM: NUMBER OF ATOMS
56
ITEM: BOX BOUNDS xy xz yz pp pp pp
-6.1308373808860779e+00 1.2203788340091705e+01 0.0000000000000000e+00
-8.4733366966247559e-03 5.5348814725875854e+00 -6.1121488809585571e+00
-2.9168844223022461e-02 1.9049128890037537e+01 0.0000000000000000e+00
ITEM: ATOMS id type xs ys zs fx fy fz
1 1 0.617127 0.00322041 0.134091 0 0.000110626 -1.90735e-06
2 1 0.367128 0.163447 0.134091 0 -0.000108719 -1.33514e-05
3 1 0.325645 1.67709e-05 0.276288 0 -0.0008564 0.00025177
4 1 0.0756446 0.16665 0.276288 0 0.000860214 0.000249863
5 1 0.0341213 -0.000380745 0.418508 0 0.000265121 0.000387192
6 1 0.117127 0.00322072 0.134091 0 0.000108719 -5.72205e-06
7 1 0.0129157 0.514222 0.0631434 0 -0.000249863 0.000173569
8 1 0.867128 0.163446 0.134091 0 -0.000102997 -1.90735e-06
9 1 0.762917 0.652446 0.0631437 0 0.000246048 0.000177383
10 1 0.825646 1.63543e-05 0.276288 0 -0.000858307 0.000244141
11 1 0.78412 0.167048 0.418508 0 -0.000255585 0.00038147
12 1 0.742612 -0.000381763 0.560781 0 -0.000329971 -0.000349045
13 1 0.492613 0.167049 0.560781 0 0.000341415 -0.00034523
14 1 0.451075 -0.000271936 0.702979 0 -0.000322342 0.000143051
15 1 0.201075 0.166938 0.702979 0 0.000318527 0.000160217
16 1 0.159556 0.000534665 0.845184 0 0.000156403 -0.000337601
17 1 0.721442 0.500535 0.205269 0 0.000146866 0.000333786
18 1 0.575645 0.16665 0.276288 0 0.000867844 0.000240326
19 1 0.471443 0.666132 0.205269 0 -0.000162125 0.000329971
20 1 0.534122 -0.00038085 0.418508 0 0.000263214 0.000389099
21 1 0.429922 0.499728 0.347474 0 -0.000326157 -0.000148773
22 1 0.284121 0.167048 0.418508 0 -0.000257492 0.000392914
23 1 0.179922 0.666939 0.347474 0 0.000322342 -0.000150681
24 1 0.242613 -0.000381533 0.560782 0 -0.000333786 -0.000347137
25 1 0.138383 0.499619 0.489671 0 -0.000341415 0.000350952
26 1 0.992614 0.167049 0.560782 0 0.000339508 -0.00034523
27 1 0.888385 0.667049 0.489672 0 0.000333786 0.000350952
28 1 0.512915 0.514222 0.0631432 0 -0.000246048 0.000183105
29 1 0.262916 0.652446 0.0631433 0 0.000249863 0.000179291
30 1 0.221443 0.500535 0.205269 0 0.000150681 0.000328064
31 1 0.971443 0.666132 0.205269 0 -0.000154495 0.000328064
32 1 0.929923 0.499728 0.347474 0 -0.000326157 -0.000160217
33 1 0.909554 0.166132 0.845184 0 -0.000146866 -0.000331879
34 1 0.868081 0.0142214 0.987309 0 -0.000242233 -0.000179291
35 1 0.618081 0.152446 0.98731 0 0.000242233 -0.000181198
36 1 0.951074 -0.000272417 0.702979 0 -0.000328064 0.000165939
37 1 0.846874 0.499619 0.631944 0 0.000267029 -0.000392914
38 1 0.701075 0.166939 0.702979 0 0.000312805 0.000150681
39 1 0.596875 0.667048 0.631944 0 -0.000261307 -0.000394821
40 1 0.659554 0.00053508 0.845184 0 0.000160217 -0.000324249
41 1 0.555352 0.500017 0.774165 0 -0.000858307 -0.000246048
42 1 0.409554 0.166132 0.845184 0 -0.000146866 -0.000329971
43 1 0.305352 0.66665 0.774165 0 0.000860214 -0.000253677
44 1 0.368082 0.0142216 0.98731 0 -0.000246048 -0.000165939
45 1 0.26387 0.50322 0.916362 0 0.000104904 1.90735e-06
46 1 0.679922 0.666939 0.347474 0 0.000318527 -0.000160217
47 1 0.638383 0.499619 0.489671 0 -0.00034523 0.000356674
48 1 0.388383 0.667049 0.489671 0 0.000343323 0.000339508
49 1 0.346875 0.49962 0.631944 0 0.000247955 -0.00038147
50 1 0.0968763 0.667048 0.631945 0 -0.000261307 -0.000385284
51 1 0.0553527 0.500017 0.774165 0 -0.000858307 -0.000255585
52 1 0.118079 0.152446 0.987309 0 0.000244141 -0.000175476
53 1 0.0138684 0.663446 0.916362 0 -0.000110626 9.53674e-06
54 1 0.805351 0.666649 0.774165 0 0.0008564 -0.000246048
55 1 0.763869 0.503221 0.916362 0 0.000106812 1.90735e-06
56 1 0.513869 0.663447 0.916362 0 -0.000108719 9.53674e-06
ITEM: TIMESTEP
7
ITEM: NUMBER OF ATOMS
56
ITEM: BOX BOUNDS xy xz yz pp pp pp
-6.1308373808860779e+00 1.2203788340091705e+01 0.0000000000000000e+00
-8.4733366966247559e-03 5.5348814725875854e+00 -6.1121488809585571e+00
-2.9168844223022461e-02 1.9049128890037537e+01 0.0000000000000000e+00
ITEM: ATOMS id type xs ys zs fx fy fz
1 1 0.617129 0.00322745 0.134095 0 2.09808e-05 -6.86646e-05
2 1 0.36713 0.16344 0.134095 0 -2.28882e-05 -5.72205e-05
3 1 0.32565 -5.83853e-05 0.276298 0 4.19617e-05 5.91278e-05
4 1 0.0756498 0.166726 0.276298 0 -4.76837e-05 5.53131e-05
5 1 0.0341268 -0.00036261 0.418519 0 -0.000226974 2.47955e-05
6 1 0.117129 0.00322751 0.134095 0 1.90735e-05 -5.91278e-05
7 1 0.0129202 0.514199 0.0631525 0 7.62939e-06 -0.000127792
8 1 0.86713 0.16344 0.134095 0 -1.90735e-05 -6.67572e-05
9 1 0.762922 0.652469 0.063153 0 -1.14441e-05 -0.000139236
10 1 0.825651 -5.89203e-05 0.276298 0 5.72205e-05 6.67572e-05
11 1 0.784126 0.167031 0.418519 0 0.00021553 2.86102e-05
12 1 0.742611 -0.000419767 0.560779 0 7.62939e-05 -9.53674e-05
13 1 0.492612 0.167087 0.560779 0 -8.39233e-05 -9.72748e-05
14 1 0.451073 -0.000296685 0.702977 0 -0.000225067 -0.000102997
15 1 0.201074 0.166963 0.702977 0 0.000228882 -0.000116348
16 1 0.159551 0.000531176 0.845175 0 -5.53131e-05 -0.000156403
17 1 0.721446 0.500531 0.205278 0 -5.14984e-05 0.000150681
18 1 0.57565 0.166726 0.276298 0 -6.29425e-05 4.95911e-05
19 1 0.471447 0.666135 0.205278 0 6.48499e-05 0.000150681
20 1 0.534127 -0.00036286 0.418519 0 -0.000225067 2.67029e-05
21 1 0.429923 0.499703 0.347476 0 -0.00021553 0.000110626
22 1 0.284127 0.167031 0.418519 0 0.00021553 2.28882e-05
23 1 0.179923 0.666964 0.347476 0 0.000230789 0.000116348
24 1 0.242612 -0.000419904 0.560779 0 6.86646e-05 -0.000101089
25 1 0.138384 0.49958 0.489674 0 8.2016e-05 9.72748e-05
26 1 0.992613 0.167087 0.560779 0 -7.82013e-05 -9.53674e-05
27 1 0.888386 0.667087 0.489674 0 -7.62939e-05 8.96454e-05
28 1 0.51292 0.514198 0.0631525 0 5.72205e-06 -0.000143051
29 1 0.26292 0.65247 0.0631527 0 -1.90735e-05 -0.000139236
30 1 0.221447 0.500531 0.205278 0 -5.14984e-05 0.000160217
31 1 0.971447 0.666136 0.205278 0 5.34058e-05 0.00015831
32 1 0.929924 0.499703 0.347476 0 -0.000230789 0.000123978
33 1 0.909549 0.166136 0.845175 0 5.14984e-05 -0.000154495
34 1 0.868077 0.0141984 0.9873 0 1.33514e-05 0.000143051
35 1 0.618077 0.15247 0.9873 0 -1.14441e-05 0.000150681
36 1 0.951072 -0.000297598 0.702977 0 -0.000217438 -0.000120163
37 1 0.846868 0.499637 0.631933 0 -0.000226974 -2.86102e-05
38 1 0.701074 0.166963 0.702977 0 0.000228882 -0.000110626
39 1 0.59687 0.66703 0.631933 0 0.000219345 -2.67029e-05
40 1 0.65955 0.000532006 0.845175 0 -6.29425e-05 -0.000169754
41 1 0.555347 0.499942 0.774155 0 4.95911e-05 -5.72205e-05
42 1 0.40955 0.166136 0.845175 0 5.53131e-05 -0.000148773
43 1 0.305346 0.666725 0.774154 0 -5.72205e-05 -5.53131e-05
44 1 0.368077 0.0141981 0.987301 0 1.14441e-05 0.000131607
45 1 0.263868 0.503227 0.916358 0 1.90735e-05 6.86646e-05
46 1 0.679923 0.666963 0.347476 0 0.000232697 0.000114441
47 1 0.638385 0.49958 0.489674 0 9.15527e-05 8.96454e-05
48 1 0.388385 0.667088 0.489673 0 -7.43866e-05 0.000108719
49 1 0.34687 0.499636 0.631934 0 -0.000211716 -4.19617e-05
50 1 0.0968708 0.66703 0.631934 0 0.000221252 -2.47955e-05
51 1 0.0553475 0.499942 0.774154 0 4.57764e-05 -5.14984e-05
52 1 0.118075 0.152469 0.9873 0 -9.53674e-06 0.000141144
53 1 0.0138666 0.663439 0.916358 0 -7.62939e-06 5.72205e-05
54 1 0.805346 0.666725 0.774155 0 -4.76837e-05 -6.10352e-05
55 1 0.763867 0.503227 0.916358 0 2.28882e-05 6.48499e-05
56 1 0.513867 0.66344 0.916358 0 -2.09808e-05 5.53131e-05
ITEM: TIMESTEP
8
ITEM: NUMBER OF ATOMS
56
ITEM: BOX BOUNDS xy xz yz pp pp pp
-6.1308373808860779e+00 1.2203788340091705e+01 0.0000000000000000e+00
-8.4733366966247559e-03 5.5348814725875854e+00 -6.1121488809585571e+00
-2.9168844223022461e-02 1.9049128890037537e+01 0.0000000000000000e+00
ITEM: ATOMS id type xs ys zs fx fy fz
1 1 0.617129 0.00322745 0.134095 0 2.09808e-05 -6.86646e-05
2 1 0.36713 0.16344 0.134095 0 -2.28882e-05 -5.72205e-05
3 1 0.32565 -5.83853e-05 0.276298 0 4.19617e-05 5.91278e-05
4 1 0.0756498 0.166726 0.276298 0 -4.76837e-05 5.53131e-05
5 1 0.0341268 -0.00036261 0.418519 0 -0.000226974 2.47955e-05
6 1 0.117129 0.00322751 0.134095 0 1.90735e-05 -5.91278e-05
7 1 0.0129202 0.514199 0.0631525 0 7.62939e-06 -0.000127792
8 1 0.86713 0.16344 0.134095 0 -1.90735e-05 -6.67572e-05
9 1 0.762922 0.652469 0.063153 0 -1.14441e-05 -0.000139236
10 1 0.825651 -5.89203e-05 0.276298 0 5.72205e-05 6.67572e-05
11 1 0.784126 0.167031 0.418519 0 0.00021553 2.86102e-05
12 1 0.742611 -0.000419767 0.560779 0 7.62939e-05 -9.53674e-05
13 1 0.492612 0.167087 0.560779 0 -8.39233e-05 -9.72748e-05
14 1 0.451073 -0.000296685 0.702977 0 -0.000225067 -0.000102997
15 1 0.201074 0.166963 0.702977 0 0.000228882 -0.000116348
16 1 0.159551 0.000531176 0.845175 0 -5.53131e-05 -0.000156403
17 1 0.721446 0.500531 0.205278 0 -5.14984e-05 0.000150681
18 1 0.57565 0.166726 0.276298 0 -6.29425e-05 4.95911e-05