ITEM: TIMESTEP
0
ITEM: NUMBER OF ATOMS
48
ITEM: BOX BOUNDS xy xz yz pp pp pp
-4.1069229841232300e+00 8.6109705567359924e+00 2.5110912919044495e+00
-1.0506033897399902e-02 9.6185076832771301e+00 -4.0923661589622498e+00
-2.6944518089294434e-02 1.9544072151184082e+01 3.6519104242324829e-01
ITEM: ATOMS id type xs ys zs fx fy fz
6 1 0.0863702 0.040578 0.906998 0 0 -0.0337677
9 1 0.0251574 0.0336318 0.677832 0 0 -0.0033747
20 1 0.0863703 0.373911 0.906998 0 0 -0.0337672
24 1 0.0251574 0.366965 0.677832 0 0 -0.00337446
26 1 0.106809 0.325298 0.302832 0 0 3.05176e-05
36 1 0.0863703 0.707245 0.906998 0 0 -0.0337672
40 1 0.0251574 0.700298 0.677832 0 0 -0.00337386
42 1 0.106809 0.658632 0.302832 0 0 3.08752e-05
48 1 0.106809 0.991965 0.302832 0 0 3.09944e-05
1 1 0.943558 0.165578 0.0319985 0 0 1.25484
2 1 0.494577 0.0752984 0.0528317 0 0 0.0337669
3 1 0.474138 0.123911 0.656998 0 0 -3.03984e-05
4 1 0.637389 0.950298 0.927832 0 0 -1.25484
5 1 0.331273 0.158632 0.802832 0 0 0.00258934
7 1 0.780254 0.248911 0.781998 0 0 -0.000911117
8 1 0.861906 0.207245 0.406998 0 0 0.00128865
10 1 0.719041 0.241965 0.552832 0 0 -0.00128829
11 1 0.800693 0.200298 0.177832 0 0 0.000911355
12 1 0.55579 0.0822446 0.281998 0 0 0.00337481
13 1 0.249674 0.290578 0.156998 0 0 -0.0025897
14 1 0.412925 0.116965 0.427832 0 0 9.799e-05
15 1 0.943558 0.498911 0.0319984 0 0 1.25484
16 1 0.494577 0.408632 0.0528317 0 0 0.0337669
17 1 0.474138 0.457245 0.656998 0 0 -3.09944e-05
18 1 0.637389 0.283632 0.927832 0 0 -1.25484
19 1 0.331273 0.491965 0.802832 0 0 0.00258934
21 1 0.780254 0.582245 0.781998 0 0 -0.000911713
22 1 0.168022 0.332245 0.531998 0 0 -9.70364e-05
23 1 0.861906 0.540578 0.406998 0 0 0.00128865
25 1 0.719041 0.575298 0.552832 0 0 -0.00128877
27 1 0.800693 0.533632 0.177832 0 0 0.000910997
28 1 0.55579 0.415578 0.281998 0 0 0.0033747
29 1 0.249674 0.623911 0.156998 0 0 -0.00258994
30 1 0.412925 0.450298 0.427832 0 0 9.7394e-05
31 1 0.943558 0.832245 0.0319985 0 0 1.25484
32 1 0.494577 0.741965 0.0528317 0 0 0.0337671
33 1 0.474138 0.790578 0.656998 0 0 -3.08752e-05
34 1 0.637389 0.616965 0.927832 0 0 -1.25484
35 1 0.331273 0.825298 0.802832 0 0 0.00258982
37 1 0.780254 0.915578 0.781998 0 0 -0.000911832
38 1 0.168022 0.665578 0.531998 0 0 -9.82285e-05
39 1 0.861906 0.873911 0.406998 0 0 0.00128889
41 1 0.719041 0.908632 0.552832 0 0 -0.00128961
43 1 0.800693 0.866965 0.177832 0 0 0.000911236
44 1 0.55579 0.748911 0.281998 0 0 0.0033747
45 1 0.249674 0.957245 0.156998 0 0 -0.0025897
46 1 0.412925 0.783632 0.427832 0 0 9.799e-05
47 1 0.168022 0.998911 0.531998 0 0 -9.77516e-05
ITEM: TIMESTEP
1
ITEM: NUMBER OF ATOMS
48
ITEM: BOX BOUNDS xy xz yz pp pp pp
-4.1069229841232300e+00 8.6109705567359924e+00 2.5110912919044495e+00
-1.0506033897399902e-02 9.6185076832771301e+00 -4.0923661589622498e+00
-2.6944518089294434e-02 1.9544072151184082e+01 3.6519104242324829e-01
ITEM: ATOMS id type xs ys zs fx fy fz
6 1 0.086276 0.0405834 0.906861 0 0 0.07604
9 1 0.0251479 0.0336323 0.677818 0 0 -0.00878239
20 1 0.086276 0.373917 0.906861 0 0 0.0760401
24 1 0.0251479 0.366966 0.677818 0 0 -0.00878203
26 1 0.106809 0.325298 0.302832 0 0 0.00584269
36 1 0.086276 0.70725 0.906861 0 0 0.0760403
40 1 0.0251479 0.700299 0.677818 0 0 -0.00878191
42 1 0.106809 0.658632 0.302832 0 0 0.00584269
48 1 0.106809 0.991965 0.302832 0 0 0.0058428
1 1 0.94706 0.165377 0.037108 0 0 0.513096
2 1 0.494671 0.075293 0.0529692 0 0 -0.0760403
3 1 0.474138 0.123911 0.656998 0 0 -0.00584292
4 1 0.633887 0.9505 0.922722 0 0 -0.513095
5 1 0.331281 0.158631 0.802842 0 0 -0.0789725
7 1 0.780252 0.248911 0.781995 0 0 -0.0573276
8 1 0.861909 0.207244 0.407004 0 0 -0.000200033
10 1 0.719038 0.241965 0.552826 0 0 0.000200033
11 1 0.800696 0.200298 0.177835 0 0 0.0573274
12 1 0.555799 0.0822441 0.282012 0 0 0.00878215
13 1 0.249666 0.290578 0.156988 0 0 0.0789722
14 1 0.412925 0.116965 0.427832 0 0 -0.00089407
15 1 0.94706 0.49871 0.037108 0 0 0.513096
16 1 0.494671 0.408626 0.0529692 0 0 -0.0760404
17 1 0.474138 0.457245 0.656998 0 0 -0.0058428
18 1 0.633887 0.283833 0.922722 0 0 -0.513095
19 1 0.331281 0.491965 0.802842 0 0 -0.0789723
21 1 0.780252 0.582245 0.781995 0 0 -0.0573277
22 1 0.168022 0.332245 0.531998 0 0 0.000894666
23 1 0.861909 0.540578 0.407004 0 0 -0.000200033
25 1 0.719038 0.575299 0.552826 0 0 0.000199795
27 1 0.800696 0.533632 0.177835 0 0 0.0573269
28 1 0.555799 0.415577 0.282012 0 0 0.00878203
29 1 0.249666 0.623912 0.156988 0 0 0.0789725
30 1 0.412925 0.450298 0.427832 0 0 -0.000894189
31 1 0.94706 0.832043 0.037108 0 0 0.513095
32 1 0.494671 0.74196 0.0529692 0 0 -0.0760401
33 1 0.474138 0.790578 0.656998 0 0 -0.0058428
34 1 0.633887 0.617167 0.922722 0 0 -0.513096
35 1 0.331281 0.825298 0.802842 0 0 -0.0789722
37 1 0.780252 0.915578 0.781995 0 0 -0.0573274
38 1 0.168022 0.665578 0.531998 0 0 0.000894427
39 1 0.861909 0.873911 0.407004 0 0 -0.000199199
41 1 0.719038 0.908632 0.552826 0 0 0.000199318
43 1 0.800696 0.866965 0.177835 0 0 0.0573274
44 1 0.555799 0.748911 0.282012 0 0 0.00878251
45 1 0.249666 0.957245 0.156988 0 0 0.0789723
46 1 0.412926 0.783632 0.427832 0 0 -0.00089407
47 1 0.168022 0.998911 0.531998 0 0 0.00089395
ITEM: TIMESTEP
2
ITEM: NUMBER OF ATOMS
48
ITEM: BOX BOUNDS xy xz yz pp pp pp
-4.1069229841232300e+00 8.6109705567359924e+00 2.5110912919044495e+00
-1.0506033897399902e-02 9.6185076832771301e+00 -4.0923661589622498e+00
-2.6944518089294434e-02 1.9544072151184082e+01 3.6519104242324829e-01
ITEM: ATOMS id type xs ys zs fx fy fz
6 1 0.0867913 0.0405538 0.907613 0 0 0.110178
9 1 0.0250884 0.0336357 0.677731 0 0 -0.0230845
20 1 0.0867913 0.373887 0.907613 0 0 0.110178
24 1 0.0250884 0.366969 0.677731 0 0 -0.0230843
26 1 0.106849 0.325296 0.30289 0 0 0.0181545
36 1 0.0867913 0.70722 0.907613 0 0 0.110178
40 1 0.0250884 0.700302 0.677731 0 0 -0.0230839
42 1 0.106849 0.658629 0.30289 0 0 0.0181546
48 1 0.106849 0.991963 0.30289 0 0 0.0181545
1 1 0.950537 0.165177 0.0421807 0 0 -0.0477327
2 1 0.494156 0.0753226 0.0522175 0 0 -0.110178
3 1 0.474098 0.123914 0.656941 0 0 -0.0181544
4 1 0.63041 0.9507 0.917649 0 0 0.0477328
5 1 0.330745 0.158662 0.802062 0 0 -0.129976
7 1 0.779863 0.248934 0.781428 0 0 -0.0931447
8 1 0.861908 0.207244 0.407002 0 0 0.00175238
10 1 0.719039 0.241965 0.552828 0 0 -0.00175238
11 1 0.801084 0.200276 0.178402 0 0 0.0931449
12 1 0.555859 0.0822406 0.282099 0 0 0.0230846
13 1 0.250202 0.290548 0.157769 0 0 0.129976
14 1 0.412919 0.116965 0.427823 0 0 0.00205374
15 1 0.950538 0.49851 0.0421807 0 0 -0.0477328
16 1 0.494156 0.408656 0.0522175 0 0 -0.110177
17 1 0.474098 0.457247 0.656941 0 0 -0.0181547
18 1 0.63041 0.284033 0.917649 0 0 0.0477326
19 1 0.330745 0.491995 0.802062 0 0 -0.129976
21 1 0.779863 0.582267 0.781428 0 0 -0.0931451
22 1 0.168028 0.332244 0.532007 0 0 -0.00205338
23 1 0.861908 0.540578 0.407002 0 0 0.00175214
25 1 0.719039 0.575299 0.552828 0 0 -0.00175214
27 1 0.801084 0.533609 0.178402 0 0 0.0931444
28 1 0.555859 0.415574 0.282099 0 0 0.0230845
29 1 0.250202 0.623881 0.157769 0 0 0.129975
30 1 0.412919 0.450299 0.427823 0 0 0.00205326
31 1 0.950537 0.831843 0.0421807 0 0 -0.0477324
32 1 0.494156 0.741989 0.0522175 0 0 -0.110177
33 1 0.474098 0.79058 0.656941 0 0 -0.0181544
34 1 0.63041 0.617366 0.917649 0 0 0.0477328
35 1 0.330745 0.825329 0.802062 0 0 -0.129976
37 1 0.779863 0.9156 0.781428 0 0 -0.0931453
38 1 0.168028 0.665578 0.532007 0 0 -0.00205314
39 1 0.861908 0.873911 0.407002 0 0 0.00175202
41 1 0.719039 0.908632 0.552828 0 0 -0.00175261
43 1 0.801084 0.866943 0.178402 0 0 0.0931447
44 1 0.555859 0.748907 0.282099 0 0 0.0230848
45 1 0.250202 0.957214 0.157769 0 0 0.129976
46 1 0.412919 0.783632 0.427823 0 0 0.00205338
47 1 0.168028 0.998911 0.532007 0 0 -0.00205362
ITEM: TIMESTEP
3
ITEM: NUMBER OF ATOMS
48
ITEM: BOX BOUNDS xy xz yz pp pp pp
-4.1069229841232300e+00 8.6109705567359924e+00 2.5110912919044495e+00
-1.0506033897399902e-02 9.6185076832771301e+00 -4.0923661589622498e+00
-2.6944518089294434e-02 1.9544072151184082e+01 3.6519104242324829e-01
ITEM: ATOMS id type xs ys zs fx fy fz
6 1 0.0882632 0.0404691 0.90976 0 0 -0.0136853
9 1 0.0247928 0.0336527 0.6773 0 0 -0.0524652
20 1 0.0882632 0.373802 0.90976 0 0 -0.0136853
24 1 0.0247928 0.366986 0.6773 0 0 -0.052465
26 1 0.107079 0.325283 0.303226 0 0 0.0510569
36 1 0.0882632 0.707136 0.90976 0 0 -0.0136852
40 1 0.0247928 0.700319 0.6773 0 0 -0.0524656
42 1 0.107079 0.658616 0.303226 0 0 0.0510564
48 1 0.107079 0.99195 0.303226 0 0 0.0510567
1 1 0.950875 0.165157 0.0426736 0 0 0.0143988
2 1 0.492684 0.0754073 0.0500703 0 0 0.0136852
3 1 0.473868 0.123927 0.656604 0 0 -0.051057
4 1 0.630072 0.950719 0.917157 0 0 -0.0143989
5 1 0.329028 0.158761 0.799556 0 0 0.00825727
7 1 0.778631 0.249005 0.779631 0 0 0.0123448
8 1 0.861929 0.207243 0.407032 0 0 0.0117166
10 1 0.719018 0.241966 0.552798 0 0 -0.0117166
11 1 0.802316 0.200205 0.180199 0 0 -0.0123448
12 1 0.556154 0.0822236 0.28253 0 0 0.0524651
13 1 0.251919 0.290449 0.160274 0 0 -0.00825727
14 1 0.412943 0.116964 0.427857 0 0 0.0134866
15 1 0.950875 0.49849 0.0426736 0 0 0.0143988
16 1 0.492684 0.408741 0.0500703 0 0 0.013685
17 1 0.473868 0.45726 0.656604 0 0 -0.0510564
18 1 0.630072 0.284053 0.917157 0 0 -0.0143983
19 1 0.329028 0.492094 0.799556 0 0 0.00825703
21 1 0.778631 0.582338 0.779631 0 0 0.0123451
22 1 0.168004 0.332246 0.531973 0 0 -0.0134872
23 1 0.861929 0.540577 0.407032 0 0 0.0117168
25 1 0.719018 0.5753 0.552798 0 0 -0.0117168
27 1 0.802316 0.533538 0.180199 0 0 -0.0123442
28 1 0.556154 0.415557 0.28253 0 0 0.052465
29 1 0.251919 0.623782 0.160274 0 0 -0.00825691
30 1 0.412943 0.450297 0.427857 0 0 0.0134872
31 1 0.950875 0.831824 0.0426736 0 0 0.0143989
32 1 0.492684 0.742074 0.0500703 0 0 0.0136847
33 1 0.473868 0.790594 0.656604 0 0 -0.0510571
34 1 0.630072 0.617386 0.917157 0 0 -0.0143988
35 1 0.329028 0.825428 0.799556 0 0 0.00825703
37 1 0.778631 0.915671 0.779631 0 0 0.0123452
38 1 0.168004 0.665579 0.531973 0 0 -0.0134875
39 1 0.861929 0.87391 0.407032 0 0 0.011717
41 1 0.719018 0.908633 0.552798 0 0 -0.0117165
43 1 0.802316 0.866872 0.180199 0 0 -0.0123445
44 1 0.556154 0.74889 0.28253 0 0 0.0524646
45 1 0.251919 0.957115 0.160274 0 0 -0.00825691
46 1 0.412943 0.783631 0.427857 0 0 0.0134871
47 1 0.168004 0.998912 0.531973 0 0 -0.0134865
ITEM: TIMESTEP
4
ITEM: NUMBER OF ATOMS
48
ITEM: BOX BOUNDS xy xz yz pp pp pp
-4.1069229841232300e+00 8.6109705567359924e+00 2.5110912919044495e+00
-1.0506033897399902e-02 9.6185076832771301e+00 -4.0923661589622498e+00
-2.6944518089294434e-02 1.9544072151184082e+01 3.6519104242324829e-01
ITEM: ATOMS id type xs ys zs fx fy fz
6 1 0.0884571 0.040458 0.910043 0 0 -0.0258796
9 1 0.0238345 0.0337078 0.675902 0 0 0.00257134
20 1 0.0884571 0.373791 0.910043 0 0 -0.0258796
24 1 0.0238345 0.367041 0.675902 0 0 0.00257087
26 1 0.107996 0.32523 0.304563 0 0 -0.000264049
36 1 0.0884571 0.707125 0.910043 0 0 -0.0258796
40 1 0.0238345 0.700375 0.675902 0 0 0.00257123
42 1 0.107996 0.658563 0.304563 0 0 -0.000263453
48 1 0.107996 0.991897 0.304563 0 0 -0.00026381
1 1 0.951212 0.165138 0.0431646 0 0 -0.0171255
2 1 0.49249 0.0754184 0.0497874 0 0 0.0258795
3 1 0.472951 0.12398 0.655268 0 0 0.000264287
4 1 0.629735 0.950739 0.916666 0 0 0.0171264
5 1 0.328674 0.158781 0.799039 0 0 -0.00597286
7 1 0.778484 0.249013 0.779416 0 0 -0.0138985
8 1 0.86213 0.207232 0.407326 0 0 0.0187826
10 1 0.718817 0.241978 0.552505 0 0 -0.0187829
11 1 0.802463 0.200197 0.180414 0 0 0.0138987
12 1 0.557113 0.0821685 0.283928 0 0 -0.00257146
13 1 0.252273 0.290428 0.160791 0 0 0.00597286
14 1 0.413174 0.116951 0.428195 0 0 0.0207949
15 1 0.951212 0.498471 0.0431646 0 0 -0.0171256
16 1 0.49249 0.408752 0.0497874 0 0 0.0258796
17 1 0.472951 0.457313 0.655268 0 0 0.00026381
18 1 0.629735 0.284072 0.916666 0 0 0.017125
19 1 0.328674 0.492115 0.799039 0 0 -0.0059725
21 1 0.778484 0.582346 0.779416 0 0 -0.0138987
22 1 0.167773 0.332259 0.531636 0 0 -0.0207942
23 1 0.86213 0.540565 0.407326 0 0 0.0187825
25 1 0.718817 0.575311 0.552505 0 0 -0.0187826
27 1 0.802463 0.53353 0.180414 0 0 0.0138983
28 1 0.557113 0.415502 0.283928 0 0 -0.00257123
29 1 0.252273 0.623762 0.160791 0 0 0.00597274
30 1 0.413174 0.450284 0.428195 0 0 0.0207944
31 1 0.951212 0.831804 0.0431646 0 0 -0.0171262
32 1 0.49249 0.742085 0.0497874 0 0 0.0258797
33 1 0.472951 0.790646 0.655268 0 0 0.000264168
34 1 0.629735 0.617405 0.916666 0 0 0.0171257
35 1 0.328674 0.825448 0.799039 0 0 -0.00597274
37 1 0.778484 0.91568 0.779416 0 0 -0.0138991
38 1 0.167773 0.665592 0.531636 0 0 -0.0207942
39 1 0.86213 0.873898 0.407326 0 0 0.0187826
41 1 0.718817 0.908645 0.552505 0 0 -0.018783
43 1 0.802463 0.866863 0.180414 0 0 0.0138983
44 1 0.557113 0.748835 0.283928 0 0 -0.00257063
45 1 0.252273 0.957095 0.160791 0 0 0.00597286
46 1 0.413174 0.783617 0.428195 0 0 0.0207945
47 1 0.167773 0.998926 0.531636 0 0 -0.020795
ITEM: TIMESTEP
5
ITEM: NUMBER OF ATOMS
48
ITEM: BOX BOUNDS xy xz yz pp pp pp
-4.1069229841232300e+00 8.6109705567359924e+00 2.5110912919044495e+00
-1.0506033897399902e-02 9.6185076832771301e+00 -4.0923661589622498e+00
-2.6944518089294434e-02 1.9544072151184082e+01 3.6519104242324829e-01
ITEM: ATOMS id type xs ys zs fx fy fz
6 1 0.0881469 0.0404758 0.90959 0 0 -0.015764
9 1 0.0236512 0.0337184 0.675635 0 0 -0.000808358
20 1 0.0881469 0.373809 0.90959 0 0 -0.0157641
24 1 0.0236512 0.367052 0.675635 0 0 -0.000808001
26 1 0.108201 0.325218 0.304862 0 0 0.002756
36 1 0.088147 0.707142 0.90959 0 0 -0.0157644
40 1 0.0236512 0.700385 0.675635 0 0 -0.00080812
42 1 0.108201 0.658552 0.304862 0 0 0.00275624
48 1 0.108201 0.991885 0.304862 0 0 0.00275648
1 1 0.951054 0.165147 0.0429345 0 0 0.00859892
2 1 0.4928 0.0754006 0.0502398 0 0 0.0157644
3 1 0.472746 0.123991 0.654968 0 0 -0.00275612
4 1 0.629893 0.95073 0.916896 0 0 -0.00859976
5 1 0.328511 0.158791 0.798802 0 0 0.000542998
7 1 0.77826 0.249026 0.779089 0 0 -0.00516915
8 1 0.862433 0.207214 0.407768 0 0 -0.008479
10 1 0.718514 0.241995 0.552063 0 0 0.00847924
11 1 0.802687 0.200184 0.180741 0 0 0.00516844
12 1 0.557296 0.082158 0.284196 0 0 0.000808239
13 1 0.252436 0.290419 0.161028 0 0 -0.00054276
14 1 0.413511 0.116931 0.428687 0 0 -0.00749052
15 1 0.951054 0.49848 0.0429345 0 0 0.0085988
16 1 0.4928 0.408734 0.0502398 0 0 0.015764
17 1 0.472746 0.457325 0.654968 0 0 -0.00275648
18 1 0.629893 0.284063 0.916896 0 0 -0.00859869
19 1 0.328511 0.492124 0.798802 0 0 0.000542641
21 1 0.77826 0.582359 0.779089 0 0 -0.0051688
22 1 0.167436 0.332278 0.531143 0 0 0.0074904
23 1 0.862433 0.540548 0.407768 0 0 -0.00847912
25 1 0.718514 0.575329 0.552063 0 0 0.008479
27 1 0.802687 0.533517 0.180741 0 0 0.00516868
28 1 0.557296 0.415491 0.284196 0 0 0.000808358
29 1 0.252436 0.623752 0.161028 0 0 -0.00054276
30 1 0.413511 0.450265 0.428687 0 0 -0.0074904
31 1 0.951054 0.831813 0.0429345 0 0 0.0085994
32 1 0.4928 0.742067 0.0502398 0 0 0.0157646
33 1 0.472746 0.790658 0.654968 0 0 -0.00275636
34 1 0.629893 0.617396 0.916896 0 0 -0.00859916
35 1 0.328511 0.825457 0.798802 0 0 0.000542998
37 1 0.77826 0.915693 0.779089 0 0 -0.00516856
38 1 0.167436 0.665612 0.531143 0 0 0.0074904
39 1 0.862433 0.873881 0.407768 0 0 -0.00847936
41 1 0.718514 0.908662 0.552063 0 0 0.00847936
43 1 0.802687 0.86685 0.180741 0 0 0.0051688
44 1 0.557296 0.748825 0.284196 0 0 0.000808358
45 1 0.252436 0.957086 0.161028 0 0 -0.000542879
46 1 0.413511 0.783598 0.428687 0 0 -0.00749052
47 1 0.167436 0.998945 0.531143 0 0 0.00749063
ITEM: TIMESTEP
6
ITEM: NUMBER OF ATOMS
48
ITEM: BOX BOUNDS xy xz yz pp pp pp
-4.1069229841232300e+00 8.6109705567359924e+00 2.5110912919044495e+00
-1.0506033897399902e-02 9.6185076832771301e+00 -4.0923661589622498e+00
-2.6944518089294434e-02 1.9544072151184082e+01 3.6519104242324829e-01
ITEM: ATOMS id type xs ys zs fx fy fz
6 1 0.0878617 0.0404922 0.909174 0 0 0.000946283
9 1 0.0235972 0.0337215 0.675556 0 0 0.00151253
20 1 0.0878617 0.373826 0.909174 0 0 0.000946283
24 1 0.0235972 0.367055 0.675556 0 0 0.00151253
26 1 0.108286 0.325213 0.304987 0 0 -0.000960946
36 1 0.0878617 0.707159 0.909174 0 0 0.000946403
40 1 0.0235972 0.700388 0.675556 0 0 0.00151265
42 1 0.108286 0.658547 0.304987 0 0 -0.000961185
48 1 0.108286 0.99188 0.304987 0 0 -0.000960946
1 1 0.951133 0.165142 0.0430493 0 0 -0.00574839
2 1 0.493085 0.0753842 0.0506559 0 0 -0.000946403
3 1 0.472661 0.123996 0.654844 0 0 0.000960588
4 1 0.629814 0.950734 0.916781 0 0 0.00574815
5 1 0.32848 0.158792 0.798757 0 0 -0.00415719
7 1 0.778138 0.249033 0.778911 0 0 -0.0043205
8 1 0.86239 0.207217 0.407705 0 0 -0.00213742
10 1 0.718557 0.241993 0.552125 0 0 0.00213754
11 1 0.80281 0.200177 0.180919 0 0 0.00432146
12 1 0.55735 0.0821549 0.284274 0 0 -0.00151229
13 1 0.252467 0.290417 0.161073 0 0 0.0041573
14 1 0.41349 0.116933 0.428655 0 0 -0.00212502
15 1 0.951133 0.498476 0.0430493 0 0 -0.00574791
16 1 0.493085 0.408718 0.0506559 0 0 -0.000946045
17 1 0.472661 0.45733 0.654844 0 0 0.000960708
18 1 0.629814 0.284067 0.916781 0 0 0.00574756
19 1 0.32848 0.492126 0.798757 0 0 -0.00415683
21 1 0.778138 0.582366 0.778911 0 0 -0.00432086
22 1 0.167457 0.332277 0.531175 0 0 0.00212455
23 1 0.86239 0.54055 0.407705 0 0 -0.00213706
25 1 0.718557 0.575326 0.552125 0 0 0.00213766
27 1 0.80281 0.53351 0.180919 0 0 0.00432122
28 1 0.55735 0.415488 0.284274 0 0 -0.00151277
29 1 0.252467 0.623751 0.161073 0 0 0.00415695
30 1 0.41349 0.450266 0.428655 0 0 -0.00212479
31 1 0.951133 0.831809 0.0430493 0 0 -0.00574815
32 1 0.493085 0.742051 0.0506559 0 0 -0.000946522
33 1 0.472661 0.790663 0.654844 0 0 0.000960708
34 1 0.629814 0.617401 0.916781 0 0 0.00574791
35 1 0.32848 0.825459 0.798757 0 0 -0.00415707
37 1 0.778138 0.9157 0.778911 0 0 -0.00432074
38 1 0.167457 0.66561 0.531175 0 0 0.00212467
39 1 0.86239 0.873883 0.407705 0 0 -0.00213718
41 1 0.718557 0.90866 0.552125 0 0 0.00213754
43 1 0.80281 0.866843 0.180919 0 0 0.00432134
44 1 0.55735 0.748822 0.284274 0 0 -0.00151312
45 1 0.252467 0.957084 0.161073 0 0 0.00415671
46 1 0.41349 0.783599 0.428655 0 0 -0.00212431
47 1 0.167457 0.998944 0.531175 0 0 0.00212443
ITEM: TIMESTEP
7
ITEM: NUMBER OF ATOMS
48
ITEM: BOX BOUNDS xy xz yz pp pp pp
-4.1069229841232300e+00 8.6109705567359924e+00 2.5110912919044495e+00
-1.0506033897399902e-02 9.6185076832771301e+00 -4.0923661589622498e+00
-2.6944518089294434e-02 1.9544072151184082e+01 3.6519104242324829e-01
ITEM: ATOMS id type xs ys zs fx fy fz
6 1 0.0878375 0.0404936 0.909139 0 0 0.00061655
9 1 0.0236026 0.0337212 0.675564 0 0 0.000425458
20 1 0.0878375 0.373827 0.909139 0 0 0.00061667
24 1 0.0236026 0.367055 0.675564 0 0 0.000425339
26 1 0.108289 0.325213 0.30499 0 0 -0.000262618
36 1 0.0878375 0.70716 0.909139 0 0 0.000616908
40 1 0.0236026 0.700388 0.675564 0 0 0.000425577
42 1 0.108288 0.658547 0.30499 0 0 -0.000262737
48 1 0.108288 0.99188 0.30499 0 0 -0.000262499
1 1 0.951099 0.165144 0.0429993 0 0 0.000707507
2 1 0.49311 0.0753828 0.0506913 0 0 -0.00061667
3 1 0.472659 0.123996 0.65484 0 0 0.000262499
4 1 0.629848 0.950732 0.916831 0 0 -0.000707626
5 1 0.328446 0.158794 0.798707 0 0 -0.000571728
7 1 0.778092 0.249036 0.778844 0 0 -0.000378132
8 1 0.862369 0.207218 0.407675 0 0 9.39369e-05
10 1 0.718578 0.241992 0.552155 0 0 -9.39369e-05
11 1 0.802855 0.200174 0.180986 0 0 0.000378013
12 1 0.557345 0.0821552 0.284267 0 0 -0.00042522
13 1 0.252501 0.290415 0.161123 0 0 0.000571609
14 1 0.413472 0.116934 0.428629 0 0 8.70228e-06
15 1 0.951099 0.498478 0.0429993 0 0 0.000707626
16 1 0.49311 0.408716 0.0506913 0 0 -0.00061667
17 1 0.472659 0.45733 0.65484 0 0 0.000262737
18 1 0.629848 0.284065 0.916831 0 0 -0.000707269
19 1 0.328446 0.492128 0.798707 0 0 -0.000571728
21 1 0.778092 0.582369 0.778844 0 0 -0.00037837
22 1 0.167475 0.332276 0.531201 0 0 -8.34465e-06
23 1 0.862369 0.540551 0.407675 0 0 9.41753e-05
25 1 0.718578 0.575325 0.552155 0 0 -9.40561e-05
27 1 0.802855 0.533507 0.180986 0 0 0.000378132
28 1 0.557345 0.415489 0.284267 0 0 -0.000425339
29 1 0.252501 0.623749 0.161123 0 0 0.000571251
30 1 0.413472 0.450267 0.428629 0 0 8.58307e-06
31 1 0.951099 0.831811 0.0429993 0 0 0.000707269
32 1 0.49311 0.742049 0.0506913 0 0 -0.00061667
33 1 0.472659 0.790663 0.65484 0 0 0.000262618
34 1 0.629848 0.617399 0.916831 0 0 -0.000707626
35 1 0.328446 0.825461 0.798707 0 0 -0.00057137
37 1 0.778092 0.915702 0.778844 0 0 -0.000378132
38 1 0.167475 0.665609 0.531201 0 0 -8.46386e-06
39 1 0.862369 0.873885 0.407675 0 0 9.41753e-05
41 1 0.718578 0.908658 0.552155 0 0 -9.40561e-05
43 1 0.802855 0.866841 0.180986 0 0 0.000378013
44 1 0.557345 0.748822 0.284267 0 0 -0.000425458
45 1 0.252501 0.957082 0.161123 0 0 0.000571609
46 1 0.413472 0.7836 0.428629 0 0 8.46386e-06
47 1 0.167475 0.998943 0.531201 0 0 -8.70228e-06
ITEM: TIMESTEP
8
ITEM: NUMBER OF ATOMS
48
ITEM: BOX BOUNDS xy xz yz pp pp pp
-4.1069229841232300e+00 8.6109705567359924e+00 2.5110912919044495e+00
-1.0506033897399902e-02 9.6185076832771301e+00 -4.0923661589622498e+00
-2.6944518089294434e-02 1.9544072151184082e+01 3.6519104242324829e-01
ITEM: ATOMS id type xs ys zs fx fy fz
6 1 0.0878446 0.0404932 0.909149 0 0 0.000249624
9 1 0.0236077 0.0337209 0.675571 0 0 -0.000181198
20 1 0.0878446 0.373827 0.909149 0 0 0.000249386
24 1 0.0236077 0.367054 0.675571 0 0 -0.000181079
26 1 0.108285 0.325213 0.304985 0 0 0.000165224
36 1 0.0878446 0.70716 0.909149 0 0 0.000249386
40 1 0.0236077 0.700388 0.675571 0 0 -0.000181556
42 1 0.108285 0.658547 0.304985 0 0 0.000165462
48 1 0.108285 0.99188 0.304985 0 0 0.00016439
1 1 0.951107 0.165144 0.0430112 0 0 -1.9908e-05
2 1 0.493102 0.0753832 0.0506809 0 0 -0.000249386
3 1 0.472662 0.123996 0.654845 0 0 -0.000165224
4 1 0.62984 0.950733 0.916819 0 0 2.03848e-05
5 1 0.328439 0.158795 0.798696 0 0 -1.06096e-05
7 1 0.778087 0.249036 0.778837 0 0 3.25441e-05
8 1 0.86237 0.207218 0.407676 0 0 -0.000112772
10 1 0.718577 0.241992 0.552154 0 0 0.000112891
11 1 0.80286 0.200174 0.180993 0 0 -3.23057e-05
12 1 0.557339 0.0821555 0.284259 0 0 0.000181079
13 1 0.252508 0.290415 0.161134 0 0 1.0252e-05
14 1 0.413472 0.116934 0.428629 0 0 -0.000118017
15 1 0.951107 0.498477 0.0430112 0 0 -2.0504e-05
16 1 0.493102 0.408717 0.0506809 0 0 -0.000249505
17 1 0.472662 0.45733 0.654845 0 0 -0.000165105
18 1 0.62984 0.284066 0.916819 0 0 1.9908e-05
19 1 0.328439 0.492128 0.798696 0 0 -1.0252e-05
21 1 0.778087 0.582369 0.778837 0 0 3.29018e-05
22 1 0.167475 0.332276 0.531201 0 0 0.000117898
23 1 0.86237 0.540551 0.407676 0 0 -0.000113368
25 1 0.718577 0.575325 0.552154 0 0 0.00011301
27 1 0.80286 0.533507 0.180993 0 0 -3.27826e-05
28 1 0.557339 0.415489 0.284259 0 0 0.000181317
29 1 0.252508 0.623748 0.161134 0 0 1.07288e-05
30 1 0.413472 0.450267 0.428629 0 0 -0.000118256
31 1 0.951107 0.83181 0.0430112 0 0 -2.02656e-05
32 1 0.493102 0.74205 0.0506809 0 0 -0.000249743
33 1 0.472662 0.790663 0.654845 0 0 -0.00016427
34 1 0.62984 0.617399 0.916819 0 0 2.0504e-05
35 1 0.328439 0.825461 0.798696 0 0 -1.0848e-05
37 1 0.778087 0.915703 0.778837 0 0 3.23057e-05
38 1 0.167475 0.665609 0.531201 0 0 0.000118256
39 1 0.86237 0.873885 0.407676 0 0 -0.000113249
41 1 0.718577 0.908658 0.552154 0 0 0.000113249
43 1 0.80286 0.86684 0.180993 0 0 -3.24249e-05
44 1 0.557339 0.748822 0.284259 0 0 0.000181437
45 1 0.252508 0.957082 0.161134 0 0 1.06096e-05
46 1 0.413472 0.7836 0.428629 0 0 -0.000118136
47 1 0.167475 0.998943 0.531201 0 0 0.000118017
ITEM: TIMESTEP
9
ITEM: NUMBER OF ATOMS
48
ITEM: BOX BOUNDS xy xz yz pp pp pp
-4.1069229841232300e+00 8.6109705567359924e+00 2.5110912919044495e+00
-1.0506033897399902e-02 9.6185076832771301e+00 -4.0923661589622498e+00
-2.6944518089294434e-02 1.9544072151184082e+01 3.6519104242324829e-01
ITEM: ATOMS id type xs ys zs fx fy fz
6 1 0.0878481 0.040493 0.909154 0 0 3.73125e-05
9 1 0.0236061 0.033721 0.675569 0 0 -3.14713e-05
20 1 0.0878481 0.373826 0.909154 0 0 3.74317e-05
24 1 0.0236061 0.367054 0.675569 0 0 -3.15905e-05
26 1 0.108287 0.325213 0.304988 0 0 1.44243e-05
36 1 0.0878481 0.70716 0.909154 0 0 3.71933e-05
40 1 0.0236061 0.700388 0.675569 0 0 -3.06368e-05
42 1 0.108287 0.658547 0.304988 0 0 1.41859e-05
48 1 0.108287 0.99188 0.304988 0 0 1.39475e-05
1 1 0.951107 0.165144 0.0430119 0 0 1.0252e-05
2 1 0.493099 0.0753834 0.0506758 0 0 -3.75509e-05
3 1 0.47266 0.123996 0.654843 0 0 -1.40667e-05
4 1 0.62984 0.950733 0.916818 0 0 -1.0848e-05
5 1 0.328438 0.158795 0.798695 0 0 1.34706e-05
7 1 0.778087 0.249036 0.778837 0 0 2.67029e-05
8 1 0.862369 0.207218 0.407674 0 0 7.48634e-05
10 1 0.718578 0.241992 0.552156 0 0 -7.52211e-05
11 1 0.80286 0.200174 0.180993 0 0 -2.71797e-05
12 1 0.557341 0.0821554 0.284262 0 0 3.15905e-05
13 1 0.252509 0.290415 0.161135 0 0 -1.33514e-05
14 1 0.41347 0.116934 0.428627 0 0 8.11815e-05
15 1 0.951107 0.498477 0.0430119 0 0 1.0848e-05
16 1 0.493099 0.408717 0.0506758 0 0 -3.73125e-05
17 1 0.47266 0.45733 0.654843 0 0 -1.40667e-05
18 1 0.62984 0.284066 0.916818 0 0 -1.00136e-05
19 1 0.328438 0.492128 0.798695 0 0 1.3113e-05
21 1 0.778087 0.582369 0.778837 0 0 2.70605e-05
22 1 0.167477 0.332276 0.531203 0 0 -8.15392e-05
23 1 0.862369 0.540551 0.407674 0 0 7.49826e-05
25 1 0.718578 0.575325 0.552156 0 0 -7.4625e-05
27 1 0.80286 0.533507 0.180993 0 0 -2.69413e-05
28 1 0.557341 0.415489 0.284262 0 0 3.1352e-05
29 1 0.252509 0.623748 0.161135 0 0 -1.33514e-05
30 1 0.41347 0.450267 0.428627 0 0 8.15392e-05
31 1 0.951107 0.83181 0.0430119 0 0 1.07288e-05
32 1 0.493099 0.74205 0.0506758 0 0 -3.71933e-05
33 1 0.47266 0.790663 0.654843 0 0 -1.45435e-05
34 1 0.62984 0.617399 0.916818 0 0 -1.09673e-05
35 1 0.328438 0.825461 0.798695 0 0 1.38283e-05
37 1 0.778087 0.915703 0.778837 0 0 2.70605e-05
38 1 0.167477 0.665609 0.531203 0 0 -8.15392e-05
39 1 0.862369 0.873885 0.407674 0 0 7.52211e-05
41 1 0.718578 0.908658 0.552156 0 0 -7.52211e-05
43 1 0.80286 0.86684 0.180993 0 0 -2.71797e-05
44 1 0.557341 0.748822 0.284262 0 0 3.11136e-05
45 1 0.252509 0.957082 0.161135 0 0 -1.33514e-05
46 1 0.41347 0.7836 0.428627 0 0 8.14199e-05
47 1 0.167477 0.998943 0.531203 0 0 -8.10623e-05
ITEM: TIMESTEP
10
ITEM: NUMBER OF ATOMS
48
ITEM: BOX BOUNDS xy xz yz pp pp pp
-4.1069229841232300e+00 8.6109705567359924e+00 2.5110912919044495e+00
-1.0506033897399902e-02 9.6185076832771301e+00 -4.0923661589622498e+00
-2.6944518089294434e-02 1.9544072151184082e+01 3.6519104242324829e-01
ITEM: ATOMS id type xs ys zs fx fy fz
6 1 0.087849 0.0404929 0.909156 0 0 -6.07967e-06
9 1 0.0236055 0.033721 0.675568 0 0 -7.03335e-06
20 1 0.087849 0.373826 0.909156 0 0 -6.19888e-06
24 1 0.0236055 0.367054 0.675568 0 0 -7.03335e-06
26 1 0.108287 0.325213 0.304988 0 0 4.76837e-06
36 1 0.087849 0.70716 0.909156 0 0 -5.72205e-06
40 1 0.0236055 0.700388 0.675568 0 0 -7.51019e-06
42 1 0.108287 0.658547 0.304988 0 0 4.88758e-06
48 1 0.108287 0.99188 0.304988 0 0 5.48363e-06
1 1 0.951107 0.165144 0.0430122 0 0 -7.15256e-06
2 1 0.493098 0.0753834 0.0506745 0 0 6.07967e-06
3 1 0.47266 0.123996 0.654842 0 0 -4.88758e-06
4 1 0.62984 0.950733 0.916818 0 0 7.86781e-06
5 1 0.328438 0.158795 0.798695 0 0 -1.0848e-05
7 1 0.778087 0.249036 0.778838 0 0 -6.79493e-06
8 1 0.86237 0.207218 0.407676 0 0 2.14577e-06
10 1 0.718577 0.241992 0.552155 0 0 -2.38419e-06
11 1 0.80286 0.200174 0.180993 0 0 7.03335e-06
12 1 0.557342 0.0821554 0.284262 0 0 6.91414e-06
13 1 0.252509 0.290415 0.161135 0 0 1.07288e-05
14 1 0.413471 0.116934 0.428628 0 0 4.17233e-06
15 1 0.951108 0.498477 0.0430122 0 0 -7.62939e-06
16 1 0.493098 0.408717 0.0506745 0 0 5.84126e-06
17 1 0.47266 0.45733 0.654842 0 0 -5.126e-06
18 1 0.62984 0.284066 0.916818 0 0 6.79493e-06
19 1 0.328438 0.492128 0.798695 0 0 -1.04904e-05
21 1 0.778087 0.582369 0.778838 0 0 -7.39098e-06
22 1 0.167476 0.332276 0.531202 0 0 -3.93391e-06
23 1 0.86237 0.540551 0.407676 0 0 2.5034e-06
25 1 0.718577 0.575325 0.552155 0 0 -2.6226e-06
27 1 0.80286 0.533507 0.180993 0 0 7.39098e-06
28 1 0.557342 0.415489 0.284262 0 0 7.03335e-06
29 1 0.252509 0.623748 0.161135 0 0 1.0848e-05
30 1 0.413471 0.450267 0.428628 0 0 3.93391e-06
31 1 0.951107 0.83181 0.0430122 0 0 -7.51019e-06
32 1 0.493098 0.74205 0.0506745 0 0 5.96046e-06
33 1 0.47266 0.790663 0.654842 0 0 -5.00679e-06
34 1 0.62984 0.617399 0.916818 0 0 7.7486e-06
35 1 0.328438 0.825461 0.798695 0 0 -1.09673e-05
37 1 0.778087 0.915703 0.778838 0 0 -7.15256e-06
38 1 0.167476 0.665609 0.531202 0 0 -4.05312e-06
39 1 0.86237 0.873885 0.407676 0 0 2.5034e-06
41 1 0.718577 0.908658 0.552155 0 0 -2.14577e-06
43 1 0.80286 0.86684 0.180993 0 0 7.51019e-06
44 1 0.557342 0.748822 0.284262 0 0 7.27177e-06
45 1 0.252509 0.957082 0.161135 0 0 1.06096e-05
46 1 0.413471 0.7836 0.428628 0 0 3.8147e-06
47 1 0.167476 0.998943 0.531202 0 0 -4.17233e-06
ITEM: TIMESTEP
11
ITEM: NUMBER OF ATOMS
48
ITEM: BOX BOUNDS xy xz yz pp pp pp
-4.1069229841232300e+00 8.6109705567359924e+00 2.5110912919044495e+00
-1.0506033897399902e-02 9.6185076832771301e+00 -4.0923661589622498e+00
-2.6944518089294434e-02 1.9544072151184082e+01 3.6519104242324829e-01
ITEM: ATOMS id type xs ys zs fx fy fz
6 1 0.0878489 0.0404929 0.909156 0 0 -6.67572e-06
9 1 0.0236054 0.033721 0.675568 0 0 -5.24521e-06
20 1 0.0878489 0.373826 0.909156 0 0 -6.79493e-06
24 1 0.0236054 0.367054 0.675568 0 0 -5.36442e-06
26 1 0.108287 0.325213 0.304988 0 0 6.19888e-06
36 1 0.0878489 0.70716 0.909156 0 0 -6.79493e-06
40 1 0.0236054 0.700388 0.675568 0 0 -5.24521e-06
42 1 0.108287 0.658547 0.304988 0 0 6.07967e-06
48 1 0.108287 0.99188 0.304988 0 0 6.4373e-06
1 1 0.951107 0.165144 0.0430121 0 0 1.43051e-05
2 1 0.493098 0.0753834 0.0506746 0 0 6.79493e-06
3 1 0.47266 0.123996 0.654842 0 0 -6.19888e-06
4 1 0.62984 0.950733 0.916818 0 0 -1.54972e-05
5 1 0.328438 0.158795 0.798695 0 0 8.34465e-07
7 1 0.778087 0.249036 0.778837 0 0 -1.07288e-06
8 1 0.86237 0.207218 0.407676 0 0 -5.96046e-07
10 1 0.718577 0.241992 0.552154 0 0 5.96046e-07
11 1 0.80286 0.200174 0.180993 0 0 1.19209e-06
12 1 0.557342 0.0821554 0.284263 0 0 5.24521e-06
13 1 0.252509 0.290415 0.161135 0 0 -5.96046e-07
14 1 0.413471 0.116934 0.428628 0 0 -1.19209e-07
15 1 0.951107 0.498477 0.043012 0 0 1.49012e-05
16 1 0.493098 0.408717 0.0506746 0 0 6.55651e-06