ITEM: TIMESTEP
0
ITEM: NUMBER OF ATOMS
48
ITEM: BOX BOUNDS xy xz yz pp pp pp
-6.8518686890602112e+00 8.6109705567359924e+00 2.5110912919044495e+00
-1.0506033897399902e-02 9.6185076832771301e+00 -6.8373118638992310e+00
-2.6944518089294434e-02 1.9544072151184082e+01 3.6519104242324829e-01
ITEM: ATOMS id type xs ys zs fx fy fz
1 1 0.957923 0.165578 0.0319985 0 0 0.442719
2 1 0.518295 0.0752984 0.0528317 0 0 0.0570022
3 1 0.769083 0.123911 0.656998 0 0 2.38419e-06
4 1 0.0539197 0.950298 0.927832 0 0 -0.442718
5 1 0.691688 0.158632 0.802832 0 0 0.00885177
6 1 0.493548 0.040578 0.906998 0 0 -0.0570025
7 1 0.131316 0.248911 0.781998 0 0 0.0121737
8 1 0.0446191 0.207245 0.406998 0 0 -0.000151992
9 1 0.329455 0.0336318 0.677832 0 0 -0.00169325
10 1 0.967223 0.241965 0.552832 0 0 0.000152349
11 1 0.880527 0.200298 0.177832 0 0 -0.0121737
12 1 0.682387 0.0822446 0.281998 0 0 0.00169337
13 1 0.320155 0.290578 0.156998 0 0 -0.00885212
14 1 0.604991 0.116965 0.427832 0 0 -6.77109e-05
15 1 0.957923 0.498911 0.0319984 0 0 0.44272
16 1 0.518295 0.408632 0.0528317 0 0 0.0570019
17 1 0.769083 0.457245 0.656998 0 0 2.02656e-06
18 1 0.0539196 0.283632 0.927832 0 0 -0.442719
19 1 0.691688 0.491965 0.802832 0 0 0.00885189
20 1 0.493548 0.373911 0.906998 0 0 -0.0570021
21 1 0.131316 0.582245 0.781998 0 0 0.0121733
22 1 0.406851 0.332245 0.531998 0 0 6.86646e-05
23 1 0.0446191 0.540578 0.406998 0 0 -0.000151992
24 1 0.329455 0.366965 0.677832 0 0 -0.00169301
25 1 0.967223 0.575298 0.552832 0 0 0.000151873
26 1 0.242759 0.325298 0.302832 0 0 -2.5034e-06
27 1 0.880527 0.533632 0.177832 0 0 -0.012174
28 1 0.682387 0.415578 0.281998 0 0 0.00169325
29 1 0.320155 0.623911 0.156998 0 0 -0.00885212
30 1 0.604991 0.450298 0.427832 0 0 -6.83069e-05
31 1 0.957923 0.832245 0.0319985 0 0 0.442719
32 1 0.518295 0.741965 0.0528317 0 0 0.0570019
33 1 0.769083 0.790578 0.656998 0 0 2.26498e-06
34 1 0.0539197 0.616965 0.927832 0 0 -0.442719
35 1 0.691688 0.825298 0.802832 0 0 0.00885224
36 1 0.493548 0.707245 0.906998 0 0 -0.0570021
37 1 0.131316 0.915578 0.781998 0 0 0.0121731
38 1 0.406851 0.665578 0.531998 0 0 6.74725e-05
39 1 0.0446191 0.873911 0.406998 0 0 -0.000151753
40 1 0.329455 0.700298 0.677832 0 0 -0.00169253
41 1 0.967223 0.908632 0.552832 0 0 0.000151038
42 1 0.242759 0.658632 0.302832 0 0 -2.14577e-06
43 1 0.880527 0.866965 0.177832 0 0 -0.0121738
44 1 0.682387 0.748911 0.281998 0 0 0.00169313
45 1 0.320155 0.957245 0.156998 0 0 -0.00885212
46 1 0.604991 0.783632 0.427832 0 0 -6.77109e-05
47 1 0.406851 0.998911 0.531998 0 0 6.79493e-05
48 1 0.242759 0.991965 0.302832 0 0 -2.14577e-06
ITEM: TIMESTEP
1
ITEM: NUMBER OF ATOMS
48
ITEM: BOX BOUNDS xy xz yz pp pp pp
-6.8518686890602112e+00 8.6109705567359924e+00 2.5110912919044495e+00
-1.0506033897399902e-02 9.6185076832771301e+00 -6.8373118638992310e+00
-2.6944518089294434e-02 1.9544072151184082e+01 3.6519104242324829e-01
ITEM: ATOMS id type xs ys zs fx fy fz
1 1 0.963058 0.165399 0.0365255 0 0 -6.71148e-05
2 1 0.518956 0.0752754 0.0534146 0 0 -0.00680542
3 1 0.769083 0.123911 0.656998 0 0 -0.0039494
4 1 0.0487841 0.950477 0.923305 0 0 6.74725e-05
5 1 0.69179 0.158628 0.802922 0 0 -0.0707585
6 1 0.492887 0.0406009 0.906416 0 0 0.00680518
7 1 0.131457 0.248906 0.782123 0 0 -0.0538005
8 1 0.0446174 0.207245 0.406997 0 0 -0.00103319
9 1 0.329436 0.0336324 0.677814 0 0 -0.00460327
10 1 0.967225 0.241965 0.552833 0 0 0.00103331
11 1 0.880386 0.200303 0.177707 0 0 0.0538005
12 1 0.682407 0.0822439 0.282016 0 0 0.00460291
13 1 0.320052 0.290581 0.156908 0 0 0.0707583
14 1 0.60499 0.116965 0.427831 0 0 -0.00111878
15 1 0.963058 0.498733 0.0365255 0 0 -6.69956e-05
16 1 0.518956 0.408609 0.0534146 0 0 -0.00680554
17 1 0.769083 0.457245 0.656998 0 0 -0.00394952
18 1 0.0487841 0.28381 0.923305 0 0 6.75917e-05
19 1 0.69179 0.491962 0.802922 0 0 -0.0707582
20 1 0.492887 0.373934 0.906416 0 0 0.0068053
21 1 0.131457 0.58224 0.782123 0 0 -0.0538007
22 1 0.406852 0.332245 0.531999 0 0 0.00111842
23 1 0.0446174 0.540578 0.406997 0 0 -0.00103366
24 1 0.329436 0.366966 0.677814 0 0 -0.00460315
25 1 0.967225 0.575298 0.552833 0 0 0.00103319
26 1 0.242759 0.325298 0.302832 0 0 0.00394976
27 1 0.880386 0.533637 0.177707 0 0 0.0538001
28 1 0.682407 0.415577 0.282016 0 0 0.00460315
29 1 0.320052 0.623915 0.156908 0 0 0.070758
30 1 0.60499 0.450298 0.427831 0 0 -0.00111842
31 1 0.963058 0.832066 0.0365255 0 0 -6.7234e-05
32 1 0.518956 0.741942 0.0534146 0 0 -0.00680542
33 1 0.769083 0.790578 0.656998 0 0 -0.00394976
34 1 0.0487841 0.617144 0.923305 0 0 6.73532e-05
35 1 0.69179 0.825295 0.802922 0 0 -0.0707583
36 1 0.492887 0.707268 0.906416 0 0 0.0068053
37 1 0.131457 0.915573 0.782123 0 0 -0.0538007
38 1 0.406852 0.665578 0.531999 0 0 0.00111866
39 1 0.0446173 0.873911 0.406997 0 0 -0.00103271
40 1 0.329436 0.700299 0.677814 0 0 -0.00460315
41 1 0.967225 0.908632 0.552833 0 0 0.00103295
42 1 0.242759 0.658632 0.302832 0 0 0.00394964
43 1 0.880386 0.86697 0.177707 0 0 0.0538005
44 1 0.682407 0.748911 0.282016 0 0 0.0046041
45 1 0.320052 0.957248 0.156908 0 0 0.0707579
46 1 0.60499 0.783632 0.427831 0 0 -0.0011183
47 1 0.406852 0.998911 0.531999 0 0 0.00111842
48 1 0.242759 0.991965 0.302832 0 0 0.00395
ITEM: TIMESTEP
2
ITEM: NUMBER OF ATOMS
48
ITEM: BOX BOUNDS xy xz yz pp pp pp
-6.8518686890602112e+00 8.6109705567359924e+00 2.5110912919044495e+00
-1.0506033897399902e-02 9.6185076832771301e+00 -6.8373118638992310e+00
-2.6944518089294434e-02 1.9544072151184082e+01 3.6519104242324829e-01
ITEM: ATOMS id type xs ys zs fx fy fz
1 1 0.963601 0.165381 0.0370038 0 0 -0.000930309
2 1 0.518853 0.075279 0.0533244 0 0 0.0284759
3 1 0.768983 0.123915 0.65691 0 0 -0.0305911
4 1 0.0482416 0.950496 0.922826 0 0 0.00093019
5 1 0.690008 0.15869 0.801351 0 0 0.00135815
6 1 0.492989 0.0405974 0.906506 0 0 -0.0284761
7 1 0.130109 0.248953 0.780934 0 0 0.000231266
8 1 0.044591 0.207246 0.406974 0 0 0.00524843
9 1 0.329317 0.0336366 0.67771 0 0 -0.0312608
10 1 0.967251 0.241964 0.552857 0 0 -0.00524867
11 1 0.881734 0.200256 0.178896 0 0 -0.000231862
12 1 0.682525 0.0822398 0.28212 0 0 0.0312608
13 1 0.321834 0.29052 0.158479 0 0 -0.0013572
14 1 0.604962 0.116966 0.427806 0 0 0.00643504
15 1 0.963601 0.498714 0.0370038 0 0 -0.000930309
16 1 0.518853 0.408612 0.0533244 0 0 0.028476
17 1 0.768983 0.457248 0.65691 0 0 -0.0305911
18 1 0.0482416 0.283829 0.922826 0 0 0.000930071
19 1 0.690008 0.492023 0.801351 0 0 0.00135732
20 1 0.492989 0.373931 0.906506 0 0 -0.028476
21 1 0.130109 0.582287 0.780934 0 0 0.000231266
22 1 0.40688 0.332244 0.532024 0 0 -0.00643456
23 1 0.044591 0.540579 0.406974 0 0 0.00524867
24 1 0.329317 0.36697 0.67771 0 0 -0.0312608
25 1 0.967251 0.575297 0.552856 0 0 -0.00524843
26 1 0.242859 0.325295 0.30292 0 0 0.0305907
27 1 0.881734 0.53359 0.178896 0 0 -0.000231385
28 1 0.682525 0.415573 0.28212 0 0 0.0312606
29 1 0.321834 0.623853 0.158479 0 0 -0.00135696
30 1 0.604962 0.450299 0.427806 0 0 0.00643516
31 1 0.963601 0.832047 0.0370038 0 0 -0.000930309
32 1 0.518853 0.741946 0.0533244 0 0 0.0284758
33 1 0.768983 0.790581 0.65691 0 0 -0.0305911
34 1 0.0482416 0.617162 0.922826 0 0 0.000930309
35 1 0.690008 0.825357 0.801351 0 0 0.00135767
36 1 0.492989 0.707264 0.906506 0 0 -0.0284759
37 1 0.130109 0.91562 0.780934 0 0 0.000231385
38 1 0.40688 0.665577 0.532024 0 0 -0.00643468
39 1 0.044591 0.873912 0.406974 0 0 0.00524843
40 1 0.329317 0.700303 0.67771 0 0 -0.0312604
41 1 0.967251 0.908631 0.552856 0 0 -0.00524831
42 1 0.242859 0.658628 0.30292 0 0 0.0305909
43 1 0.881734 0.866923 0.178896 0 0 -0.000231504
44 1 0.682525 0.748906 0.28212 0 0 0.0312597
45 1 0.321834 0.957186 0.158479 0 0 -0.00135648
46 1 0.604962 0.783633 0.427806 0 0 0.00643516
47 1 0.40688 0.99891 0.532024 0 0 -0.00643468
48 1 0.242859 0.991962 0.30292 0 0 0.0305903
ITEM: TIMESTEP
3
ITEM: NUMBER OF ATOMS
48
ITEM: BOX BOUNDS xy xz yz pp pp pp
-6.8518686890602112e+00 8.6109705567359924e+00 2.5110912919044495e+00
-1.0506033897399902e-02 9.6185076832771301e+00 -6.8373118638992310e+00
-2.6944518089294434e-02 1.9544072151184082e+01 3.6519104242324829e-01
ITEM: ATOMS id type xs ys zs fx fy fz
1 1 0.963817 0.165373 0.0371943 0 0 -0.000712037
2 1 0.519726 0.0752487 0.0540935 0 0 -0.0165851
3 1 0.767951 0.123951 0.656 0 0 -0.00430322
4 1 0.0480254 0.950503 0.922636 0 0 0.000711679
5 1 0.689243 0.158717 0.800677 0 0 0.00370526
6 1 0.492116 0.0406277 0.905737 0 0 0.0165854
7 1 0.129504 0.248974 0.780402 0 0 -0.00555563
8 1 0.0447484 0.20724 0.407112 0 0 0.0143241
9 1 0.328254 0.0336735 0.676773 0 0 -0.00288999
10 1 0.967094 0.24197 0.552718 0 0 -0.0143239
11 1 0.882338 0.200235 0.179429 0 0 0.00555658
12 1 0.683588 0.0822029 0.283057 0 0 0.00289047
13 1 0.322599 0.290493 0.159153 0 0 -0.00370681
14 1 0.605157 0.116959 0.427978 0 0 0.0159057
15 1 0.963817 0.498706 0.0371943 0 0 -0.000712395
16 1 0.519726 0.408582 0.0540935 0 0 -0.016585
17 1 0.767951 0.457284 0.656 0 0 -0.0043031
18 1 0.0480254 0.283837 0.922636 0 0 0.000712037
19 1 0.689243 0.49205 0.800677 0 0 0.00370646
20 1 0.492116 0.373961 0.905737 0 0 0.0165855
21 1 0.129504 0.582308 0.780402 0 0 -0.00555551
22 1 0.406686 0.33225 0.531853 0 0 -0.015906
23 1 0.0447484 0.540573 0.407112 0 0 0.0143244
24 1 0.328254 0.367007 0.676773 0 0 -0.00288963
25 1 0.967094 0.575303 0.552718 0 0 -0.0143239
26 1 0.243892 0.325259 0.30383 0 0 0.00430322
27 1 0.882338 0.533569 0.179429 0 0 0.00555646
28 1 0.683588 0.415536 0.283057 0 0 0.00289047
29 1 0.322599 0.623826 0.159153 0 0 -0.00370669
30 1 0.605157 0.450293 0.427978 0 0 0.015905
31 1 0.963817 0.83204 0.0371943 0 0 -0.000712037
32 1 0.519726 0.741915 0.0540935 0 0 -0.0165846
33 1 0.767951 0.790617 0.656 0 0 -0.00430298
34 1 0.0480254 0.61717 0.922636 0 0 0.000711918
35 1 0.689243 0.825383 0.800677 0 0 0.00370598
36 1 0.492116 0.707294 0.905737 0 0 0.0165844
37 1 0.129504 0.915641 0.780402 0 0 -0.00555551
38 1 0.406686 0.665584 0.531853 0 0 -0.0159055
39 1 0.0447484 0.873907 0.407112 0 0 0.0143238
40 1 0.328254 0.70034 0.676773 0 0 -0.00289047
41 1 0.967094 0.908636 0.552718 0 0 -0.0143242
42 1 0.243892 0.658592 0.30383 0 0 0.0043031
43 1 0.882338 0.866902 0.179429 0 0 0.00555599
44 1 0.683588 0.74887 0.283057 0 0 0.00289071
45 1 0.322599 0.95716 0.159153 0 0 -0.00370693
46 1 0.605157 0.783626 0.427978 0 0 0.0159048
47 1 0.406686 0.998917 0.531853 0 0 -0.0159057
48 1 0.243892 0.991926 0.30383 0 0 0.00430357
ITEM: TIMESTEP
4
ITEM: NUMBER OF ATOMS
48
ITEM: BOX BOUNDS xy xz yz pp pp pp
-6.8518686890602112e+00 8.6109705567359924e+00 2.5110912919044495e+00
-1.0506033897399902e-02 9.6185076832771301e+00 -6.8373118638992310e+00
-2.6944518089294434e-02 1.9544072151184082e+01 3.6519104242324829e-01
ITEM: ATOMS id type xs ys zs fx fy fz
1 1 0.963845 0.165372 0.0372187 0 0 0.0014863
2 1 0.519563 0.0752543 0.05395 0 0 -0.00252068
3 1 0.767665 0.123961 0.655748 0 0 -0.00145733
4 1 0.0479978 0.950504 0.922611 0 0 -0.00148618
5 1 0.689169 0.158719 0.800612 0 0 0.0014236
6 1 0.492279 0.0406221 0.90588 0 0 0.0025208
7 1 0.129276 0.248982 0.7802 0 0 9.11951e-05
8 1 0.0450655 0.207229 0.407392 0 0 -0.00131977
9 1 0.327991 0.0336827 0.67654 0 0 -0.000134706
10 1 0.966777 0.241981 0.552438 0 0 0.00131965
11 1 0.882566 0.200227 0.17963 0 0 -9.08375e-05
12 1 0.683852 0.0821937 0.28329 0 0 0.000134826
13 1 0.322673 0.29049 0.159218 0 0 -0.0014236
14 1 0.605513 0.116947 0.428291 0 0 -0.00056088
15 1 0.963845 0.498705 0.0372187 0 0 0.0014863
16 1 0.519563 0.408588 0.05395 0 0 -0.0025202
17 1 0.767665 0.457294 0.655748 0 0 -0.00145674
18 1 0.0479977 0.283838 0.922611 0 0 -0.0014869
19 1 0.689169 0.492053 0.800612 0 0 0.0014236
20 1 0.492279 0.373955 0.90588 0 0 0.00252032
21 1 0.129276 0.582316 0.7802 0 0 9.10759e-05
22 1 0.40633 0.332263 0.531539 0 0 0.00056076
23 1 0.0450655 0.540562 0.407392 0 0 -0.00132
24 1 0.327991 0.367016 0.67654 0 0 -0.000134826
25 1 0.966777 0.575314 0.552438 0 0 0.00131977
26 1 0.244178 0.325249 0.304082 0 0 0.00145733
27 1 0.882566 0.533561 0.17963 0 0 -9.11951e-05
28 1 0.683852 0.415527 0.28329 0 0 0.000134706
29 1 0.322673 0.623824 0.159218 0 0 -0.00142372
30 1 0.605513 0.45028 0.428291 0 0 -0.000560999
31 1 0.963845 0.832039 0.0372187 0 0 0.00148618
32 1 0.519563 0.741921 0.05395 0 0 -0.00252044
33 1 0.767665 0.790627 0.655748 0 0 -0.00145662
34 1 0.0479978 0.617171 0.922611 0 0 -0.00148642
35 1 0.689169 0.825386 0.800612 0 0 0.0014236
36 1 0.492279 0.707289 0.90588 0 0 0.0025208
37 1 0.129276 0.915649 0.7802 0 0 9.09567e-05
38 1 0.40633 0.665596 0.531539 0 0 0.00056088
39 1 0.0450655 0.873896 0.407392 0 0 -0.00131977
40 1 0.327991 0.700349 0.67654 0 0 -0.000134945
41 1 0.966777 0.908647 0.552438 0 0 0.00132
42 1 0.244178 0.658582 0.304082 0 0 0.00145721
43 1 0.882566 0.866894 0.17963 0 0 -9.09567e-05
44 1 0.683852 0.74886 0.28329 0 0 0.000134945
45 1 0.322673 0.957157 0.159218 0 0 -0.00142395
46 1 0.605513 0.783614 0.428291 0 0 -0.000561237
47 1 0.40633 0.998929 0.531539 0 0 0.00056088
48 1 0.244178 0.991916 0.304082 0 0 0.00145721
ITEM: TIMESTEP
5
ITEM: NUMBER OF ATOMS
48
ITEM: BOX BOUNDS xy xz yz pp pp pp
-6.8518686890602112e+00 8.6109705567359924e+00 2.5110912919044495e+00
-1.0506033897399902e-02 9.6185076832771301e+00 -6.8373118638992310e+00
-2.6944518089294434e-02 1.9544072151184082e+01 3.6519104242324829e-01
ITEM: ATOMS id type xs ys zs fx fy fz
1 1 0.963867 0.165371 0.0372386 0 0 -0.000393271
2 1 0.519525 0.0752557 0.0539163 0 0 -0.000198483
3 1 0.767642 0.123961 0.655728 0 0 -2.11e-05
4 1 0.0479752 0.950505 0.922592 0 0 0.000393033
5 1 0.689191 0.158719 0.800631 0 0 0.000254512
6 1 0.492318 0.0406207 0.905914 0 0 0.000198722
7 1 0.129277 0.248982 0.780202 0 0 -4.62532e-05
8 1 0.0450454 0.20723 0.407374 0 0 6.79493e-06
9 1 0.327989 0.0336827 0.676539 0 0 0.000510931
10 1 0.966797 0.24198 0.552456 0 0 -6.67572e-06
11 1 0.882565 0.200228 0.179629 0 0 4.62532e-05
12 1 0.683854 0.0821936 0.283292 0 0 -0.000510931
13 1 0.322651 0.290491 0.159199 0 0 -0.00025475
14 1 0.605504 0.116947 0.428284 0 0 0.000367403
15 1 0.963867 0.498705 0.0372386 0 0 -0.000393271
16 1 0.519525 0.408589 0.0539163 0 0 -0.00019896
17 1 0.767642 0.457295 0.655728 0 0 -2.14577e-05
18 1 0.0479752 0.283838 0.922592 0 0 0.000393271
19 1 0.689191 0.492052 0.800631 0 0 0.00025475
20 1 0.492318 0.373954 0.905914 0 0 0.000198483
21 1 0.129277 0.582316 0.780202 0 0 -4.62532e-05
22 1 0.406338 0.332262 0.531546 0 0 -0.000366926
23 1 0.0450454 0.540563 0.407374 0 0 6.79493e-06
24 1 0.327989 0.367016 0.676539 0 0 0.000510693
25 1 0.966797 0.575313 0.552456 0 0 -7.15256e-06
26 1 0.2442 0.325248 0.304102 0 0 2.13385e-05
27 1 0.882565 0.533561 0.179629 0 0 4.62532e-05
28 1 0.683854 0.415527 0.283292 0 0 -0.00051105
29 1 0.322651 0.623824 0.159199 0 0 -0.000254273
30 1 0.605504 0.450281 0.428284 0 0 0.000367403
31 1 0.963867 0.832038 0.0372386 0 0 -0.000393152
32 1 0.519525 0.741922 0.0539163 0 0 -0.00019896
33 1 0.767642 0.790628 0.655728 0 0 -2.08616e-05
34 1 0.0479752 0.617172 0.922592 0 0 0.000393152
35 1 0.689191 0.825385 0.800631 0 0 0.00025475
36 1 0.492318 0.707287 0.905914 0 0 0.00019908
37 1 0.129277 0.915649 0.780202 0 0 -4.57764e-05
38 1 0.406338 0.665596 0.531546 0 0 -0.000367761
39 1 0.0450454 0.873896 0.407374 0 0 6.79493e-06
40 1 0.327989 0.700349 0.676539 0 0 0.000510454
41 1 0.966797 0.908647 0.552456 0 0 -6.91414e-06
42 1 0.2442 0.658582 0.304102 0 0 2.12193e-05
43 1 0.882565 0.866894 0.179629 0 0 4.63724e-05
44 1 0.683854 0.74886 0.283291 0 0 -0.000510573
45 1 0.322651 0.957158 0.159199 0 0 -0.000255108
46 1 0.605504 0.783614 0.428284 0 0 0.000367761
47 1 0.406338 0.998929 0.531546 0 0 -0.000367641
48 1 0.2442 0.991915 0.304102 0 0 2.13385e-05
ITEM: TIMESTEP
6
ITEM: NUMBER OF ATOMS
48
ITEM: BOX BOUNDS xy xz yz pp pp pp
-6.8518686890602112e+00 8.6109705567359924e+00 2.5110912919044495e+00
-1.0506033897399902e-02 9.6185076832771301e+00 -6.8373118638992310e+00
-2.6944518089294434e-02 1.9544072151184082e+01 3.6519104242324829e-01
ITEM: ATOMS id type xs ys zs fx fy fz
1 1 0.96386 0.165372 0.0372325 0 0 5.22137e-05
2 1 0.519518 0.0752559 0.0539106 0 0 0.00019443
3 1 0.767641 0.123961 0.655727 0 0 4.52995e-05
4 1 0.0479821 0.950505 0.922598 0 0 -5.22137e-05
5 1 0.689198 0.158718 0.800637 0 0 0.000203967
6 1 0.492324 0.0406205 0.90592 0 0 -0.000194192
7 1 0.129276 0.248982 0.780201 0 0 0.000194192
8 1 0.0450444 0.20723 0.407373 0 0 -0.000127792
9 1 0.327999 0.0336824 0.676548 0 0 7.9751e-05
10 1 0.966798 0.24198 0.552457 0 0 0.000127673
11 1 0.882566 0.200228 0.179629 0 0 -0.000194192
12 1 0.683843 0.082194 0.283282 0 0 -7.9751e-05
13 1 0.322645 0.290491 0.159193 0 0 -0.000203729
14 1 0.605511 0.116947 0.42829 0 0 -6.65188e-05
15 1 0.96386 0.498705 0.0372325 0 0 5.23329e-05
16 1 0.519518 0.408589 0.0539106 0 0 0.000194311
17 1 0.767641 0.457295 0.655727 0 0 4.60148e-05
18 1 0.0479821 0.283838 0.922598 0 0 -5.22137e-05
19 1 0.689198 0.492052 0.800637 0 0 0.000203609
20 1 0.492324 0.373954 0.90592 0 0 -0.000194192
21 1 0.129276 0.582316 0.780201 0 0 0.000194192
22 1 0.406331 0.332263 0.53154 0 0 6.62804e-05
23 1 0.0450443 0.540563 0.407373 0 0 -0.000127554
24 1 0.327999 0.367016 0.676548 0 0 7.98702e-05
25 1 0.966798 0.575313 0.552457 0 0 0.000127435
26 1 0.244202 0.325248 0.304103 0 0 -4.56572e-05
27 1 0.882566 0.533561 0.179629 0 0 -0.000194192
28 1 0.683843 0.415527 0.283282 0 0 -7.9751e-05
29 1 0.322645 0.623825 0.159193 0 0 -0.000204086
30 1 0.605511 0.45028 0.42829 0 0 -6.63996e-05
31 1 0.96386 0.832038 0.0372325 0 0 5.23329e-05
32 1 0.519518 0.741923 0.0539106 0 0 0.000194669
33 1 0.767641 0.790628 0.655727 0 0 4.51803e-05
34 1 0.0479821 0.617171 0.922598 0 0 -5.24521e-05
35 1 0.689198 0.825385 0.800637 0 0 0.000203609
36 1 0.492324 0.707287 0.90592 0 0 -0.00019443
37 1 0.129276 0.915649 0.780201 0 0 0.000193954
38 1 0.406331 0.665596 0.53154 0 0 6.67572e-05
39 1 0.0450444 0.873896 0.407373 0 0 -0.000127316
40 1 0.327999 0.700349 0.676548 0 0 7.9751e-05
41 1 0.966798 0.908647 0.552457 0 0 0.000127792
42 1 0.244202 0.658582 0.304103 0 0 -4.56572e-05
43 1 0.882566 0.866894 0.179629 0 0 -0.000194192
44 1 0.683843 0.748861 0.283282 0 0 -7.95126e-05
45 1 0.322645 0.957158 0.159193 0 0 -0.00020349
46 1 0.605511 0.783614 0.42829 0 0 -6.67572e-05
47 1 0.406331 0.998929 0.53154 0 0 6.65188e-05
48 1 0.244202 0.991915 0.304103 0 0 -4.58956e-05
ITEM: TIMESTEP
7
ITEM: NUMBER OF ATOMS
48
ITEM: BOX BOUNDS xy xz yz pp pp pp
-6.8518686890602112e+00 8.6109705567359924e+00 2.5110912919044495e+00
-1.0506033897399902e-02 9.6185076832771301e+00 -6.8373118638992310e+00
-2.6944518089294434e-02 1.9544072151184082e+01 3.6519104242324829e-01
ITEM: ATOMS id type xs ys zs fx fy fz
1 1 0.96386 0.165372 0.0372321 0 0 -4.79221e-05
2 1 0.519521 0.0752558 0.053913 0 0 -8.24928e-05
3 1 0.767641 0.123961 0.655727 0 0 0.000142097
4 1 0.0479826 0.950505 0.922598 0 0 4.78029e-05
5 1 0.689204 0.158718 0.800642 0 0 -2.51532e-05
6 1 0.492321 0.0406206 0.905917 0 0 8.24928e-05
7 1 0.129281 0.248982 0.780205 0 0 3.02792e-05
8 1 0.0450413 0.20723 0.407371 0 0 -2.68221e-05
9 1 0.328004 0.0336822 0.676552 0 0 2.21729e-05
10 1 0.966801 0.24198 0.55246 0 0 2.68221e-05
11 1 0.882562 0.200228 0.179626 0 0 -3.08752e-05
12 1 0.683839 0.0821942 0.283278 0 0 -2.20537e-05
13 1 0.322639 0.290492 0.159188 0 0 2.563e-05
14 1 0.605512 0.116947 0.42829 0 0 -9.64403e-05
15 1 0.96386 0.498705 0.0372321 0 0 -4.78029e-05
16 1 0.519521 0.408589 0.053913 0 0 -8.22544e-05
17 1 0.767641 0.457295 0.655727 0 0 0.000141501
18 1 0.0479826 0.283838 0.922598 0 0 4.76837e-05
19 1 0.689204 0.492051 0.800642 0 0 -2.55108e-05
20 1 0.492321 0.373954 0.905917 0 0 8.27312e-05
21 1 0.129281 0.582315 0.780205 0 0 3.05176e-05
22 1 0.406331 0.332263 0.53154 0 0 9.64403e-05
23 1 0.0450413 0.540563 0.407371 0 0 -2.67029e-05
24 1 0.328004 0.367016 0.676552 0 0 2.19345e-05
25 1 0.966801 0.575313 0.55246 0 0 2.71797e-05
26 1 0.244201 0.325248 0.304103 0 0 -0.000141978
27 1 0.882562 0.533561 0.179626 0 0 -3.02792e-05
28 1 0.683839 0.415527 0.283278 0 0 -2.20537e-05
29 1 0.322639 0.623825 0.159188 0 0 2.57492e-05
30 1 0.605512 0.45028 0.42829 0 0 -9.64403e-05
31 1 0.96386 0.832038 0.0372321 0 0 -4.79221e-05
32 1 0.519521 0.741922 0.053913 0 0 -8.28505e-05
33 1 0.767641 0.790628 0.655727 0 0 0.000141621
34 1 0.0479826 0.617171 0.922598 0 0 4.79221e-05
35 1 0.689204 0.825385 0.800642 0 0 -2.52724e-05
36 1 0.492321 0.707287 0.905917 0 0 8.28505e-05
37 1 0.129281 0.915649 0.780205 0 0 2.99215e-05
38 1 0.406331 0.665596 0.53154 0 0 9.63211e-05
39 1 0.0450413 0.873897 0.407371 0 0 -2.77758e-05
40 1 0.328004 0.700349 0.676552 0 0 2.26498e-05
41 1 0.966801 0.908646 0.55246 0 0 2.71797e-05
42 1 0.244201 0.658582 0.304103 0 0 -0.00014174
43 1 0.882562 0.866894 0.179626 0 0 -3.0756e-05
44 1 0.683839 0.748861 0.283278 0 0 -2.28882e-05
45 1 0.322639 0.957158 0.159188 0 0 2.58684e-05
46 1 0.605512 0.783614 0.42829 0 0 -9.65595e-05
47 1 0.406331 0.998929 0.53154 0 0 9.66787e-05
48 1 0.244201 0.991915 0.304103 0 0 -0.000141501
ITEM: TIMESTEP
8
ITEM: NUMBER OF ATOMS
48
ITEM: BOX BOUNDS xy xz yz pp pp pp
-6.8518686890602112e+00 8.6109705567359924e+00 2.5110912919044495e+00
-1.0506033897399902e-02 9.6185076832771301e+00 -6.8373118638992310e+00
-2.6944518089294434e-02 1.9544072151184082e+01 3.6519104242324829e-01
ITEM: ATOMS id type xs ys zs fx fy fz
1 1 0.963858 0.165372 0.0372304 0 0 3.86238e-05
2 1 0.519519 0.0752558 0.0539115 0 0 -1.69277e-05
3 1 0.767646 0.123961 0.655732 0 0 2.21729e-05
4 1 0.0479845 0.950505 0.9226 0 0 -3.82662e-05
5 1 0.689206 0.158718 0.800644 0 0 1.5974e-05
6 1 0.492323 0.0406205 0.905919 0 0 1.66893e-05
7 1 0.129283 0.248982 0.780207 0 0 2.95639e-05
8 1 0.045039 0.20723 0.407369 0 0 6.24657e-05
9 1 0.328006 0.0336821 0.676554 0 0 3.33786e-06
10 1 0.966803 0.24198 0.552462 0 0 -6.25849e-05
11 1 0.882559 0.200228 0.179623 0 0 -2.87294e-05
12 1 0.683836 0.0821942 0.283276 0 0 -3.57628e-06
13 1 0.322637 0.290492 0.159186 0 0 -1.71661e-05
14 1 0.605508 0.116947 0.428288 0 0 1.50204e-05
15 1 0.963858 0.498705 0.0372304 0 0 3.85046e-05
16 1 0.519519 0.408589 0.0539115 0 0 -1.70469e-05
17 1 0.767647 0.457295 0.655732 0 0 2.24113e-05
18 1 0.0479845 0.283838 0.9226 0 0 -3.82662e-05
19 1 0.689205 0.492051 0.800644 0 0 1.68085e-05
20 1 0.492323 0.373954 0.905919 0 0 1.66893e-05
21 1 0.129283 0.582315 0.780207 0 0 2.94447e-05
22 1 0.406334 0.332263 0.531543 0 0 -1.5378e-05
23 1 0.045039 0.540563 0.407369 0 0 6.18696e-05
24 1 0.328006 0.367015 0.676554 0 0 4.05312e-06
25 1 0.966803 0.575313 0.552462 0 0 -6.2108e-05
26 1 0.244196 0.325248 0.304098 0 0 -2.18153e-05
27 1 0.882559 0.533561 0.179623 0 0 -2.99215e-05
28 1 0.683836 0.415528 0.283276 0 0 -3.33786e-06
29 1 0.322637 0.623825 0.159186 0 0 -1.71661e-05
30 1 0.605508 0.45028 0.428288 0 0 1.51396e-05
31 1 0.963858 0.832038 0.0372304 0 0 3.85046e-05
32 1 0.519519 0.741922 0.0539115 0 0 -1.60933e-05
33 1 0.767646 0.790628 0.655732 0 0 2.22921e-05
34 1 0.0479845 0.617171 0.9226 0 0 -3.8147e-05
35 1 0.689205 0.825385 0.800644 0 0 1.65701e-05
36 1 0.492323 0.707287 0.905919 0 0 1.62125e-05
37 1 0.129283 0.915649 0.780207 0 0 3.00407e-05
38 1 0.406334 0.665596 0.531543 0 0 -1.52588e-05
39 1 0.045039 0.873897 0.407369 0 0 6.30617e-05
40 1 0.328006 0.700349 0.676554 0 0 2.98023e-06
41 1 0.966803 0.908646 0.552462 0 0 -6.27041e-05
42 1 0.244196 0.658582 0.304098 0 0 -2.20537e-05
43 1 0.882559 0.866894 0.179623 0 0 -2.89679e-05
44 1 0.683836 0.748861 0.283276 0 0 -3.09944e-06
45 1 0.322637 0.957158 0.159186 0 0 -1.77622e-05
46 1 0.605508 0.783614 0.428288 0 0 1.57356e-05
47 1 0.406334 0.998929 0.531543 0 0 -1.5378e-05
48 1 0.244196 0.991915 0.304098 0 0 -2.24113e-05
ITEM: TIMESTEP
9
ITEM: NUMBER OF ATOMS
48
ITEM: BOX BOUNDS xy xz yz pp pp pp
-6.8518686890602112e+00 8.6109705567359924e+00 2.5110912919044495e+00
-1.0506033897399902e-02 9.6185076832771301e+00 -6.8373118638992310e+00
-2.6944518089294434e-02 1.9544072151184082e+01 3.6519104242324829e-01
ITEM: ATOMS id type xs ys zs fx fy fz
1 1 0.963858 0.165372 0.0372308 0 0 -1.18017e-05
2 1 0.519519 0.0752559 0.0539112 0 0 -3.45707e-06
3 1 0.767647 0.123961 0.655733 0 0 -8.82149e-06
4 1 0.047984 0.950505 0.922599 0 0 1.15633e-05
5 1 0.689206 0.158718 0.800644 0 0 4.41074e-06
6 1 0.492323 0.0406205 0.905919 0 0 3.09944e-06
7 1 0.129284 0.248982 0.780208 0 0 7.62939e-06
8 1 0.0450398 0.20723 0.407369 0 0 6.67572e-06
9 1 0.328007 0.0336821 0.676554 0 0 -5.72205e-06
10 1 0.966803 0.24198 0.552461 0 0 -6.91414e-06
11 1 0.882558 0.200228 0.179622 0 0 -6.79493e-06
12 1 0.683836 0.0821943 0.283276 0 0 5.36442e-06
13 1 0.322636 0.290492 0.159186 0 0 -4.41074e-06
14 1 0.605508 0.116947 0.428288 0 0 -7.27177e-06
15 1 0.963858 0.498705 0.0372308 0 0 -1.19209e-05
16 1 0.519519 0.408589 0.0539112 0 0 -3.33786e-06
17 1 0.767647 0.457295 0.655733 0 0 -8.82149e-06
18 1 0.047984 0.283838 0.922599 0 0 1.19209e-05
19 1 0.689206 0.492051 0.800644 0 0 4.76837e-06
20 1 0.492323 0.373954 0.905919 0 0 2.98023e-06
21 1 0.129284 0.582315 0.780208 0 0 7.27177e-06
22 1 0.406334 0.332263 0.531543 0 0 7.7486e-06
23 1 0.0450398 0.540563 0.407369 0 0 6.91414e-06
24 1 0.328007 0.367015 0.676554 0 0 -5.84126e-06
25 1 0.966803 0.575313 0.552461 0 0 -6.79493e-06
26 1 0.244195 0.325248 0.304098 0 0 8.58307e-06
27 1 0.882558 0.533561 0.179622 0 0 -7.03335e-06
28 1 0.683836 0.415528 0.283276 0 0 5.84126e-06
29 1 0.322636 0.623825 0.159186 0 0 -4.76837e-06
30 1 0.605508 0.45028 0.428288 0 0 -7.7486e-06
31 1 0.963858 0.832038 0.0372308 0 0 -1.19209e-05
32 1 0.519519 0.741923 0.0539112 0 0 -3.57628e-06
33 1 0.767647 0.790628 0.655733 0 0 -8.58307e-06
34 1 0.047984 0.617171 0.922599 0 0 1.19209e-05
35 1 0.689206 0.825385 0.800644 0 0 4.29153e-06
36 1 0.492323 0.707287 0.905919 0 0 2.98023e-06
37 1 0.129284 0.915649 0.780208 0 0 7.86781e-06
38 1 0.406334 0.665596 0.531543 0 0 7.62939e-06
39 1 0.0450398 0.873897 0.407369 0 0 7.15256e-06
40 1 0.328007 0.700349 0.676554 0 0 -5.84126e-06
41 1 0.966803 0.908646 0.552461 0 0 -7.27177e-06
42 1 0.244195 0.658582 0.304098 0 0 8.70228e-06
43 1 0.882558 0.866894 0.179622 0 0 -7.27177e-06
44 1 0.683836 0.748861 0.283276 0 0 6.4373e-06
45 1 0.322636 0.957158 0.159186 0 0 -4.41074e-06
46 1 0.605508 0.783614 0.428288 0 0 -7.62939e-06
47 1 0.406334 0.998929 0.531543 0 0 7.51019e-06
48 1 0.244195 0.991915 0.304098 0 0 8.70228e-06
ITEM: TIMESTEP
10
ITEM: NUMBER OF ATOMS
48
ITEM: BOX BOUNDS xy xz yz pp pp pp
-6.8518686890602112e+00 8.6109705567359924e+00 2.5110912919044495e+00
-1.0506033897399902e-02 9.6185076832771301e+00 -6.8373118638992310e+00
-2.6944518089294434e-02 1.9544072151184082e+01 3.6519104242324829e-01
ITEM: ATOMS id type xs ys zs fx fy fz
1 1 0.963858 0.165372 0.0372306 0 0 -7.15256e-07
2 1 0.519519 0.0752559 0.0539111 0 0 4.76837e-07
3 1 0.767647 0.123961 0.655732 0 0 1.07288e-06
4 1 0.0479842 0.950505 0.9226 0 0 1.19209e-06
5 1 0.689206 0.158718 0.800644 0 0 1.07288e-06
6 1 0.492323 0.0406205 0.905919 0 0 -3.57628e-07
7 1 0.129284 0.248982 0.780208 0 0 -2.38419e-07
8 1 0.04504 0.20723 0.40737 0 0 1.66893e-06
9 1 0.328006 0.0336821 0.676554 0 0 -2.38419e-07
10 1 0.966802 0.24198 0.552461 0 0 -1.43051e-06
11 1 0.882558 0.200228 0.179622 0 0 0
12 1 0.683836 0.0821943 0.283276 0 0 3.57628e-07
13 1 0.322636 0.290492 0.159186 0 0 -8.34465e-07
14 1 0.605508 0.116947 0.428287 0 0 -2.38419e-07
15 1 0.963858 0.498705 0.0372306 0 0 -5.96046e-07
16 1 0.519519 0.408589 0.0539111 0 0 8.34465e-07
17 1 0.767647 0.457295 0.655732 0 0 1.19209e-06
18 1 0.0479842 0.283838 0.9226 0 0 9.53674e-07
19 1 0.689206 0.492051 0.800644 0 0 8.34465e-07
20 1 0.492323 0.373954 0.905919 0 0 -4.76837e-07
21 1 0.129284 0.582315 0.780208 0 0 -5.96046e-07
22 1 0.406334 0.332263 0.531543 0 0 -3.57628e-07
23 1 0.04504 0.540563 0.40737 0 0 1.78814e-06
24 1 0.328006 0.367015 0.676554 0 0 0
25 1 0.966802 0.575313 0.552461 0 0 -1.66893e-06
26 1 0.244195 0.325248 0.304098 0 0 -7.15256e-07
27 1 0.882558 0.533561 0.179622 0 0 2.38419e-07
28 1 0.683836 0.415528 0.283276 0 0 -4.76837e-07
29 1 0.322636 0.623825 0.159186 0 0 -5.96046e-07
30 1 0.605508 0.45028 0.428287 0 0 2.38419e-07
31 1 0.963858 0.832038 0.0372306 0 0 -7.15256e-07
32 1 0.519519 0.741923 0.0539111 0 0 3.57628e-07
33 1 0.767647 0.790628 0.655732 0 0 1.3113e-06
34 1 0.0479842 0.617171 0.9226 0 0 3.57628e-07
35 1 0.689206 0.825385 0.800644 0 0 9.53674e-07
36 1 0.492323 0.707287 0.905919 0 0 -3.57628e-07
37 1 0.129284 0.915649 0.780208 0 0 -8.34465e-07
38 1 0.406334 0.665596 0.531543 0 0 -1.19209e-07
39 1 0.04504 0.873897 0.40737 0 0 1.07288e-06
40 1 0.328006 0.700349 0.676554 0 0 1.19209e-07
41 1 0.966802 0.908646 0.552461 0 0 -1.66893e-06
42 1 0.244195 0.658582 0.304098 0 0 -1.19209e-06
43 1 0.882558 0.866894 0.179622 0 0 3.57628e-07
44 1 0.683836 0.748861 0.283276 0 0 -4.76837e-07
45 1 0.322636 0.957158 0.159186 0 0 -1.07288e-06
46 1 0.605508 0.783614 0.428287 0 0 0
47 1 0.406334 0.998929 0.531543 0 0 2.38419e-07
48 1 0.244195 0.991915 0.304098 0 0 -7.15256e-07
ITEM: TIMESTEP
11
ITEM: NUMBER OF ATOMS
48
ITEM: BOX BOUNDS xy xz yz pp pp pp
-6.8518686890602112e+00 8.6109705567359924e+00 2.5110912919044495e+00
-1.0506033897399902e-02 9.6185076832771301e+00 -6.8373118638992310e+00
-2.6944518089294434e-02 1.9544072151184082e+01 3.6519104242324829e-01
ITEM: ATOMS id type xs ys zs fx fy fz
1 1 0.963858 0.165372 0.0372306 0 0 2.38419e-07
2 1 0.519519 0.0752559 0.0539111 0 0 -3.57628e-07
3 1 0.767647 0.123961 0.655732 0 0 0
4 1 0.0479842 0.950505 0.9226 0 0 -3.57628e-07
5 1 0.689206 0.158718 0.800644 0 0 2.38419e-07
6 1 0.492323 0.0406205 0.905919 0 0 2.38419e-07
7 1 0.129284 0.248982 0.780208 0 0 2.38419e-07
8 1 0.0450401 0.20723 0.40737 0 0 2.38419e-07
9 1 0.328006 0.0336821 0.676554 0 0 -1.19209e-07
10 1 0.966802 0.24198 0.552461 0 0 1.19209e-07
11 1 0.882558 0.200228 0.179622 0 0 0
12 1 0.683836 0.0821943 0.283276 0 0 -1.19209e-07
13 1 0.322636 0.290492 0.159186 0 0 -4.76837e-07
14 1 0.605508 0.116947 0.428287 0 0 -2.38419e-07
15 1 0.963858 0.498705 0.0372306 0 0 0
16 1 0.519519 0.408589 0.0539111 0 0 -5.96046e-07
17 1 0.767647 0.457295 0.655732 0 0 -3.57628e-07
18 1 0.0479842 0.283838 0.9226 0 0 -2.38419e-07
19 1 0.689206 0.492051 0.800644 0 0 3.57628e-07