ITEM: TIMESTEP
0
ITEM: NUMBER OF ATOMS
32
ITEM: BOX BOUNDS xy xz yz pp pp pp
-2.4071335792541504e-03 6.3992393016815186e+00 0.0000000000000000e+00
-9.1621279716491699e-03 9.1238289475440979e+00 0.0000000000000000e+00
5.4966151714324951e-02 2.0670420289039612e+01 3.5942356586456299e+00
ITEM: ATOMS id type xs ys zs fx fy fz
1 1 0.999986 0.627512 0.0597547 0 0 0.0358162
2 1 0.499986 0.627512 0.0597547 0 0 0.0358162
3 1 0.249986 0.127513 0.0597528 0 0 0.0359173
4 1 0.749986 0.127513 0.0597528 0 0 0.0359173
5 1 0.999986 0.46529 0.309759 0 0 -0.00126648
6 1 0.249986 0.380492 0.184759 0 0 0.030941
7 1 0.749986 0.380492 0.184759 0 0 0.030941
8 1 0.499986 0.46529 0.309759 0 0 -0.00126648
9 1 0.999986 0.880493 0.184758 0 0 0.031004
10 1 0.249986 0.96529 0.309758 0 0 -0.00120544
11 1 0.499986 0.880493 0.184758 0 0 0.031004
12 1 0.749986 0.96529 0.309758 0 0 -0.00120544
13 1 0.999986 0.303049 0.559748 0 0 0.000841141
14 1 0.499986 0.303049 0.559748 0 0 0.000841141
15 1 0.249986 0.803049 0.559748 0 0 0.000833511
16 1 0.749986 0.803049 0.559748 0 0 0.000833511
17 1 0.249986 0.218266 0.434754 0 0 -0.000846863
18 1 0.749986 0.218266 0.434754 0 0 -0.000846863
19 1 0.999986 0.718267 0.434754 0 0 -0.000860214
20 1 0.499986 0.718267 0.434754 0 0 -0.000860214
21 1 0.999986 0.140814 0.809743 0 0 -0.0309792
22 1 0.249986 0.0560218 0.684743 0 0 0.00120735
23 1 0.499986 0.140814 0.809743 0 0 -0.0309792
24 1 0.749986 0.0560218 0.684743 0 0 0.00120735
25 1 0.999986 0.556022 0.684742 0 0 0.00126457
26 1 0.249986 0.640815 0.809742 0 0 -0.0309582
27 1 0.749986 0.640815 0.809742 0 0 -0.0309582
28 1 0.499986 0.556022 0.684742 0 0 0.00126457
29 1 0.249986 0.893792 0.934748 0 0 -0.0358925
30 1 0.749986 0.893792 0.934748 0 0 -0.0358925
31 1 0.999986 0.393792 0.934746 0 0 -0.0358162
32 1 0.499986 0.393792 0.934746 0 0 -0.0358162
ITEM: TIMESTEP
1
ITEM: NUMBER OF ATOMS
32
ITEM: BOX BOUNDS xy xz yz pp pp pp
-2.4071335792541504e-03 6.3992393016815186e+00 0.0000000000000000e+00
-9.1621279716491699e-03 9.1238289475440979e+00 0.0000000000000000e+00
5.4966151714324951e-02 2.0670420289039612e+01 3.5942356586456299e+00
ITEM: ATOMS id type xs ys zs fx fy fz
1 1 0.999986 0.62705 0.0604656 0 0 -0.0112782
2 1 0.499986 0.62705 0.0604656 0 0 -0.0112782
3 1 0.249986 0.127051 0.0604657 0 0 -0.011282
4 1 0.749986 0.127051 0.0604657 0 0 -0.011282
5 1 0.999986 0.465306 0.309734 0 0 0.0191536
6 1 0.249986 0.380093 0.185374 0 0 0.0117931
7 1 0.749986 0.380093 0.185374 0 0 0.0117931
8 1 0.499986 0.465306 0.309734 0 0 0.0191536
9 1 0.999986 0.880094 0.185373 0 0 0.0118179
10 1 0.249986 0.965305 0.309734 0 0 0.0191612
11 1 0.499986 0.880094 0.185373 0 0 0.0118179
12 1 0.749986 0.965305 0.309734 0 0 0.0191612
13 1 0.999986 0.303038 0.559764 0 0 -0.000415802
14 1 0.499986 0.303038 0.559764 0 0 -0.000415802
15 1 0.249986 0.803039 0.559764 0 0 -0.000413895
16 1 0.749986 0.803039 0.559764 0 0 -0.000413895
17 1 0.249986 0.218277 0.434737 0 0 0.000411987
18 1 0.749986 0.218277 0.434737 0 0 0.000411987
19 1 0.999986 0.718278 0.434737 0 0 0.000419617
20 1 0.499986 0.718278 0.434737 0 0 0.000419617
21 1 0.999986 0.141213 0.809128 0 0 -0.0118217
22 1 0.249986 0.0560062 0.684767 0 0 -0.0191669
23 1 0.499986 0.141213 0.809128 0 0 -0.0118217
24 1 0.749986 0.0560062 0.684767 0 0 -0.0191669
25 1 0.999986 0.556005 0.684767 0 0 -0.0191765
26 1 0.249986 0.641213 0.809128 0 0 -0.0117855
27 1 0.749986 0.641213 0.809128 0 0 -0.0117855
28 1 0.499986 0.556005 0.684767 0 0 -0.0191765
29 1 0.249986 0.894254 0.934035 0 0 0.011301
30 1 0.749986 0.894254 0.934035 0 0 0.011301
31 1 0.999986 0.394253 0.934035 0 0 0.011282
32 1 0.499986 0.394253 0.934035 0 0 0.011282
ITEM: TIMESTEP
2
ITEM: NUMBER OF ATOMS
32
ITEM: BOX BOUNDS xy xz yz pp pp pp
-2.4071335792541504e-03 6.3992393016815186e+00 0.0000000000000000e+00
-9.1621279716491699e-03 9.1238289475440979e+00 0.0000000000000000e+00
5.4966151714324951e-02 2.0670420289039612e+01 3.5942356586456299e+00
ITEM: ATOMS id type xs ys zs fx fy fz
1 1 0.999986 0.627053 0.0604618 0 0 0.00357437
2 1 0.499986 0.627053 0.0604618 0 0 0.00357437
3 1 0.249986 0.127053 0.0604626 0 0 0.00354004
4 1 0.749986 0.127053 0.0604626 0 0 0.00354004
5 1 0.999986 0.465027 0.310165 0 0 0.00701904
6 1 0.249986 0.379774 0.185865 0 0 -0.00627518
7 1 0.749986 0.379774 0.185865 0 0 -0.00627518
8 1 0.499986 0.465027 0.310165 0 0 0.00701904
9 1 0.999986 0.879774 0.185866 0 0 -0.00630951
10 1 0.249986 0.965025 0.310166 0 0 0.00700188
11 1 0.499986 0.879774 0.185866 0 0 -0.00630951
12 1 0.749986 0.965025 0.310166 0 0 0.00700188
13 1 0.999986 0.30304 0.559761 0 0 -0.0134048
14 1 0.499986 0.30304 0.559761 0 0 -0.0134048
15 1 0.249986 0.803041 0.559761 0 0 -0.0133991
16 1 0.749986 0.803041 0.559761 0 0 -0.0133991
17 1 0.249986 0.218275 0.434741 0 0 0.0133915
18 1 0.749986 0.218275 0.434741 0 0 0.0133915
19 1 0.999986 0.718276 0.434741 0 0 0.0133991
20 1 0.499986 0.718276 0.434741 0 0 0.0133991
21 1 0.999986 0.141532 0.808636 0 0 0.00631142
22 1 0.249986 0.0562864 0.684336 0 0 -0.00699425
23 1 0.499986 0.141532 0.808636 0 0 0.00631142
24 1 0.749986 0.0562864 0.684336 0 0 -0.00699425
25 1 0.999986 0.556285 0.684336 0 0 -0.0070076
26 1 0.249986 0.641532 0.808636 0 0 0.00627327
27 1 0.749986 0.641532 0.808636 0 0 0.00627327
28 1 0.499986 0.556285 0.684336 0 0 -0.0070076
29 1 0.249986 0.894251 0.934039 0 0 -0.00356102
30 1 0.749986 0.894251 0.934039 0 0 -0.00356102
31 1 0.999986 0.39425 0.934039 0 0 -0.00355911
32 1 0.499986 0.39425 0.934039 0 0 -0.00355911
ITEM: TIMESTEP
3
ITEM: NUMBER OF ATOMS
32
ITEM: BOX BOUNDS xy xz yz pp pp pp
-2.4071335792541504e-03 6.3992393016815186e+00 0.0000000000000000e+00
-9.1621279716491699e-03 9.1238289475440979e+00 0.0000000000000000e+00
5.4966151714324951e-02 2.0670420289039612e+01 3.5942356586456299e+00
ITEM: ATOMS id type xs ys zs fx fy fz
1 1 0.999986 0.627017 0.0605169 0 0 -0.000106812
2 1 0.499986 0.627017 0.0605169 0 0 -0.000106812
3 1 0.249986 0.127017 0.0605173 0 0 -0.000120163
4 1 0.749986 0.127017 0.0605173 0 0 -0.000120163
5 1 0.999986 0.464878 0.310394 0 0 -0.000160217
6 1 0.249986 0.37975 0.185902 0 0 0.000270844
7 1 0.749986 0.37975 0.185902 0 0 0.000270844
8 1 0.499986 0.464878 0.310394 0 0 -0.000160217
9 1 0.999986 0.87975 0.185902 0 0 0.000244141
10 1 0.249986 0.964877 0.310395 0 0 -0.000173569
11 1 0.499986 0.87975 0.185902 0 0 0.000244141
12 1 0.749986 0.964877 0.310395 0 0 -0.000173569
13 1 0.999986 0.303177 0.559549 0 0 -0.000377655
14 1 0.499986 0.303177 0.559549 0 0 -0.000377655
15 1 0.249986 0.803178 0.559549 0 0 -0.000371933
16 1 0.749986 0.803178 0.559549 0 0 -0.000371933
17 1 0.249986 0.218138 0.434952 0 0 0.000366211
18 1 0.749986 0.218138 0.434952 0 0 0.000366211
19 1 0.999986 0.718139 0.434952 0 0 0.000377655
20 1 0.499986 0.718139 0.434952 0 0 0.000377655
21 1 0.999986 0.141556 0.808599 0 0 -0.000263214
22 1 0.249986 0.0564349 0.684107 0 0 0.000181198
23 1 0.499986 0.141556 0.808599 0 0 -0.000263214
24 1 0.749986 0.0564349 0.684107 0 0 0.000181198
25 1 0.999986 0.556434 0.684107 0 0 0.000171661
26 1 0.249986 0.641556 0.808599 0 0 -0.000267029
27 1 0.749986 0.641556 0.808599 0 0 -0.000267029
28 1 0.499986 0.556434 0.684107 0 0 0.000171661
29 1 0.249986 0.894287 0.933984 0 0 0.000118256
30 1 0.749986 0.894287 0.933984 0 0 0.000118256
31 1 0.999986 0.394286 0.933984 0 0 0.000110626
32 1 0.499986 0.394286 0.933984 0 0 0.000110626
ITEM: TIMESTEP
4
ITEM: NUMBER OF ATOMS
32
ITEM: BOX BOUNDS xy xz yz pp pp pp
-2.4071335792541504e-03 6.3992393016815186e+00 0.0000000000000000e+00
-9.1621279716491699e-03 9.1238289475440979e+00 0.0000000000000000e+00
5.4966151714324951e-02 2.0670420289039612e+01 3.5942356586456299e+00
ITEM: ATOMS id type xs ys zs fx fy fz
1 1 0.999986 0.627018 0.060516 0 0 3.62396e-05
2 1 0.499986 0.627018 0.060516 0 0 3.62396e-05
3 1 0.249986 0.127018 0.0605163 0 0 3.24249e-05
4 1 0.749986 0.127018 0.0605163 0 0 3.24249e-05
5 1 0.999986 0.464879 0.310393 0 0 0.000116348
6 1 0.249986 0.379749 0.185904 0 0 6.29425e-05
7 1 0.749986 0.379749 0.185904 0 0 6.29425e-05
8 1 0.499986 0.464879 0.310393 0 0 0.000116348
9 1 0.999986 0.879749 0.185904 0 0 5.91278e-05
10 1 0.249986 0.964878 0.310393 0 0 0.000101089
11 1 0.499986 0.879749 0.185904 0 0 5.91278e-05
12 1 0.749986 0.964878 0.310393 0 0 0.000101089
13 1 0.999986 0.30318 0.559546 0 0 -2.28882e-05
14 1 0.499986 0.30318 0.559546 0 0 -2.28882e-05
15 1 0.249986 0.80318 0.559546 0 0 -1.90735e-05
16 1 0.749986 0.80318 0.559546 0 0 -1.90735e-05
17 1 0.249986 0.218136 0.434955 0 0 1.90735e-05
18 1 0.749986 0.218136 0.434955 0 0 1.90735e-05
19 1 0.999986 0.718137 0.434956 0 0 3.24249e-05
20 1 0.499986 0.718137 0.434956 0 0 3.24249e-05
21 1 0.999986 0.141557 0.808597 0 0 -5.14984e-05
22 1 0.249986 0.0564339 0.684108 0 0 -0.000104904
23 1 0.499986 0.141557 0.808597 0 0 -5.14984e-05
24 1 0.749986 0.0564339 0.684108 0 0 -0.000104904
25 1 0.999986 0.556433 0.684108 0 0 -0.000104904
26 1 0.249986 0.641558 0.808597 0 0 -6.67572e-05
27 1 0.749986 0.641558 0.808597 0 0 -6.67572e-05
28 1 0.499986 0.556433 0.684108 0 0 -0.000104904
29 1 0.249986 0.894286 0.933985 0 0 -4.00543e-05
30 1 0.749986 0.894286 0.933985 0 0 -4.00543e-05
31 1 0.999986 0.394285 0.933985 0 0 -4.95911e-05
32 1 0.499986 0.394285 0.933985 0 0 -4.95911e-05
ITEM: TIMESTEP
5
ITEM: NUMBER OF ATOMS
32
ITEM: BOX BOUNDS xy xz yz pp pp pp
-2.4071335792541504e-03 6.3992393016815186e+00 0.0000000000000000e+00
-9.1621279716491699e-03 9.1238289475440979e+00 0.0000000000000000e+00
5.4966151714324951e-02 2.0670420289039612e+01 3.5942356586456299e+00
ITEM: ATOMS id type xs ys zs fx fy fz
1 1 0.999986 0.627017 0.0605164 0 0 2.47955e-05
2 1 0.499986 0.627017 0.0605164 0 0 2.47955e-05
3 1 0.249986 0.127018 0.0605166 0 0 2.09808e-05
4 1 0.749986 0.127018 0.0605166 0 0 2.09808e-05
5 1 0.999986 0.464878 0.310394 0 0 6.86646e-05
6 1 0.249986 0.379748 0.185905 0 0 6.10352e-05
7 1 0.749986 0.379748 0.185905 0 0 6.10352e-05
8 1 0.499986 0.464878 0.310394 0 0 6.86646e-05
9 1 0.999986 0.879748 0.185905 0 0 4.3869e-05
10 1 0.249986 0.964877 0.310394 0 0 7.43866e-05
11 1 0.499986 0.879748 0.185905 0 0 4.3869e-05
12 1 0.749986 0.964877 0.310394 0 0 7.43866e-05
13 1 0.999986 0.30318 0.559545 0 0 -1.14441e-05
14 1 0.499986 0.30318 0.559545 0 0 -1.14441e-05
15 1 0.249986 0.803181 0.559545 0 0 -1.52588e-05
16 1 0.749986 0.803181 0.559545 0 0 -1.52588e-05
17 1 0.249986 0.218136 0.434956 0 0 2.67029e-05
18 1 0.749986 0.218136 0.434956 0 0 2.67029e-05
19 1 0.999986 0.718136 0.434956 0 0 1.14441e-05
20 1 0.499986 0.718136 0.434956 0 0 1.14441e-05
21 1 0.999986 0.141558 0.808596 0 0 -4.57764e-05
22 1 0.249986 0.0564346 0.684107 0 0 -6.67572e-05
23 1 0.499986 0.141558 0.808596 0 0 -4.57764e-05
24 1 0.749986 0.0564346 0.684107 0 0 -6.67572e-05
25 1 0.999986 0.556434 0.684107 0 0 -7.82013e-05
26 1 0.249986 0.641558 0.808596 0 0 -5.53131e-05
27 1 0.749986 0.641558 0.808596 0 0 -5.53131e-05
28 1 0.499986 0.556434 0.684107 0 0 -7.82013e-05
29 1 0.249986 0.894287 0.933985 0 0 -3.05176e-05
30 1 0.749986 0.894287 0.933985 0 0 -3.05176e-05
31 1 0.999986 0.394286 0.933985 0 0 -2.86102e-05
32 1 0.499986 0.394286 0.933985 0 0 -2.86102e-05
ITEM: TIMESTEP
6
ITEM: NUMBER OF ATOMS
32
ITEM: BOX BOUNDS xy xz yz pp pp pp
-2.4071335792541504e-03 6.3992393016815186e+00 0.0000000000000000e+00
-9.1621279716491699e-03 9.1238289475440979e+00 0.0000000000000000e+00
5.4966151714324951e-02 2.0670420289039612e+01 3.5942356586456299e+00
ITEM: ATOMS id type xs ys zs fx fy fz
1 1 0.999986 0.627017 0.0605164 0 0 2.47955e-05
2 1 0.499986 0.627017 0.0605164 0 0 2.47955e-05
3 1 0.249986 0.127018 0.0605166 0 0 2.09808e-05
4 1 0.749986 0.127018 0.0605166 0 0 2.09808e-05
5 1 0.999986 0.464878 0.310394 0 0 6.86646e-05
6 1 0.249986 0.379748 0.185905 0 0 6.10352e-05
7 1 0.749986 0.379748 0.185905 0 0 6.10352e-05
8 1 0.499986 0.464878 0.310394 0 0 6.86646e-05
9 1 0.999986 0.879748 0.185905 0 0 4.3869e-05
10 1 0.249986 0.964877 0.310394 0 0 7.43866e-05
11 1 0.499986 0.879748 0.185905 0 0 4.3869e-05
12 1 0.749986 0.964877 0.310394 0 0 7.43866e-05
13 1 0.999986 0.30318 0.559545 0 0 -1.14441e-05
14 1 0.499986 0.30318 0.559545 0 0 -1.14441e-05
15 1 0.249986 0.803181 0.559545 0 0 -1.52588e-05
16 1 0.749986 0.803181 0.559545 0 0 -1.52588e-05
17 1 0.249986 0.218136 0.434956 0 0 2.67029e-05
18 1 0.749986 0.218136 0.434956 0 0 2.67029e-05
19 1 0.999986 0.718136 0.434956 0 0 1.14441e-05
20 1 0.499986 0.718136 0.434956 0 0 1.14441e-05
21 1 0.999986 0.141558 0.808596 0 0 -4.57764e-05
22 1 0.249986 0.0564346 0.684107 0 0 -6.67572e-05
23 1 0.499986 0.141558 0.808596 0 0 -4.57764e-05
24 1 0.749986 0.0564346 0.684107 0 0 -6.67572e-05
25 1 0.999986 0.556434 0.684107 0 0 -7.82013e-05
26 1 0.249986 0.641558 0.808596 0 0 -5.53131e-05
27 1 0.749986 0.641558 0.808596 0 0 -5.53131e-05
28 1 0.499986 0.556434 0.684107 0 0 -7.82013e-05
29 1 0.249986 0.894287 0.933985 0 0 -3.05176e-05
30 1 0.749986 0.894287 0.933985 0 0 -3.05176e-05
31 1 0.999986 0.394286 0.933985 0 0 -2.86102e-05
32 1 0.499986 0.394286 0.933985 0 0 -2.86102e-05
