ITEM: TIMESTEP
0
ITEM: NUMBER OF ATOMS
32
ITEM: BOX BOUNDS xy xz yz pp pp pp
-9.5987319946289062e-04 6.3977920413017273e+00 -0.0000000000000000e+00
-1.0525226593017578e-02 8.0198867321014404e+00 0.0000000000000000e+00
-5.8505058288574219e-02 2.0783891499042511e+01 2.4889303445816040e+00
ITEM: ATOMS id type xs ys zs fx fy fz
1 1 0.999986 0.63983 0.0597507 -1.19209e-06 0 0.745702
2 1 0.499986 0.63983 0.0597507 1.43051e-06 0 0.745703
3 1 0.249986 0.13983 0.0597507 3.57628e-07 0 0.745705
4 1 0.749986 0.13983 0.0597507 -3.57628e-07 0 0.745703
5 1 0.999986 0.527543 0.309751 0 0 0.000936508
6 1 0.249986 0.41702 0.184751 -1.3113e-06 0 -0.00058794
7 1 0.749986 0.41702 0.184751 7.15256e-07 0 -0.000589132
8 1 0.499986 0.527543 0.309751 1.07288e-06 0 0.000937343
9 1 0.999986 0.91702 0.184751 7.15256e-07 0 -0.000588894
10 1 0.249986 0.0275434 0.309751 -2.02656e-06 0 0.000934839
11 1 0.499986 0.91702 0.184751 0 0 -0.000590682
12 1 0.749986 0.0275433 0.309751 1.54972e-06 0 0.000935197
13 1 0.999986 0.415257 0.559751 -2.38419e-06 0 5.97239e-05
14 1 0.499986 0.415257 0.559751 2.5034e-06 0 5.98431e-05
15 1 0.249986 0.915257 0.559751 -7.15256e-07 0 6.00815e-05
16 1 0.749986 0.915257 0.559751 8.34465e-07 0 6.06775e-05
17 1 0.249986 0.304734 0.434751 4.76837e-07 0 -5.97239e-05
18 1 0.749986 0.304734 0.434751 -2.38419e-06 0 -5.99623e-05
19 1 0.999986 0.804734 0.434751 9.53674e-07 0 -5.96046e-05
20 1 0.499986 0.804734 0.434751 2.38419e-07 0 -5.9247e-05
21 1 0.999986 0.30297 0.809751 2.38419e-07 0 0.000588298
22 1 0.249986 0.192447 0.684751 2.38419e-07 0 -0.000935793
23 1 0.499986 0.30297 0.809751 -7.15256e-07 0 0.000588775
24 1 0.749986 0.192447 0.684751 4.76837e-07 0 -0.000937462
25 1 0.999986 0.692447 0.684751 -5.96046e-07 0 -0.000936031
26 1 0.249986 0.80297 0.809751 0 0 0.00058949
27 1 0.749986 0.802971 0.809751 2.38419e-07 0 0.000588894
28 1 0.499986 0.692447 0.684751 3.57628e-07 0 -0.000936747
29 1 0.249986 0.0801608 0.934751 -4.76837e-07 0 -0.745705
30 1 0.749986 0.0801609 0.934751 1.19209e-07 0 -0.745701
31 1 0.999986 0.580161 0.934751 -5.96046e-07 0 -0.745702
32 1 0.499986 0.580161 0.934751 2.38419e-07 0 -0.745704
ITEM: TIMESTEP
1
ITEM: NUMBER OF ATOMS
32
ITEM: BOX BOUNDS xy xz yz pp pp pp
-9.5987319946289062e-04 6.3977920413017273e+00 -0.0000000000000000e+00
-1.0525226593017578e-02 8.0198867321014404e+00 0.0000000000000000e+00
-5.8505058288574219e-02 2.0783891499042511e+01 2.4889303445816040e+00
ITEM: ATOMS id type xs ys zs fx fy fz
1 1 0.999986 0.637675 0.0645486 -4.76837e-07 0 0.0567794
2 1 0.499986 0.637675 0.0645486 9.53674e-07 0 0.0567791
3 1 0.249986 0.137675 0.0645486 2.38419e-07 0 0.0567796
4 1 0.749986 0.137675 0.0645486 -2.38419e-07 0 0.0567806
5 1 0.999986 0.527541 0.309757 -1.19209e-07 0 0.00791407
6 1 0.249986 0.417022 0.184747 -8.34465e-07 0 0.144829
7 1 0.749986 0.417022 0.184747 1.07288e-06 0 0.144828
8 1 0.499986 0.527541 0.309757 0 0 0.00791407
9 1 0.999986 0.917021 0.184747 3.57628e-07 0 0.144829
10 1 0.249986 0.0275407 0.309757 -1.19209e-07 0 0.0079124
11 1 0.499986 0.917021 0.184747 -2.38419e-07 0 0.144828
12 1 0.749986 0.0275406 0.309757 2.38419e-07 0 0.00791252
13 1 0.999986 0.415257 0.559751 -3.57628e-07 0 0.000328422
14 1 0.499986 0.415257 0.559751 5.96046e-07 0 0.000328302
15 1 0.249986 0.915257 0.559751 3.57628e-07 0 0.000328898
16 1 0.749986 0.915257 0.559751 -2.38419e-07 0 0.000329018
17 1 0.249986 0.304734 0.43475 1.19209e-07 0 -0.000328541
18 1 0.749986 0.304734 0.43475 -5.96046e-07 0 -0.000328541
19 1 0.999986 0.804734 0.43475 2.38419e-07 0 -0.000328302
20 1 0.499986 0.804734 0.43475 -1.19209e-07 0 -0.000328064
21 1 0.999986 0.302969 0.809754 -1.19209e-07 0 -0.144829
22 1 0.249986 0.19245 0.684745 -3.57628e-07 0 -0.00791311
23 1 0.499986 0.302969 0.809754 -5.96046e-07 0 -0.144829
24 1 0.749986 0.19245 0.684745 2.38419e-07 0 -0.00791407
25 1 0.999986 0.69245 0.684745 -4.76837e-07 0 -0.00791347
26 1 0.249986 0.802969 0.809754 2.38419e-07 0 -0.144829
27 1 0.749986 0.802969 0.809754 1.19209e-07 0 -0.144828
28 1 0.499986 0.69245 0.684745 4.76837e-07 0 -0.00791383
29 1 0.249986 0.0823158 0.929953 -9.53674e-07 0 -0.056779
30 1 0.749986 0.0823158 0.929953 7.15256e-07 0 -0.0567784
31 1 0.999986 0.582316 0.929953 -3.57628e-07 0 -0.05678
32 1 0.499986 0.582316 0.929953 2.38419e-07 0 -0.05678
ITEM: TIMESTEP
2
ITEM: NUMBER OF ATOMS
32
ITEM: BOX BOUNDS xy xz yz pp pp pp
-9.5987319946289062e-04 6.3977920413017273e+00 -0.0000000000000000e+00
-1.0525226593017578e-02 8.0198867321014404e+00 0.0000000000000000e+00
-5.8505058288574219e-02 2.0783891499042511e+01 2.4889303445816040e+00
ITEM: ATOMS id type xs ys zs fx fy fz
1 1 0.999986 0.637117 0.0657911 -1.19209e-07 0 0.0164442
2 1 0.499986 0.637116 0.0657911 0 0 0.0164449
3 1 0.249986 0.137117 0.0657911 -4.76837e-07 0 0.0164447
4 1 0.749986 0.137117 0.0657912 5.96046e-07 0 0.0164442
5 1 0.999986 0.527463 0.30993 5.96046e-07 0 0.0871624
6 1 0.249986 0.415598 0.187916 9.53674e-07 0 -0.0106226
7 1 0.749986 0.415598 0.187916 -1.3113e-06 0 -0.0106219
8 1 0.499986 0.527463 0.30993 -1.19209e-07 0 0.087162
9 1 0.999986 0.915598 0.187916 -1.19209e-07 0 -0.0106224
10 1 0.249986 0.0274629 0.30993 -4.76837e-07 0 0.0871626
11 1 0.499986 0.915598 0.187916 9.53674e-07 0 -0.010622
12 1 0.749986 0.0274629 0.30993 1.19209e-07 0 0.0871624
13 1 0.999986 0.415254 0.559758 1.19209e-07 0 -0.0086683
14 1 0.499986 0.415254 0.559758 -2.38419e-07 0 -0.00866795
15 1 0.249986 0.915254 0.559758 -4.76837e-07 0 -0.00866854
16 1 0.749986 0.915254 0.559758 2.38419e-07 0 -0.00866926
17 1 0.249986 0.304737 0.434743 2.38419e-07 0 0.0086689
18 1 0.749986 0.304737 0.434743 -1.19209e-07 0 0.00866878
19 1 0.999986 0.804737 0.434743 -5.96046e-07 0 0.00866807
20 1 0.499986 0.804737 0.434743 4.76837e-07 0 0.00866795
21 1 0.999986 0.304392 0.806585 -2.38419e-07 0 0.0106227
22 1 0.249986 0.192528 0.684572 7.15256e-07 0 -0.0871626
23 1 0.499986 0.304392 0.806585 3.57628e-07 0 0.0106227
24 1 0.749986 0.192528 0.684571 -3.57628e-07 0 -0.0871624
25 1 0.999986 0.692528 0.684572 4.76837e-07 0 -0.0871627
26 1 0.249986 0.804392 0.806585 -3.57628e-07 0 0.0106227
27 1 0.749986 0.804392 0.806585 0 0 0.010622
28 1 0.499986 0.692528 0.684571 -4.76837e-07 0 -0.087162
29 1 0.249986 0.0828739 0.92871 8.34465e-07 0 -0.0164455
30 1 0.749986 0.0828739 0.92871 -1.07288e-06 0 -0.0164449
31 1 0.999986 0.582874 0.92871 1.19209e-07 0 -0.016444
32 1 0.499986 0.582874 0.92871 -2.38419e-07 0 -0.0164442
ITEM: TIMESTEP
3
ITEM: NUMBER OF ATOMS
32
ITEM: BOX BOUNDS xy xz yz pp pp pp
-9.5987319946289062e-04 6.3977920413017273e+00 -0.0000000000000000e+00
-1.0525226593017578e-02 8.0198867321014404e+00 0.0000000000000000e+00
-5.8505058288574219e-02 2.0783891499042511e+01 2.4889303445816040e+00
ITEM: ATOMS id type xs ys zs fx fy fz
1 1 0.999986 0.636776 0.0665501 1.19209e-07 0 -0.0351133
2 1 0.499986 0.636776 0.0665501 -2.38419e-07 0 -0.0351145
3 1 0.249986 0.136776 0.0665501 7.15256e-07 0 -0.035116
4 1 0.749986 0.136776 0.0665501 -7.15256e-07 0 -0.0351152
5 1 0.999986 0.526591 0.311871 -5.96046e-07 0 0.00259209
6 1 0.249986 0.415239 0.188716 -1.19209e-07 0 0.0187881
7 1 0.749986 0.415239 0.188716 5.96046e-07 0 0.0187882
8 1 0.499986 0.526591 0.311871 3.57628e-07 0 0.00259221
9 1 0.999986 0.915239 0.188716 2.38419e-07 0 0.0187889
10 1 0.249986 0.0265912 0.311871 8.34465e-07 0 0.00259209
11 1 0.499986 0.915239 0.188716 -4.76837e-07 0 0.0187891
12 1 0.749986 0.0265912 0.311871 -3.57628e-07 0 0.00259244
13 1 0.999986 0.415337 0.559573 2.38419e-07 0 -0.0445338
14 1 0.499986 0.415337 0.559573 -4.76837e-07 0 -0.044534
15 1 0.249986 0.915337 0.559573 1.19209e-07 0 -0.0445342
16 1 0.749986 0.915337 0.559573 -1.19209e-07 0 -0.044534
17 1 0.249986 0.304654 0.434928 -4.76837e-07 0 0.0445343
18 1 0.749986 0.304654 0.434928 2.38419e-07 0 0.0445338
19 1 0.999986 0.804654 0.434928 9.53674e-07 0 0.0445341
20 1 0.499986 0.804654 0.434928 -8.34465e-07 0 0.0445337
21 1 0.999986 0.304751 0.805786 -1.19209e-07 0 -0.0187883
22 1 0.249986 0.193399 0.682631 -4.76837e-07 0 -0.00259185
23 1 0.499986 0.304751 0.805786 0 0 -0.0187885
24 1 0.749986 0.193399 0.682631 3.57628e-07 0 -0.00259209
25 1 0.999986 0.693399 0.682631 3.57628e-07 0 -0.00259173
26 1 0.249986 0.804751 0.805786 -1.19209e-07 0 -0.0187888
27 1 0.749986 0.804751 0.805786 -1.19209e-07 0 -0.0187891
28 1 0.499986 0.693399 0.682631 0 0 -0.00259221
29 1 0.249986 0.0832148 0.927951 -2.38419e-07 0 0.0351146
30 1 0.749986 0.0832148 0.927951 4.76837e-07 0 0.0351139
31 1 0.999986 0.583215 0.927951 1.19209e-07 0 0.0351146
32 1 0.499986 0.583215 0.927951 -2.38419e-07 0 0.0351152
ITEM: TIMESTEP
4
ITEM: NUMBER OF ATOMS
32
ITEM: BOX BOUNDS xy xz yz pp pp pp
-9.5987319946289062e-04 6.3977920413017273e+00 -0.0000000000000000e+00
-1.0525226593017578e-02 8.0198867321014404e+00 0.0000000000000000e+00
-5.8505058288574219e-02 2.0783891499042511e+01 2.4889303445816040e+00
ITEM: ATOMS id type xs ys zs fx fy fz
1 1 0.999986 0.636887 0.0663018 4.76837e-07 0 0.00549805
2 1 0.499986 0.636887 0.0663018 -3.57628e-07 0 0.00549781
3 1 0.249986 0.136887 0.0663018 4.76837e-07 0 0.00549793
4 1 0.749986 0.136887 0.0663018 1.19209e-07 0 0.00549817
5 1 0.999986 0.526329 0.312455 0 0 -0.00195563
6 1 0.249986 0.415026 0.18919 -2.38419e-07 0 -0.000389934
7 1 0.749986 0.415026 0.18919 3.57628e-07 0 -0.000389934
8 1 0.499986 0.526329 0.312455 -1.19209e-07 0 -0.00195551
9 1 0.999986 0.915026 0.18919 2.38419e-07 0 -0.000390768
10 1 0.249986 0.0263287 0.312455 0 0 -0.00195551
11 1 0.499986 0.915026 0.18919 -4.76837e-07 0 -0.000390887
12 1 0.749986 0.0263287 0.312455 1.19209e-07 0 -0.00195527
13 1 0.999986 0.415624 0.558933 0 0 -0.00672412
14 1 0.499986 0.415624 0.558933 -4.76837e-07 0 -0.00672412
15 1 0.249986 0.915624 0.558933 4.76837e-07 0 -0.00672364
16 1 0.749986 0.915624 0.558933 0 0 -0.00672328
17 1 0.249986 0.304366 0.435568 -5.96046e-07 0 0.0067234
18 1 0.749986 0.304366 0.435568 5.96046e-07 0 0.00672328
19 1 0.999986 0.804366 0.435568 2.38419e-07 0 0.00672412
20 1 0.499986 0.804366 0.435568 0 0 0.006724
21 1 0.999986 0.304965 0.805311 1.19209e-07 0 0.000389814
22 1 0.249986 0.193662 0.682046 -4.76837e-07 0 0.00195599
23 1 0.499986 0.304964 0.805311 1.19209e-07 0 0.000389338
24 1 0.749986 0.193662 0.682046 1.19209e-07 0 0.00195599
25 1 0.999986 0.693662 0.682046 -3.57628e-07 0 0.00195575
26 1 0.249986 0.804964 0.805311 2.38419e-07 0 0.000389814
27 1 0.749986 0.804965 0.805311 -2.38419e-07 0 0.00039053
28 1 0.499986 0.693662 0.682046 4.76837e-07 0 0.00195551
29 1 0.249986 0.0831032 0.9282 -1.19209e-07 0 -0.00549734
30 1 0.749986 0.0831033 0.9282 -2.38419e-07 0 -0.00549757
31 1 0.999986 0.583103 0.9282 -3.57628e-07 0 -0.00549805
32 1 0.499986 0.583103 0.9282 -1.19209e-07 0 -0.00549793
ITEM: TIMESTEP
5
ITEM: NUMBER OF ATOMS
32
ITEM: BOX BOUNDS xy xz yz pp pp pp
-9.5987319946289062e-04 6.3977920413017273e+00 -0.0000000000000000e+00
-1.0525226593017578e-02 8.0198867321014404e+00 0.0000000000000000e+00
-5.8505058288574219e-02 2.0783891499042511e+01 2.4889303445816040e+00
ITEM: ATOMS id type xs ys zs fx fy fz
1 1 0.999986 0.636863 0.066356 0 0 -0.00019002
2 1 0.499986 0.636863 0.066356 0 0 -0.000189662
3 1 0.249986 0.136863 0.066356 -1.19209e-07 0 -0.000189304
4 1 0.749986 0.136863 0.066356 3.57628e-07 0 -0.000189781
5 1 0.999986 0.526337 0.312436 -1.19209e-07 0 0.000917196
6 1 0.249986 0.415028 0.189186 -1.19209e-07 0 0.00101948
7 1 0.749986 0.415028 0.189186 1.19209e-07 0 0.00101912
8 1 0.499986 0.526337 0.312436 0 0 0.000917077
9 1 0.999986 0.915027 0.189186 -2.38419e-07 0 0.00101972
10 1 0.249986 0.0263374 0.312436 4.76837e-07 0 0.000917315
11 1 0.499986 0.915027 0.189186 0 0 0.00101924
12 1 0.749986 0.0263374 0.312436 1.19209e-07 0 0.000917673
13 1 0.999986 0.415654 0.558867 0 0 -0.000474095
14 1 0.499986 0.415654 0.558867 0 0 -0.000474095
15 1 0.249986 0.915654 0.558867 0 0 -0.000473857
16 1 0.749986 0.915654 0.558867 -1.19209e-07 0 -0.000473857
17 1 0.249986 0.304336 0.435635 -1.19209e-07 0 0.000473499
18 1 0.749986 0.304337 0.435635 0 0 0.000473857
19 1 0.999986 0.804337 0.435635 0 0 0.000473976
20 1 0.499986 0.804337 0.435635 0 0 0.000474334
21 1 0.999986 0.304963 0.805315 -1.19209e-07 0 -0.001019
22 1 0.249986 0.193653 0.682066 -1.19209e-07 0 -0.000917435
23 1 0.499986 0.304963 0.805315 1.19209e-07 0 -0.001019
24 1 0.749986 0.193653 0.682066 -1.19209e-07 0 -0.000917435
25 1 0.999986 0.693653 0.682066 2.38419e-07 0 -0.000917196
26 1 0.249986 0.804963 0.805315 0 0 -0.00101972
27 1 0.749986 0.804963 0.805315 -1.19209e-07 0 -0.00101924
28 1 0.499986 0.693653 0.682066 1.19209e-07 0 -0.000917196
29 1 0.249986 0.0831276 0.928145 -4.76837e-07 0 0.000189543
30 1 0.749986 0.0831276 0.928145 2.38419e-07 0 0.000190258
31 1 0.999986 0.583127 0.928145 -2.38419e-07 0 0.000189424
32 1 0.499986 0.583127 0.928145 2.38419e-07 0 0.000189185
ITEM: TIMESTEP
6
ITEM: NUMBER OF ATOMS
32
ITEM: BOX BOUNDS xy xz yz pp pp pp
-9.5987319946289062e-04 6.3977920413017273e+00 -0.0000000000000000e+00
-1.0525226593017578e-02 8.0198867321014404e+00 0.0000000000000000e+00
-5.8505058288574219e-02 2.0783891499042511e+01 2.4889303445816040e+00
ITEM: ATOMS id type xs ys zs fx fy fz
1 1 0.999986 0.636863 0.0663547 3.57628e-07 0 0.000977516
2 1 0.499986 0.636863 0.0663547 -1.19209e-07 0 0.000976443
3 1 0.249986 0.136864 0.0663547 5.96046e-07 0 0.000977755
4 1 0.749986 0.136863 0.0663547 -3.57628e-07 0 0.000979066
5 1 0.999986 0.526325 0.312464 2.38419e-07 0 0.000743032
6 1 0.249986 0.415013 0.18922 1.19209e-07 0 -0.000202298
7 1 0.749986 0.415013 0.18922 2.38419e-07 0 -0.000201821
8 1 0.499986 0.526325 0.312464 0 0 0.000743151
9 1 0.999986 0.915012 0.18922 1.19209e-07 0 -0.000202537
10 1 0.249986 0.0263246 0.312464 -4.76837e-07 0 0.000743389
11 1 0.499986 0.915013 0.18922 1.19209e-07 0 -0.00020206
12 1 0.749986 0.0263245 0.312464 1.19209e-07 0 0.000742555
13 1 0.999986 0.415664 0.558845 -2.38419e-07 0 0.000606298
14 1 0.499986 0.415664 0.558845 2.38419e-07 0 0.000606298
15 1 0.249986 0.915664 0.558845 -1.19209e-07 0 0.00060606
16 1 0.749986 0.915664 0.558845 1.07288e-06 0 0.000606179
17 1 0.249986 0.304327 0.435657 2.38419e-07 0 -0.000605702
18 1 0.749986 0.304327 0.435657 -2.38419e-07 0 -0.000606179
19 1 0.999986 0.804327 0.435657 -5.96046e-07 0 -0.00060606
20 1 0.499986 0.804327 0.435657 -1.19209e-07 0 -0.000606537
21 1 0.999986 0.304978 0.805282 1.19209e-07 0 0.000201344
22 1 0.249986 0.193666 0.682037 2.38419e-07 0 -0.000742912
23 1 0.499986 0.304978 0.805282 -3.57628e-07 0 0.000201821
24 1 0.749986 0.193666 0.682037 0 0 -0.000742912
25 1 0.999986 0.693666 0.682037 -3.57628e-07 0 -0.000743151
26 1 0.249986 0.804978 0.805282 0 0 0.000202775
27 1 0.749986 0.804978 0.805282 2.38419e-07 0 0.000201941
28 1 0.499986 0.693666 0.682037 -2.38419e-07 0 -0.00074327
29 1 0.249986 0.083127 0.928147 5.96046e-07 0 -0.000976562
30 1 0.749986 0.083127 0.928147 -7.15256e-07 0 -0.000978112
31 1 0.999986 0.583127 0.928147 3.57628e-07 0 -0.000978112
32 1 0.499986 0.583127 0.928147 -1.07288e-06 0 -0.000977397
ITEM: TIMESTEP
7
ITEM: NUMBER OF ATOMS
32
ITEM: BOX BOUNDS xy xz yz pp pp pp
-9.5987319946289062e-04 6.3977920413017273e+00 -0.0000000000000000e+00
-1.0525226593017578e-02 8.0198867321014404e+00 0.0000000000000000e+00
-5.8505058288574219e-02 2.0783891499042511e+01 2.4889303445816040e+00
ITEM: ATOMS id type xs ys zs fx fy fz
1 1 0.999986 0.636858 0.0663665 -1.19209e-07 0 6.90222e-05
2 1 0.499986 0.636858 0.0663665 1.19209e-07 0 6.87838e-05
3 1 0.249986 0.136858 0.0663665 1.19209e-07 0 6.87838e-05
4 1 0.749986 0.136858 0.0663665 -4.76837e-07 0 6.8903e-05
5 1 0.999986 0.526316 0.312483 1.19209e-07 0 -0.000110626
6 1 0.249986 0.415009 0.189229 0 0 0.000145555
7 1 0.749986 0.415009 0.189229 -8.34465e-07 0 0.000146508
8 1 0.499986 0.526316 0.312483 4.76837e-07 0 -0.000110269
9 1 0.999986 0.915009 0.189229 8.34465e-07 0 0.000145674
10 1 0.249986 0.0263161 0.312483 -3.57628e-07 0 -0.000110507
11 1 0.499986 0.915009 0.189229 2.38419e-07 0 0.000146031
12 1 0.749986 0.026316 0.312483 -3.57628e-07 0 -0.000110984
13 1 0.999986 0.415664 0.558845 2.38419e-07 0 7.4625e-05
14 1 0.499986 0.415664 0.558845 0 0 7.45058e-05
15 1 0.249986 0.915664 0.558845 1.19209e-07 0 7.4625e-05
16 1 0.749986 0.915664 0.558845 -2.38419e-07 0 7.45058e-05
17 1 0.249986 0.304327 0.435656 1.19209e-07 0 -7.43866e-05
18 1 0.749986 0.304327 0.435656 0 0 -7.45058e-05
19 1 0.999986 0.804327 0.435656 2.38419e-07 0 -7.4625e-05
20 1 0.499986 0.804327 0.435656 -1.19209e-07 0 -7.48634e-05
21 1 0.999986 0.304982 0.805273 5.96046e-07 0 -0.00014627
22 1 0.249986 0.193674 0.682018 -2.38419e-07 0 0.000110865
23 1 0.499986 0.304982 0.805273 -2.38419e-07 0 -0.000146031
24 1 0.749986 0.193674 0.682018 1.19209e-07 0 0.000110745
25 1 0.999986 0.693674 0.682018 -2.38419e-07 0 0.000110745
26 1 0.249986 0.804982 0.805273 -1.19209e-07 0 -0.000145674
27 1 0.749986 0.804982 0.805273 3.57628e-07 0 -0.000145912
28 1 0.499986 0.693674 0.682018 -1.19209e-07 0 0.000110269
29 1 0.249986 0.0831323 0.928135 -1.19209e-07 0 -6.86646e-05
30 1 0.749986 0.0831323 0.928135 0 0 -6.8903e-05
31 1 0.999986 0.583132 0.928135 4.76837e-07 0 -6.90222e-05
32 1 0.499986 0.583132 0.928135 -5.96046e-07 0 -6.8903e-05
ITEM: TIMESTEP
8
ITEM: NUMBER OF ATOMS
32
ITEM: BOX BOUNDS xy xz yz pp pp pp
-9.5987319946289062e-04 6.3977920413017273e+00 -0.0000000000000000e+00
-1.0525226593017578e-02 8.0198867321014404e+00 0.0000000000000000e+00
-5.8505058288574219e-02 2.0783891499042511e+01 2.4889303445816040e+00
ITEM: ATOMS id type xs ys zs fx fy fz
1 1 0.999986 0.636857 0.0663679 -1.19209e-07 0 -1.78814e-06
2 1 0.499986 0.636857 0.0663679 0 0 -1.54972e-06
3 1 0.249986 0.136858 0.0663679 -1.19209e-07 0 -1.43051e-06
4 1 0.749986 0.136857 0.066368 1.19209e-07 0 -1.54972e-06
5 1 0.999986 0.526317 0.312482 5.96046e-07 0 5.96046e-07
6 1 0.249986 0.415008 0.189231 2.38419e-07 0 4.76837e-07
7 1 0.749986 0.415008 0.189231 3.57628e-07 0 1.19209e-07
8 1 0.499986 0.526317 0.312482 -5.96046e-07 0 7.15256e-07
9 1 0.999986 0.915007 0.189231 -3.57628e-07 0 4.76837e-07
10 1 0.249986 0.0263166 0.312482 -3.57628e-07 0 2.38419e-07
11 1 0.499986 0.915007 0.189231 -2.38419e-07 0 8.34465e-07
12 1 0.749986 0.0263166 0.312482 1.19209e-07 0 7.15256e-07
13 1 0.999986 0.415663 0.558846 2.38419e-07 0 2.38419e-07
14 1 0.499986 0.415663 0.558846 -2.38419e-07 0 5.96046e-07
15 1 0.249986 0.915663 0.558846 0 0 4.76837e-07
16 1 0.749986 0.915663 0.558846 -1.19209e-07 0 1.19209e-07
17 1 0.249986 0.304327 0.435655 1.19209e-07 0 -3.57628e-07
18 1 0.749986 0.304327 0.435655 0 0 -3.57628e-07
19 1 0.999986 0.804327 0.435655 1.19209e-07 0 -3.57628e-07
20 1 0.499986 0.804327 0.435655 1.19209e-07 0 -7.15256e-07
21 1 0.999986 0.304983 0.80527 -1.19209e-07 0 -2.38419e-07
22 1 0.249986 0.193674 0.682019 5.96046e-07 0 -4.76837e-07
23 1 0.499986 0.304983 0.80527 3.57628e-07 0 -8.34465e-07
24 1 0.749986 0.193674 0.682019 -3.57628e-07 0 -2.38419e-07
25 1 0.999986 0.693674 0.682019 1.19209e-07 0 -7.15256e-07
26 1 0.249986 0.804983 0.80527 3.57628e-07 0 -5.96046e-07
27 1 0.749986 0.804983 0.80527 -4.76837e-07 0 -7.15256e-07
28 1 0.499986 0.693674 0.682019 -3.57628e-07 0 -1.19209e-07
29 1 0.249986 0.0831329 0.928133 3.57628e-07 0 1.54972e-06
30 1 0.749986 0.083133 0.928133 -3.57628e-07 0 9.53674e-07
31 1 0.999986 0.583133 0.928133 -7.15256e-07 0 2.14577e-06
32 1 0.499986 0.583133 0.928133 7.15256e-07 0 1.78814e-06
ITEM: TIMESTEP
9
ITEM: NUMBER OF ATOMS
32
ITEM: BOX BOUNDS xy xz yz pp pp pp
-9.5987319946289062e-04 6.3977920413017273e+00 -0.0000000000000000e+00
-1.0525226593017578e-02 8.0198867321014404e+00 0.0000000000000000e+00
-5.8505058288574219e-02 2.0783891499042511e+01 2.4889303445816040e+00
ITEM: ATOMS id type xs ys zs fx fy fz
1 1 0.999986 0.636857 0.0663679 0 0 1.19209e-07
2 1 0.499986 0.636857 0.0663679 1.19209e-07 0 -1.19209e-07
3 1 0.249986 0.136858 0.0663679 0 0 -2.38419e-07
4 1 0.749986 0.136857 0.0663679 0 0 -2.38419e-07
5 1 0.999986 0.526317 0.312482 1.19209e-07 0 2.38419e-07
6 1 0.249986 0.415008 0.189231 2.38419e-07 0 -1.19209e-07
7 1 0.749986 0.415008 0.189231 3.57628e-07 0 -2.38419e-07
8 1 0.499986 0.526317 0.312482 1.19209e-07 0 2.38419e-07
9 1 0.999986 0.915007 0.189231 -1.19209e-07 0 -2.38419e-07
10 1 0.249986 0.0263166 0.312482 -3.57628e-07 0 4.76837e-07
11 1 0.499986 0.915007 0.189231 -1.19209e-07 0 0
12 1 0.749986 0.0263166 0.312482 0 0 3.57628e-07
13 1 0.999986 0.415663 0.558846 0 0 1.19209e-07
14 1 0.499986 0.415663 0.558846 0 0 0
15 1 0.249986 0.915663 0.558846 -1.19209e-07 0 4.76837e-07
16 1 0.749986 0.915663 0.558846 0 0 0
17 1 0.249986 0.304327 0.435655 0 0 -2.38419e-07
18 1 0.749986 0.304327 0.435655 0 0 2.38419e-07
19 1 0.999986 0.804327 0.435655 1.19209e-07 0 -1.19209e-07
20 1 0.499986 0.804327 0.435655 1.19209e-07 0 0
21 1 0.999986 0.304983 0.80527 -2.38419e-07 0 4.76837e-07
22 1 0.249986 0.193674 0.682019 0 0 -4.76837e-07
23 1 0.499986 0.304983 0.80527 0 0 -1.19209e-07
24 1 0.749986 0.193674 0.682019 2.38419e-07 0 -3.57628e-07
25 1 0.999986 0.693674 0.682019 -5.96046e-07 0 -4.76837e-07
26 1 0.249986 0.804983 0.80527 -3.57628e-07 0 3.57628e-07
27 1 0.749986 0.804983 0.80527 2.38419e-07 0 -2.38419e-07
28 1 0.499986 0.693674 0.682019 3.57628e-07 0 -2.38419e-07
29 1 0.249986 0.0831329 0.928133 1.19209e-07 0 0
30 1 0.749986 0.083133 0.928133 0 0 1.19209e-07
31 1 0.999986 0.583133 0.928133 -4.76837e-07 0 1.19209e-07
32 1 0.499986 0.583133 0.928133 2.38419e-07 0 1.19209e-07
