ITEM: TIMESTEP
0
ITEM: NUMBER OF ATOMS
32
ITEM: BOX BOUNDS xy xz yz pp pp pp
2.3402176666958421e-03 9.0289949050457921e+00 2.6367861227124871e+00
-1.8700970345103249e-02 2.2101578970345098e+01 0.0000000000000000e+00
8.6472273715375633e-03 5.1738187726284668e+00 0.0000000000000000e+00
ITEM: ATOMS id type xs ys zs fx fy fz
1 1 0.880345 0.336531 0.593597 0 0.0023832 -9.16571e-06
2 1 0.380344 0.336531 0.593597 0 0.00238493 -9.06164e-06
3 1 0.147462 0.295047 0.0935968 0 -0.00199844 7.55614e-06
4 1 0.647462 0.295047 0.0935968 0 -0.0019949 8.53042e-06
5 1 0.0787613 0.461534 0.593597 0 0.00201674 -9.76424e-06
6 1 0.578761 0.461534 0.593597 0 0.00201165 -9.15256e-06
7 1 0.845881 0.420048 0.0935968 0 -0.00221007 9.22161e-06
8 1 0.34588 0.420048 0.0935968 0 -0.00221256 9.11537e-06
9 1 0.777182 0.586531 0.593597 0 0.00213947 -7.80704e-06
10 1 0.277181 0.586531 0.593597 0 0.00213946 -8.57105e-06
11 1 0.975601 0.711528 0.593597 0 0.00202321 -6.4931e-06
12 1 0.475601 0.711528 0.593597 0 0.00201863 -6.31124e-06
13 1 0.742719 0.670045 0.0935969 0 -0.00226809 6.35097e-06
14 1 0.0442996 0.545047 0.0935968 0 -0.00218393 8.89772e-06
15 1 0.5443 0.545047 0.0935968 0 -0.00217872 9.56996e-06
16 1 0.242719 0.670045 0.0935969 0 -0.00226808 6.84773e-06
17 1 0.67402 0.836529 0.593597 0 0.00601155 -3.79721e-06
18 1 0.174019 0.836529 0.593597 0 0.00601139 -3.79702e-06
19 1 0.872438 0.961528 0.593597 0 -0.101677 -2.90009e-06
20 1 0.372438 0.961528 0.593597 0 -0.101688 -3.63674e-06
21 1 0.941136 0.795048 0.0935969 0 -8.65888e-05 4.3066e-06
22 1 0.441137 0.795048 0.0935969 0 -8.36856e-05 4.98424e-06
23 1 0.639558 0.920043 0.0935969 0 -0.197991 4.35251e-06
24 1 0.139557 0.920043 0.0935969 0 -0.197988 3.3207e-06
25 1 0.98351 0.0865253 0.593597 0 0.198245 -1.92344e-06
26 1 0.483509 0.0865253 0.593597 0 0.19825 -3.09285e-07
27 1 0.250628 0.0450412 0.093597 0 0.101728 1.50367e-06
28 1 0.750628 0.0450411 0.0935969 0 0.101737 1.40214e-06
29 1 0.181927 0.211528 0.593597 0 -7.29427e-05 -4.1548e-06
30 1 0.681927 0.211528 0.593597 0 -7.63998e-05 -5.08323e-06
31 1 0.949046 0.170044 0.0935969 0 -0.00606065 3.40515e-06
32 1 0.449045 0.170044 0.093597 0 -0.00606196 2.68163e-06
ITEM: TIMESTEP
7
ITEM: NUMBER OF ATOMS
32
ITEM: BOX BOUNDS xy xz yz pp pp pp
2.3402176666958421e-03 9.0289949050457921e+00 2.6367861227124871e+00
-1.8700970345103249e-02 2.2101578970345098e+01 0.0000000000000000e+00
8.6472273715375633e-03 5.1738187726284668e+00 0.0000000000000000e+00
ITEM: ATOMS id type xs ys zs fx fy fz
1 1 0.87995 0.337487 0.593597 0 -0.000433575 1.72885e-07
2 1 0.379949 0.337487 0.593597 0 -0.000433866 -5.46292e-07
3 1 0.147026 0.296105 0.0935971 0 0.000423963 5.14882e-07
4 1 0.647026 0.296105 0.0935971 0 0.000422695 -1.76917e-07
5 1 0.0786928 0.4617 0.593597 0 0.00111844 -6.46762e-07
6 1 0.578693 0.4617 0.593597 0 0.00111598 3.41139e-07
7 1 0.845678 0.42054 0.0935971 0 0.00113535 3.57229e-07
8 1 0.345677 0.42054 0.0935971 0 0.00113356 5.14483e-07
9 1 0.777386 0.586035 0.593597 0 -0.00113987 6.15177e-07
10 1 0.277386 0.586035 0.593597 0 -0.00113806 -2.74549e-07
11 1 0.976038 0.71047 0.593597 0 -0.000422189 -1.10457e-06
12 1 0.476038 0.71047 0.593597 0 -0.000424563 -4.08916e-07
13 1 0.743115 0.669087 0.0935971 0 0.000434266 3.86673e-07
14 1 0.0443708 0.544874 0.0935971 0 -0.0011193 6.36755e-07
15 1 0.544371 0.544874 0.0935971 0 -0.00111694 -1.10579e-06
16 1 0.243114 0.669087 0.0935971 0 0.000434578 7.9199e-07
17 1 0.674518 0.83532 0.593597 0 -0.000442086 -2.83169e-07
18 1 0.174518 0.835321 0.593597 0 -0.000442202 -3.34068e-07
19 1 0.872667 0.960974 0.593597 0 0.000757885 -1.62007e-07
20 1 0.372667 0.960974 0.593597 0 0.000756921 -6.87367e-08
21 1 0.941916 0.793158 0.0935971 0 -0.000100787 2.72603e-07
22 1 0.441916 0.793158 0.093597 0 -9.91655e-05 9.29249e-08
23 1 0.641011 0.916521 0.0935971 0 0.000215686 2.89884e-07
24 1 0.14101 0.916521 0.093597 0 0.00021464 5.00463e-07
25 1 0.982054 0.0900535 0.593597 0 -0.000217625 3.28845e-07
26 1 0.482053 0.0900534 0.593597 0 -0.000216337 -3.40476e-07
27 1 0.250397 0.0456006 0.093597 0 -0.000753992 2.66025e-07
28 1 0.750397 0.0456007 0.093597 0 -0.000754566 -1.21545e-08
29 1 0.181147 0.213416 0.593597 0 0.000104265 -1.15211e-06
30 1 0.681147 0.213416 0.593597 0 0.000105916 1.38574e-07
31 1 0.948546 0.171254 0.0935971 0 0.000441196 -2.66834e-07
32 1 0.448546 0.171254 0.0935971 0 0.000440049 6.39184e-07
