Generated by pymatgen.io.lammps.data.LammpsData

900  atoms

  4  atom types

0.000000 26.166210  xlo xhi
0.000000 26.166210  ylo yhi
0.000000 25.254800  zlo zhi

Masses

1   6.941000
2  72.640000
3  30.973762
4  32.065000

Atoms

1    1  1.900556  7.113729  9.525555
2    1  1.900556  7.113729 22.153005
3    1  1.900556 15.835790  9.525555
4    1  1.900556 15.835790 22.153005
5    1  1.900556 24.557904  9.525555
6    1  1.900556 24.557904 22.153005
7    1 10.622592  7.113729  9.525555
8    1 10.622592  7.113729 22.153005
9    1 10.622592 15.835790  9.525555
10   1 10.622592 15.835790 22.153005
11   1 10.622592 24.557904  9.525555
12   1 10.622592 24.557904 22.153005
13   1 19.344705  7.113729  9.525555
14   1 19.344705  7.113729 22.153005
15   1 19.344705 15.835790  9.525555
16   1 19.344705 15.835790 22.153005
17   1 19.344705 24.557904  9.525555
18   1 19.344705 24.557904 22.153005
19   1  1.935070  2.266255 11.613192
20   1  1.935070  2.266255 24.240592
21   1  1.935070 10.988291 11.613192
22   1  1.935070 10.988291 24.240592
23   1  1.935070 19.710404 11.613192
24   1  1.935070 19.710404 24.240592
25   1 10.657105  2.266255 11.613192
26   1 10.657105  2.266255 24.240592
27   1 10.657105 10.988291 11.613192
28   1 10.657105 10.988291 24.240592
29   1 10.657105 19.710404 11.613192
30   1 10.657105 19.710404 24.240592
31   1 19.379192  2.266255 11.613192
32   1 19.379192  2.266255 24.240592
33   1 19.379192 10.988291 11.613192
34   1 19.379192 10.988291 24.240592
35   1 19.379192 19.710404 11.613192
36   1 19.379192 19.710404 24.240592
37   1  1.996900  6.605058  3.175463
38   1  1.996900  6.605058 15.802888
39   1  1.996900 15.327093  3.175463
40   1  1.996900 15.327093 15.802888
41   1  1.996900 24.049207  3.175463
42   1  1.996900 24.049207 15.802888
43   1 10.718988  6.605058  3.175463
44   1 10.718988  6.605058 15.802888
45   1 10.718988 15.327093  3.175463
46   1 10.718988 15.327093 15.802888
47   1 10.718988 24.049207  3.175463
48   1 10.718988 24.049207 15.802888
49   1 19.440997  6.605058  3.175463
50   1 19.440997  6.605058 15.802888
51   1 19.440997 15.327093  3.175463
52   1 19.440997 15.327093 15.802888
53   1 19.440997 24.049207  3.175463
54   1 19.440997 24.049207 15.802888
55   1  2.007341  1.963774  4.642691
56   1  2.007341  1.963774 17.270091
57   1  2.007341 10.685809  4.642691
58   1  2.007341 10.685809 17.270091
59   1  2.007341 19.407897  4.642691
60   1  2.007341 19.407897 17.270091
61   1 10.729402  1.963774  4.642691
62   1 10.729402  1.963774 17.270091
63   1 10.729402 10.685809  4.642691
64   1 10.729402 10.685809 17.270091
65   1 10.729402 19.407897  4.642691
66   1 10.729402 19.407897 17.270091
67   1 19.451490  1.963774  4.642691
68   1 19.451490  1.963774 17.270091
69   1 19.451490 10.685809  4.642691
70   1 19.451490 10.685809 17.270091
71   1 19.451490 19.407897  4.642691
72   1 19.451490 19.407897 17.270091
73   1  2.102115  1.840610  8.207381
74   1  2.102115  1.840610 20.834806
75   1  2.102115 10.562697  8.207381
76   1  2.102115 10.562697 20.834806
77   1  2.102115 19.284811  8.207381
78   1  2.102115 19.284811 20.834806
79   1 10.824202  1.840610  8.207381
80   1 10.824202  1.840610 20.834806
81   1 10.824202 10.562697  8.207381
82   1 10.824202 10.562697 20.834806
83   1 10.824202 19.284811  8.207381
84   1 10.824202 19.284811 20.834806
85   1 19.546290  1.840610  8.207381
86   1 19.546290  1.840610 20.834806
87   1 19.546290 10.562697  8.207381
88   1 19.546290 10.562697 20.834806
89   1 19.546290 19.284811  8.207381
90   1 19.546290 19.284811 20.834806
91   1  2.131918  6.282272  6.122319
92   1  2.131918  6.282272 18.749694
93   1  2.131918 15.004307  6.122319
94   1  2.131918 15.004307 18.749694
95   1  2.131918 23.726394  6.122319
96   1  2.131918 23.726394 18.749694
97   1 10.854006  6.282272  6.122319
98   1 10.854006  6.282272 18.749694
99   1 10.854006 15.004307  6.122319
100  1 10.854006 15.004307 18.749694
101  1 10.854006 23.726394  6.122319
102  1 10.854006 23.726394 18.749694
103  1 19.576093  6.282272  6.122319
104  1 19.576093  6.282272 18.749694
105  1 19.576093 15.004307  6.122319
106  1 19.576093 15.004307 18.749694
107  1 19.576093 23.726394  6.122319
108  1 19.576093 23.726394 18.749694
109  1  2.138460  6.620862  0.089932
110  1  2.138460  6.620862 12.717307
111  1  2.138460 15.342897  0.089932
112  1  2.138460 15.342897 12.717307
113  1  2.138460 24.065011  0.089932
114  1  2.138460 24.065011 12.717307
115  1 10.860495  6.620862  0.089932
116  1 10.860495  6.620862 12.717307
117  1 10.860495 15.342897  0.089932
118  1 10.860495 15.342897 12.717307
119  1 10.860495 24.065011  0.089932
120  1 10.860495 24.065011 12.717307
121  1 19.582608  6.620862  0.089932
122  1 19.582608  6.620862 12.717307
123  1 19.582608 15.342897  0.089932
124  1 19.582608 15.342897 12.717307
125  1 19.582608 24.065011  0.089932
126  1 19.582608 24.065011 12.717307
127  1  2.259269  2.538777  1.976138
128  1  2.259269  2.538777 14.603512
129  1  2.259269 11.260812  1.976138
130  1  2.259269 11.260812 14.603512
131  1  2.259269 19.982899  1.976138
132  1  2.259269 19.982899 14.603512
133  1 10.981304  2.538777  1.976138
134  1 10.981304  2.538777 14.603512
135  1 10.981304 11.260812  1.976138
136  1 10.981304 11.260812 14.603512
137  1 10.981304 19.982899  1.976138
138  1 10.981304 19.982899 14.603512
139  1 19.703392  2.538777  1.976138
140  1 19.703392  2.538777 14.603512
141  1 19.703392 11.260812  1.976138
142  1 19.703392 11.260812 14.603512
143  1 19.703392 19.982899  1.976138
144  1 19.703392 19.982899 14.603512
145  1  4.040351  4.491011  9.464615
146  1  4.040351  4.491011 22.091990
147  1  4.040351 13.213099  9.464615
148  1  4.040351 13.213099 22.091990
149  1  4.040351 21.935212  9.464615
150  1  4.040351 21.935212 22.091990
151  1 12.762412  4.491011  9.464615
152  1 12.762412  4.491011 22.091990
153  1 12.762412 13.213099  9.464615
154  1 12.762412 13.213099 22.091990
155  1 12.762412 21.935212  9.464615
156  1 12.762412 21.935212 22.091990
157  1 21.484499  4.491011  9.464615
158  1 21.484499  4.491011 22.091990
159  1 21.484499 13.213099  9.464615
160  1 21.484499 13.213099 22.091990
161  1 21.484499 21.935212  9.464615
162  1 21.484499 21.935212 22.091990
163  1  4.324202  8.686528  0.639502
164  1  4.324202  8.686528 13.266902
165  1  4.324202 17.408589  0.639502
166  1  4.324202 17.408589 13.266902
167  1  4.324202 26.130702  0.639502
168  1  4.324202 26.130702 13.266902
169  1 13.046289  8.686528  0.639502
170  1 13.046289  8.686528 13.266902
171  1 13.046289 17.408589  0.639502
172  1 13.046289 17.408589 13.266902
173  1 13.046289 26.130702  0.639502
174  1 13.046289 26.130702 13.266902
175  1 21.768298  8.686528  0.639502
176  1 21.768298  8.686528 13.266902
177  1 21.768298 17.408589  0.639502
178  1 21.768298 17.408589 13.266902
179  1 21.768298 26.130702  0.639502
180  1 21.768298 26.130702 13.266902
181  1  4.462621  8.404351  6.933453
182  1  4.462621  8.404351 19.560903
183  1  4.462621 17.126412  6.933453
184  1  4.462621 17.126412 19.560903
185  1  4.462621 25.848500  6.933453
186  1  4.462621 25.848500 19.560903
187  1 13.184708  8.404351  6.933453
188  1 13.184708  8.404351 19.560903
189  1 13.184708 17.126412  6.933453
190  1 13.184708 17.126412 19.560903
191  1 13.184708 25.848500  6.933453
192  1 13.184708 25.848500 19.560903
193  1 21.906691  8.404351  6.933453
194  1 21.906691  8.404351 19.560903
195  1 21.906691 17.126412  6.933453
196  1 21.906691 17.126412 19.560903
197  1 21.906691 25.848500  6.933453
198  1 21.906691 25.848500 19.560903
199  1  6.390076  2.253146 10.815393
200  1  6.390076  2.253146 23.442793
201  1  6.390076 10.975207 10.815393
202  1  6.390076 10.975207 23.442793
203  1  6.390076 19.697295 10.815393
204  1  6.390076 19.697295 23.442793
205  1 15.112111  2.253146 10.815393
206  1 15.112111  2.253146 23.442793
207  1 15.112111 10.975207 10.815393
208  1 15.112111 10.975207 23.442793
209  1 15.112111 19.697295 10.815393
210  1 15.112111 19.697295 23.442793
211  1 23.834199  2.253146 10.815393
212  1 23.834199  2.253146 23.442793
213  1 23.834199 10.975207 10.815393
214  1 23.834199 10.975207 23.442793
215  1 23.834199 19.697295 10.815393
216  1 23.834199 19.697295 23.442793
217  1  6.460045  2.315893  1.651487
218  1  6.460045  2.315893 14.278912
219  1  6.460045 11.037902  1.651487
220  1  6.460045 11.037902 14.278912
221  1  6.460045 19.759989  1.651487
222  1  6.460045 19.759989 14.278912
223  1 15.182106  2.315893  1.651487
224  1 15.182106  2.315893 14.278912
225  1 15.182106 11.037902  1.651487
226  1 15.182106 11.037902 14.278912
227  1 15.182106 19.759989  1.651487
228  1 15.182106 19.759989 14.278912
229  1 23.904193  2.315893  1.651487
230  1 23.904193  2.315893 14.278912
231  1 23.904193 11.037902  1.651487
232  1 23.904193 11.037902 14.278912
233  1 23.904193 19.759989  1.651487
234  1 23.904193 19.759989 14.278912
235  1  6.497201  6.523838  3.583833
236  1  6.497201  6.523838 16.211208
237  1  6.497201 15.245899  3.583833
238  1  6.497201 15.245899 16.211208
239  1  6.497201 23.968013  3.583833
240  1  6.497201 23.968013 16.211208
241  1 15.219288  6.523838  3.583833
242  1 15.219288  6.523838 16.211208
243  1 15.219288 15.245899  3.583833
244  1 15.219288 15.245899 16.211208
245  1 15.219288 23.968013  3.583833
246  1 15.219288 23.968013 16.211208
247  1 23.941297  6.523838  3.583833
248  1 23.941297  6.523838 16.211208
249  1 23.941297 15.245899  3.583833
250  1 23.941297 15.245899 16.211208
251  1 23.941297 23.968013  3.583833
252  1 23.941297 23.968013 16.211208
253  1  6.526690  6.614242  0.119278
254  1  6.526690  6.614242 12.746704
255  1  6.526690 15.336304  0.119278
256  1  6.526690 15.336304 12.746704
257  1  6.526690 24.058391  0.119278
258  1  6.526690 24.058391 12.746704
259  1 15.248804  6.614242  0.119278
260  1 15.248804  6.614242 12.746704
261  1 15.248804 15.336304  0.119278
262  1 15.248804 15.336304 12.746704
263  1 15.248804 24.058391  0.119278
264  1 15.248804 24.058391 12.746704
265  1 23.970813  6.614242  0.119278
266  1 23.970813  6.614242 12.746704
267  1 23.970813 15.336304  0.119278
268  1 23.970813 15.336304 12.746704
269  1 23.970813 24.058391  0.119278
270  1 23.970813 24.058391 12.746704
271  1  6.579520  1.895297  4.454669
272  1  6.579520  1.895297 17.082094
273  1  6.579520 10.617411  4.454669
274  1  6.579520 10.617411 17.082094
275  1  6.579520 19.339498  4.454669
276  1  6.579520 19.339498 17.082094
277  1 15.301607  1.895297  4.454669
278  1 15.301607  1.895297 17.082094
279  1 15.301607 10.617411  4.454669
280  1 15.301607 10.617411 17.082094
281  1 15.301607 19.339498  4.454669
282  1 15.301607 19.339498 17.082094
283  1 24.023695  1.895297  4.454669
284  1 24.023695  1.895297 17.082094
285  1 24.023695 10.617411  4.454669
286  1 24.023695 10.617411 17.082094
287  1 24.023695 19.339498  4.454669
288  1 24.023695 19.339498 17.082094
289  1  6.646714  6.329685  8.736696
290  1  6.646714  6.329685 21.364096
291  1  6.646714 15.051694  8.736696
292  1  6.646714 15.051694 21.364096
293  1  6.646714 23.773807  8.736696
294  1  6.646714 23.773807 21.364096
295  1 15.368802  6.329685  8.736696
296  1 15.368802  6.329685 21.364096
297  1 15.368802 15.051694  8.736696
298  1 15.368802 15.051694 21.364096
299  1 15.368802 23.773807  8.736696
300  1 15.368802 23.773807 21.364096
301  1 24.090889  6.329685  8.736696
302  1 24.090889  6.329685 21.364096
303  1 24.090889 15.051694  8.736696
304  1 24.090889 15.051694 21.364096
305  1 24.090889 23.773807  8.736696
306  1 24.090889 23.773807 21.364096
307  1  6.836420  1.872925  7.900560
308  1  6.836420  1.872925 20.528011
309  1  6.836420 10.595012  7.900560
310  1  6.836420 10.595012 20.528011
311  1  6.836420 19.317100  7.900560
312  1  6.836420 19.317100 20.528011
313  1 15.558507  1.872925  7.900560
314  1 15.558507  1.872925 20.528011
315  1 15.558507 10.595012  7.900560
316  1 15.558507 10.595012 20.528011
317  1 15.558507 19.317100  7.900560
318  1 15.558507 19.317100 20.528011
319  1 24.280594  1.872925  7.900560
320  1 24.280594  1.872925 20.528011
321  1 24.280594 10.595012  7.900560
322  1 24.280594 10.595012 20.528011
323  1 24.280594 19.317100  7.900560
324  1 24.280594 19.317100 20.528011
325  1  8.416414  4.492450  5.379879
326  1  8.416414  4.492450 18.007304
327  1  8.416414 13.214512  5.379879
328  1  8.416414 13.214512 18.007304
329  1  8.416414 21.936599  5.379879
330  1  8.416414 21.936599 18.007304
331  1 17.138501  4.492450  5.379879
332  1 17.138501  4.492450 18.007304
333  1 17.138501 13.214512  5.379879
334  1 17.138501 13.214512 18.007304
335  1 17.138501 21.936599  5.379879
336  1 17.138501 21.936599 18.007304
337  1 25.860589  4.492450  5.379879
338  1 25.860589  4.492450 18.007304
339  1 25.860589 13.214512  5.379879
340  1 25.860589 13.214512 18.007304
341  1 25.860589 21.936599  5.379879
342  1 25.860589 21.936599 18.007304
343  1  8.620196  4.522986 12.018507
344  1  8.620196  4.522986 24.645907
345  1  8.620196 13.245100 12.018507
346  1  8.620196 13.245100 24.645907
347  1  8.620196 21.967109 12.018507
348  1  8.620196 21.967109 24.645907
349  1 17.342310  4.522986 12.018507
350  1 17.342310  4.522986 24.645907
351  1 17.342310 13.245100 12.018507
352  1 17.342310 13.245100 24.645907
353  1 17.342310 21.967109 12.018507
354  1 17.342310 21.967109 24.645907
355  1 26.064293  4.522986 12.018507
356  1 26.064293  4.522986 24.645907
357  1 26.064293 13.245100 12.018507
358  1 26.064293 13.245100 24.645907
359  1 26.064293 21.967109 12.018507
360  1 26.064293 21.967109 24.645907
361  2  4.439595  8.633489 10.294690
362  2  4.439595  8.633489 22.922090
363  2  4.439595 17.355602 10.294690
364  2  4.439595 17.355602 22.922090
365  2  4.439595 26.077611 10.294690
366  2  4.439595 26.077611 22.922090
367  2 13.161708  8.633489 10.294690
368  2 13.161708  8.633489 22.922090
369  2 13.161708 17.355602 10.294690
370  2 13.161708 17.355602 22.922090
371  2 13.161708 26.077611 10.294690
372  2 13.161708 26.077611 22.922090
373  2 21.883691  8.633489 10.294690
374  2 21.883691  8.633489 22.922090
375  2 21.883691 17.355602 10.294690
376  2 21.883691 17.355602 22.922090
377  2 21.883691 26.077611 10.294690
378  2 21.883691 26.077611 22.922090
379  2  8.694561  4.253841  2.311143
380  2  8.694561  4.253841 14.938492
381  2  8.694561 12.975902  2.311143
382  2  8.694561 12.975902 14.938492
383  2  8.694561 21.697989  2.311143
384  2  8.694561 21.697989 14.938492
385  2 17.416596  4.253841  2.311143
386  2 17.416596  4.253841 14.938492
387  2 17.416596 12.975902  2.311143
388  2 17.416596 12.975902 14.938492
389  2 17.416596 21.697989  2.311143
390  2 17.416596 21.697989 14.938492
391  2 26.138709  4.253841  2.311143
392  2 26.138709  4.253841 14.938492
393  2 26.138709 12.975902  2.311143
394  2 26.138709 12.975902 14.938492
395  2 26.138709 21.697989  2.311143
396  2 26.138709 21.697989 14.938492
397  3  0.072245  4.220113  8.630878
398  3  0.072245  4.220113 21.258304
399  3  0.072245 12.942200  8.630878
400  3  0.072245 12.942200 21.258304
401  3  0.072245 21.664209  8.630878
402  3  0.072245 21.664209 21.258304
403  3  8.794332  4.220113  8.630878
404  3  8.794332  4.220113 21.258304
405  3  8.794332 12.942200  8.630878
406  3  8.794332 12.942200 21.258304
407  3  8.794332 21.664209  8.630878
408  3  8.794332 21.664209 21.258304
409  3 17.516394  4.220113  8.630878
410  3 17.516394  4.220113 21.258304
411  3 17.516394 12.942200  8.630878
412  3 17.516394 12.942200 21.258304
413  3 17.516394 21.664209  8.630878
414  3 17.516394 21.664209 21.258304
415  3  4.252873  0.073998  3.925960
416  3  4.252873  0.073998 16.553410
417  3  4.252873  8.796059  3.925960
418  3  4.252873  8.796059 16.553410
419  3  4.252873 17.518094  3.925960
420  3  4.252873 17.518094 16.553410
421  3 12.974908  0.073998  3.925960
422  3 12.974908  0.073998 16.553410
423  3 12.974908  8.796059  3.925960
424  3 12.974908  8.796059 16.553410
425  3 12.974908 17.518094  3.925960
426  3 12.974908 17.518094 16.553410
427  3 21.696995  0.073998  3.925960
428  3 21.696995  0.073998 16.553410
429  3 21.696995  8.796059  3.925960
430  3 21.696995  8.796059 16.553410
431  3 21.696995 17.518094  3.925960
432  3 21.696995 17.518094 16.553410
433  3  4.292881  4.509642 12.543200
434  3  4.292881  4.509642 25.170600
435  3  4.292881 13.231703 12.543200
436  3  4.292881 13.231703 25.170600
437  3  4.292881 21.953790 12.543200
438  3  4.292881 21.953790 25.170600
439  3 13.014994  4.509642 12.543200
440  3 13.014994  4.509642 25.170600
441  3 13.014994 13.231703 12.543200
442  3 13.014994 13.231703 25.170600
443  3 13.014994 21.953790 12.543200
444  3 13.014994 21.953790 25.170600
445  3 21.737003  4.509642 12.543200
446  3 21.737003  4.509642 25.170600
447  3 21.737003 13.231703 12.543200
448  3 21.737003 13.231703 25.170600
449  3 21.737003 21.953790 12.543200
450  3 21.737003 21.953790 25.170600
451  3  8.667060  8.411181  6.332439
452  3  8.667060  8.411181 18.959890
453  3  8.667060 17.133189  6.332439
454  3  8.667060 17.133189 18.959890
455  3  8.667060 25.855303  6.332439
456  3  8.667060 25.855303 18.959890
457  3 17.389095  8.411181  6.332439
458  3 17.389095  8.411181 18.959890
459  3 17.389095 17.133189  6.332439
460  3 17.389095 17.133189 18.959890
461  3 17.389095 25.855303  6.332439
462  3 17.389095 25.855303 18.959890
463  3 26.111209  8.411181  6.332439
464  3 26.111209  8.411181 18.959890
465  3 26.111209 17.133189  6.332439
466  3 26.111209 17.133189 18.959890
467  3 26.111209 25.855303  6.332439
468  3 26.111209 25.855303 18.959890
469  4  0.005286  6.230541  1.266452
470  4  0.005286  6.230541 13.893802
471  4  0.005286 14.952602  1.266452
472  4  0.005286 14.952602 13.893802
473  4  0.005286 23.674690  1.266452
474  4  0.005286 23.674690 13.893802
475  4  8.727347  6.230541  1.266452
476  4  8.727347  6.230541 13.893802
477  4  8.727347 14.952602  1.266452
478  4  8.727347 14.952602 13.893802
479  4  8.727347 23.674690  1.266452
480  4  8.727347 23.674690 13.893802
481  4 17.449408  6.230541  1.266452
482  4 17.449408  6.230541 13.893802
483  4 17.449408 14.952602  1.266452
484  4 17.449408 14.952602 13.893802
485  4 17.449408 23.674690  1.266452
486  4 17.449408 23.674690 13.893802
487  4  0.023811  2.417025  9.647182
488  4  0.023811  2.417025 22.274607
489  4  0.023811 11.139113  9.647182
490  4  0.023811 11.139113 22.274607
491  4  0.023811 19.861200  9.647182
492  4  0.023811 19.861200 22.274607
493  4  8.745899  2.417025  9.647182
494  4  8.745899  2.417025 22.274607
495  4  8.745899 11.139113  9.647182
496  4  8.745899 11.139113 22.274607
497  4  8.745899 19.861200  9.647182
498  4  8.745899 19.861200 22.274607
499  4 17.468012  2.417025  9.647182
500  4 17.468012  2.417025 22.274607
501  4 17.468012 11.139113  9.647182
502  4 17.468012 11.139113 22.274607
503  4 17.468012 19.861200  9.647182
504  4 17.468012 19.861200 22.274607
505  4  0.048015  6.930984  4.909811
506  4  0.048015  6.930984 17.537211
507  4  0.048015 15.653098  4.909811
508  4  0.048015 15.653098 17.537211
509  4  0.048015 24.375107  4.909811
510  4  0.048015 24.375107 17.537211
511  4  8.770102  6.930984  4.909811
512  4  8.770102  6.930984 17.537211
513  4  8.770102 15.653098  4.909811
514  4  8.770102 15.653098 17.537211
515  4  8.770102 24.375107  4.909811
516  4  8.770102 24.375107 17.537211
517  4 17.492190  6.930984  4.909811
518  4 17.492190  6.930984 17.537211
519  4 17.492190 15.653098  4.909811
520  4 17.492190 15.653098 17.537211
521  4 17.492190 24.375107  4.909811
522  4 17.492190 24.375107 17.537211
523  4  0.070780  2.552357  0.845859
524  4  0.070780  2.552357 13.473310
525  4  0.070780 11.274392  0.845859
526  4  0.070780 11.274392 13.473310
527  4  0.070780 19.996506  0.845859
528  4  0.070780 19.996506 13.473310
529  4  8.792841  2.552357  0.845859
530  4  8.792841  2.552357 13.473310
531  4  8.792841 11.274392  0.845859
532  4  8.792841 11.274392 13.473310
533  4  8.792841 19.996506  0.845859
534  4  8.792841 19.996506 13.473310
535  4 17.514902  2.552357  0.845859
536  4 17.514902  2.552357 13.473310
537  4 17.514902 11.274392  0.845859
538  4 17.514902 11.274392 13.473310
539  4 17.514902 19.996506  0.845859
540  4 17.514902 19.996506 13.473310
541  4  1.693896  8.274593  7.422916
542  4  1.693896  8.274593 20.050291
543  4  1.693896 16.996707  7.422916
544  4  1.693896 16.996707 20.050291
545  4  1.693896 25.718689  7.422916
546  4  1.693896 25.718689 20.050291
547  4 10.416009  8.274593  7.422916
548  4 10.416009  8.274593 20.050291
549  4 10.416009 16.996707  7.422916
550  4 10.416009 16.996707 20.050291
551  4 10.416009 25.718689  7.422916
552  4 10.416009 25.718689 20.050291
553  4 19.137992  8.274593  7.422916
554  4 19.137992  8.274593 20.050291
555  4 19.137992 16.996707  7.422916
556  4 19.137992 16.996707 20.050291
557  4 19.137992 25.718689  7.422916
558  4 19.137992 25.718689 20.050291
559  4  1.741911  4.169559  3.676291
560  4  1.741911  4.169559 16.303691
561  4  1.741911 12.891595  3.676291
562  4  1.741911 12.891595 16.303691
563  4  1.741911 21.613708  3.676291
564  4  1.741911 21.613708 16.303691
565  4 10.463998  4.169559  3.676291
566  4 10.463998  4.169559 16.303691
567  4 10.463998 12.891595  3.676291
568  4 10.463998 12.891595 16.303691
569  4 10.463998 21.613708  3.676291
570  4 10.463998 21.613708 16.303691
571  4 19.186007  4.169559  3.676291
572  4 19.186007  4.169559 16.303691
573  4 19.186007 12.891595  3.676291
574  4 19.186007 12.891595 16.303691
575  4 19.186007 21.613708  3.676291
576  4 19.186007 21.613708 16.303691
577  4  1.845817  4.254940  7.572424
578  4  1.845817  4.254940 20.199799
579  4  1.845817 12.977001  7.572424
580  4  1.845817 12.977001 20.199799
581  4  1.845817 21.699088  7.572424
582  4  1.845817 21.699088 20.199799
583  4 10.567904  4.254940  7.572424
584  4 10.567904  4.254940 20.199799
585  4 10.567904 12.977001  7.572424
586  4 10.567904 12.977001 20.199799
587  4 10.567904 21.699088  7.572424
588  4 10.567904 21.699088 20.199799
589  4 19.289887  4.254940  7.572424
590  4 19.289887  4.254940 20.199799
591  4 19.289887 12.977001  7.572424
592  4 19.289887 12.977001 20.199799
593  4 19.289887 21.699088  7.572424
594  4 19.289887 21.699088 20.199799
595  4  2.488380  8.624461 11.434894
596  4  2.488380  8.624461 24.062294
597  4  2.488380 17.346496 11.434894
598  4  2.488380 17.346496 24.062294
599  4  2.488380 26.068610 11.434894
600  4  2.488380 26.068610 24.062294
601  4 11.210494  8.624461 11.434894
602  4 11.210494  8.624461 24.062294
603  4 11.210494 17.346496 11.434894
604  4 11.210494 17.346496 24.062294
605  4 11.210494 26.068610 11.434894
606  4 11.210494 26.068610 24.062294
607  4 19.932503  8.624461 11.434894
608  4 19.932503  8.624461 24.062294
609  4 19.932503 17.346496 11.434894
610  4 19.932503 17.346496 24.062294
611  4 19.932503 26.068610 11.434894
612  4 19.932503 26.068610 24.062294
613  4  2.563137  0.274013  2.767320
614  4  2.563137  0.274013 15.394695
615  4  2.563137  8.996074  2.767320
616  4  2.563137  8.996074 15.394695
617  4  2.563137 17.718109  2.767320
618  4  2.563137 17.718109 15.394695
619  4 11.285199  0.274013  2.767320
620  4 11.285199  0.274013 15.394695
621  4 11.285199  8.996074  2.767320
622  4 11.285199  8.996074 15.394695
623  4 11.285199 17.718109  2.767320
624  4 11.285199 17.718109 15.394695
625  4 20.007312  0.274013  2.767320
626  4 20.007312  0.274013 15.394695
627  4 20.007312  8.996074  2.767320
628  4 20.007312  8.996074 15.394695
629  4 20.007312 17.718109  2.767320
630  4 20.007312 17.718109 15.394695
631  4  2.596133  4.644947 11.371403
632  4  2.596133  4.644947 23.998803
633  4  2.596133 13.367008 11.371403
634  4  2.596133 13.367008 23.998803
635  4  2.596133 22.089096 11.371403
636  4  2.596133 22.089096 23.998803
637  4 11.318194  4.644947 11.371403
638  4 11.318194  4.644947 23.998803
639  4 11.318194 13.367008 11.371403
640  4 11.318194 13.367008 23.998803
641  4 11.318194 22.089096 11.371403
642  4 11.318194 22.089096 23.998803
643  4 20.040308  4.644947 11.371403
644  4 20.040308  4.644947 23.998803
645  4 20.040308 13.367008 11.371403
646  4 20.040308 13.367008 23.998803
647  4 20.040308 22.089096 11.371403
648  4 20.040308 22.089096 23.998803
649  4  4.223933  6.928158  4.786441
650  4  4.223933  6.928158 17.413791
651  4  4.223933 15.650193  4.786441
652  4  4.223933 15.650193 17.413791
653  4  4.223933 24.372307  4.786441
654  4  4.223933 24.372307 17.413791
655  4 12.945994  6.928158  4.786441
656  4 12.945994  6.928158 17.413791
657  4 12.945994 15.650193  4.786441
658  4 12.945994 15.650193 17.413791
659  4 12.945994 24.372307  4.786441
660  4 12.945994 24.372307 17.413791
661  4 21.668108  6.928158  4.786441
662  4 21.668108  6.928158 17.413791
663  4 21.668108 15.650193  4.786441
664  4 21.668108 15.650193 17.413791
665  4 21.668108 24.372307  4.786441
666  4 21.668108 24.372307 17.413791
667  4  4.248503  2.668744  0.797774
668  4  4.248503  2.668744 13.425199
669  4  4.248503 11.390805  0.797774
670  4  4.248503 11.390805 13.425199
671  4  4.248503 20.112893  0.797774
672  4  4.248503 20.112893 13.425199
673  4 12.970590  2.668744  0.797774
674  4 12.970590  2.668744 13.425199
675  4 12.970590 11.390805  0.797774
676  4 12.970590 11.390805 13.425199
677  4 12.970590 20.112893  0.797774
678  4 12.970590 20.112893 13.425199
679  4 21.692599  2.668744  0.797774
680  4 21.692599  2.668744 13.425199
681  4 21.692599 11.390805  0.797774
682  4 21.692599 11.390805 13.425199
683  4 21.692599 20.112893  0.797774
684  4 21.692599 20.112893 13.425199
685  4  4.305728  6.902201  8.873931
686  4  4.305728  6.902201 21.501305
687  4  4.305728 15.624289  8.873931
688  4  4.305728 15.624289 21.501305
689  4  4.305728 24.346298  8.873931
690  4  4.305728 24.346298 21.501305
691  4 13.027790  6.902201  8.873931
692  4 13.027790  6.902201 21.501305
693  4 13.027790 15.624289  8.873931
694  4 13.027790 15.624289 21.501305
695  4 13.027790 24.346298  8.873931
696  4 13.027790 24.346298 21.501305
697  4 21.749903  6.902201  8.873931
698  4 21.749903  6.902201 21.501305
699  4 21.749903 15.624289  8.873931
700  4 21.749903 15.624289 21.501305
701  4 21.749903 24.346298  8.873931
702  4 21.749903 24.346298 21.501305
703  4  4.308842  6.064202  1.241223
704  4  4.308842  6.064202 13.868598
705  4  4.308842 14.786290  1.241223
706  4  4.308842 14.786290 13.868598
707  4  4.308842 23.508299  1.241223
708  4  4.308842 23.508299 13.868598
709  4 13.030903  6.064202  1.241223
710  4 13.030903  6.064202 13.868598
711  4 13.030903 14.786290  1.241223
712  4 13.030903 14.786290 13.868598
713  4 13.030903 23.508299  1.241223
714  4 13.030903 23.508299 13.868598
715  4 21.752991  6.064202  1.241223
716  4 21.752991  6.064202 13.868598
717  4 21.752991 14.786290  1.241223
718  4 21.752991 14.786290 13.868598
719  4 21.752991 23.508299  1.241223
720  4 21.752991 23.508299 13.868598
721  4  4.315201  1.580622  5.320429
722  4  4.315201  1.580622 17.947803
723  4  4.315201 10.302710  5.320429
724  4  4.315201 10.302710 17.947803
725  4  4.315201 19.024797  5.320429
726  4  4.315201 19.024797 17.947803
727  4 13.037288  1.580622  5.320429
728  4 13.037288  1.580622 17.947803
729  4 13.037288 10.302710  5.320429
730  4 13.037288 10.302710 17.947803
731  4 13.037288 19.024797  5.320429
732  4 13.037288 19.024797 17.947803
733  4 21.759297  1.580622  5.320429
734  4 21.759297  1.580622 17.947803
735  4 21.759297 10.302710  5.320429
736  4 21.759297 10.302710 17.947803
737  4 21.759297 19.024797  5.320429
738  4 21.759297 19.024797 17.947803
739  4  4.516105  1.794688  9.071827
740  4  4.516105  1.794688 21.699202
741  4  4.516105 10.516697  9.071827
742  4  4.516105 10.516697 21.699202
743  4  4.516105 19.238811  9.071827
744  4  4.516105 19.238811 21.699202
745  4 13.238192  1.794688  9.071827
746  4 13.238192  1.794688 21.699202
747  4 13.238192 10.516697  9.071827
748  4 13.238192 10.516697 21.699202
749  4 13.238192 19.238811  9.071827
750  4 13.238192 19.238811 21.699202
751  4 21.960201  1.794688  9.071827
752  4 21.960201  1.794688 21.699202
753  4 21.960201 10.516697  9.071827
754  4 21.960201 10.516697 21.699202
755  4 21.960201 19.238811  9.071827
756  4 21.960201 19.238811 21.699202
757  4  5.965032  4.632597 11.343800
758  4  5.965032  4.632597 23.971200
759  4  5.965032 13.354710 11.343800
760  4  5.965032 13.354710 23.971200
761  4  5.965032 22.076693 11.343800
762  4  5.965032 22.076693 23.971200
763  4 14.687094  4.632597 11.343800
764  4 14.687094  4.632597 23.971200
765  4 14.687094 13.354710 11.343800
766  4 14.687094 13.354710 23.971200
767  4 14.687094 22.076693 11.343800
768  4 14.687094 22.076693 23.971200
769  4 23.409207  4.632597 11.343800
770  4 23.409207  4.632597 23.971200
771  4 23.409207 13.354710 11.343800
772  4 23.409207 13.354710 23.971200
773  4 23.409207 22.076693 11.343800
774  4 23.409207 22.076693 23.971200
775  4  5.976467  0.145798  2.781033
776  4  5.976467  0.145798 15.408408
777  4  5.976467  8.867859  2.781033
778  4  5.976467  8.867859 15.408408
779  4  5.976467 17.589895  2.781033
780  4  5.976467 17.589895 15.408408
781  4 14.698607  0.145798  2.781033
782  4 14.698607  0.145798 15.408408
783  4 14.698607  8.867859  2.781033
784  4 14.698607  8.867859 15.408408
785  4 14.698607 17.589895  2.781033
786  4 14.698607 17.589895 15.408408
787  4 23.420590  0.145798  2.781033
788  4 23.420590  0.145798 15.408408
789  4 23.420590  8.867859  2.781033
790  4 23.420590  8.867859 15.408408
791  4 23.420590 17.589895  2.781033
792  4 23.420590 17.589895 15.408408
793  4  6.213219  8.696759 11.624406
794  4  6.213219  8.696759 24.251806
795  4  6.213219 17.418794 11.624406
796  4  6.213219 17.418794 24.251806
797  4  6.213219 26.140907 11.624406
798  4  6.213219 26.140907 24.251806
799  4 14.935306  8.696759 11.624406
800  4 14.935306  8.696759 24.251806
801  4 14.935306 17.418794 11.624406
802  4 14.935306 17.418794 24.251806
803  4 14.935306 26.140907 11.624406
804  4 14.935306 26.140907 24.251806