ITEM: TIMESTEP
0
ITEM: NUMBER OF ATOMS
32
ITEM: BOX BOUNDS xy xz yz pp pp pp
-4.7826766967773438e-03 8.3191311955451965e+00 1.9197995066642761e+00
-3.7661075592041016e-02 2.2120539069175720e+01 0.0000000000000000e+00
-1.1393904685974121e-02 5.1938598752021790e+00 0.0000000000000000e+00
ITEM: ATOMS id type xs ys zs fx fy fz
1 1 0.918326 0.336542 0.593597 0 0.00082016 5.72205e-06
2 1 0.418327 0.336542 0.593597 0 0.000816345 5.72205e-06
3 1 0.18077 0.295033 0.0935973 0 -0.00186348 -3.8147e-06
4 1 0.68077 0.295033 0.0935973 0 -0.00186157 -1.90735e-06
5 1 0.130855 0.461543 0.593597 0 0.000892639 0
6 1 0.630855 0.461543 0.593597 0 0.000896454 5.72205e-06
7 1 0.893296 0.420037 0.0935973 0 -0.00143433 -5.72205e-06
8 1 0.393297 0.420037 0.0935973 0 -0.00143623 -3.8147e-06
9 1 0.843382 0.586543 0.593597 0 0.0013752 0
10 1 0.343382 0.586543 0.593597 0 0.00137138 0
11 1 0.0559117 0.711539 0.593597 0 0.00195694 7.62939e-06
12 1 0.555912 0.711539 0.593597 0 0.00195312 3.8147e-06
13 1 0.818351 0.670042 0.0935972 0 -0.00105858 -3.8147e-06
14 1 0.105823 0.545043 0.0935972 0 -0.000999451 0
15 1 0.605823 0.545043 0.0935972 0 -0.000995636 0
16 1 0.318351 0.670042 0.0935972 0 -0.00106239 -7.62939e-06
17 1 0.768441 0.836533 0.593597 0 0.0111828 1.90735e-06
18 1 0.268442 0.836533 0.593597 0 0.0111828 0
19 1 0.98097 0.961533 0.593597 0 -0.371309 1.90735e-06
20 1 0.48097 0.961533 0.593597 0 -0.371302 1.90735e-06
21 1 0.0308818 0.795035 0.0935971 0 0.00232315 0
22 1 0.530882 0.795035 0.0935971 0 0.00231934 -1.90735e-06
23 1 0.74341 0.920032 0.0935971 0 -0.610279 -3.8147e-06
24 1 0.243411 0.920032 0.0935971 0 -0.610281 0
25 1 0.993272 0.0865377 0.593597 0 0.610023 0
26 1 0.493272 0.0865377 0.593597 0 0.61002 0
27 1 0.255715 0.045031 0.093597 0 0.371674 0
28 1 0.755715 0.045031 0.093597 0 0.371664 0
29 1 0.205799 0.211541 0.593597 0 -0.00231743 0
30 1 0.705799 0.211541 0.593597 0 -0.00231934 -1.90735e-06
31 1 0.968242 0.170031 0.093597 0 -0.0109749 0
32 1 0.468243 0.170031 0.093597 0 -0.0109768 0
ITEM: TIMESTEP
1
ITEM: NUMBER OF ATOMS
32
ITEM: BOX BOUNDS xy xz yz pp pp pp
-4.7826766967773438e-03 8.3191311955451965e+00 1.9197995066642761e+00
-3.7661075592041016e-02 2.2120539069175720e+01 0.0000000000000000e+00
-1.1393904685974121e-02 5.1938598752021790e+00 0.0000000000000000e+00
ITEM: ATOMS id type xs ys zs fx fy fz
1 1 0.918324 0.336549 0.593597 0 0.000106812 0
2 1 0.418325 0.336548 0.593597 0 9.72748e-05 0
3 1 0.180774 0.295019 0.0935972 0 0.000518799 -1.90735e-06
4 1 0.680774 0.295019 0.0935972 0 0.000524521 -1.90735e-06
5 1 0.130853 0.461549 0.593597 0 0.00135231 0
6 1 0.630853 0.461549 0.593597 0 0.00135422 -1.90735e-06
7 1 0.8933 0.420027 0.0935971 0 -0.00190163 1.90735e-06
8 1 0.3933 0.420027 0.0935972 0 -0.00189972 0
9 1 0.843379 0.586554 0.593597 0 0.00184631 3.8147e-06
10 1 0.343379 0.586554 0.593597 0 0.00185585 0
11 1 0.0559073 0.711554 0.593597 0 -0.000442505 -7.62939e-06
12 1 0.555907 0.711554 0.593597 0 -0.000436783 0
13 1 0.818353 0.670034 0.0935971 0 -0.000263214 1.90735e-06
14 1 0.105826 0.545035 0.0935972 0 -0.00147629 1.90735e-06
15 1 0.605826 0.545035 0.0935972 0 -0.00148964 -3.8147e-06
16 1 0.318354 0.670034 0.093597 0 -0.000259399 1.90735e-06
17 1 0.768416 0.836616 0.593597 0 -0.0946503 -3.8147e-06
18 1 0.268417 0.836616 0.593597 0 -0.0946541 0
19 1 0.981793 0.958787 0.593597 0 0.0464439 3.8147e-06
20 1 0.481793 0.958787 0.593597 0 0.046442 -1.90735e-06
21 1 0.0308766 0.795052 0.0935971 0 -0.1063 1.90735e-06
22 1 0.530877 0.795052 0.093597 0 -0.106297 1.90735e-06
23 1 0.744763 0.915519 0.093597 0 -0.098444 3.8147e-06
24 1 0.244763 0.915519 0.0935971 0 -0.0984421 -3.8147e-06
25 1 0.991919 0.0910488 0.593597 0 0.0985889 0
26 1 0.49192 0.0910488 0.593597 0 0.0985909 0
27 1 0.254891 0.0477795 0.093597 0 -0.0464058 0
28 1 0.754891 0.0477795 0.093597 0 -0.0464001 0
29 1 0.205804 0.211524 0.593597 0 0.106178 1.90735e-06
30 1 0.705804 0.211524 0.593597 0 0.106182 3.8147e-06
31 1 0.968267 0.16995 0.093597 0 0.0948391 0
32 1 0.468267 0.16995 0.093597 0 0.094841 -1.90735e-06
ITEM: TIMESTEP
2
ITEM: NUMBER OF ATOMS
32
ITEM: BOX BOUNDS xy xz yz pp pp pp
-4.7826766967773438e-03 8.3191311955451965e+00 1.9197995066642761e+00
-3.7661075592041016e-02 2.2120539069175720e+01 0.0000000000000000e+00
-1.1393904685974121e-02 5.1938598752021790e+00 0.0000000000000000e+00
ITEM: ATOMS id type xs ys zs fx fy fz
1 1 0.918324 0.336551 0.593597 0 0.0609684 0
2 1 0.418324 0.336551 0.593597 0 0.0609818 0
3 1 0.18077 0.295033 0.0935969 0 0.0765591 3.8147e-06
4 1 0.68077 0.295033 0.093597 0 0.0765419 7.62939e-06
5 1 0.130842 0.461586 0.593597 0 -1.52588e-05 1.90735e-06
6 1 0.630842 0.461586 0.593597 0 -1.71661e-05 1.90735e-06
7 1 0.893315 0.419975 0.0935973 0 0.00125885 -1.90735e-06
8 1 0.393316 0.419975 0.0935972 0 0.00124359 0
9 1 0.843364 0.586604 0.593597 0 -0.00128746 -1.90735e-06
10 1 0.343364 0.586604 0.593597 0 -0.00130081 3.8147e-06
11 1 0.0559109 0.711542 0.593596 0 -0.0765686 9.53674e-06
12 1 0.555911 0.711542 0.593597 0 -0.0765705 1.90735e-06
13 1 0.818356 0.670027 0.0935973 0 -0.061079 -1.90735e-06
14 1 0.105838 0.544995 0.0935974 0 -8.96454e-05 -5.72205e-06
15 1 0.605838 0.544995 0.0935968 0 -7.05719e-05 3.8147e-06
16 1 0.318356 0.670027 0.0935972 0 -0.0610867 -5.72205e-06
17 1 0.769189 0.834038 0.593597 0 0.0376663 1.33514e-05
18 1 0.269189 0.834038 0.593597 0 0.0376759 -1.90735e-06
19 1 0.981414 0.960051 0.593598 0 -0.0106888 -5.72205e-06
20 1 0.481414 0.960051 0.593597 0 -0.0106812 1.90735e-06
21 1 0.0317444 0.792157 0.0935973 0 -0.0103626 -5.72205e-06
22 1 0.531744 0.792157 0.0935973 0 -0.0103722 -5.72205e-06
23 1 0.745567 0.912838 0.0935974 0 -0.0319233 -1.14441e-05
24 1 0.245567 0.912838 0.0935967 0 -0.0319271 9.53674e-06
25 1 0.991115 0.0937336 0.593597 0 0.0317726 -1.90735e-06
26 1 0.491115 0.0937336 0.593597 0 0.0317802 -3.8147e-06
27 1 0.25527 0.0465158 0.093597 0 0.0109215 1.90735e-06
28 1 0.75527 0.0465159 0.093597 0 0.01091 0
29 1 0.204937 0.214415 0.593597 0 0.0104866 -7.62939e-06
30 1 0.704937 0.214415 0.593597 0 0.0104771 -7.62939e-06
31 1 0.967492 0.172533 0.093597 0 -0.0375977 0
32 1 0.467493 0.172533 0.0935968 0 -0.0376053 7.62939e-06
ITEM: TIMESTEP
3
ITEM: NUMBER OF ATOMS
32
ITEM: BOX BOUNDS xy xz yz pp pp pp
-4.7826766967773438e-03 8.3191311955451965e+00 1.9197995066642761e+00
-3.7661075592041016e-02 2.2120539069175720e+01 0.0000000000000000e+00
-1.1393904685974121e-02 5.1938598752021790e+00 0.0000000000000000e+00
ITEM: ATOMS id type xs ys zs fx fy fz
1 1 0.917948 0.337806 0.593597 0 0.0201092 5.72205e-06
2 1 0.417948 0.337806 0.593597 0 0.0200977 3.8147e-06
3 1 0.180297 0.296611 0.0935972 0 0.00439262 -1.90735e-06
4 1 0.680297 0.296611 0.0935976 0 0.00439835 -9.53674e-06
5 1 0.130839 0.461596 0.593597 0 0.022028 -3.8147e-06
6 1 0.630839 0.461596 0.593597 0 0.0220261 1.90735e-06
7 1 0.893312 0.419986 0.0935972 0 0.0420952 -3.8147e-06
8 1 0.393312 0.419986 0.0935972 0 0.0421104 -1.90735e-06
9 1 0.843368 0.586592 0.593597 0 -0.0421925 -3.8147e-06
10 1 0.343368 0.586592 0.593597 0 -0.0421829 -1.90735e-06
11 1 0.0563839 0.709964 0.593597 0 -0.00438499 0
12 1 0.556384 0.709964 0.593597 0 -0.00439453 -7.62939e-06
13 1 0.818733 0.66877 0.0935972 0 -0.0200634 0
14 1 0.105842 0.544982 0.093597 0 -0.0220909 3.8147e-06
15 1 0.605842 0.544982 0.093597 0 -0.0220871 5.72205e-06
16 1 0.318733 0.668769 0.0935967 0 -0.02005 3.8147e-06
17 1 0.769175 0.834084 0.593598 0 -0.0122814 -1.71661e-05
18 1 0.269176 0.834085 0.593597 0 -0.012289 5.72205e-06
19 1 0.981372 0.960189 0.593597 0 0.0175991 -1.90735e-06
20 1 0.481372 0.960189 0.593597 0 0.0175991 -3.8147e-06
21 1 0.0320534 0.791126 0.0935969 0 -0.027483 5.72205e-06
22 1 0.532053 0.791126 0.0935968 0 -0.0274773 9.53674e-06
23 1 0.74599 0.911424 0.0935965 0 0.0444317 1.33514e-05
24 1 0.245991 0.911424 0.0935974 0 0.0444393 -3.8147e-06
25 1 0.990691 0.0951451 0.593597 0 -0.0441761 -1.90735e-06
26 1 0.490692 0.0951453 0.593597 0 -0.0441856 1.14441e-05
27 1 0.255309 0.0463834 0.0935972 0 -0.0176659 -3.8147e-06
28 1 0.755309 0.0463833 0.093597 0 -0.0176601 -3.8147e-06
29 1 0.204628 0.215447 0.593597 0 0.0274105 5.72205e-06
30 1 0.704628 0.215447 0.593597 0 0.0274048 5.72205e-06
31 1 0.967506 0.172489 0.093597 0 0.0122585 0
32 1 0.467506 0.172489 0.0935974 0 0.0122643 -1.14441e-05
ITEM: TIMESTEP
4
ITEM: NUMBER OF ATOMS
32
ITEM: BOX BOUNDS xy xz yz pp pp pp
-4.7826766967773438e-03 8.3191311955451965e+00 1.9197995066642761e+00
-3.7661075592041016e-02 2.2120539069175720e+01 0.0000000000000000e+00
-1.1393904685974121e-02 5.1938598752021790e+00 0.0000000000000000e+00
ITEM: ATOMS id type xs ys zs fx fy fz
1 1 0.917658 0.338771 0.593598 0 0.00684357 -1.52588e-05
2 1 0.417659 0.338771 0.593598 0 0.00685692 -9.53674e-06
3 1 0.180054 0.297423 0.0935972 0 -0.00583458 3.8147e-06
4 1 0.680054 0.297423 0.0935971 0 -0.00582695 1.14441e-05
5 1 0.13071 0.462025 0.593597 0 0.00167274 1.90735e-06
6 1 0.63071 0.462025 0.593597 0 0.00168419 -1.90735e-06
7 1 0.893067 0.420802 0.0935969 0 0.0179787 9.53674e-06
8 1 0.393068 0.420802 0.093597 0 0.0179749 3.8147e-06
9 1 0.843613 0.585773 0.593597 0 -0.0179882 1.90735e-06
10 1 0.343613 0.585773 0.593597 0 -0.0179901 0
11 1 0.0566272 0.709152 0.593597 0 0.00579453 -3.8147e-06
12 1 0.556627 0.709152 0.593597 0 0.00579834 5.72205e-06
13 1 0.819022 0.667803 0.0935971 0 -0.00684738 -1.90735e-06
14 1 0.105971 0.54455 0.0935971 0 -0.00168991 -1.90735e-06
15 1 0.605971 0.54455 0.0935975 0 -0.00170135 -1.90735e-06
16 1 0.319023 0.667803 0.0935968 0 -0.0068531 1.90735e-06
17 1 0.76924 0.833869 0.593597 0 -0.0104103 5.72205e-06
18 1 0.26924 0.833869 0.593597 0 -0.0104065 -1.90735e-06
19 1 0.981252 0.960591 0.593597 0 -0.0183506 5.72205e-06
20 1 0.481252 0.960591 0.593597 0 -0.0183525 5.72205e-06
21 1 0.0323545 0.790122 0.0935971 0 0.0111103 0
22 1 0.532354 0.790122 0.0935974 0 0.0111084 -3.8147e-06
23 1 0.745929 0.911629 0.0935972 0 -0.0112076 -5.72205e-06
24 1 0.24593 0.911629 0.0935974 0 -0.0112057 -3.8147e-06
25 1 0.990751 0.0949449 0.593597 0 0.0111904 3.8147e-06
26 1 0.490752 0.094945 0.593597 0 0.0111847 -9.53674e-06
27 1 0.25543 0.0459821 0.0935969 0 0.0183716 -1.90735e-06
28 1 0.75543 0.045982 0.0935967 0 0.0183716 1.90735e-06
29 1 0.204327 0.216451 0.593597 0 -0.0110378 0
30 1 0.704327 0.216451 0.593597 0 -0.0110207 -3.8147e-06
31 1 0.967441 0.172705 0.093597 0 0.0103912 -3.8147e-06
32 1 0.467441 0.172705 0.0935967 0 0.0103912 7.62939e-06
ITEM: TIMESTEP
5
ITEM: NUMBER OF ATOMS
32
ITEM: BOX BOUNDS xy xz yz pp pp pp
-4.7826766967773438e-03 8.3191311955451965e+00 1.9197995066642761e+00
-3.7661075592041016e-02 2.2120539069175720e+01 0.0000000000000000e+00
-1.1393904685974121e-02 5.1938598752021790e+00 0.0000000000000000e+00
ITEM: ATOMS id type xs ys zs fx fy fz
1 1 0.917578 0.339038 0.593597 0 -0.00197983 9.53674e-06
2 1 0.417579 0.339038 0.593597 0 -0.00197983 7.62939e-06
3 1 0.180041 0.297466 0.0935974 0 0.00507545 -5.72205e-06
4 1 0.680041 0.297466 0.0935978 0 0.00508118 -9.53674e-06
5 1 0.130681 0.462122 0.593597 0 -0.0063591 1.90735e-06
6 1 0.630681 0.462122 0.593597 0 -0.00637245 1.90735e-06
7 1 0.892942 0.421219 0.0935974 0 -0.00203133 -5.72205e-06
8 1 0.392943 0.421219 0.0935972 0 -0.00201607 -1.90735e-06
9 1 0.843738 0.585356 0.593597 0 0.00200462 -3.8147e-06
10 1 0.343738 0.585356 0.593597 0 0.00199699 -5.72205e-06
11 1 0.0566401 0.709109 0.593597 0 -0.0050869 1.90735e-06
12 1 0.55664 0.709109 0.593597 0 -0.00508308 -1.90735e-06
13 1 0.819102 0.667536 0.093597 0 0.00198936 5.72205e-06
14 1 0.106 0.544453 0.093597 0 0.00636673 5.72205e-06
15 1 0.606 0.544453 0.0935975 0 0.00636482 -5.72205e-06
16 1 0.319103 0.667536 0.093597 0 0.00198555 3.8147e-06
17 1 0.769299 0.833671 0.593597 0 -0.00660515 3.8147e-06
18 1 0.2693 0.833671 0.593597 0 -0.00660706 0
19 1 0.981318 0.96037 0.593597 0 -0.00398254 0
20 1 0.481318 0.96037 0.593597 0 -0.00398254 -3.8147e-06
21 1 0.032352 0.79013 0.0935972 0 0.000116348 -3.8147e-06
22 1 0.532352 0.79013 0.0935972 0 0.000116348 -3.8147e-06
23 1 0.745972 0.911487 0.093597 0 0.00319862 1.90735e-06
24 1 0.245972 0.911487 0.0935971 0 0.00319481 0
25 1 0.990709 0.0950873 0.593597 0 -0.0031929 0
26 1 0.490709 0.0950873 0.593597 0 -0.00318336 0
27 1 0.255363 0.046204 0.0935968 0 0.00399017 1.90735e-06
28 1 0.755363 0.0462039 0.0935968 0 0.00398064 3.8147e-06
29 1 0.204329 0.216444 0.593597 0 -0.000106812 0
30 1 0.704329 0.216444 0.593597 0 -0.000110626 7.62939e-06
31 1 0.967381 0.172904 0.0935967 0 0.00660706 0
32 1 0.467382 0.172904 0.0935971 0 0.00661087 -5.72205e-06
ITEM: TIMESTEP
6
ITEM: NUMBER OF ATOMS
32
ITEM: BOX BOUNDS xy xz yz pp pp pp
-4.7826766967773438e-03 8.3191311955451965e+00 1.9197995066642761e+00
-3.7661075592041016e-02 2.2120539069175720e+01 0.0000000000000000e+00
-1.1393904685974121e-02 5.1938598752021790e+00 0.0000000000000000e+00
ITEM: ATOMS id type xs ys zs fx fy fz
1 1 0.917578 0.339037 0.593598 0 -0.00481796 -1.14441e-05
2 1 0.417579 0.339037 0.593598 0 -0.00481606 -9.53674e-06
3 1 0.179996 0.297617 0.0935968 0 0.002285 9.53674e-06
4 1 0.679996 0.297617 0.0935968 0 0.00226974 7.62939e-06
5 1 0.130728 0.461963 0.593597 0 0.00273514 -5.72205e-06
6 1 0.630729 0.461963 0.593597 0 0.00274849 -7.62939e-06
7 1 0.892934 0.421248 0.0935969 0 0.00260162 9.53674e-06
8 1 0.392934 0.421248 0.0935971 0 0.00258446 5.72205e-06
9 1 0.843747 0.585326 0.593597 0 -0.00257301 7.62939e-06
10 1 0.343747 0.585326 0.593597 0 -0.00256729 1.14441e-05
11 1 0.0566857 0.708957 0.593597 0 -0.00227547 3.8147e-06
12 1 0.556686 0.708957 0.593597 0 -0.00227928 7.62939e-06
13 1 0.819102 0.667537 0.0935977 0 0.00481415 -1.14441e-05
14 1 0.105953 0.544611 0.0935976 0 -0.00275803 -7.62939e-06
15 1 0.605953 0.544611 0.0935968 0 -0.00275803 3.8147e-06
16 1 0.319102 0.667537 0.0935975 0 0.00481606 -1.33514e-05
17 1 0.769367 0.833444 0.593597 0 -0.000125885 -7.62939e-06
18 1 0.269368 0.833444 0.593597 0 -0.000123978 -7.62939e-06
19 1 0.981365 0.960212 0.593597 0 0.000349045 -1.90735e-06
20 1 0.481365 0.960212 0.593597 0 0.000343323 1.90735e-06
21 1 0.0323505 0.790135 0.0935967 0 -0.000776291 7.62939e-06
22 1 0.53235 0.790135 0.0935968 0 -0.000772476 5.72205e-06
23 1 0.745954 0.911547 0.0935971 0 0.000425339 1.90735e-06
24 1 0.245954 0.911547 0.0935971 0 0.000427246 1.90735e-06
25 1 0.990727 0.095027 0.593597 0 -0.000419617 1.90735e-06
26 1 0.490727 0.0950272 0.593597 0 -0.000429153 1.90735e-06
27 1 0.255316 0.0463619 0.093597 0 -0.000335693 -1.90735e-06
28 1 0.755316 0.0463616 0.0935972 0 -0.000328064 -1.90735e-06
29 1 0.204331 0.216439 0.593597 0 0.000759125 -3.8147e-06
30 1 0.704331 0.216439 0.593598 0 0.000766754 -9.53674e-06
31 1 0.967313 0.173131 0.0935967 0 0.000116348 3.8147e-06
32 1 0.467314 0.173131 0.0935965 0 0.000114441 7.62939e-06
ITEM: TIMESTEP
7
ITEM: NUMBER OF ATOMS
32
ITEM: BOX BOUNDS xy xz yz pp pp pp
-4.7826766967773438e-03 8.3191311955451965e+00 1.9197995066642761e+00
-3.7661075592041016e-02 2.2120539069175720e+01 0.0000000000000000e+00
-1.1393904685974121e-02 5.1938598752021790e+00 0.0000000000000000e+00
ITEM: ATOMS id type xs ys zs fx fy fz
1 1 0.9176 0.338966 0.593597 0 0.000190735 0
2 1 0.4176 0.338966 0.593597 0 0.000183105 0
3 1 0.179978 0.297676 0.0935973 0 0.000812531 0
4 1 0.679978 0.297675 0.0935971 0 0.000816345 1.90735e-06
5 1 0.130724 0.461978 0.593597 0 -0.000577927 9.53674e-06
6 1 0.630724 0.461978 0.593597 0 -0.000572205 3.8147e-06
7 1 0.892921 0.421291 0.0935974 0 0.000679016 -3.8147e-06
8 1 0.392921 0.421291 0.0935974 0 0.000682831 -7.62939e-06
9 1 0.84376 0.585283 0.593597 0 -0.000682831 1.90735e-06
10 1 0.34376 0.585283 0.593597 0 -0.000680923 -3.8147e-06
11 1 0.0567032 0.708899 0.593597 0 -0.000810623 -1.90735e-06
12 1 0.556703 0.708899 0.593597 0 -0.000802994 0
13 1 0.819081 0.667609 0.093597 0 -0.000196457 3.8147e-06
14 1 0.105957 0.544596 0.0935973 0 0.000574112 -5.72205e-06
15 1 0.605957 0.544596 0.0935969 0 0.000579834 3.8147e-06
16 1 0.319081 0.667609 0.0935967 0 -0.000196457 3.8147e-06
17 1 0.769379 0.833405 0.593597 0 0.000553131 3.8147e-06
18 1 0.269379 0.833405 0.593597 0 0.000553131 5.72205e-06
19 1 0.981372 0.960192 0.593597 0 0.00044632 0
20 1 0.481372 0.960192 0.593597 0 0.000442505 1.90735e-06
21 1 0.0323537 0.790125 0.0935972 0 0.00112152 -1.90735e-06
22 1 0.532354 0.790124 0.093597 0 0.00112915 -1.90735e-06
23 1 0.745949 0.911563 0.0935973 0 -0.000890732 -5.72205e-06
24 1 0.245949 0.911563 0.0935972 0 -0.000883102 -7.62939e-06
25 1 0.990732 0.095011 0.593597 0 0.000888824 -3.8147e-06
26 1 0.490732 0.0950111 0.593597 0 0.000881195 -1.90735e-06
27 1 0.25531 0.0463826 0.0935969 0 -0.000450134 0
28 1 0.75531 0.0463823 0.0935972 0 -0.00044632 0
29 1 0.204328 0.21645 0.593597 0 -0.00112915 1.90735e-06
30 1 0.704328 0.21645 0.593597 0 -0.00113297 -3.8147e-06
31 1 0.967302 0.173169 0.0935969 0 -0.000537872 3.8147e-06
32 1 0.467302 0.173169 0.0935969 0 -0.000543594 3.8147e-06
ITEM: TIMESTEP
8
ITEM: NUMBER OF ATOMS
32
ITEM: BOX BOUNDS xy xz yz pp pp pp
-4.7826766967773438e-03 8.3191311955451965e+00 1.9197995066642761e+00
-3.7661075592041016e-02 2.2120539069175720e+01 0.0000000000000000e+00
-1.1393904685974121e-02 5.1938598752021790e+00 0.0000000000000000e+00
ITEM: ATOMS id type xs ys zs fx fy fz
1 1 0.917601 0.338962 0.593597 0 7.82013e-05 3.8147e-06
2 1 0.417601 0.338962 0.593597 0 8.58307e-05 7.62939e-06
3 1 0.179972 0.297694 0.0935974 0 -0.000116348 0
4 1 0.679972 0.297694 0.0935973 0 -0.000106812 -1.90735e-06
5 1 0.130726 0.46197 0.593598 0 -0.000461578 -3.8147e-06
6 1 0.630726 0.461971 0.593597 0 -0.000459671 1.90735e-06
7 1 0.892916 0.421306 0.0935972 0 0.000392914 -3.8147e-06
8 1 0.392916 0.421306 0.0935969 0 0.000392914 0
9 1 0.843764 0.585268 0.593597 0 -0.000394821 -3.8147e-06
10 1 0.343765 0.585268 0.593597 0 -0.000396729 0
11 1 0.0567088 0.70888 0.593597 0 0.000114441 -3.8147e-06
12 1 0.556709 0.70888 0.593597 0 0.000102997 -7.62939e-06
13 1 0.819079 0.667613 0.0935972 0 -8.58307e-05 1.90735e-06
14 1 0.105955 0.544604 0.0935968 0 0.000469208 3.8147e-06
15 1 0.605955 0.544604 0.0935972 0 0.000457764 1.90735e-06
16 1 0.31908 0.667613 0.0935969 0 -8.58307e-05 9.53674e-06
17 1 0.769377 0.83341 0.593597 0 -6.67572e-05 -7.62939e-06
18 1 0.269378 0.83341 0.593597 0 -6.86646e-05 -1.90735e-06
19 1 0.98137 0.960197 0.593597 0 0.000516891 0
20 1 0.48137 0.960197 0.593597 0 0.000514984 0
21 1 0.0323486 0.790141 0.0935971 0 -0.000263214 1.90735e-06
22 1 0.532349 0.790141 0.0935969 0 -0.000267029 3.8147e-06
23 1 0.745953 0.911551 0.0935969 0 0.000402451 3.8147e-06
24 1 0.245953 0.911551 0.0935967 0 0.000400543 1.90735e-06
25 1 0.990728 0.0950235 0.593597 0 -0.000400543 9.53674e-06
26 1 0.490728 0.0950235 0.593597 0 -0.000404358 3.8147e-06
27 1 0.255311 0.0463775 0.0935969 0 -0.000509262 -1.90735e-06
28 1 0.755311 0.0463773 0.0935972 0 -0.000513077 -9.53674e-06
29 1 0.204333 0.216433 0.593597 0 0.000268936 5.72205e-06
30 1 0.704333 0.216433 0.593597 0 0.000268936 0
31 1 0.967303 0.173164 0.0935972 0 7.05719e-05 -7.62939e-06
32 1 0.467303 0.173164 0.0935972 0 6.29425e-05 -7.62939e-06
ITEM: TIMESTEP
9
ITEM: NUMBER OF ATOMS
32
ITEM: BOX BOUNDS xy xz yz pp pp pp
-4.7826766967773438e-03 8.3191311955451965e+00 1.9197995066642761e+00
-3.7661075592041016e-02 2.2120539069175720e+01 0.0000000000000000e+00
-1.1393904685974121e-02 5.1938598752021790e+00 0.0000000000000000e+00
ITEM: ATOMS id type xs ys zs fx fy fz
1 1 0.917601 0.338962 0.593597 0 -2.86102e-05 -1.90735e-06
2 1 0.417601 0.338962 0.593598 0 -3.43323e-05 -7.62939e-06
3 1 0.179972 0.297697 0.0935974 0 -3.24249e-05 0
4 1 0.679972 0.297697 0.0935972 0 -4.3869e-05 1.90735e-06
5 1 0.130729 0.461962 0.593597 0 -8.39233e-05 -7.62939e-06
6 1 0.630729 0.461962 0.593597 0 -8.96454e-05 -7.62939e-06
7 1 0.892913 0.421316 0.0935969 0 0.00012207 7.62939e-06
8 1 0.392914 0.421316 0.0935968 0 0.000114441 9.53674e-06
9 1 0.843767 0.585259 0.593597 0 -0.00012207 1.90735e-06
10 1 0.343768 0.585259 0.593597 0 -0.000120163 3.8147e-06
11 1 0.0567095 0.708878 0.593597 0 3.62396e-05 7.62939e-06
12 1 0.556709 0.708878 0.593597 0 4.00543e-05 7.62939e-06
13 1 0.819079 0.667612 0.0935974 0 3.43323e-05 -3.8147e-06
14 1 0.105952 0.544613 0.093597 0 8.2016e-05 5.72205e-06
15 1 0.605952 0.544613 0.0935974 0 9.15527e-05 -5.72205e-06
16 1 0.31908 0.667612 0.0935976 0 4.00543e-05 -7.62939e-06
17 1 0.769377 0.83341 0.593597 0 6.29425e-05 5.72205e-06
18 1 0.269378 0.83341 0.593597 0 7.82013e-05 1.90735e-06
19 1 0.981367 0.960206 0.593597 0 -0.000146866 -1.90735e-06
20 1 0.481367 0.960206 0.593597 0 -0.000141144 -1.90735e-06
21 1 0.0323488 0.790141 0.0935972 0 -0.00015831 -7.62939e-06
22 1 0.532349 0.790141 0.0935972 0 -0.000167847 -3.8147e-06
23 1 0.745952 0.911554 0.0935971 0 -0.000104904 -3.8147e-06
24 1 0.245952 0.911555 0.0935967 0 -0.000116348 3.8147e-06
25 1 0.990729 0.0950199 0.593597 0 0.000112534 -9.53674e-06
26 1 0.490729 0.0950198 0.593597 0 0.000114441 -7.62939e-06
27 1 0.255314 0.0463685 0.0935967 0 0.000143051 1.90735e-06
28 1 0.755314 0.0463682 0.0935966 0 0.000144958 1.14441e-05
29 1 0.204332 0.216434 0.593597 0 0.000156403 -3.8147e-06
30 1 0.704332 0.216434 0.593597 0 0.000169754 0
31 1 0.967303 0.173165 0.0935968 0 -8.01086e-05 5.72205e-06
32 1 0.467303 0.173164 0.0935968 0 -7.24792e-05 5.72205e-06
ITEM: TIMESTEP
10
ITEM: NUMBER OF ATOMS
32
ITEM: BOX BOUNDS xy xz yz pp pp pp
-4.7826766967773438e-03 8.3191311955451965e+00 1.9197995066642761e+00
-3.7661075592041016e-02 2.2120539069175720e+01 0.0000000000000000e+00
-1.1393904685974121e-02 5.1938598752021790e+00 0.0000000000000000e+00
ITEM: ATOMS id type xs ys zs fx fy fz
1 1 0.917601 0.338962 0.593597 0 3.8147e-05 5.72205e-06
2 1 0.417602 0.338961 0.593597 0 4.3869e-05 7.62939e-06
3 1 0.179972 0.297696 0.0935974 0 5.14984e-05 -7.62939e-06
4 1 0.679972 0.297696 0.0935973 0 4.95911e-05 -9.53674e-06
5 1 0.13073 0.461959 0.593597 0 7.62939e-06 9.53674e-06
6 1 0.63073 0.461959 0.593597 0 3.8147e-06 7.62939e-06
7 1 0.892912 0.421319 0.0935974 0 -7.62939e-06 -7.62939e-06
8 1 0.392913 0.421319 0.0935975 0 -7.62939e-06 -9.53674e-06
9 1 0.843768 0.585255 0.593597 0 7.62939e-06 1.90735e-06
10 1 0.343768 0.585255 0.593597 0 5.72205e-06 -3.8147e-06
11 1 0.0567094 0.708878 0.593598 0 -5.53131e-05 -9.53674e-06
12 1 0.556709 0.708878 0.593597 0 -5.91278e-05 -9.53674e-06
13 1 0.819079 0.667613 0.0935971 0 -3.8147e-05 7.62939e-06
14 1 0.105951 0.544615 0.0935974 0 -1.90735e-06 -7.62939e-06
15 1 0.605951 0.544615 0.093597 0 -3.8147e-06 0
16 1 0.31908 0.667613 0.0935971 0 -4.19617e-05 9.53674e-06
17 1 0.769377 0.833411 0.593597 0 -2.67029e-05 -5.72205e-06
18 1 0.269377 0.833411 0.593597 0 -4.57764e-05 0
19 1 0.981368 0.960204 0.593597 0 9.53674e-06 -1.90735e-06
20 1 0.481368 0.960205 0.593597 0 1.90735e-06 0
21 1 0.0323496 0.790138 0.0935966 0 -7.62939e-06 7.62939e-06
22 1 0.53235 0.790138 0.0935969 0 0 3.8147e-06
23 1 0.745952 0.911553 0.0935968 0 -1.71661e-05 3.8147e-06
24 1 0.245952 0.911553 0.093597 0 -7.62939e-06 0
25 1 0.990728 0.0950215 0.593597 0 7.62939e-06 5.72205e-06
26 1 0.490729 0.0950215 0.593597 0 1.33514e-05 7.62939e-06
27 1 0.255313 0.04637 0.0935969 0 -7.62939e-06 -1.90735e-06
28 1 0.755313 0.0463698 0.0935973 0 -1.90735e-06 -5.72205e-06
29 1 0.204332 0.216436 0.593597 0 1.14441e-05 7.62939e-06
30 1 0.704332 0.216437 0.593597 0 1.90735e-06 7.62939e-06
31 1 0.967303 0.173163 0.0935971 0 3.8147e-05 -5.72205e-06
32 1 0.467304 0.173163 0.0935971 0 3.8147e-05 -7.62939e-06
ITEM: TIMESTEP
11
ITEM: NUMBER OF ATOMS
32
ITEM: BOX BOUNDS xy xz yz pp pp pp
-4.7826766967773438e-03 8.3191311955451965e+00 1.9197995066642761e+00
-3.7661075592041016e-02 2.2120539069175720e+01 0.0000000000000000e+00
-1.1393904685974121e-02 5.1938598752021790e+00 0.0000000000000000e+00
ITEM: ATOMS id type xs ys zs fx fy fz
1 1 0.917601 0.338962 0.593597 0 3.8147e-05 5.72205e-06
2 1 0.417602 0.338961 0.593597 0 4.3869e-05 7.62939e-06
3 1 0.179972 0.297696 0.0935974 0 5.14984e-05 -7.62939e-06
4 1 0.679972 0.297696 0.0935973 0 4.95911e-05 -9.53674e-06
5 1 0.13073 0.461959 0.593597 0 7.62939e-06 9.53674e-06
6 1 0.63073 0.461959 0.593597 0 3.8147e-06 7.62939e-06
7 1 0.892912 0.421319 0.0935974 0 -7.62939e-06 -7.62939e-06
8 1 0.392913 0.421319 0.0935975 0 -7.62939e-06 -9.53674e-06
9 1 0.843768 0.585255 0.593597 0 7.62939e-06 1.90735e-06
10 1 0.343768 0.585255 0.593597 0 5.72205e-06 -3.8147e-06
11 1 0.0567094 0.708878 0.593598 0 -5.53131e-05 -9.53674e-06
12 1 0.556709 0.708878 0.593597 0 -5.91278e-05 -9.53674e-06
13 1 0.819079 0.667613 0.0935971 0 -3.8147e-05 7.62939e-06
14 1 0.105951 0.544615 0.0935974 0 -1.90735e-06 -7.62939e-06
15 1 0.605951 0.544615 0.093597 0 -3.8147e-06 0
16 1 0.31908 0.667613 0.0935971 0 -4.19617e-05 9.53674e-06
17 1 0.769377 0.833411 0.593597 0 -2.67029e-05 -5.72205e-06
18 1 0.269377 0.833411 0.593597 0 -4.57764e-05 0
19 1 0.981368 0.960204 0.593597 0 9.53674e-06 -1.90735e-06
20 1 0.481368 0.960205 0.593597 0 1.90735e-06 0
21 1 0.0323496 0.790138 0.0935966 0 -7.62939e-06 7.62939e-06
22 1 0.53235 0.790138 0.0935969 0 0 3.8147e-06
23 1 0.745952 0.911553 0.0935968 0 -1.71661e-05 3.8147e-06
24 1 0.245952 0.911553 0.093597 0 -7.62939e-06 0
25 1 0.990728 0.0950215 0.593597 0 7.62939e-06 5.72205e-06
26 1 0.490729 0.0950215 0.593597 0 1.33514e-05 7.62939e-06
27 1 0.255313 0.04637 0.0935969 0 -7.62939e-06 -1.90735e-06
28 1 0.755313 0.0463698 0.0935973 0 -1.90735e-06 -5.72205e-06
29 1 0.204332 0.216436 0.593597 0 1.14441e-05 7.62939e-06
30 1 0.704332 0.216437 0.593597 0 1.90735e-06 7.62939e-06
31 1 0.967303 0.173163 0.0935971 0 3.8147e-05 -5.72205e-06
32 1 0.467304 0.173163 0.0935971 0 3.8147e-05 -7.62939e-06
