ITEM: TIMESTEP
0
ITEM: NUMBER OF ATOMS
32
ITEM: BOX BOUNDS xy xz yz pp pp pp
-2.1013021469116211e-03 8.2356872558593750e+00 1.8390369415283203e+00
-4.1524946689605713e-02 2.2124402940273285e+01 -0.0000000000000000e+00
-1.4066457748413086e-02 5.1965324282646179e+00 0.0000000000000000e+00
ITEM: ATOMS id type xs ys zs fx fy fz
1 1 0.922467 0.336621 0.593597 0 0.00141776 -1.19209e-07
2 1 0.422467 0.336621 0.593597 0 0.00141847 -4.76837e-07
3 1 0.184443 0.294954 0.093597 0 0.00194764 5.96046e-07
4 1 0.684443 0.294954 0.0935971 0 0.00194657 3.57628e-07
5 1 0.136542 0.461621 0.593597 0 -4.56572e-05 3.57628e-07
6 1 0.636542 0.461621 0.593597 0 -4.6134e-05 1.19209e-07
7 1 0.898517 0.419954 0.0935971 0 -9.62019e-05 -4.76837e-07
8 1 0.398517 0.419954 0.0935971 0 -9.64403e-05 0
9 1 0.850616 0.586621 0.593597 0 9.14335e-05 -3.57628e-07
10 1 0.350616 0.586621 0.593597 0 9.11951e-05 -7.15256e-07
11 1 0.0646901 0.711621 0.593597 0 -0.00194752 -1.3113e-06
12 1 0.56469 0.711621 0.593597 0 -0.00194728 -1.3113e-06
13 1 0.826665 0.669954 0.093597 0 -0.00142324 1.3113e-06
14 1 0.112591 0.544954 0.0935971 0 4.73261e-05 1.19209e-07
15 1 0.612591 0.544954 0.0935971 0 4.76837e-05 -1.19209e-07
16 1 0.326665 0.669954 0.093597 0 -0.00142324 1.43051e-06
17 1 0.778765 0.83662 0.593597 0 0.0105923 1.19209e-07
18 1 0.278764 0.83662 0.593597 0 0.0105916 -3.57628e-07
19 1 0.992839 0.96162 0.593597 0 -0.390715 -1.19209e-07
20 1 0.492839 0.96162 0.593597 0 -0.390716 1.19209e-07
21 1 0.0407398 0.794954 0.093597 0 0.00402474 5.96046e-07
22 1 0.54074 0.794954 0.0935971 0 0.00402474 2.38419e-07
23 1 0.754814 0.919954 0.0935971 0 -0.633636 0
24 1 0.254814 0.919954 0.093597 0 -0.633636 3.57628e-07
25 1 0.994319 0.0866205 0.593597 0 0.633641 -1.19209e-06
26 1 0.494319 0.0866205 0.593597 0 0.633641 -5.96046e-07
27 1 0.256294 0.0449538 0.093597 0 0.390712 9.53674e-07
28 1 0.756294 0.0449538 0.093597 0 0.390713 3.57628e-07
29 1 0.208393 0.211621 0.593597 0 -0.00402331 -4.76837e-07
30 1 0.708393 0.211621 0.593597 0 -0.00402403 -2.38419e-07
31 1 0.970368 0.169954 0.093597 0 -0.0105869 8.34465e-07
32 1 0.470368 0.169954 0.0935971 0 -0.0105867 0
ITEM: TIMESTEP
1
ITEM: NUMBER OF ATOMS
32
ITEM: BOX BOUNDS xy xz yz pp pp pp
-2.1013021469116211e-03 8.2356872558593750e+00 1.8390369415283203e+00
-4.1524946689605713e-02 2.2124402940273285e+01 -0.0000000000000000e+00
-1.4066457748413086e-02 5.1965324282646179e+00 0.0000000000000000e+00
ITEM: ATOMS id type xs ys zs fx fy fz
1 1 0.922464 0.336631 0.593597 0 0.00282621 -1.19209e-07
2 1 0.422464 0.336631 0.593597 0 0.00282705 0
3 1 0.184439 0.294968 0.0935971 0 0.0128479 1.19209e-07
4 1 0.684439 0.294968 0.0935971 0 0.0128474 1.19209e-07
5 1 0.136542 0.46162 0.593597 0 0.000342965 2.38419e-07
6 1 0.636542 0.46162 0.593597 0 0.000342488 0
7 1 0.898517 0.419953 0.0935971 0 -0.00108743 -2.38419e-07
8 1 0.398517 0.419953 0.0935971 0 -0.00108755 -1.19209e-07
9 1 0.850616 0.586621 0.593597 0 0.00108337 0
10 1 0.350616 0.586621 0.593597 0 0.00108325 -1.19209e-07
11 1 0.0646941 0.711607 0.593597 0 -0.0128478 -7.15256e-07
12 1 0.564694 0.711607 0.593597 0 -0.0128478 -5.96046e-07
13 1 0.826668 0.669944 0.0935971 0 -0.00282848 3.57628e-07
14 1 0.112591 0.544954 0.0935971 0 -0.000342965 0
15 1 0.612591 0.544954 0.0935971 0 -0.000343323 1.19209e-07
16 1 0.326668 0.669944 0.0935971 0 -0.00282824 5.96046e-07
17 1 0.778743 0.836696 0.593597 0 -0.101629 1.19209e-07
18 1 0.278743 0.836696 0.593597 0 -0.10163 2.38419e-07
19 1 0.993638 0.958839 0.593597 0 0.0477855 -1.19209e-07
20 1 0.493638 0.958839 0.593597 0 0.0477855 1.19209e-07
21 1 0.0407315 0.794982 0.0935971 0 -0.111239 1.19209e-07
22 1 0.540732 0.794982 0.0935971 0 -0.111238 1.19209e-07
23 1 0.756111 0.915442 0.0935971 0 -0.0989337 -3.57628e-07
24 1 0.256111 0.915442 0.093597 0 -0.0989338 2.38419e-07
25 1 0.993022 0.0911319 0.593597 0 0.0989358 -3.57628e-07
26 1 0.493022 0.0911319 0.593597 0 0.0989356 -1.19209e-07
27 1 0.255494 0.0477356 0.093597 0 -0.0477837 1.19209e-07
28 1 0.755494 0.0477356 0.093597 0 -0.0477831 2.38419e-07
29 1 0.208401 0.211592 0.593597 0 0.111238 -2.38419e-07
30 1 0.708401 0.211592 0.593597 0 0.111237 0
31 1 0.97039 0.169878 0.093597 0 0.101633 2.38419e-07
32 1 0.47039 0.169878 0.0935971 0 0.101633 0
ITEM: TIMESTEP
2
ITEM: NUMBER OF ATOMS
32
ITEM: BOX BOUNDS xy xz yz pp pp pp
-2.1013021469116211e-03 8.2356872558593750e+00 1.8390369415283203e+00
-4.1524946689605713e-02 2.2124402940273285e+01 -0.0000000000000000e+00
-1.4066457748413086e-02 5.1965324282646179e+00 0.0000000000000000e+00
ITEM: ATOMS id type xs ys zs fx fy fz
1 1 0.922443 0.336707 0.593597 0 0.0681227 2.38419e-07
2 1 0.422443 0.336707 0.593597 0 0.0681219 -3.57628e-07
3 1 0.184339 0.295313 0.0935971 0 0.0785151 1.19209e-07
4 1 0.684339 0.295313 0.0935971 0 0.0785153 1.19209e-07
5 1 0.136539 0.461629 0.593597 0 0.00390756 -2.38419e-07
6 1 0.636539 0.461629 0.593597 0 0.00390768 0
7 1 0.898525 0.419924 0.0935971 0 0.0169129 0
8 1 0.398525 0.419924 0.0935971 0 0.0169137 0
9 1 0.850607 0.58665 0.593597 0 -0.0169121 0
10 1 0.350607 0.58665 0.593597 0 -0.0169117 3.57628e-07
11 1 0.0647933 0.711262 0.593597 0 -0.0785156 9.53674e-07
12 1 0.564793 0.711262 0.593597 0 -0.0785149 5.96046e-07
13 1 0.82669 0.669868 0.0935971 0 -0.0681241 -4.76837e-07
14 1 0.112594 0.544945 0.0935971 0 -0.00391161 0
15 1 0.612594 0.544945 0.0935971 0 -0.00391126 -2.38419e-07
16 1 0.32669 0.669868 0.0935971 0 -0.0681242 -8.34465e-07
17 1 0.779528 0.833966 0.593597 0 0.0405148 -1.19209e-07
18 1 0.279527 0.833966 0.593597 0 0.0405153 -2.38419e-07
19 1 0.993269 0.960122 0.593597 0 -0.019605 0
20 1 0.493269 0.960122 0.593597 0 -0.0196053 -1.19209e-07
21 1 0.0415904 0.791994 0.0935971 0 -0.000364184 -2.38419e-07
22 1 0.54159 0.791994 0.0935971 0 -0.00036478 -1.19209e-07
23 1 0.756875 0.912785 0.093597 0 -0.0356871 1.19209e-07
24 1 0.256875 0.912785 0.093597 0 -0.0356882 2.38419e-07
25 1 0.992258 0.0937897 0.593597 0 0.0356877 3.57628e-07
26 1 0.492258 0.0937897 0.593597 0 0.0356883 0
27 1 0.255863 0.046452 0.093597 0 0.0196075 2.38419e-07
28 1 0.755863 0.046452 0.0935971 0 0.0196068 -1.19209e-07
29 1 0.207542 0.21458 0.593597 0 0.000366569 0
30 1 0.707542 0.21458 0.593597 0 0.000366449 -4.76837e-07
31 1 0.969605 0.172609 0.0935971 0 -0.0405153 0
32 1 0.469605 0.172609 0.0935971 0 -0.0405149 2.38419e-07
ITEM: TIMESTEP
3
ITEM: NUMBER OF ATOMS
32
ITEM: BOX BOUNDS xy xz yz pp pp pp
-2.1013021469116211e-03 8.2356872558593750e+00 1.8390369415283203e+00
-4.1524946689605713e-02 2.2124402940273285e+01 -0.0000000000000000e+00
-1.4066457748413086e-02 5.1965324282646179e+00 0.0000000000000000e+00
ITEM: ATOMS id type xs ys zs fx fy fz
1 1 0.922061 0.338033 0.593597 0 0.0180733 0
2 1 0.422061 0.338033 0.593597 0 0.0180734 2.38419e-07
3 1 0.183878 0.296918 0.0935971 0 0.00581479 -2.38419e-07
4 1 0.683878 0.296918 0.0935971 0 0.00581455 -3.57628e-07
5 1 0.136517 0.461707 0.593597 0 0.0180895 -2.38419e-07
6 1 0.636517 0.461707 0.593597 0 0.01809 -2.38419e-07
7 1 0.898435 0.420239 0.0935971 0 0.0435873 4.76837e-07
8 1 0.398435 0.420239 0.0935971 0 0.0435869 1.19209e-07
9 1 0.850698 0.586336 0.593597 0 -0.0435877 1.19209e-07
10 1 0.350698 0.586336 0.593597 0 -0.0435877 -4.76837e-07
11 1 0.0652547 0.709656 0.593597 0 -0.00581431 0
12 1 0.565255 0.709656 0.593597 0 -0.00581419 1.19209e-07
13 1 0.827071 0.668542 0.0935971 0 -0.0180732 0
14 1 0.112616 0.544867 0.0935971 0 -0.0180908 1.19209e-07
15 1 0.612616 0.544867 0.0935971 0 -0.0180905 -1.19209e-07
16 1 0.327071 0.668542 0.0935971 0 -0.0180733 0
17 1 0.77954 0.833923 0.593597 0 -0.0107188 -2.38419e-07
18 1 0.27954 0.833923 0.593597 0 -0.0107187 0
19 1 0.993267 0.960132 0.593597 0 0.0180489 2.38419e-07
20 1 0.493267 0.960132 0.593597 0 0.018049 -2.38419e-07
21 1 0.0418497 0.791092 0.0935971 0 -0.0281068 0
22 1 0.54185 0.791092 0.0935971 0 -0.0281072 0
23 1 0.7573 0.911306 0.093597 0 0.0535514 2.38419e-07
24 1 0.2573 0.911306 0.0935971 0 0.0535525 -2.38419e-07
25 1 0.991833 0.0952688 0.593597 0 -0.0535502 4.76837e-07
26 1 0.491833 0.0952688 0.593597 0 -0.0535504 2.38419e-07
27 1 0.255866 0.0464424 0.093597 0 -0.018049 2.38419e-07
28 1 0.755866 0.0464424 0.0935971 0 -0.0180485 -2.38419e-07
29 1 0.207283 0.215483 0.593597 0 0.0281061 4.76837e-07
30 1 0.707283 0.215483 0.593597 0 0.0281067 3.57628e-07
31 1 0.969593 0.172652 0.0935971 0 0.0107186 -3.57628e-07
32 1 0.469593 0.172652 0.0935971 0 0.0107183 -4.76837e-07
ITEM: TIMESTEP
4
ITEM: NUMBER OF ATOMS
32
ITEM: BOX BOUNDS xy xz yz pp pp pp
-2.1013021469116211e-03 8.2356872558593750e+00 1.8390369415283203e+00
-4.1524946689605713e-02 2.2124402940273285e+01 -0.0000000000000000e+00
-1.4066457748413086e-02 5.1965324282646179e+00 0.0000000000000000e+00
ITEM: ATOMS id type xs ys zs fx fy fz
1 1 0.921818 0.33888 0.593597 0 0.00176549 1.19209e-07
2 1 0.421818 0.33888 0.593597 0 0.00176549 1.19209e-07
3 1 0.18366 0.297678 0.0935971 0 -0.00550759 0
4 1 0.68366 0.297678 0.0935971 0 -0.00550795 -1.19209e-07
5 1 0.136421 0.462038 0.593597 0 -0.00296903 4.76837e-07
6 1 0.636422 0.462038 0.593597 0 -0.00296915 2.38419e-07
7 1 0.89819 0.42109 0.0935971 0 0.0125337 -5.96046e-07
8 1 0.39819 0.42109 0.0935971 0 0.0125334 -2.38419e-07
9 1 0.850943 0.585484 0.593597 0 -0.0125343 -2.38419e-07
10 1 0.350943 0.585484 0.593597 0 -0.0125345 0
11 1 0.0654731 0.708896 0.593597 0 0.00550795 -5.96046e-07
12 1 0.565473 0.708897 0.593597 0 0.00550723 -1.19209e-07
13 1 0.827315 0.667695 0.0935971 0 -0.00176609 4.76837e-07
14 1 0.112711 0.544536 0.0935971 0 0.00296986 -2.38419e-07
15 1 0.612711 0.544536 0.0935971 0 0.00296998 0
16 1 0.327315 0.667695 0.0935971 0 -0.00176561 2.38419e-07
17 1 0.779596 0.833728 0.593597 0 -0.0107936 0
18 1 0.279596 0.833728 0.593597 0 -0.0107934 -1.19209e-07
19 1 0.99318 0.960435 0.593597 0 -0.014691 0
20 1 0.49318 0.960435 0.593597 0 -0.0146906 2.38419e-07
21 1 0.0420906 0.790254 0.0935971 0 0.00601029 3.57628e-07
22 1 0.542091 0.790254 0.0935971 0 0.00601041 1.19209e-07
23 1 0.75722 0.911581 0.0935971 0 -0.00133073 0
24 1 0.25722 0.911581 0.0935971 0 -0.00133026 -2.38419e-07
25 1 0.991912 0.0949935 0.593597 0 0.00133073 -2.38419e-07
26 1 0.491912 0.0949935 0.593597 0 0.00132978 0
27 1 0.255953 0.0461397 0.0935971 0 0.0146911 0
28 1 0.755953 0.0461397 0.093597 0 0.0146914 1.19209e-07
29 1 0.207042 0.216321 0.593597 0 -0.00601029 -1.19209e-07
30 1 0.707042 0.216321 0.593597 0 -0.00601041 2.38419e-07
31 1 0.969537 0.172847 0.0935971 0 0.0107937 1.19209e-07
32 1 0.469537 0.172847 0.0935971 0 0.010794 0
ITEM: TIMESTEP
5
ITEM: NUMBER OF ATOMS
32
ITEM: BOX BOUNDS xy xz yz pp pp pp
-2.1013021469116211e-03 8.2356872558593750e+00 1.8390369415283203e+00
-4.1524946689605713e-02 2.2124402940273285e+01 -0.0000000000000000e+00
-1.4066457748413086e-02 5.1965324282646179e+00 0.0000000000000000e+00
ITEM: ATOMS id type xs ys zs fx fy fz
1 1 0.921791 0.338972 0.593597 0 -0.00286555 -4.76837e-07
2 1 0.421791 0.338972 0.593597 0 -0.00286543 0
3 1 0.183671 0.297638 0.0935971 0 0.00696266 1.19209e-07
4 1 0.683671 0.297638 0.0935971 0 0.00696278 2.38419e-07
5 1 0.136429 0.462011 0.593597 0 -0.00491667 -2.38419e-07
6 1 0.636429 0.462011 0.593597 0 -0.00491643 0
7 1 0.89811 0.421371 0.0935971 0 -0.00355554 3.57628e-07
8 1 0.39811 0.421371 0.0935971 0 -0.00355577 1.19209e-07
9 1 0.851023 0.585204 0.593597 0 0.00355577 1.19209e-07
10 1 0.351023 0.585204 0.593597 0 0.00355589 -2.38419e-07
11 1 0.0654616 0.708937 0.593597 0 -0.00696301 2.38419e-07
12 1 0.565462 0.708937 0.593597 0 -0.00696301 0
13 1 0.827341 0.667602 0.0935971 0 0.00286591 -3.57628e-07
14 1 0.112703 0.544563 0.0935971 0 0.00491643 0
15 1 0.612703 0.544563 0.0935971 0 0.00491607 1.19209e-07
16 1 0.327341 0.667602 0.0935971 0 0.00286555 1.19209e-07
17 1 0.779654 0.833526 0.593597 0 -0.00361323 3.57628e-07
18 1 0.279654 0.833526 0.593597 0 -0.00361323 -1.19209e-07
19 1 0.993247 0.960202 0.593597 0 -0.0027492 0
20 1 0.493247 0.960202 0.593597 0 -0.00275004 0
21 1 0.0420783 0.790297 0.0935971 0 7.29561e-05 -2.38419e-07
22 1 0.542078 0.790297 0.0935971 0 7.27177e-05 0
23 1 0.757221 0.911578 0.0935971 0 0.00439668 -1.19209e-07
24 1 0.257221 0.911578 0.093597 0 0.00439656 1.19209e-07
25 1 0.991911 0.0949965 0.593597 0 -0.00439632 0
26 1 0.491911 0.0949965 0.593597 0 -0.00439584 -1.19209e-07
27 1 0.255886 0.0463727 0.0935971 0 0.00274956 0
28 1 0.755886 0.0463727 0.0935971 0 0.0027492 1.19209e-07
29 1 0.207054 0.216278 0.593597 0 -7.35521e-05 0
30 1 0.707054 0.216278 0.593597 0 -7.25985e-05 -1.19209e-07
31 1 0.969479 0.173049 0.0935971 0 0.00361347 0
32 1 0.469479 0.173049 0.0935971 0 0.00361323 0
ITEM: TIMESTEP
6
ITEM: NUMBER OF ATOMS
32
ITEM: BOX BOUNDS xy xz yz pp pp pp
-2.1013021469116211e-03 8.2356872558593750e+00 1.8390369415283203e+00
-4.1524946689605713e-02 2.2124402940273285e+01 -0.0000000000000000e+00
-1.4066457748413086e-02 5.1965324282646179e+00 0.0000000000000000e+00
ITEM: ATOMS id type xs ys zs fx fy fz
1 1 0.921802 0.338936 0.593597 0 -0.0029794 4.76837e-07
2 1 0.421802 0.338936 0.593597 0 -0.00297952 1.19209e-07
3 1 0.18363 0.29778 0.0935971 0 0.00164986 -2.38419e-07
4 1 0.68363 0.29778 0.0935971 0 0.00165033 0
5 1 0.136463 0.461894 0.593597 0 0.00222981 -2.38419e-07
6 1 0.636463 0.461894 0.593597 0 0.00222957 0
7 1 0.898108 0.421375 0.0935971 0 0.00144291 -2.38419e-07
8 1 0.398108 0.421375 0.0935971 0 0.00144327 2.38419e-07
9 1 0.851024 0.585199 0.593597 0 -0.00144279 -2.38419e-07
10 1 0.351024 0.585199 0.593597 0 -0.00144267 3.57628e-07
11 1 0.0655025 0.708794 0.593597 0 -0.00165009 1.19209e-07
12 1 0.565503 0.708794 0.593597 0 -0.00164998 3.57628e-07
13 1 0.827331 0.667638 0.0935971 0 0.00297916 -1.19209e-07
14 1 0.11267 0.54468 0.0935971 0 -0.00223017 1.19209e-07
15 1 0.61267 0.54468 0.0935971 0 -0.00223005 -2.38419e-07
16 1 0.327331 0.667638 0.0935971 0 0.00297952 -3.57628e-07
17 1 0.779694 0.833386 0.593597 0 -0.000130177 -2.38419e-07
18 1 0.279694 0.833386 0.593597 0 -0.000130296 3.57628e-07
19 1 0.993284 0.960071 0.593597 0 0.000409365 0
20 1 0.493284 0.960071 0.593597 0 0.000410557 -1.19209e-07
21 1 0.0420741 0.790311 0.0935971 0 0.000624418 0
22 1 0.542074 0.790311 0.0935971 0 0.000624776 -1.19209e-07
23 1 0.757194 0.911675 0.093597 0 -0.00066483 2.38419e-07
24 1 0.257194 0.911675 0.0935971 0 -0.00066483 -1.19209e-07
25 1 0.991939 0.0948999 0.593597 0 0.000664473 1.19209e-07
26 1 0.491939 0.0948999 0.593597 0 0.000664234 2.38419e-07
27 1 0.255849 0.0465031 0.0935971 0 -0.000409603 0
28 1 0.755849 0.0465031 0.0935971 0 -0.000409603 -1.19209e-07
29 1 0.207059 0.216263 0.593597 0 -0.000623345 0
30 1 0.707059 0.216263 0.593597 0 -0.000624895 -3.57628e-07
31 1 0.969438 0.173189 0.0935971 0 0.000129819 0
32 1 0.469438 0.173189 0.0935971 0 0.000130177 0
ITEM: TIMESTEP
7
ITEM: NUMBER OF ATOMS
32
ITEM: BOX BOUNDS xy xz yz pp pp pp
-2.1013021469116211e-03 8.2356872558593750e+00 1.8390369415283203e+00
-4.1524946689605713e-02 2.2124402940273285e+01 -0.0000000000000000e+00
-1.4066457748413086e-02 5.1965324282646179e+00 0.0000000000000000e+00
ITEM: ATOMS id type xs ys zs fx fy fz
1 1 0.921814 0.338892 0.593597 0 0.000132799 -1.19209e-07
2 1 0.421814 0.338892 0.593597 0 0.000132322 -1.19209e-07
3 1 0.18362 0.297816 0.0935971 0 0.00018549 2.38419e-07
4 1 0.68362 0.297816 0.0935971 0 0.000185728 0
5 1 0.136457 0.461914 0.593597 0 -0.000473857 -1.19209e-07
6 1 0.636457 0.461914 0.593597 0 -0.000473976 -1.19209e-07
7 1 0.898102 0.421395 0.0935971 0 0.000230432 2.38419e-07
8 1 0.398102 0.421395 0.0935971 0 0.000230432 -1.19209e-07
9 1 0.85103 0.585179 0.593597 0 -0.00023067 -2.38419e-07
10 1 0.35103 0.585179 0.593597 0 -0.000230551 -2.38419e-07
11 1 0.0655127 0.708758 0.593597 0 -0.000185251 -1.19209e-07
12 1 0.565513 0.708758 0.593597 0 -0.00018537 -2.38419e-07
13 1 0.827318 0.667682 0.0935971 0 -0.000132442 3.57628e-07
14 1 0.112676 0.54466 0.0935971 0 0.000473619 0
15 1 0.612676 0.54466 0.0935971 0 0.000474095 -1.19209e-07
16 1 0.327318 0.667682 0.0935971 0 -0.00013268 3.57628e-07
17 1 0.779698 0.833371 0.593597 0 -9.35793e-05 0
18 1 0.279698 0.833371 0.593597 0 -9.40561e-05 -1.19209e-07
19 1 0.993286 0.960065 0.593597 0 0.000501513 0
20 1 0.493286 0.960065 0.593597 0 0.000501633 0
21 1 0.0420713 0.790321 0.0935971 0 0.000520468 1.19209e-07
22 1 0.542071 0.790321 0.0935971 0 0.000520349 1.19209e-07
23 1 0.757194 0.911674 0.0935971 0 -0.000367045 0
24 1 0.257194 0.911674 0.093597 0 -0.000366688 1.19209e-07
25 1 0.991939 0.0949003 0.593597 0 0.000366688 1.19209e-07
26 1 0.491939 0.0949003 0.593597 0 0.000367641 0
27 1 0.255847 0.0465091 0.0935971 0 -0.000501513 0
28 1 0.755847 0.0465092 0.0935971 0 -0.000501513 0
29 1 0.207061 0.216253 0.593597 0 -0.000520706 -1.19209e-07
30 1 0.707061 0.216253 0.593597 0 -0.000520349 2.38419e-07
31 1 0.969434 0.173203 0.0935971 0 9.39369e-05 -1.19209e-07
32 1 0.469434 0.173203 0.0935971 0 9.31025e-05 0
ITEM: TIMESTEP
8
ITEM: NUMBER OF ATOMS
32
ITEM: BOX BOUNDS xy xz yz pp pp pp
-2.1013021469116211e-03 8.2356872558593750e+00 1.8390369415283203e+00
-4.1524946689605713e-02 2.2124402940273285e+01 -0.0000000000000000e+00
-1.4066457748413086e-02 5.1965324282646179e+00 0.0000000000000000e+00
ITEM: ATOMS id type xs ys zs fx fy fz
1 1 0.921815 0.338892 0.593597 0 -9.98974e-05 1.19209e-07
2 1 0.421815 0.338892 0.593597 0 -9.94205e-05 0
3 1 0.183618 0.297821 0.0935971 0 -4.42266e-05 -2.38419e-07
4 1 0.683618 0.297821 0.0935971 0 -4.39882e-05 -1.19209e-07
5 1 0.136459 0.461908 0.593597 0 -0.000154495 0
6 1 0.636459 0.461908 0.593597 0 -0.000154614 -2.38419e-07
7 1 0.898101 0.4214 0.0935971 0 0.00015533 0
8 1 0.398101 0.4214 0.0935971 0 0.000154972 0
9 1 0.851032 0.585174 0.593597 0 -0.000155091 2.38419e-07
10 1 0.351032 0.585174 0.593597 0 -0.000155449 1.19209e-07
11 1 0.0655142 0.708753 0.593597 0 4.3869e-05 1.19209e-07
12 1 0.565514 0.708753 0.593597 0 4.3869e-05 1.19209e-07
13 1 0.827318 0.667683 0.0935971 0 9.9659e-05 -2.38419e-07
14 1 0.112674 0.544666 0.0935971 0 0.000154853 -2.38419e-07
15 1 0.612674 0.544666 0.0935971 0 0.000154495 2.38419e-07
16 1 0.327318 0.667683 0.0935971 0 9.95398e-05 -1.19209e-07
17 1 0.779699 0.833369 0.593597 0 1.20401e-05 0
18 1 0.279699 0.833369 0.593597 0 1.23978e-05 4.76837e-07
19 1 0.993284 0.960073 0.593597 0 0.000135899 0
20 1 0.493284 0.960073 0.593597 0 0.000135899 0
21 1 0.0420687 0.79033 0.0935971 0 -0.000238776 -3.57628e-07
22 1 0.542069 0.79033 0.0935971 0 -0.000238538 -2.38419e-07
23 1 0.757195 0.911668 0.0935971 0 7.89165e-05 1.19209e-07
24 1 0.257195 0.911668 0.0935971 0 7.80821e-05 0
25 1 0.991937 0.0949063 0.593597 0 -7.85589e-05 0
26 1 0.491937 0.0949063 0.593597 0 -7.9155e-05 0
27 1 0.255849 0.0465015 0.0935971 0 -0.000135303 -2.38419e-07
28 1 0.755849 0.0465015 0.0935971 0 -0.000136018 1.19209e-07
29 1 0.207064 0.216244 0.593597 0 0.000239253 1.19209e-07
30 1 0.707064 0.216244 0.593597 0 0.000238538 0
31 1 0.969434 0.173206 0.0935971 0 -1.20401e-05 2.38419e-07
32 1 0.469434 0.173206 0.0935971 0 -1.20401e-05 0
ITEM: TIMESTEP
9
ITEM: NUMBER OF ATOMS
32
ITEM: BOX BOUNDS xy xz yz pp pp pp
-2.1013021469116211e-03 8.2356872558593750e+00 1.8390369415283203e+00
-4.1524946689605713e-02 2.2124402940273285e+01 -0.0000000000000000e+00
-1.4066457748413086e-02 5.1965324282646179e+00 0.0000000000000000e+00
ITEM: ATOMS id type xs ys zs fx fy fz
1 1 0.921815 0.33889 0.593597 0 1.14441e-05 -1.19209e-07
2 1 0.421815 0.33889 0.593597 0 1.0848e-05 0
3 1 0.183618 0.297821 0.0935971 0 3.57628e-05 1.19209e-07
4 1 0.683618 0.297821 0.0935971 0 3.5882e-05 -1.19209e-07
5 1 0.13646 0.461905 0.593597 0 -2.89679e-05 0
6 1 0.63646 0.461905 0.593597 0 -2.83718e-05 1.19209e-07
7 1 0.8981 0.421403 0.0935971 0 3.44515e-05 0
8 1 0.3981 0.421403 0.0935971 0 3.44515e-05 0
9 1 0.851032 0.585171 0.593597 0 -3.46899e-05 0
10 1 0.351032 0.585171 0.593597 0 -3.44515e-05 2.38419e-07
11 1 0.0655142 0.708753 0.593597 0 -3.56436e-05 1.19209e-07
12 1 0.565514 0.708753 0.593597 0 -3.51667e-05 0
13 1 0.827318 0.667684 0.0935971 0 -1.13249e-05 0
14 1 0.112673 0.54467 0.0935971 0 2.83718e-05 0
15 1 0.612673 0.54467 0.0935971 0 2.87294e-05 -2.38419e-07
16 1 0.327318 0.667684 0.0935971 0 -1.12057e-05 -1.19209e-07
17 1 0.779699 0.833369 0.593597 0 6.48499e-05 0
18 1 0.279699 0.833369 0.593597 0 6.50883e-05 -3.57628e-07
19 1 0.993283 0.960076 0.593597 0 -7.4029e-05 0
20 1 0.493283 0.960076 0.593597 0 -7.43866e-05 0
21 1 0.0420694 0.790328 0.093597 0 -3.91006e-05 2.38419e-07
22 1 0.542069 0.790328 0.0935971 0 -3.94583e-05 0
23 1 0.757195 0.911669 0.0935971 0 -9.38177e-05 -1.19209e-07
24 1 0.257195 0.911669 0.0935971 0 -9.34601e-05 2.38419e-07
25 1 0.991937 0.0949059 0.593597 0 9.39369e-05 1.19209e-07
26 1 0.491937 0.0949059 0.593597 0 9.38177e-05 -1.19209e-07
27 1 0.25585 0.0464985 0.0935971 0 7.34329e-05 1.19209e-07
28 1 0.75585 0.0464985 0.0935971 0 7.4029e-05 0
29 1 0.207063 0.216247 0.593597 0 3.91006e-05 0
30 1 0.707063 0.216247 0.593597 0 3.93391e-05 0
31 1 0.969434 0.173206 0.0935971 0 -6.48499e-05 0
32 1 0.469434 0.173206 0.0935971 0 -6.46114e-05 -1.19209e-07
ITEM: TIMESTEP
10
ITEM: NUMBER OF ATOMS
32
ITEM: BOX BOUNDS xy xz yz pp pp pp
-2.1013021469116211e-03 8.2356872558593750e+00 1.8390369415283203e+00
-4.1524946689605713e-02 2.2124402940273285e+01 -0.0000000000000000e+00
-1.4066457748413086e-02 5.1965324282646179e+00 0.0000000000000000e+00
ITEM: ATOMS id type xs ys zs fx fy fz
1 1 0.921815 0.33889 0.593597 0 2.74181e-05 1.19209e-07
2 1 0.421815 0.33889 0.593597 0 2.76566e-05 -1.19209e-07
3 1 0.183618 0.297822 0.0935971 0 2.2769e-05 -1.19209e-07
4 1 0.683618 0.297822 0.0935971 0 2.20537e-05 0
5 1 0.13646 0.461904 0.593597 0 1.41859e-05 1.19209e-07
6 1 0.63646 0.461904 0.593597 0 1.41859e-05 0
7 1 0.8981 0.421404 0.0935971 0 8.46386e-06 -1.19209e-07
8 1 0.3981 0.421404 0.0935971 0 8.58307e-06 0
9 1 0.851033 0.58517 0.593597 0 -8.46386e-06 0
10 1 0.351033 0.58517 0.593597 0 -8.34465e-06 -2.38419e-07
11 1 0.0655144 0.708753 0.593597 0 -2.21729e-05 -3.57628e-07
12 1 0.565514 0.708753 0.593597 0 -2.30074e-05 -1.19209e-07
13 1 0.827318 0.667684 0.0935971 0 -2.74181e-05 0
14 1 0.112673 0.54467 0.0935971 0 -1.44243e-05 1.19209e-07
15 1 0.612673 0.54467 0.0935971 0 -1.38283e-05 1.19209e-07
16 1 0.327318 0.667684 0.0935971 0 -2.74181e-05 2.38419e-07
17 1 0.779699 0.833369 0.593597 0 -1.5974e-05 0
18 1 0.279699 0.833369 0.593597 0 -1.5974e-05 1.19209e-07
19 1 0.993283 0.960075 0.593597 0 6.55651e-06 1.19209e-07
20 1 0.493283 0.960075 0.593597 0 6.4373e-06 0
21 1 0.0420696 0.790327 0.0935971 0 -1.5378e-05 1.19209e-07
22 1 0.54207 0.790327 0.0935971 0 -1.51396e-05 0
23 1 0.757196 0.911667 0.0935971 0 -5.96046e-07 0
24 1 0.257196 0.911667 0.0935971 0 -4.76837e-07 -1.19209e-07
25 1 0.991937 0.0949071 0.593597 0 1.19209e-07 -1.19209e-07
26 1 0.491937 0.0949071 0.593597 0 2.38419e-07 0
27 1 0.25585 0.046499 0.0935971 0 -7.03335e-06 -1.19209e-07
28 1 0.75585 0.046499 0.0935971 0 -6.19888e-06 1.19209e-07
29 1 0.207063 0.216248 0.593597 0 1.50204e-05 2.38419e-07
30 1 0.707063 0.216248 0.593597 0 1.5378e-05 0
31 1 0.969434 0.173205 0.0935971 0 1.58548e-05 0
32 1 0.469434 0.173205 0.0935971 0 1.69277e-05 0
ITEM: TIMESTEP
11
ITEM: NUMBER OF ATOMS
32
ITEM: BOX BOUNDS xy xz yz pp pp pp
-2.1013021469116211e-03 8.2356872558593750e+00 1.8390369415283203e+00
-4.1524946689605713e-02 2.2124402940273285e+01 -0.0000000000000000e+00
-1.4066457748413086e-02 5.1965324282646179e+00 0.0000000000000000e+00
ITEM: ATOMS id type xs ys zs fx fy fz
1 1 0.921815 0.338891 0.593597 0 -6.79493e-06 -3.57628e-07
2 1 0.421815 0.338891 0.593597 0 -7.27177e-06 1.19209e-07
3 1 0.183618 0.297823 0.0935971 0 -7.51019e-06 3.57628e-07
4 1 0.683618 0.297823 0.0935971 0 -5.84126e-06 4.76837e-07
5 1 0.13646 0.461904 0.593597 0 -1.78814e-06 -3.57628e-07
6 1 0.63646 0.461904 0.593597 0 -1.3113e-06 -1.19209e-07
7 1 0.8981 0.421405 0.0935971 0 5.96046e-07 3.57628e-07
8 1 0.3981 0.421405 0.0935971 0 1.07288e-06 0
9 1 0.851033 0.58517 0.593597 0 -4.76837e-07 4.76837e-07
10 1 0.351033 0.58517 0.593597 0 -1.3113e-06 5.96046e-07
11 1 0.0655147 0.708752 0.593597 0 6.31809e-06 8.34465e-07
12 1 0.565515 0.708752 0.593597 0 7.7486e-06 1.19209e-07
13 1 0.827318 0.667683 0.0935971 0 6.67572e-06 -2.38419e-07
14 1 0.112673 0.54467 0.0935971 0 2.86102e-06 -4.76837e-07
15 1 0.612673 0.54467 0.0935971 0 3.57628e-07 -2.38419e-07
16 1 0.327318 0.667683 0.0935971 0 7.03335e-06 -8.34465e-07
17 1 0.779699 0.833369 0.593597 0 -1.93119e-05 1.19209e-07
18 1 0.279699 0.833369 0.593597 0 -1.91927e-05 1.19209e-07
19 1 0.993283 0.960075 0.593597 0 -3.93391e-06 -1.19209e-07
20 1 0.493283 0.960075 0.593597 0 -3.33786e-06 1.19209e-07
21 1 0.0420699 0.790326 0.0935971 0 -5.72205e-06 -5.96046e-07
22 1 0.54207 0.790326 0.0935971 0 -5.96046e-06 0
23 1 0.757196 0.911667 0.0935971 0 -6.55651e-06 0
24 1 0.257196 0.911667 0.0935971 0 -7.98702e-06 1.19209e-07
25 1 0.991937 0.0949074 0.593597 0 8.22544e-06 2.38419e-07
26 1 0.491937 0.0949074 0.593597 0 8.10623e-06 0
27 1 0.25585 0.0464989 0.093597 0 5.00679e-06 0
28 1 0.75585 0.0464989 0.0935971 0 2.6226e-06 -1.19209e-07
29 1 0.207063 0.216249 0.593597 0 5.84126e-06 -5.96046e-07
30 1 0.707063 0.216249 0.593597 0 5.24521e-06 -2.38419e-07
31 1 0.969434 0.173205 0.0935971 0 1.89543e-05 -2.38419e-07
32 1 0.469434 0.173205 0.0935971 0 1.7643e-05 4.76837e-07
ITEM: TIMESTEP
12
ITEM: NUMBER OF ATOMS
32
ITEM: BOX BOUNDS xy xz yz pp pp pp
-2.1013021469116211e-03 8.2356872558593750e+00 1.8390369415283203e+00
-4.1524946689605713e-02 2.2124402940273285e+01 -0.0000000000000000e+00
-1.4066457748413086e-02 5.1965324282646179e+00 0.0000000000000000e+00
ITEM: ATOMS id type xs ys zs fx fy fz
1 1 0.921815 0.338891 0.593597 0 -1.19209e-06 3.57628e-07
2 1 0.421815 0.338891 0.593597 0 -4.76837e-07 5.96046e-07
3 1 0.183618 0.297823 0.0935971 0 5.24521e-06 -2.38419e-07
4 1 0.683618 0.297823 0.0935971 0 4.88758e-06 -5.96046e-07
5 1 0.13646 0.461904 0.593597 0 -4.05312e-06 2.38419e-07
6 1 0.63646 0.461904 0.593597 0 -4.52995e-06 1.19209e-07
7 1 0.8981 0.421405 0.0935971 0 -5.126e-06 -4.76837e-07
8 1 0.3981 0.421405 0.0935971 0 -5.84126e-06 -2.38419e-07
9 1 0.851033 0.58517 0.593597 0 5.24521e-06 -7.15256e-07
10 1 0.351033 0.585169 0.593597 0 5.72205e-06 -4.76837e-07
11 1 0.0655147 0.708752 0.593597 0 -5.36442e-06 -5.96046e-07
12 1 0.565515 0.708752 0.593597 0 -4.76837e-06 -1.19209e-07
13 1 0.827318 0.667683 0.0935971 0 7.15256e-07 7.15256e-07
14 1 0.112673 0.54467 0.0935971 0 4.05312e-06 3.57628e-07
15 1 0.612673 0.54467 0.0935971 0 4.52995e-06 3.57628e-07
16 1 0.327318 0.667683 0.0935971 0 3.57628e-07 3.57628e-07
17 1 0.779699 0.833369 0.593597 0 -3.57628e-07 -1.19209e-07
18 1 0.279699 0.833369 0.593597 0 -5.96046e-07 -3.57628e-07
19 1 0.993283 0.960075 0.593597 0 -1.78814e-06 0
20 1 0.493283 0.960075 0.593597 0 -1.90735e-06 0
21 1 0.0420699 0.790326 0.093597 0 1.90735e-06 5.96046e-07
22 1 0.54207 0.790326 0.0935971 0 1.66893e-06 1.19209e-07
23 1 0.757196 0.911667 0.0935971 0 -2.86102e-06 -1.19209e-07
24 1 0.257196 0.911667 0.0935971 0 -9.53674e-07 0
25 1 0.991937 0.0949076 0.593597 0 1.19209e-06 0
26 1 0.491937 0.0949076 0.593597 0 1.78814e-06 3.57628e-07
27 1 0.25585 0.0464989 0.093597 0 1.66893e-06 1.19209e-07
28 1 0.75585 0.046499 0.0935971 0 2.5034e-06 -2.38419e-07
29 1 0.207063 0.216249 0.593597 0 -1.19209e-06 1.19209e-07
30 1 0.707063 0.216249 0.593597 0 -1.19209e-06 3.57628e-07
31 1 0.969434 0.173206 0.0935971 0 9.53674e-07 0
32 1 0.469434 0.173206 0.0935971 0 -2.38419e-07 -4.76837e-07
ITEM: TIMESTEP
13
ITEM: NUMBER OF ATOMS
32
ITEM: BOX BOUNDS xy xz yz pp pp pp
-2.1013021469116211e-03 8.2356872558593750e+00 1.8390369415283203e+00
-4.1524946689605713e-02 2.2124402940273285e+01 -0.0000000000000000e+00
-1.4066457748413086e-02 5.1965324282646179e+00 0.0000000000000000e+00
ITEM: ATOMS id type xs ys zs fx fy fz
1 1 0.921815 0.338891 0.593597 0 -1.54972e-06 -2.38419e-07
2 1 0.421815 0.338891 0.593597 0 -1.19209e-06 -4.76837e-07
3 1 0.183618 0.297823 0.0935971 0 1.90735e-06 1.19209e-07
4 1 0.683618 0.297823 0.0935971 0 1.78814e-06 2.38419e-07
5 1 0.13646 0.461904 0.593597 0 3.57628e-07 0
6 1 0.63646 0.461904 0.593597 0 -3.57628e-07 1.19209e-07
7 1 0.8981 0.421405 0.0935971 0 7.15256e-07 0
8 1 0.3981 0.421405 0.0935971 0 4.76837e-07 1.19209e-07
9 1 0.851033 0.58517 0.593597 0 -7.15256e-07 0
10 1 0.351033 0.58517 0.593597 0 -7.15256e-07 -1.19209e-07
11 1 0.0655147 0.708752 0.593597 0 -1.54972e-06 3.57628e-07
12 1 0.565515 0.708752 0.593597 0 -1.78814e-06 1.19209e-07
13 1 0.827318 0.667683 0.0935971 0 1.78814e-06 -3.57628e-07
14 1 0.112673 0.54467 0.0935971 0 -4.76837e-07 0
15 1 0.612673 0.54467 0.0935971 0 2.38419e-07 0
16 1 0.327318 0.667683 0.0935971 0 1.66893e-06 0
17 1 0.779699 0.833369 0.593597 0 5.96046e-07 0
18 1 0.279699 0.833369 0.593597 0 2.38419e-07 -1.19209e-07
19 1 0.993283 0.960075 0.593597 0 -7.15256e-07 0
20 1 0.493283 0.960075 0.593597 0 -4.76837e-07 0
21 1 0.0420699 0.790326 0.0935971 0 2.38419e-07 0
22 1 0.54207 0.790326 0.0935971 0 2.38419e-07 0
23 1 0.757196 0.911667 0.0935971 0 1.3113e-06 0
24 1 0.257196 0.911667 0.0935971 0 1.43051e-06 1.19209e-07
25 1 0.991937 0.0949076 0.593597 0 -8.34465e-07 0
26 1 0.491937 0.0949077 0.593597 0 -1.3113e-06 -2.38419e-07
27 1 0.25585 0.046499 0.093597 0 3.57628e-07 1.19209e-07
28 1 0.75585 0.046499 0.0935971 0 2.38419e-07 1.19209e-07
29 1 0.207063 0.216249 0.593597 0 -8.34465e-07 1.19209e-07
30 1 0.707063 0.216249 0.593597 0 -5.96046e-07 0
31 1 0.969434 0.173206 0.0935971 0 1.19209e-07 0
32 1 0.469434 0.173206 0.0935971 0 -5.96046e-07 0
