ITEM: TIMESTEP
0
ITEM: NUMBER OF ATOMS
56
ITEM: BOX BOUNDS xy xz yz pp pp pp
-5.8257426619529724e+00 1.2203788340091705e+01 0.0000000000000000e+00
-8.4733366966247559e-03 5.5348814725875854e+00 -5.8070541620254517e+00
-2.9168844223022461e-02 1.9049128890037537e+01 0.0000000000000000e+00
ITEM: ATOMS id type xs ys zs fx fy fz
1 1 0.61296 4.41887e-05 0.132366 0 -0.0671177 0.170105
2 1 0.362961 0.166624 0.132366 0 0.067091 0.170118
3 1 0.318243 2.39879e-05 0.275225 0 -0.00012207 -0.00499153
4 1 0.068243 0.166644 0.275225 0 0.000114441 -0.00498962
5 1 0.023472 1.9421e-05 0.418082 0 0.000162125 -0.000558853
6 1 0.112961 4.41295e-05 0.132366 0 -0.0671139 0.170126
7 1 0.0102927 0.500074 0.0609403 0 0.493425 0.502926
8 1 0.862962 0.166623 0.132366 0 0.0671024 0.170128
9 1 0.760294 0.666593 0.0609403 0 -0.493382 0.502913
10 1 0.818244 2.39872e-05 0.275225 0 -0.000116348 -0.00498581
11 1 0.773471 0.166647 0.418082 0 -0.000162125 -0.000566483
12 1 0.72869 2.47556e-05 0.560942 0 4.3869e-05 0.000328064
13 1 0.478691 0.166643 0.560942 0 -5.34058e-05 0.000326157
14 1 0.433918 2.39811e-05 0.703801 0 -0.000162125 0.00115395
15 1 0.183918 0.166644 0.703801 0 0.000137329 0.00114822
16 1 0.139155 2.63435e-05 0.846651 0 -0.00179672 0.00781631
17 1 0.715621 0.500026 0.203802 0 -0.00177956 -0.00780869
18 1 0.568243 0.166645 0.275225 0 9.91821e-05 -0.00498199
19 1 0.465622 0.66664 0.203802 0 0.00180244 -0.00779915
20 1 0.523472 2.01694e-05 0.418082 0 0.000144958 -0.00056076
21 1 0.420858 0.500023 0.346651 0 -0.000139236 -0.00114059
22 1 0.273472 0.166648 0.418082 0 -0.000165939 -0.00056076
23 1 0.170858 0.666642 0.346651 0 0.000171661 -0.00115776
24 1 0.228691 2.49573e-05 0.560941 0 4.00543e-05 0.000337601
25 1 0.126084 0.500025 0.489511 0 4.76837e-05 -0.000341415
26 1 0.978692 0.166643 0.560941 0 -5.34058e-05 0.000341415
27 1 0.876085 0.666642 0.489511 0 -4.19617e-05 -0.000318527
28 1 0.510292 0.500073 0.0609404 0 0.493404 0.502886
29 1 0.260293 0.666593 0.0609403 0 -0.493364 0.502867
30 1 0.215622 0.500026 0.203802 0 -0.00177765 -0.00780678
31 1 0.965622 0.666641 0.203802 0 0.00177383 -0.00779533
32 1 0.920859 0.500024 0.346651 0 -0.000165939 -0.00115585
33 1 0.889154 0.166641 0.846652 0 0.00178528 0.00777435
34 1 0.844483 7.47473e-05 0.989512 0 0.493374 -0.502882
35 1 0.594483 0.166594 0.989513 0 -0.493395 -0.502888
36 1 0.933917 2.44315e-05 0.703801 0 -0.000169754 0.00115204
37 1 0.831302 0.50002 0.632371 0 0.000160217 0.000545502
38 1 0.683918 0.166643 0.703801 0 0.000139236 0.00115585
39 1 0.581304 0.666647 0.632371 0 -0.000154495 0.00056076
40 1 0.639154 2.63314e-05 0.846651 0 -0.00178528 0.00779724
41 1 0.536532 0.500023 0.775228 0 -0.000127792 0.00499344
42 1 0.389154 0.166641 0.846651 0 0.00178909 0.00779533
43 1 0.286532 0.666644 0.775228 0 0.000110626 0.00497627
44 1 0.344483 7.37033e-05 0.989512 0 0.493374 -0.502871
45 1 0.241815 0.500043 0.918087 0 -0.0670929 -0.170088
46 1 0.670858 0.666643 0.346651 0 0.000171661 -0.00115013
47 1 0.626084 0.500025 0.489511 0 5.14984e-05 -0.000337601
48 1 0.376084 0.666642 0.489511 0 -3.8147e-05 -0.000337601
49 1 0.331303 0.500019 0.632371 0 0.000173569 0.00056839
50 1 0.0813042 0.666647 0.63237 0 -0.000141144 0.000583649
51 1 0.0365333 0.500022 0.775228 0 -0.000106812 0.00498581
52 1 0.0944813 0.166594 0.989513 0 -0.493414 -0.50293
53 1 0.991814 0.666624 0.918087 0 0.0671024 -0.170153
54 1 0.786532 0.666643 0.775228 0 0.000135422 0.00499535
55 1 0.741815 0.500044 0.918087 0 -0.0670929 -0.170132
56 1 0.491815 0.666624 0.918087 0 0.0671043 -0.170116
ITEM: TIMESTEP
1
ITEM: NUMBER OF ATOMS
56
ITEM: BOX BOUNDS xy xz yz pp pp pp
-5.8257426619529724e+00 1.2203788340091705e+01 0.0000000000000000e+00
-8.4733366966247559e-03 5.5348814725875854e+00 -5.8070541620254517e+00
-2.9168844223022461e-02 1.9049128890037537e+01 0.0000000000000000e+00
ITEM: ATOMS id type xs ys zs fx fy fz
1 1 0.613767 -0.00226266 0.134065 0 0.0995159 0.0296688
2 1 0.363768 0.168929 0.134065 0 -0.099514 0.0296803
3 1 0.31822 1.97923e-05 0.275175 0 -0.00434113 0.0254326
4 1 0.0682193 0.166648 0.275175 0 0.00432968 0.0254326
5 1 0.0234694 2.49933e-05 0.418076 0 -0.000368118 -0.00311089
6 1 0.113768 -0.00226258 0.134065 0 0.0995235 0.0296745
7 1 0.012679 0.517033 0.0659627 0 0.0371494 -0.0362377
8 1 0.863769 0.16893 0.134065 0 -0.0995178 0.029686
9 1 0.76268 0.649635 0.0659626 0 -0.0371552 -0.0362148
10 1 0.818221 1.99882e-05 0.275175 0 -0.00434685 0.0254364
11 1 0.773468 0.166642 0.418077 0 0.000375748 -0.00311279
12 1 0.728692 2.62634e-05 0.560945 0 0.00022316 0.00146103
13 1 0.478693 0.166641 0.560945 0 -0.00022316 0.00146103
14 1 0.433923 1.84089e-05 0.703813 0 -0.00115585 -0.00254059
15 1 0.183923 0.166649 0.703813 0 0.0011425 -0.00255203
16 1 0.139192 -3.54101e-05 0.846729 0 -0.0236263 -0.121183
17 1 0.715584 0.499965 0.203724 0 -0.0236282 0.121193
18 1 0.568219 0.166648 0.275175 0 0.00432968 0.025425
19 1 0.465585 0.666702 0.203724 0 0.0236359 0.121199
20 1 0.52347 2.51517e-05 0.418077 0 -0.000377655 -0.00311279
21 1 0.420852 0.500018 0.34664 0 -0.00114441 0.00254822
22 1 0.273469 0.166642 0.418076 0 0.000364304 -0.00311089
23 1 0.170852 0.666648 0.34664 0 0.00115395 0.00254631
24 1 0.228692 2.63339e-05 0.560945 0 0.000226974 0.00146484
25 1 0.126083 0.500026 0.489508 0 0.000217438 -0.00146484
26 1 0.978693 0.166641 0.560945 0 -0.000221252 0.0014782
27 1 0.876084 0.66664 0.489508 0 -0.00021553 -0.00146484
28 1 0.512679 0.517031 0.0659625 0 0.037159 -0.036232
29 1 0.262679 0.649636 0.0659622 0 -0.0371685 -0.0362034
30 1 0.215585 0.499965 0.203724 0 -0.0236282 0.121202
31 1 0.965585 0.666702 0.203724 0 0.023634 0.121208
32 1 0.920853 0.500019 0.34664 0 -0.00115013 0.00255013
33 1 0.889191 0.166702 0.846729 0 0.023634 -0.121216
34 1 0.842097 0.0170321 0.98449 0 0.0371647 0.0362148
35 1 0.592097 0.149636 0.98449 0 -0.0371647 0.0362167
36 1 0.933922 1.8597e-05 0.703813 0 -0.00116158 -0.0025425
37 1 0.831305 0.500025 0.632377 0 -0.000377655 0.00310516
38 1 0.683923 0.166648 0.703813 0 0.00115967 -0.00254631
39 1 0.581306 0.666642 0.632377 0 0.000370026 0.00311089
40 1 0.639191 -3.50289e-05 0.846729 0 -0.0236244 -0.121197
41 1 0.536556 0.500019 0.775278 0 -0.00434113 -0.025423
42 1 0.389191 0.166702 0.846729 0 0.0236225 -0.121197
43 1 0.286556 0.666647 0.775278 0 0.00434303 -0.0254192
44 1 0.342097 0.017031 0.98449 0 0.0371819 0.0362206
45 1 0.241008 0.497737 0.916388 0 0.0995083 -0.0296764
46 1 0.670852 0.666649 0.34664 0 0.00115967 0.0025425
47 1 0.626083 0.500026 0.489508 0 0.000219345 -0.00146484
48 1 0.376083 0.666641 0.489508 0 -0.00021553 -0.00147057
49 1 0.331306 0.500025 0.632376 0 -0.000370026 0.00310898
50 1 0.081307 0.666642 0.632376 0 0.000377655 0.0031147
51 1 0.0365569 0.500019 0.775278 0 -0.00432968 -0.0254383
52 1 0.092095 0.149635 0.98449 0 -0.0371513 0.0362206
53 1 0.991007 0.66893 0.916388 0 -0.0995293 -0.0296841
54 1 0.786556 0.666648 0.775278 0 0.00432777 -0.0254345
55 1 0.741008 0.497738 0.916388 0 0.0995159 -0.0296745
56 1 0.491008 0.66893 0.916388 0 -0.0995178 -0.0296783
ITEM: TIMESTEP
2
ITEM: NUMBER OF ATOMS
56
ITEM: BOX BOUNDS xy xz yz pp pp pp
-5.8257426619529724e+00 1.2203788340091705e+01 0.0000000000000000e+00
-8.4733366966247559e-03 5.5348814725875854e+00 -5.8070541620254517e+00
-2.9168844223022461e-02 1.9049128890037537e+01 0.0000000000000000e+00
ITEM: ATOMS id type xs ys zs fx fy fz
1 1 0.614228 0.00572058 0.135035 0 -0.000507355 0.0193462
2 1 0.364229 0.160946 0.135035 0 0.000511169 0.0193462
3 1 0.31851 -0.000343833 0.275786 0 -0.00481796 0.0383053
4 1 0.0685094 0.167011 0.275786 0 0.00482368 0.0383015
5 1 0.0234331 -4.9718e-06 0.418 0 -0.00242805 0.0114403
6 1 0.114229 0.00572131 0.135035 0 -0.000513077 0.0193424
7 1 0.0126107 0.522627 0.0658191 0 0.0108681 0.0136108
8 1 0.86423 0.160946 0.135035 0 0.000514984 0.0193367
9 1 0.762612 0.644041 0.0658195 0 -0.0108662 0.0135765
10 1 0.818511 -0.000344087 0.275786 0 -0.00481224 0.0382977
11 1 0.773432 0.166672 0.418 0 0.00243568 0.0114365
12 1 0.728709 4.51455e-05 0.560981 0 -0.00107002 -0.00380516
13 1 0.47871 0.166622 0.560981 0 0.00106621 -0.00381088
14 1 0.433895 -7.90624e-05 0.703753 0 -0.00736427 -0.0493813
15 1 0.183895 0.166745 0.703753 0 0.00737381 -0.0493622
16 1 0.137799 -0.00202013 0.843796 0 0.033556 0.0209599
17 1 0.716977 0.49798 0.206657 0 0.0335484 -0.0209694
18 1 0.56851 0.167011 0.275786 0 0.00482178 0.0383091
19 1 0.466978 0.668687 0.206657 0 -0.0335655 -0.0209942
20 1 0.523433 -5.69742e-06 0.418 0 -0.0024147 0.0114326
21 1 0.420881 0.499922 0.3467 0 -0.00737762 0.0493717
22 1 0.273433 0.166672 0.418 0 0.0024395 0.0114346
23 1 0.170881 0.666746 0.3467 0 0.00736237 0.0493736
24 1 0.228709 4.55158e-05 0.560981 0 -0.00106621 -0.00381851
25 1 0.126065 0.500045 0.489472 0 -0.00105286 0.00382042
26 1 0.978711 0.166622 0.560981 0 0.00106812 -0.00382233
27 1 0.876067 0.666622 0.489472 0 0.00106621 0.00382614
28 1 0.51261 0.522627 0.0658189 0 0.0108738 0.013607
29 1 0.262611 0.64404 0.0658193 0 -0.0108509 0.0135918
30 1 0.216978 0.49798 0.206657 0 0.033556 -0.0209732
31 1 0.966978 0.668687 0.206657 0 -0.0335636 -0.0209923
32 1 0.920882 0.499922 0.3467 0 -0.00737381 0.0493717
33 1 0.887797 0.168687 0.843795 0 -0.0335655 0.0209923
34 1 0.842165 0.0226274 0.984634 0 0.0108662 -0.013586
35 1 0.592165 0.14404 0.984634 0 -0.0108643 -0.0135975
36 1 0.933893 -7.93912e-05 0.703753 0 -0.00735664 -0.0493717
37 1 0.831341 0.499994 0.632453 0 -0.00243187 -0.0114403
38 1 0.683895 0.166746 0.703753 0 0.00736046 -0.0493851
39 1 0.581343 0.666672 0.632453 0 0.00242996 -0.0114384
40 1 0.637798 -0.00201953 0.843796 0 0.0335464 0.0209789
41 1 0.536266 0.499655 0.774667 0 -0.00481224 -0.0383091
42 1 0.387797 0.168687 0.843796 0 -0.0335541 0.0209846
43 1 0.286266 0.667011 0.774667 0 0.0048027 -0.0383072
44 1 0.342165 0.0226278 0.984634 0 0.0108509 -0.0135841
45 1 0.240547 0.50572 0.915418 0 -0.000505447 -0.019352
46 1 0.670881 0.666746 0.3467 0 0.00735855 0.0493755
47 1 0.626066 0.500045 0.489472 0 -0.00106049 0.00380898
48 1 0.376066 0.666622 0.489472 0 0.00106239 0.00382233
49 1 0.331342 0.499995 0.632453 0 -0.00242996 -0.0114288
50 1 0.0813433 0.666673 0.632453 0 0.00241661 -0.0114403
51 1 0.0362668 0.499656 0.774667 0 -0.00481796 -0.0382996
52 1 0.0921631 0.144041 0.984633 0 -0.01087 -0.0135994
53 1 0.990546 0.660946 0.915417 0 0.000518799 -0.019352
54 1 0.786266 0.667011 0.774667 0 0.00481987 -0.0383034
55 1 0.740547 0.505721 0.915418 0 -0.000516891 -0.0193367
56 1 0.490547 0.660946 0.915418 0 0.000511169 -0.0193405
ITEM: TIMESTEP
3
ITEM: NUMBER OF ATOMS
56
ITEM: BOX BOUNDS xy xz yz pp pp pp
-5.8257426619529724e+00 1.2203788340091705e+01 0.0000000000000000e+00
-8.4733366966247559e-03 5.5348814725875854e+00 -5.8070541620254517e+00
-2.9168844223022461e-02 1.9049128890037537e+01 0.0000000000000000e+00
ITEM: ATOMS id type xs ys zs fx fy fz
1 1 0.614678 0.00851227 0.135982 0 -0.00701904 0.00317955
2 1 0.364679 0.158155 0.135983 0 0.00702667 0.00317574
3 1 0.319179 -0.000989165 0.277195 0 0.0073204 0.00617027
4 1 0.0691788 0.167656 0.277195 0 -0.00732231 0.00617027
5 1 0.0235892 -0.000275546 0.418329 0 -0.00349808 0.0272884
6 1 0.114679 0.00851262 0.135983 0 -0.00701714 0.00316811
7 1 0.0127875 0.525785 0.0661911 0 -0.0179119 -0.0275269
8 1 0.86468 0.158155 0.135983 0 0.00701523 0.00318146
9 1 0.762789 0.640883 0.0661907 0 0.0179081 -0.0274792
10 1 0.81918 -0.000988967 0.277195 0 0.00730896 0.00616837
11 1 0.773588 0.166944 0.418328 0 0.003479 0.0272903
12 1 0.728659 -6.26552e-05 0.560875 0 -0.00613022 -0.0189209
13 1 0.478659 0.166729 0.560875 0 0.00612831 -0.0189056
14 1 0.433155 -0.000902061 0.702196 0 0.00151443 -0.000146866
15 1 0.183155 0.167569 0.702196 0 -0.00152588 -0.000167847
16 1 0.137612 0.000864058 0.843403 0 0.00642395 -0.00763893
17 1 0.717164 0.500863 0.20705 0 0.00643349 0.00764656
18 1 0.569179 0.167656 0.277195 0 -0.0073204 0.00617409
19 1 0.467165 0.665802 0.20705 0 -0.00641823 0.0076828
20 1 0.523589 -0.000275158 0.418328 0 -0.00350189 0.0272884
21 1 0.421621 0.499098 0.348257 0 0.00151825 0.000148773
22 1 0.273589 0.166944 0.418328 0 0.00348854 0.0272865
23 1 0.171621 0.667568 0.348257 0 -0.00150108 0.000164032
24 1 0.228659 -6.17697e-05 0.560875 0 -0.00612831 -0.0188923
25 1 0.126116 0.499939 0.489578 0 -0.00613594 0.0188866
26 1 0.97866 0.16673 0.560875 0 0.00611496 -0.0188961
27 1 0.876117 0.66673 0.489578 0 0.00613594 0.0188847
28 1 0.512787 0.525785 0.0661908 0 -0.0179214 -0.0275211
29 1 0.262787 0.640884 0.066191 0 0.0178986 -0.0275154
30 1 0.217165 0.500865 0.20705 0 0.00641632 0.00764847
31 1 0.967165 0.665802 0.20705 0 -0.00642204 0.00766563
32 1 0.921622 0.499098 0.348257 0 0.00152397 0.000156403
33 1 0.88761 0.165802 0.843402 0 -0.00641441 -0.00766754
34 1 0.841989 0.0257852 0.984262 0 -0.0179214 0.0274944
35 1 0.591988 0.140883 0.984262 0 0.0179195 0.0275192
36 1 0.933154 -0.000901757 0.702196 0 0.00150871 -0.000160217
37 1 0.831185 0.499723 0.632124 0 -0.00348091 -0.027277
38 1 0.683155 0.167568 0.702195 0 -0.00151253 -0.000141144
39 1 0.581186 0.666943 0.632124 0 0.00349426 -0.0272846
40 1 0.637611 0.000863713 0.843403 0 0.00643158 -0.00766563
41 1 0.535596 0.49901 0.773258 0 0.0073204 -0.00617218
42 1 0.38761 0.165803 0.843403 0 -0.00642776 -0.00765228
43 1 0.285596 0.667655 0.773258 0 -0.00730515 -0.00617599
44 1 0.341989 0.0257845 0.984262 0 -0.0179138 0.0274925
45 1 0.240097 0.508512 0.91447 0 -0.00701523 -0.00314522
46 1 0.67162 0.667569 0.348257 0 -0.00150299 0.000150681
47 1 0.626116 0.499938 0.489577 0 -0.00612068 0.0189075
48 1 0.376116 0.66673 0.489578 0 0.00613403 0.0188923
49 1 0.331186 0.499724 0.632124 0 -0.00349808 -0.0272999
50 1 0.0811872 0.666943 0.632124 0 0.0035038 -0.0272655
51 1 0.0355974 0.499011 0.773258 0 0.00730896 -0.00617409
52 1 0.0919864 0.140883 0.984261 0 0.0179081 0.0275078
53 1 0.990096 0.658155 0.91447 0 0.00701523 -0.00315285
54 1 0.785596 0.667656 0.773258 0 -0.00732231 -0.00617599
55 1 0.740097 0.508512 0.91447 0 -0.00700951 -0.00318718
56 1 0.490096 0.658155 0.91447 0 0.00701904 -0.00318146
ITEM: TIMESTEP
4
ITEM: NUMBER OF ATOMS
56
ITEM: BOX BOUNDS xy xz yz pp pp pp
-5.8257426619529724e+00 1.2203788340091705e+01 0.0000000000000000e+00
-8.4733366966247559e-03 5.5348814725875854e+00 -5.8070541620254517e+00
-2.9168844223022461e-02 1.9049128890037537e+01 0.0000000000000000e+00
ITEM: ATOMS id type xs ys zs fx fy fz
1 1 0.614824 0.008698 0.136289 0 -0.0114498 0.00472069
2 1 0.364825 0.15797 0.136289 0 0.011446 0.0047245
3 1 0.31941 -0.000612871 0.277681 0 0.0072155 0.003479
4 1 0.0694098 0.16728 0.277681 0 -0.00722122 0.00349236
5 1 0.0239056 -0.000600978 0.418995 0 -0.00397682 0.00423241
6 1 0.114825 0.0086984 0.136289 0 -0.0114555 0.00472832
7 1 0.0125524 0.525261 0.0656963 0 0.0026226 0.005476
8 1 0.864826 0.157969 0.136289 0 0.0114479 0.00471306
9 1 0.762554 0.641407 0.0656966 0 -0.0026226 0.00547028
10 1 0.819411 -0.000613401 0.277681 0 0.00722504 0.00349617
11 1 0.773905 0.167268 0.418994 0 0.00400543 0.00423813
12 1 0.728454 -0.000540809 0.560444 0 -0.0035553 0.00279999
13 1 0.478455 0.167207 0.560445 0 0.00357056 0.00278854
14 1 0.432967 -0.000997637 0.701801 0 0.00259399 -0.000585556
15 1 0.182967 0.167664 0.701801 0 -0.00258064 -0.000574112
16 1 0.137487 0.00206215 0.84314 0 -0.00427818 0.0039196
17 1 0.717289 0.502062 0.207313 0 -0.00428581 -0.00392342
18 1 0.56941 0.16728 0.277681 0 -0.0072155 0.00348282
19 1 0.46729 0.664605 0.207313 0 0.004282 -0.00392914
20 1 0.523906 -0.00060059 0.418994 0 -0.00399017 0.00423813
21 1 0.421808 0.499002 0.348652 0 0.00259972 0.000598907
22 1 0.273905 0.167269 0.418994 0 0.00398445 0.00424194
23 1 0.171809 0.667665 0.348652 0 -0.00259209 0.000576019
24 1 0.228455 -0.000539654 0.560445 0 -0.00356293 0.00278091
25 1 0.12632 0.499461 0.490008 0 -0.00356483 -0.00278091
26 1 0.978456 0.167207 0.560445 0 0.00357246 0.00279236
27 1 0.876322 0.667208 0.490008 0 0.0035553 -0.00279808
28 1 0.512552 0.525261 0.0656961 0 0.00262833 0.00547409
29 1 0.262552 0.641407 0.0656963 0 -0.0026226 0.00548172
30 1 0.21729 0.502062 0.207313 0 -0.00427246 -0.00392914
31 1 0.96729 0.664604 0.207313 0 0.00428009 -0.00392532
32 1 0.921809 0.499003 0.348652 0 0.00258064 0.000583649
33 1 0.887485 0.164605 0.84314 0 0.00427818 0.00392342
34 1 0.842224 0.0252609 0.984756 0 0.00262642 -0.00546455
35 1 0.592223 0.141407 0.984757 0 -0.00262833 -0.00547791
36 1 0.932966 -0.000997595 0.701801 0 0.00258827 -0.000583649
37 1 0.830868 0.499399 0.631458 0 -0.0039978 -0.00424004
38 1 0.682967 0.167664 0.701801 0 -0.00259018 -0.000589371
39 1 0.58087 0.667268 0.631458 0 0.00397873 -0.00423431
40 1 0.637486 0.00206213 0.84314 0 -0.00427818 0.00393486
41 1 0.535365 0.499387 0.772772 0 0.00721169 -0.00349426
42 1 0.387486 0.164604 0.84314 0 0.004282 0.00391769
43 1 0.285365 0.667279 0.772772 0 -0.00722313 -0.00348663
44 1 0.342224 0.0252604 0.984757 0 0.00263405 -0.00546455
45 1 0.239952 0.508698 0.914164 0 -0.0114517 -0.00473595
46 1 0.671808 0.667665 0.348652 0 -0.00260735 0.000591278
47 1 0.62632 0.499461 0.490008 0 -0.00357056 -0.00279617
48 1 0.376321 0.667208 0.490008 0 0.00355721 -0.00279427
49 1 0.33087 0.499399 0.631458 0 -0.00398445 -0.00423241
50 1 0.080871 0.667268 0.631459 0 0.00398445 -0.00424957
51 1 0.0353663 0.499387 0.772772 0 0.00721741 -0.00348282
52 1 0.0922214 0.141406 0.984756 0 -0.00262833 -0.00547218
53 1 0.98995 0.657969 0.914164 0 0.0114498 -0.0047226
54 1 0.785365 0.667279 0.772772 0 -0.0072155 -0.00348473
55 1 0.739951 0.508698 0.914164 0 -0.0114498 -0.00472641
56 1 0.489951 0.657969 0.914164 0 0.0114536 -0.00471878
ITEM: TIMESTEP
5
ITEM: NUMBER OF ATOMS
56
ITEM: BOX BOUNDS xy xz yz pp pp pp
-5.8257426619529724e+00 1.2203788340091705e+01 0.0000000000000000e+00
-8.4733366966247559e-03 5.5348814725875854e+00 -5.8070541620254517e+00
-2.9168844223022461e-02 1.9049128890037537e+01 0.0000000000000000e+00
ITEM: ATOMS id type xs ys zs fx fy fz
1 1 0.61489 0.00789001 0.136429 0 0.000133514 -0.000881195
2 1 0.364891 0.158778 0.136429 0 -0.000141144 -0.000888824
3 1 0.319476 -3.83721e-05 0.277819 0 -0.000291824 0.00257683
4 1 0.0694754 0.166705 0.277819 0 0.000295639 0.00257492
5 1 0.02399 -0.00093324 0.419172 0 -0.00053978 -0.000589371
6 1 0.114891 0.00788999 0.136429 0 0.000141144 -0.000896454
7 1 0.0125762 0.525383 0.0657464 0 -0.00259399 -0.00342369
8 1 0.864892 0.158777 0.136429 0 -0.000141144 -0.000883102
9 1 0.762578 0.641285 0.0657468 0 0.00259399 -0.00343323
10 1 0.819477 -3.83048e-05 0.277819 0 -0.000305176 0.00256729
11 1 0.773989 0.167602 0.419172 0 0.000524521 -0.000597
12 1 0.728455 -0.000862638 0.560446 0 -0.00191689 0.00332069
13 1 0.478456 0.16753 0.560446 0 0.00191307 0.00333214
14 1 0.432936 -0.000821665 0.701736 0 0.00103378 0.0016861
15 1 0.182937 0.167489 0.701736 0 -0.00104523 0.00168419
16 1 0.13751 0.00190967 0.843188 0 -0.003088 -0.00232887
17 1 0.717266 0.501909 0.207265 0 -0.00307274 0.00233841
18 1 0.569476 0.166705 0.277819 0 0.000284195 0.00257301
19 1 0.467267 0.664757 0.207265 0 0.00309563 0.00234032
20 1 0.52399 -0.000933823 0.419172 0 -0.000535965 -0.000591278
21 1 0.421839 0.499179 0.348717 0 0.00103188 -0.00169373
22 1 0.27399 0.167601 0.419172 0 0.000541687 -0.000602722
23 1 0.171839 0.667489 0.348717 0 -0.00104332 -0.00168991
24 1 0.228455 -0.000862002 0.560446 0 -0.00192642 0.00333595
25 1 0.126319 0.499138 0.490006 0 -0.0019207 -0.00333786
26 1 0.978457 0.16753 0.560447 0 0.00192261 0.00332451
27 1 0.876321 0.66753 0.490006 0 0.00191689 -0.00331306
28 1 0.512576 0.525383 0.0657462 0 -0.00259018 -0.0034256
29 1 0.262576 0.641285 0.0657466 0 0.00259399 -0.00342941
30 1 0.217267 0.50191 0.207265 0 -0.00309563 0.00234032
31 1 0.967267 0.664757 0.207265 0 0.00309372 0.00234413
32 1 0.92184 0.499178 0.348717 0 0.00104713 -0.00169373
33 1 0.887508 0.164757 0.843188 0 0.0030899 -0.00233841
34 1 0.8422 0.0253824 0.984706 0 -0.00259399 0.00341797
35 1 0.5922 0.141285 0.984706 0 0.0025959 0.00341988
36 1 0.932935 -0.000822074 0.701736 0 0.00102997 0.001688
37 1 0.830784 0.499065 0.631281 0 -0.00053215 0.000585556
38 1 0.682937 0.167488 0.701736 0 -0.00104523 0.00169754
39 1 0.580786 0.667601 0.631281 0 0.000545502 0.000589371
40 1 0.637509 0.00190969 0.843188 0 -0.003088 -0.00234032
41 1 0.5353 0.499961 0.772634 0 -0.00028801 -0.00256157
42 1 0.387509 0.164757 0.843188 0 0.0030899 -0.00234032
43 1 0.2853 0.666704 0.772634 0 0.000299454 -0.00257111
44 1 0.3422 0.0253826 0.984707 0 -0.00259399 0.00342941
45 1 0.239885 0.50789 0.914024 0 0.000141144 0.000894547
46 1 0.671839 0.667488 0.348717 0 -0.00102615 -0.00169182
47 1 0.626319 0.499138 0.490006 0 -0.0019207 -0.00332069
48 1 0.37632 0.66753 0.490006 0 0.00192261 -0.0033226
49 1 0.330785 0.499066 0.631281 0 -0.00053215 0.000589371
50 1 0.0807865 0.667601 0.631281 0 0.000541687 0.000591278
51 1 0.0353008 0.499961 0.772634 0 -0.00028801 -0.00257492
52 1 0.0921975 0.141284 0.984706 0 0.00260353 0.00342751
53 1 0.989884 0.658777 0.914024 0 -0.000150681 0.000879288
54 1 0.7853 0.666705 0.772634 0 0.00028801 -0.00257111
55 1 0.739884 0.50789 0.914024 0 0.000139236 0.000896454
56 1 0.489884 0.658778 0.914024 0 -0.000143051 0.000886917
ITEM: TIMESTEP
6
ITEM: NUMBER OF ATOMS
56
ITEM: BOX BOUNDS xy xz yz pp pp pp
-5.8257426619529724e+00 1.2203788340091705e+01 0.0000000000000000e+00
-8.4733366966247559e-03 5.5348814725875854e+00 -5.8070541620254517e+00
-2.9168844223022461e-02 1.9049128890037537e+01 0.0000000000000000e+00
ITEM: ATOMS id type xs ys zs fx fy fz
1 1 0.614893 0.00777115 0.136435 0 -9.91821e-05 0.000513077
2 1 0.364894 0.158896 0.136435 0 0.000108719 0.000516891
3 1 0.319509 3.36838e-05 0.277888 0 -0.0015316 -1.90735e-05
4 1 0.0695083 0.166633 0.277888 0 0.00152206 -2.28882e-05
5 1 0.0239981 -0.00101973 0.419189 0 0.000366211 0.000417709
6 1 0.114894 0.00777155 0.136435 0 -0.000106812 0.000528336
7 1 0.0125501 0.525238 0.0656914 0 6.86646e-05 0.00118256
8 1 0.864895 0.158896 0.136435 0 0.000106812 0.000518799
9 1 0.762551 0.64143 0.0656916 0 -7.05719e-05 0.00119591
10 1 0.81951 3.30007e-05 0.277888 0 -0.00152397 -1.71661e-05
11 1 0.773997 0.167688 0.419189 0 -0.000375748 0.000411987
12 1 0.728484 -0.00103458 0.560508 0 -0.000682831 0.000629425
13 1 0.478485 0.167702 0.560508 0 0.000669479 0.00062561
14 1 0.432946 -0.000728556 0.701757 0 -0.000356674 0.000886917
15 1 0.182947 0.167395 0.701757 0 0.000356674 0.000886917
16 1 0.137493 0.00169034 0.843153 0 -0.000392914 0.000442505
17 1 0.717283 0.501691 0.2073 0 -0.000398636 -0.00044632
18 1 0.569508 0.166633 0.277888 0 0.00152969 -1.14441e-05
19 1 0.467284 0.664977 0.2073 0 0.000389099 -0.00043869
20 1 0.523998 -0.00102022 0.419189 0 0.00037384 0.000417709
21 1 0.421829 0.499272 0.348696 0 -0.000356674 -0.000890732
22 1 0.273998 0.167688 0.419189 0 -0.000370026 0.000421524
23 1 0.171829 0.667396 0.348696 0 0.000356674 -0.000883102
24 1 0.228485 -0.00103463 0.560508 0 -0.000673294 0.000627518
25 1 0.12629 0.498966 0.489945 0 -0.000675201 -0.00063324
26 1 0.978486 0.167702 0.560508 0 0.000671387 0.000631332
27 1 0.876292 0.667702 0.489945 0 0.000680923 -0.000627518
28 1 0.51255 0.525238 0.0656912 0 6.86646e-05 0.00118828
29 1 0.26255 0.64143 0.0656915 0 -7.05719e-05 0.00119019
30 1 0.217284 0.50169 0.2073 0 -0.000387192 -0.000444412
31 1 0.967284 0.664977 0.2073 0 0.000392914 -0.00044632
32 1 0.92183 0.499272 0.348696 0 -0.00034523 -0.000881195
33 1 0.887491 0.164977 0.843152 0 0.000387192 0.000444412
34 1 0.842226 0.0252375 0.984761 0 7.43866e-05 -0.00119209
35 1 0.592226 0.14143 0.984761 0 -7.24792e-05 -0.00117493
36 1 0.932945 -0.000729277 0.701757 0 -0.000347137 0.000879288
37 1 0.830776 0.498979 0.631263 0 0.000375748 -0.00041008
38 1 0.682947 0.167395 0.701757 0 0.000356674 0.000883102
39 1 0.580778 0.667688 0.631264 0 -0.000375748 -0.000417709
40 1 0.637492 0.00169036 0.843153 0 -0.000398636 0.00043869
41 1 0.535267 0.500033 0.772565 0 -0.00152588 1.90735e-05
42 1 0.387492 0.164976 0.843153 0 0.000400543 0.000442505
43 1 0.285267 0.666633 0.772565 0 0.00152397 2.28882e-05
44 1 0.342226 0.0252378 0.984762 0 7.05719e-05 -0.00119019
45 1 0.239882 0.507771 0.914018 0 -9.91821e-05 -0.000524521
46 1 0.671829 0.667396 0.348696 0 0.000358582 -0.00088501
47 1 0.62629 0.498966 0.489945 0 -0.000663757 -0.000631332
48 1 0.37629 0.667702 0.489945 0 0.000675201 -0.000631332
49 1 0.330777 0.49898 0.631264 0 0.000375748 -0.000413895
50 1 0.0807784 0.667688 0.631264 0 -0.00038147 -0.000411987
51 1 0.035268 0.500034 0.772565 0 -0.00153923 1.33514e-05
52 1 0.0922237 0.14143 0.984761 0 -7.43866e-05 -0.00118065
53 1 0.989881 0.658895 0.914018 0 0.000112534 -0.000513077
54 1 0.785267 0.666633 0.772565 0 0.00152588 1.14441e-05
55 1 0.739882 0.507771 0.914018 0 -0.000108719 -0.000522614
56 1 0.489882 0.658896 0.914018 0 0.000104904 -0.000526428
ITEM: TIMESTEP
7
ITEM: NUMBER OF ATOMS
56
ITEM: BOX BOUNDS xy xz yz pp pp pp
-5.8257426619529724e+00 1.2203788340091705e+01 0.0000000000000000e+00
-8.4733366966247559e-03 5.5348814725875854e+00 -5.8070541620254517e+00
-2.9168844223022461e-02 1.9049128890037537e+01 0.0000000000000000e+00
ITEM: ATOMS id type xs ys zs fx fy fz
1 1 0.6149 0.00774552 0.136448 0 0.000164032 -0.000289917
2 1 0.364901 0.158922 0.136449 0 -0.000165939 -0.000286102
3 1 0.319513 -8.55999e-05 0.277898 0 -0.000242233 -0.000162125
4 1 0.0695128 0.166752 0.277898 0 0.000263214 -0.000171661
5 1 0.0240042 -0.00100125 0.419202 0 -0.000165939 5.91278e-05
6 1 0.1149 0.00774533 0.136449 0 0.000171661 -0.000289917
7 1 0.0125601 0.525223 0.0657126 0 -0.000160217 -0.000364304
8 1 0.864901 0.158922 0.136449 0 -0.000169754 -0.000289917
9 1 0.762562 0.641445 0.065713 0 0.000169754 -0.00037384
10 1 0.819514 -8.57456e-05 0.277898 0 -0.000238419 -0.000164032
11 1 0.774003 0.167669 0.419202 0 0.000185013 6.86646e-05
12 1 0.728496 -0.00111735 0.560532 0 0.000169754 8.01086e-05
13 1 0.478496 0.167784 0.560532 0 -0.000152588 8.01086e-05
14 1 0.432958 -0.000745267 0.701782 0 -0.000522614 5.34058e-05
15 1 0.182958 0.167412 0.701782 0 0.000518799 4.19617e-05
16 1 0.137496 0.00162525 0.843159 0 -0.000175476 0.00012207
17 1 0.71728 0.501625 0.207294 0 -0.000177383 -0.00012207
18 1 0.569513 0.166752 0.277898 0 0.000257492 -0.000175476
19 1 0.467281 0.665042 0.207294 0 0.000169754 -0.000125885
20 1 0.524004 -0.00100108 0.419202 0 -0.000175476 7.05719e-05
21 1 0.421817 0.499255 0.348671 0 -0.000528336 -4.76837e-05
22 1 0.274004 0.167669 0.419202 0 0.000169754 5.72205e-05
23 1 0.171817 0.667412 0.348671 0 0.000528336 -4.95911e-05
24 1 0.228496 -0.00111669 0.560532 0 0.000152588 8.01086e-05
25 1 0.126278 0.498884 0.48992 0 0.000152588 -6.10352e-05
26 1 0.978498 0.167784 0.560533 0 -0.000154495 6.86646e-05
27 1 0.87628 0.667785 0.489921 0 -0.000167847 -7.24792e-05
28 1 0.51256 0.525223 0.0657124 0 -0.000162125 -0.000370026
29 1 0.26256 0.641445 0.0657128 0 0.000169754 -0.000364304
30 1 0.217281 0.501625 0.207294 0 -0.00018692 -0.000118256
31 1 0.967281 0.665042 0.207294 0 0.000167847 -0.000125885
32 1 0.921818 0.499256 0.348671 0 -0.00053978 -5.53131e-05
33 1 0.887494 0.165041 0.843158 0 0.000181198 0.000118256
34 1 0.842216 0.0252228 0.98474 0 -0.000179291 0.000377655
35 1 0.592216 0.141445 0.98474 0 0.000165939 0.000350952
36 1 0.932957 -0.000745226 0.701782 0 -0.000534058 4.76837e-05
37 1 0.83077 0.498998 0.631251 0 -0.000179291 -6.29425e-05
38 1 0.682958 0.167411 0.701782 0 0.000530243 4.19617e-05
39 1 0.580771 0.667668 0.631251 0 0.000177383 -6.86646e-05
40 1 0.637495 0.0016248 0.843159 0 -0.000169754 0.000131607
41 1 0.535262 0.499915 0.772555 0 -0.000247955 0.000160217
42 1 0.387494 0.165042 0.843159 0 0.000162125 0.000127792
43 1 0.285262 0.666751 0.772555 0 0.000259399 0.000160217
44 1 0.342216 0.0252227 0.984741 0 -0.000162125 0.000360489
45 1 0.239876 0.507746 0.914005 0 0.00015831 0.000303268
46 1 0.671817 0.667412 0.348671 0 0.000526428 -5.53131e-05
47 1 0.626279 0.498885 0.48992 0 0.000141144 -8.2016e-05
48 1 0.376279 0.667784 0.48992 0 -0.000156403 -7.43866e-05
49 1 0.330771 0.498999 0.631251 0 -0.000185013 -6.48499e-05
50 1 0.0807724 0.667668 0.631251 0 0.000183105 -6.86646e-05
51 1 0.0352634 0.499914 0.772555 0 -0.000236511 0.000177383
52 1 0.0922137 0.141444 0.98474 0 0.000167847 0.000360489
53 1 0.989874 0.658921 0.914004 0 -0.000175476 0.000276566
54 1 0.785262 0.666751 0.772555 0 0.000246048 0.000171661
55 1 0.739875 0.507745 0.914004 0 0.000165939 0.000307083
56 1 0.489875 0.658922 0.914004 0 -0.000164032 0.000301361
ITEM: TIMESTEP
8
ITEM: NUMBER OF ATOMS
56
ITEM: BOX BOUNDS xy xz yz pp pp pp
-5.8257426619529724e+00 1.2203788340091705e+01 0.0000000000000000e+00
-8.4733366966247559e-03 5.5348814725875854e+00 -5.8070541620254517e+00
-2.9168844223022461e-02 1.9049128890037537e+01 0.0000000000000000e+00
ITEM: ATOMS id type xs ys zs fx fy fz
1 1 0.6149 0.00774552 0.136448 0 0.000164032 -0.000289917
2 1 0.364901 0.158922 0.136449 0 -0.000165939 -0.000286102
3 1 0.319513 -8.55999e-05 0.277898 0 -0.000242233 -0.000162125
4 1 0.0695128 0.166752 0.277898 0 0.000263214 -0.000171661
5 1 0.0240042 -0.00100125 0.419202 0 -0.000165939 5.91278e-05
6 1 0.1149 0.00774533 0.136449 0 0.000171661 -0.000289917
7 1 0.0125601 0.525223 0.0657126 0 -0.000160217 -0.000364304
8 1 0.864901 0.158922 0.136449 0 -0.000169754 -0.000289917
9 1 0.762562 0.641445 0.065713 0 0.000169754 -0.00037384
10 1 0.819514 -8.57456e-05 0.277898 0 -0.000238419 -0.000164032
11 1 0.774003 0.167669 0.419202 0 0.000185013 6.86646e-05
12 1 0.728496 -0.00111735 0.560532 0 0.000169754 8.01086e-05
13 1 0.478496 0.167784 0.560532 0 -0.000152588 8.01086e-05
14 1 0.432958 -0.000745267 0.701782 0 -0.000522614 5.34058e-05
15 1 0.182958 0.167412 0.701782 0 0.000518799 4.19617e-05
16 1 0.137496 0.00162525 0.843159 0 -0.000175476 0.00012207
17 1 0.71728 0.501625 0.207294 0 -0.000177383 -0.00012207
18 1 0.569513 0.166752 0.277898 0 0.000257492 -0.000175476
19 1 0.467281 0.665042 0.207294 0 0.000169754 -0.000125885
20 1 0.524004 -0.00100108 0.419202 0 -0.000175476 7.05719e-05
21 1 0.421817 0.499255 0.348671 0 -0.000528336 -4.76837e-05
22 1 0.274004 0.167669 0.419202 0 0.000169754 5.72205e-05