ITEM: TIMESTEP
0
ITEM: NUMBER OF ATOMS
56
ITEM: BOX BOUNDS xy xz yz pp pp pp
-1.4477894902229309e+00 1.2206987559795380e+01 -4.7683715820312500e-07
-7.5370073318481445e-03 5.5339480042457581e+00 -1.4259012937545776e+00
-3.2569408416748047e-02 1.9052529454231262e+01 2.8610229492187500e-06
ITEM: ATOMS id type xs ys zs fx fy fz
1 1 0.565004 1 0.132369 0 0.0197457 0.416586
2 1 0.315004 0.166667 0.132369 0 -0.0197461 0.416587
3 1 0.218556 1 0.275226 0 0.00153482 -0.00118613
4 1 0.968556 0.166667 0.275226 0 -0.00153518 -0.00118637
5 1 0.872109 5.00995e-07 0.418084 0 -0.000157356 0.000637889
6 1 0.0650045 1 0.132369 0 0.0197457 0.416587
7 1 0.988229 0.5 0.0609408 0 -0.0726312 0.440446
8 1 0.815004 0.166667 0.132369 0 -0.0197462 0.416588
9 1 0.738229 0.666667 0.0609408 0 0.072632 0.440446
10 1 0.718556 1 0.275226 0 0.00153518 -0.00118649
11 1 0.622109 0.166667 0.418084 0 0.000157833 0.000638247
12 1 0.525662 5.53965e-07 0.560941 0 -2.99215e-05 -0.000176311
13 1 0.275662 0.166667 0.560941 0 3.00407e-05 -0.00017643
14 1 0.179216 1.60387e-07 0.703798 0 -0.000226378 -0.000932932
15 1 0.929216 0.166667 0.703798 0 0.000226617 -0.000932813
16 1 0.832768 1 0.846655 0 0.00511742 0.00208342
17 1 0.64178 0.5 0.203798 0 0.00511742 -0.00208282
18 1 0.468556 0.166667 0.275226 0 -0.00153494 -0.00118601
19 1 0.39178 0.666667 0.203798 0 -0.00511694 -0.00208294
20 1 0.372109 5.02326e-07 0.418084 0 -0.000157475 0.00063777
21 1 0.295332 0.5 0.346655 0 -0.000226617 0.000932813
22 1 0.122109 0.166667 0.418084 0 0.000157833 0.000638008
23 1 0.0453325 0.666667 0.346655 0 0.00022614 0.000932693
24 1 0.0256624 5.42012e-07 0.560941 0 -2.94447e-05 -0.000176668
25 1 0.948886 0.500001 0.489512 0 -3.016e-05 0.000176787
26 1 0.775662 0.166667 0.560941 0 3.016e-05 -0.000177383
27 1 0.698886 0.666667 0.489512 0 2.96831e-05 0.000176787
28 1 0.488229 0.5 0.0609408 0 -0.0726315 0.440446
29 1 0.238229 0.666667 0.0609408 0 0.0726316 0.440446
30 1 0.14178 0.5 0.203798 0 0.00511765 -0.00208318
31 1 0.89178 0.666667 0.203798 0 -0.00511706 -0.00208294
32 1 0.795332 0.5 0.346655 0 -0.000226378 0.000932932
33 1 0.582768 0.166667 0.846655 0 -0.00511765 0.00208318
34 1 0.486319 1 0.989512 0 -0.0726318 -0.440447
35 1 0.236319 0.166667 0.989512 0 0.0726317 -0.440446
36 1 0.679216 1.92026e-07 0.703798 0 -0.00022614 -0.000932932
37 1 0.602439 0.500001 0.632369 0 -0.000158072 -0.000638008
38 1 0.429216 0.166667 0.703798 0 0.000226498 -0.00093317
39 1 0.352439 0.666667 0.632369 0 0.000157356 -0.000638127
40 1 0.332768 1 0.846655 0 0.0051173 0.0020833
41 1 0.255992 0.5 0.775226 0 0.00153542 0.00118637
42 1 0.0827679 0.166667 0.846655 0 -0.00511718 0.00208306
43 1 0.00599197 0.666667 0.775226 0 -0.00153482 0.00118613
44 1 0.986319 1 0.989512 0 -0.072632 -0.440446
45 1 0.909544 0.5 0.918083 0 0.0197457 -0.416587
46 1 0.545332 0.666667 0.346655 0 0.000225782 0.000932574
47 1 0.448886 0.500001 0.489512 0 -2.99215e-05 0.000176549
48 1 0.198886 0.666667 0.489512 0 2.95639e-05 0.000176549
49 1 0.102439 0.5 0.632369 0 -0.000158072 -0.000638008
50 1 0.852439 0.666667 0.632369 0 0.000157356 -0.000637889
51 1 0.755992 0.5 0.775226 0 0.00153506 0.00118625
52 1 0.736319 0.166667 0.989512 0 0.0726315 -0.440447
53 1 0.659544 0.666667 0.918083 0 -0.0197455 -0.416586
54 1 0.505992 0.666667 0.775226 0 -0.00153482 0.00118613
55 1 0.409544 0.5 0.918083 0 0.0197455 -0.416586
56 1 0.159544 0.666667 0.918083 0 -0.0197457 -0.416587
ITEM: TIMESTEP
1
ITEM: NUMBER OF ATOMS
56
ITEM: BOX BOUNDS xy xz yz pp pp pp
-1.4477894902229309e+00 1.2206987559795380e+01 -4.7683715820312500e-07
-7.5370073318481445e-03 5.5339480042457581e+00 -1.4259012937545776e+00
-3.2569408416748047e-02 1.9052529454231262e+01 2.8610229492187500e-06
ITEM: ATOMS id type xs ys zs fx fy fz
1 1 0.56552 1.00072 0.136792 0 -0.00471044 -0.000557899
2 1 0.31552 0.165945 0.136792 0 0.0047102 -0.000558019
3 1 0.218555 1.00006 0.275214 0 -0.0147598 0.087466
4 1 0.968555 0.166611 0.275214 0 0.0147599 0.0874662
5 1 0.87211 -5.2526e-06 0.41809 0 -0.0012418 0.00151765
6 1 0.0655202 1.00072 0.136792 0 -0.00471056 -0.00055778
7 1 0.988774 0.497344 0.0656169 0 -0.0599846 -0.0234977
8 1 0.81552 0.165945 0.136792 0 0.00471056 -0.000558376
9 1 0.738774 0.669323 0.0656169 0 0.0599844 -0.0234971
10 1 0.718555 1.00006 0.275214 0 -0.01476 0.0874665
11 1 0.62211 0.166672 0.41809 0 0.00124145 0.0015173
12 1 0.525662 -5.40088e-07 0.560939 0 0.000275373 0.00204122
13 1 0.275662 0.166668 0.560939 0 -0.000275373 0.00204122
14 1 0.179214 -8.11693e-06 0.703788 0 -0.00383937 -0.0106446
15 1 0.929214 0.166675 0.703788 0 0.00383949 -0.0106446
16 1 0.83277 1.00019 0.846677 0 0.00222659 -0.104856
17 1 0.641778 0.500187 0.203776 0 0.00222719 0.104856
18 1 0.468555 0.166611 0.275214 0 0.0147597 0.0874661
19 1 0.391778 0.66648 0.203776 0 -0.00222683 0.104857
20 1 0.37211 -5.25563e-06 0.41809 0 -0.00124192 0.00151825
21 1 0.295334 0.499992 0.346665 0 -0.00383925 0.0106444
22 1 0.12211 0.166672 0.41809 0 0.00124133 0.00151694
23 1 0.0453336 0.666675 0.346665 0 0.00383961 0.0106448
24 1 0.0256622 -5.34606e-07 0.560939 0 0.000274777 0.00204098
25 1 0.948886 0.499999 0.489514 0 0.000275373 -0.0020411
26 1 0.775662 0.166668 0.560939 0 -0.000275135 0.00204086
27 1 0.698886 0.666668 0.489514 0 -0.000275254 -0.0020411
28 1 0.488774 0.497344 0.0656169 0 -0.0599847 -0.0234973
29 1 0.238774 0.669323 0.0656169 0 0.0599848 -0.0234977
30 1 0.141778 0.500187 0.203776 0 0.00222683 0.104856
31 1 0.891778 0.66648 0.203776 0 -0.00222683 0.104857
32 1 0.795334 0.499992 0.346665 0 -0.00383937 0.0106443
33 1 0.58277 0.16648 0.846677 0 -0.00222695 -0.104856
34 1 0.485774 0.997344 0.984836 0 -0.0599847 0.0234973
35 1 0.235774 0.169323 0.984836 0 0.0599844 0.0234981
36 1 0.679214 -8.07658e-06 0.703788 0 -0.00383961 -0.0106447
37 1 0.602438 0.499995 0.632362 0 -0.0012418 -0.00151718
38 1 0.429214 0.166675 0.703788 0 0.00383925 -0.0106447
39 1 0.352438 0.666672 0.632362 0 0.00124168 -0.00151777
40 1 0.33277 1.00019 0.846677 0 0.00222695 -0.104856
41 1 0.255993 0.500056 0.775239 0 -0.0147597 -0.0874658
42 1 0.0827704 0.16648 0.846677 0 -0.00222695 -0.104856
43 1 0.00599344 0.666611 0.775239 0 0.0147599 -0.0874667
44 1 0.985774 0.997344 0.984836 0 -0.0599847 0.0234975
45 1 0.909028 0.500722 0.913661 0 -0.00471032 0.000557899
46 1 0.545334 0.666675 0.346665 0 0.00383949 0.0106443
47 1 0.448886 0.499999 0.489514 0 0.000275254 -0.00204122
48 1 0.198886 0.666668 0.489514 0 -0.000275016 -0.00204086
49 1 0.102438 0.499995 0.632362 0 -0.00124145 -0.00151694
50 1 0.852438 0.666672 0.632362 0 0.00124192 -0.00151753
51 1 0.755993 0.500056 0.775239 0 -0.0147598 -0.087466
52 1 0.735774 0.169323 0.984836 0 0.0599847 0.0234981
53 1 0.659028 0.665945 0.913661 0 0.00471056 0.00055778
54 1 0.505993 0.666611 0.775239 0 0.0147603 -0.0874665
55 1 0.409028 0.500722 0.913661 0 -0.00471044 0.000557661
56 1 0.159028 0.665945 0.913661 0 0.00471056 0.000557661
ITEM: TIMESTEP
2
ITEM: NUMBER OF ATOMS
56
ITEM: BOX BOUNDS xy xz yz pp pp pp
-1.4477894902229309e+00 1.2206987559795380e+01 -4.7683715820312500e-07
-7.5370073318481445e-03 5.5339480042457581e+00 -1.4259012937545776e+00
-3.2569408416748047e-02 1.9052529454231262e+01 2.8610229492187500e-06
ITEM: ATOMS id type xs ys zs fx fy fz
1 1 0.565622 1.00043 0.137668 0 -0.0225514 0.0180808
2 1 0.315622 0.166234 0.137668 0 0.0225514 0.0180815
3 1 0.218827 0.998707 0.277552 0 0.00728953 -0.000258446
4 1 0.968827 0.16796 0.277552 0 -0.00729024 -0.000258565
5 1 0.872115 -0.000120841 0.418132 0 -0.00754881 0.044966
6 1 0.0656223 1.00043 0.137668 0 -0.0225515 0.0180809
7 1 0.988811 0.491282 0.0659296 0 -0.0036571 -0.00734568
8 1 0.815622 0.166234 0.137668 0 0.0225515 0.0180817
9 1 0.738811 0.675385 0.0659296 0 0.00365674 -0.00734603
10 1 0.718827 0.998707 0.277552 0 0.00729001 -0.000259161
11 1 0.622115 0.166788 0.418132 0 0.00754952 0.0449667
12 1 0.525669 2.46148e-05 0.560993 0 -0.00400722 -0.0085547
13 1 0.275669 0.166643 0.560993 0 0.00400734 -0.00855482
14 1 0.179181 -0.000363574 0.703501 0 -0.00757587 -0.0582066
15 1 0.929181 0.167031 0.703501 0 0.00757647 -0.0582064
16 1 0.832444 1.00043 0.843876 0 -0.00894403 0.0154891
17 1 0.642104 0.50043 0.206577 0 -0.00894439 -0.0154884
18 1 0.468827 0.16796 0.277552 0 -0.00729012 -0.000258923
19 1 0.392104 0.666237 0.206577 0 0.00894463 -0.0154897
20 1 0.372115 -0.000120856 0.418132 0 -0.00754857 0.0449656
21 1 0.295367 0.499636 0.346952 0 -0.00757658 0.058207
22 1 0.122115 0.166788 0.418132 0 0.00754929 0.0449671
23 1 0.0453671 0.667031 0.346952 0 0.00757611 0.0582062
24 1 0.0256685 2.45688e-05 0.560993 0 -0.00400662 -0.00855482
25 1 0.94888 0.500025 0.48946 0 -0.00400746 0.00855494
26 1 0.775669 0.166643 0.560993 0 0.00400722 -0.0085547
27 1 0.69888 0.666643 0.48946 0 0.00400722 0.00855446
28 1 0.48881 0.491282 0.0659296 0 -0.00365686 -0.00734568
29 1 0.23881 0.675385 0.0659296 0 0.00365651 -0.0073458
30 1 0.142104 0.50043 0.206577 0 -0.00894415 -0.015489
31 1 0.892104 0.666237 0.206577 0 0.00894439 -0.0154891
32 1 0.795367 0.499636 0.346952 0 -0.00757658 0.0582068
33 1 0.582444 0.166237 0.843876 0 0.00894427 0.0154884
34 1 0.485738 0.991282 0.984523 0 -0.00365651 0.00734591
35 1 0.235738 0.175385 0.984523 0 0.00365686 0.00734484
36 1 0.679181 -0.000363554 0.703501 0 -0.00757658 -0.0582064
37 1 0.602433 0.499879 0.63232 0 -0.00754857 -0.0449663
38 1 0.429181 0.167031 0.703501 0 0.0075767 -0.0582063
39 1 0.352433 0.666788 0.63232 0 0.00754869 -0.0449659
40 1 0.332444 1.00043 0.843876 0 -0.00894439 0.0154896
41 1 0.255721 0.498707 0.772901 0 0.00728977 0.000258327
42 1 0.0824438 0.166237 0.843876 0 0.00894451 0.0154886
43 1 0.00572086 0.66796 0.772901 0 -0.00729001 0.00025928
44 1 0.985738 0.991282 0.984523 0 -0.00365615 0.00734591
45 1 0.908926 0.500433 0.912785 0 -0.022552 -0.0180815
46 1 0.545367 0.667031 0.346952 0 0.00757635 0.0582069
47 1 0.44888 0.500025 0.48946 0 -0.00400734 0.0085547
48 1 0.19888 0.666643 0.48946 0 0.00400662 0.00855458
49 1 0.102433 0.499879 0.63232 0 -0.00754917 -0.0449669
50 1 0.852433 0.666788 0.63232 0 0.00754869 -0.0449661
51 1 0.755721 0.498707 0.772901 0 0.00729036 0.000258446
52 1 0.735738 0.175385 0.984523 0 0.00365651 0.0073452
53 1 0.658926 0.666234 0.912785 0 0.0225514 -0.0180811
54 1 0.505721 0.66796 0.772901 0 -0.00729048 0.000259042
55 1 0.408926 0.500433 0.912785 0 -0.0225513 -0.0180809
56 1 0.158926 0.666234 0.912785 0 0.0225514 -0.0180806
ITEM: TIMESTEP
3
ITEM: NUMBER OF ATOMS
56
ITEM: BOX BOUNDS xy xz yz pp pp pp
-1.4477894902229309e+00 1.2206987559795380e+01 -4.7683715820312500e-07
-7.5370073318481445e-03 5.5339480042457581e+00 -1.4259012937545776e+00
-3.2569408416748047e-02 1.9052529454231262e+01 2.8610229492187500e-06
ITEM: ATOMS id type xs ys zs fx fy fz
1 1 0.565717 0.99812 0.138484 0 -0.00142014 9.78708e-05
2 1 0.315717 0.168547 0.138484 0 0.00142074 9.67979e-05
3 1 0.21892 0.99896 0.278347 0 -0.00288379 0.00890136
4 1 0.96892 0.167707 0.278347 0 0.00288558 0.00890136
5 1 0.872266 -0.000901589 0.419429 0 -0.00200105 0.00168288
6 1 0.0657174 0.99812 0.138484 0 -0.00142014 9.76324e-05
7 1 0.988799 0.488842 0.0658276 0 0.00613451 -0.00473356
8 1 0.815717 0.168547 0.138484 0 0.0014199 9.71556e-05
9 1 0.738799 0.677825 0.0658276 0 -0.00613379 -0.0047338
10 1 0.71892 0.99896 0.278347 0 -0.00288451 0.00890148
11 1 0.622266 0.167569 0.419429 0 0.00200033 0.00168252
12 1 0.525642 -0.00036014 0.560768 0 -0.0089674 -0.0103518
13 1 0.275642 0.167027 0.560768 0 0.00896645 -0.010352
14 1 0.178976 -0.00122932 0.701743 0 0.000409603 0.0055691
15 1 0.928976 0.167896 0.701743 0 -0.000410557 0.00556862
16 1 0.832383 0.999635 0.843356 0 0.000948787 0.000306368
17 1 0.642165 0.499635 0.207097 0 0.000948548 -0.000306487
18 1 0.46892 0.167707 0.278347 0 0.00288582 0.00890231
19 1 0.392165 0.667032 0.207097 0 -0.00094974 -0.000306368
20 1 0.372266 -0.000901585 0.419429 0 -0.00200057 0.00168264
21 1 0.295572 0.498771 0.348709 0 0.000409722 -0.00556982
22 1 0.122266 0.167569 0.419429 0 0.00200009 0.00168288
23 1 0.045572 0.667896 0.348709 0 -0.000410438 -0.00556886
24 1 0.0256423 -0.000360145 0.560768 0 -0.00896728 -0.0103513
25 1 0.948906 0.49964 0.489685 0 -0.00896657 0.0103512
26 1 0.775642 0.167027 0.560768 0 0.0089668 -0.0103509
27 1 0.698906 0.667027 0.489685 0 0.00896716 0.0103519
28 1 0.488799 0.488842 0.0658276 0 0.00613403 -0.0047344
29 1 0.238799 0.677825 0.0658276 0 -0.00613427 -0.00473416
30 1 0.142165 0.499635 0.207097 0 0.00094831 -0.000305891
31 1 0.892165 0.667032 0.207097 0 -0.000949264 -0.000306726
32 1 0.795572 0.498771 0.348709 0 0.000410438 -0.00556886
33 1 0.582383 0.167032 0.843356 0 -0.000948548 0.000306726
34 1 0.48575 0.988842 0.984625 0 0.00613356 0.00473404
35 1 0.23575 0.177825 0.984625 0 -0.00613391 0.00473487
36 1 0.678976 -0.00122938 0.701743 0 0.000411034 0.0055691
37 1 0.602282 0.499098 0.631024 0 -0.00200081 -0.00168312
38 1 0.428976 0.167897 0.701743 0 -0.000410795 0.00556886
39 1 0.352282 0.667569 0.631024 0 0.00200117 -0.00168264
40 1 0.332383 0.999635 0.843356 0 0.000948787 0.000306249
41 1 0.255628 0.49896 0.772106 0 -0.00288463 -0.00890124
42 1 0.0823832 0.167032 0.843356 0 -0.000949144 0.000306368
43 1 0.00562815 0.667707 0.772106 0 0.00288558 -0.00890124
44 1 0.98575 0.988842 0.984625 0 0.00613332 0.00473368
45 1 0.908831 0.49812 0.911969 0 -0.00141978 -9.69172e-05
46 1 0.545572 0.667896 0.348709 0 -0.000410438 -0.0055691
47 1 0.448906 0.49964 0.489685 0 -0.00896645 0.0103517
48 1 0.198906 0.667027 0.489685 0 0.00896728 0.010352
49 1 0.102282 0.499098 0.631024 0 -0.00199986 -0.00168252
50 1 0.852282 0.667569 0.631024 0 0.00200081 -0.00168347
51 1 0.755628 0.49896 0.772106 0 -0.00288606 -0.00890136
52 1 0.73575 0.177825 0.984625 0 -0.00613344 0.00473356
53 1 0.658831 0.668547 0.911969 0 0.0014199 -9.75132e-05
54 1 0.505628 0.667707 0.772106 0 0.0028851 -0.00890136
55 1 0.408831 0.49812 0.911969 0 -0.00142014 -9.75132e-05
56 1 0.158831 0.668547 0.911969 0 0.00142014 -9.82285e-05
ITEM: TIMESTEP
4
ITEM: NUMBER OF ATOMS
56
ITEM: BOX BOUNDS xy xz yz pp pp pp
-1.4477894902229309e+00 1.2206987559795380e+01 -4.7683715820312500e-07
-7.5370073318481445e-03 5.5339480042457581e+00 -1.4259012937545776e+00
-3.2569408416748047e-02 1.9052529454231262e+01 2.8610229492187500e-06
ITEM: ATOMS id type xs ys zs fx fy fz
1 1 0.565722 0.997918 0.138523 0 0.00308967 0.00338519
2 1 0.315722 0.16875 0.138523 0 -0.0030899 0.00338566
3 1 0.218944 0.998778 0.278557 0 0.000203371 0.000738621
4 1 0.968944 0.167889 0.278557 0 -0.000204444 0.000738382
5 1 0.872277 -0.00107199 0.419522 0 -0.00341868 -0.00180161
6 1 0.065722 0.997918 0.138523 0 0.0030899 0.00338519
7 1 0.988787 0.48914 0.0657307 0 0.00269794 0.0011586
8 1 0.815722 0.16875 0.138523 0 -0.00308979 0.00338519
9 1 0.738787 0.677528 0.0657307 0 -0.00269806 0.00115883
10 1 0.718944 0.998778 0.278557 0 0.000203848 0.00073874
11 1 0.622277 0.167739 0.419522 0 0.00341928 -0.00180209
12 1 0.525618 -0.000979011 0.560556 0 -0.00261855 0.00293601
13 1 0.275618 0.167646 0.560556 0 0.00261915 0.00293696
14 1 0.178979 -0.00124211 0.70177 0 0.000105143 -0.00162303
15 1 0.928979 0.167909 0.70177 0 -0.000104547 -0.0016228
16 1 0.832381 0.999662 0.843338 0 -0.000998259 0.00115252
17 1 0.642167 0.499662 0.207115 0 -0.000997901 -0.00115228
18 1 0.468944 0.167889 0.278557 0 -0.000204563 0.000737906
19 1 0.392167 0.667005 0.207115 0 0.000998378 -0.00115204
20 1 0.372277 -0.00107195 0.419522 0 -0.00341976 -0.00180209
21 1 0.295569 0.498758 0.348683 0 0.000105858 0.00162351
22 1 0.122277 0.167739 0.419522 0 0.00341952 -0.00180244
23 1 0.0455689 0.667909 0.348683 0 -0.000104547 0.0016228
24 1 0.0256176 -0.000979006 0.560556 0 -0.00261843 0.00293624
25 1 0.948931 0.499021 0.489897 0 -0.00261939 -0.00293648
26 1 0.775618 0.167646 0.560556 0 0.00261867 0.00293612
27 1 0.698931 0.667646 0.489897 0 0.00261879 -0.00293612
28 1 0.488787 0.48914 0.0657307 0 0.00269783 0.00115883
29 1 0.238787 0.677528 0.0657307 0 -0.00269806 0.00115919
30 1 0.142167 0.499662 0.207115 0 -0.000997663 -0.00115228
31 1 0.892167 0.667005 0.207115 0 0.000998259 -0.00115216
32 1 0.795569 0.498758 0.348683 0 0.000104904 0.00162268
33 1 0.582381 0.167005 0.843338 0 0.000997782 0.00115228
34 1 0.485761 0.98914 0.984722 0 0.0026983 -0.00115883
35 1 0.235761 0.177528 0.984722 0 -0.00269806 -0.00115931
36 1 0.678979 -0.00124208 0.70177 0 0.000104427 -0.00162315
37 1 0.602271 0.498928 0.630931 0 -0.0034194 0.00180221
38 1 0.428979 0.167909 0.70177 0 -0.000104666 -0.0016228
39 1 0.352271 0.667739 0.630931 0 0.00341868 0.00180197
40 1 0.332381 0.999662 0.843338 0 -0.000997782 0.0011524
41 1 0.255604 0.498778 0.771896 0 0.000203729 -0.000738859
42 1 0.0823811 0.167005 0.843338 0 0.000998855 0.0011524
43 1 0.00560365 0.667889 0.771896 0 -0.000204325 -0.00073874
44 1 0.985761 0.98914 0.984722 0 0.00269806 -0.00115895
45 1 0.908826 0.497918 0.911929 0 0.00308955 -0.00338519
46 1 0.545569 0.667909 0.348683 0 -0.000104666 0.00162292
47 1 0.448931 0.499021 0.489897 0 -0.00261915 -0.00293624
48 1 0.198931 0.667646 0.489897 0 0.00261879 -0.00293672
49 1 0.102271 0.498928 0.630931 0 -0.00342 0.00180221
50 1 0.852271 0.667739 0.630931 0 0.0034194 0.00180233
51 1 0.755604 0.498778 0.771896 0 0.000204563 -0.000738859
52 1 0.735761 0.177528 0.984722 0 -0.0026983 -0.00115848
53 1 0.658826 0.66875 0.911929 0 -0.00308943 -0.00338519
54 1 0.505604 0.667889 0.771896 0 -0.000203848 -0.000738621
55 1 0.408826 0.497918 0.911929 0 0.00308955 -0.00338531
56 1 0.158826 0.66875 0.911929 0 -0.00309002 -0.00338519
ITEM: TIMESTEP
5
ITEM: NUMBER OF ATOMS
56
ITEM: BOX BOUNDS xy xz yz pp pp pp
-1.4477894902229309e+00 1.2206987559795380e+01 -4.7683715820312500e-07
-7.5370073318481445e-03 5.5339480042457581e+00 -1.4259012937545776e+00
-3.2569408416748047e-02 1.9052529454231262e+01 2.8610229492187500e-06
ITEM: ATOMS id type xs ys zs fx fy fz
1 1 0.565732 0.998117 0.138608 0 0.000944495 -0.000926971
2 1 0.315732 0.16855 0.138608 0 -0.000944853 -0.000926733
3 1 0.218951 0.998758 0.278616 0 -0.000160098 -0.000344634
4 1 0.968951 0.167909 0.278616 0 0.000160217 -0.00034368
5 1 0.872274 -0.00137198 0.4195 0 -0.000218868 0.000917435
6 1 0.0657319 0.998117 0.138608 0 0.000944972 -0.000926733
7 1 0.988788 0.489409 0.0657374 0 0.000772834 -0.000461698
8 1 0.815732 0.16855 0.138608 0 -0.000945091 -0.000926375
9 1 0.738788 0.677258 0.0657374 0 -0.000773668 -0.000461817
10 1 0.718951 0.998758 0.278616 0 -0.000160217 -0.000344396
11 1 0.622274 0.168039 0.4195 0 0.000218391 0.000917912
12 1 0.52562 -0.0013071 0.56058 0 -0.000276446 0.000696659
13 1 0.27562 0.167974 0.56058 0 0.000277042 0.000696182
14 1 0.178976 -0.00123652 0.701739 0 -0.000873566 0.000191212
15 1 0.928976 0.167904 0.701739 0 0.000873566 0.000190496
16 1 0.832384 0.999589 0.84336 0 0.000805378 -0.00141847
17 1 0.642164 0.499589 0.207093 0 0.000805259 0.00141811
18 1 0.468951 0.167909 0.278616 0 0.000160336 -0.0003438
19 1 0.392164 0.667078 0.207093 0 -0.00080514 0.00141823
20 1 0.372274 -0.00137202 0.4195 0 -0.000218153 0.000918031
21 1 0.295573 0.498764 0.348714 0 -0.000874043 -0.000190973
22 1 0.122274 0.168039 0.4195 0 0.00021863 0.000917554
23 1 0.0455726 0.667904 0.348714 0 0.000873446 -0.000190139
24 1 0.0256203 -0.00130708 0.56058 0 -0.000277162 0.000695586
25 1 0.948928 0.498693 0.489873 0 -0.00027585 -0.000695705
26 1 0.77562 0.167974 0.56058 0 0.000277281 0.000696063
27 1 0.698928 0.667974 0.489873 0 0.000276208 -0.000696421
28 1 0.488788 0.489409 0.0657373 0 0.000773072 -0.000461102
29 1 0.238788 0.677258 0.0657373 0 -0.000773191 -0.000461459
30 1 0.142164 0.499589 0.207093 0 0.000805497 0.00141799
31 1 0.892164 0.667078 0.207093 0 -0.00080514 0.00141859
32 1 0.795573 0.498763 0.348714 0 -0.000873566 -0.000190616
33 1 0.582384 0.167078 0.84336 0 -0.000805259 -0.00141883
34 1 0.48576 0.989409 0.984715 0 0.000773311 0.000461578
35 1 0.23576 0.177258 0.984715 0 -0.00077343 0.000461459
36 1 0.678976 -0.00123652 0.701739 0 -0.000873685 0.000191212
37 1 0.602274 0.498628 0.630953 0 -0.000218391 -0.000917912
38 1 0.428976 0.167904 0.701739 0 0.000873804 0.000190496
39 1 0.352274 0.668039 0.630953 0 0.000218868 -0.000918508
40 1 0.332384 0.999589 0.84336 0 0.000805259 -0.00141847
41 1 0.255597 0.498758 0.771837 0 -0.000160098 0.000344157
42 1 0.0823837 0.167078 0.84336 0 -0.000805974 -0.00141835
43 1 0.00559677 0.66791 0.771837 0 0.00015986 0.000344038
44 1 0.98576 0.989409 0.984715 0 0.000773311 0.000461698
45 1 0.908816 0.498117 0.911845 0 0.00094521 0.000926375
46 1 0.545573 0.667904 0.348714 0 0.000873685 -0.000190616
47 1 0.448928 0.498693 0.489873 0 -0.000276923 -0.000696421
48 1 0.198928 0.667974 0.489873 0 0.000276327 -0.000696301
49 1 0.102274 0.498628 0.630953 0 -0.000217915 -0.000917554
50 1 0.852274 0.668039 0.630953 0 0.000218153 -0.000917792
51 1 0.755597 0.498758 0.771837 0 -0.000160575 0.000344753
52 1 0.73576 0.177258 0.984715 0 -0.000772953 0.000462055
53 1 0.658816 0.66855 0.911845 0 -0.000944853 0.000926375
54 1 0.505597 0.66791 0.771837 0 0.00015974 0.000344396
55 1 0.408816 0.498117 0.911845 0 0.00094533 0.000926614
56 1 0.158816 0.66855 0.911845 0 -0.000944376 0.00092721
ITEM: TIMESTEP
6
ITEM: NUMBER OF ATOMS
56
ITEM: BOX BOUNDS xy xz yz pp pp pp
-1.4477894902229309e+00 1.2206987559795380e+01 -4.7683715820312500e-07
-7.5370073318481445e-03 5.5339480042457581e+00 -1.4259012937545776e+00
-3.2569408416748047e-02 1.9052529454231262e+01 2.8610229492187500e-06
ITEM: ATOMS id type xs ys zs fx fy fz
1 1 0.56573 0.998219 0.138596 0 -1.50204e-05 -0.00010848
2 1 0.31573 0.168448 0.138596 0 1.50204e-05 -0.000108719
3 1 0.218951 0.998742 0.278615 0 0.000148416 7.54595e-05
4 1 0.968951 0.167925 0.278615 0 -0.000148296 7.51019e-05
5 1 0.872276 -0.00142669 0.419519 0 0.000178576 0.000259161
6 1 0.0657305 0.998219 0.138596 0 -1.4782e-05 -0.000109076
7 1 0.988787 0.489506 0.0657271 0 0.000450492 0.00092113
8 1 0.81573 0.168448 0.138596 0 1.58548e-05 -0.000108719
9 1 0.738787 0.677161 0.0657271 0 -0.000449896 0.000921488
10 1 0.718951 0.998742 0.278615 0 0.000148654 7.51019e-05
11 1 0.622276 0.168094 0.419519 0 -0.000178814 0.000259399
12 1 0.525623 -0.00136999 0.560599 0 0.000171304 -0.000173092
13 1 0.275623 0.168037 0.560599 0 -0.000171781 -0.000173092
14 1 0.178976 -0.00130791 0.70174 0 -0.000261784 -0.0002321
15 1 0.928976 0.167975 0.70174 0 0.000261664 -0.000231862
16 1 0.83238 0.999647 0.843329 0 0.00029397 0.000291109
17 1 0.642168 0.499647 0.207124 0 0.000293612 -0.000290871
18 1 0.468951 0.167925 0.278615 0 -0.000148416 7.51019e-05
19 1 0.392168 0.66702 0.207124 0 -0.000293732 -0.000291109
20 1 0.372276 -0.00142668 0.419519 0 0.000178576 0.000259399
21 1 0.295572 0.498692 0.348713 0 -0.000261903 0.000231147
22 1 0.122276 0.168094 0.419519 0 -0.000178337 0.000259876
23 1 0.0455725 0.667975 0.348713 0 0.000261784 0.000231147
24 1 0.0256226 -0.00137003 0.560599 0 0.000171781 -0.000172019
25 1 0.948926 0.49863 0.489854 0 0.000170708 0.000172853
26 1 0.775623 0.168037 0.560599 0 -0.000172257 -0.000172853
27 1 0.698926 0.668037 0.489854 0 -0.000171065 0.000173211
28 1 0.488787 0.489506 0.0657271 0 0.00045085 0.000920773
29 1 0.238787 0.677161 0.0657271 0 -0.000450253 0.000921369
30 1 0.142168 0.499647 0.207124 0 0.000293493 -0.000290632
31 1 0.892168 0.66702 0.207124 0 -0.000294566 -0.000291467
32 1 0.795572 0.498692 0.348713 0 -0.000262022 0.000231743
33 1 0.58238 0.16702 0.843329 0 -0.000293732 0.000291586
34 1 0.485761 0.989506 0.984726 0 0.000450134 -0.000921488
35 1 0.235761 0.177161 0.984726 0 -0.00045073 -0.00092113
36 1 0.678976 -0.00130793 0.70174 0 -0.000261903 -0.0002321
37 1 0.602272 0.498573 0.630934 0 0.000178933 -0.000259042
38 1 0.428976 0.167975 0.70174 0 0.000261188 -0.000231743
39 1 0.352272 0.668094 0.630934 0 -0.000178576 -0.000258923
40 1 0.33238 0.999647 0.843329 0 0.000294209 0.000290871
41 1 0.255597 0.498742 0.771838 0 0.000148892 -7.55787e-05
42 1 0.08238 0.16702 0.843329 0 -0.000293612 0.000291109
43 1 0.00559689 0.667925 0.771838 0 -0.000148177 -7.4625e-05
44 1 0.985761 0.989506 0.984726 0 0.000450373 -0.000921249
45 1 0.908818 0.498219 0.911857 0 -1.56164e-05 0.000109076
46 1 0.545572 0.667975 0.348713 0 0.000261664 0.000231743
47 1 0.448926 0.49863 0.489854 0 0.000172019 0.000173092
48 1 0.198926 0.668037 0.489854 0 -0.000170946 0.00017333
49 1 0.102272 0.498573 0.630934 0 0.000178099 -0.000260115
50 1 0.852272 0.668094 0.630934 0 -0.000178099 -0.00025928
51 1 0.755597 0.498742 0.771838 0 0.000149131 -7.58171e-05
52 1 0.735761 0.177161 0.984726 0 -0.00045073 -0.000921845
53 1 0.658818 0.668448 0.911857 0 1.4782e-05 0.000109076
54 1 0.505597 0.667925 0.771838 0 -0.000148416 -7.55787e-05
55 1 0.408818 0.498219 0.911857 0 -1.52588e-05 0.000109553
56 1 0.158818 0.668448 0.911857 0 1.45435e-05 0.0001086
ITEM: TIMESTEP
7
ITEM: NUMBER OF ATOMS
56
ITEM: BOX BOUNDS xy xz yz pp pp pp
-1.4477894902229309e+00 1.2206987559795380e+01 -4.7683715820312500e-07
-7.5370073318481445e-03 5.5339480042457581e+00 -1.4259012937545776e+00
-3.2569408416748047e-02 1.9052529454231262e+01 2.8610229492187500e-06
ITEM: ATOMS id type xs ys zs fx fy fz
1 1 0.56573 0.998236 0.138592 0 6.54459e-05 -0.000175476
2 1 0.31573 0.168431 0.138592 0 -6.49691e-05 -0.000175357
3 1 0.218951 0.99875 0.278616 0 4.97103e-05 0.000105739
4 1 0.968951 0.167917 0.278616 0 -4.97103e-05 0.000104666
5 1 0.872277 -0.00142355 0.419528 0 2.90871e-05 -0.000115156
6 1 0.06573 0.998236 0.138592 0 6.47306e-05 -0.00017488
7 1 0.988789 0.489555 0.0657443 0 0.000183463 -3.65973e-05
8 1 0.81573 0.168431 0.138592 0 -6.54459e-05 -0.000174999
9 1 0.738789 0.677112 0.0657443 0 -0.000183225 -3.65973e-05
10 1 0.718951 0.99875 0.278616 0 4.92334e-05 0.000105619
11 1 0.622277 0.168091 0.419528 0 -2.88486e-05 -0.000115395
12 1 0.525623 -0.0013688 0.560599 0 0.000152707 -0.00011611
13 1 0.275623 0.168036 0.560599 0 -0.000152826 -0.000115633
14 1 0.178975 -0.00133894 0.701735 0 0.000197053 -9.59635e-05
15 1 0.928975 0.168006 0.701735 0 -0.000197053 -9.54866e-05
16 1 0.83238 0.999678 0.843329 0 -0.000109792 -0.000143647
17 1 0.642168 0.499678 0.207123 0 -0.000109673 0.000144005
18 1 0.468951 0.167917 0.278616 0 -4.97103e-05 0.000104904
19 1 0.392168 0.666989 0.207123 0 0.000109911 0.000143766
20 1 0.372277 -0.00142353 0.419528 0 2.90871e-05 -0.000115752
21 1 0.295573 0.498661 0.348718 0 0.000197768 9.64403e-05
22 1 0.122277 0.168091 0.419528 0 -2.95639e-05 -0.000115156
23 1 0.045573 0.668006 0.348718 0 -0.000197172 9.57251e-05
24 1 0.0256226 -0.00136881 0.560599 0 0.000153065 -0.000115752
25 1 0.948926 0.498631 0.489854 0 0.000152707 0.000115275
26 1 0.775623 0.168036 0.560599 0 -0.000152826 -0.000115752
27 1 0.698926 0.668036 0.489854 0 -0.000152707 0.000115633
28 1 0.488789 0.489555 0.0657443 0 0.000183463 -3.63588e-05
29 1 0.238789 0.677112 0.0657443 0 -0.000183702 -3.70741e-05
30 1 0.142168 0.499678 0.207123 0 -0.000109673 0.000143886
31 1 0.892168 0.666989 0.207123 0 0.000110626 0.000143528
32 1 0.795573 0.498661 0.348718 0 0.000197649 9.62019e-05
33 1 0.58238 0.166989 0.843329 0 0.000109911 -0.000143886
34 1 0.485759 0.989555 0.984709 0 0.000183344 3.67165e-05
35 1 0.235759 0.177112 0.984709 0 -0.000183225 3.73125e-05
36 1 0.678975 -0.00133897 0.701735 0 0.000197887 -9.59635e-05
37 1 0.602271 0.498576 0.630925 0 2.8491e-05 0.000115156
38 1 0.428975 0.168006 0.701735 0 -0.000196695 -9.57251e-05
39 1 0.352271 0.668091 0.630925 0 -2.92063e-05 0.000115752
40 1 0.33238 0.999678 0.843329 0 -0.000110269 -0.000143647
41 1 0.255597 0.49875 0.771837 0 4.94719e-05 -0.000104666
42 1 0.0823801 0.166989 0.843329 0 0.000109911 -0.000144362
43 1 0.00559673 0.667917 0.771837 0 -4.99487e-05 -0.000105619
44 1 0.985759 0.989555 0.984709 0 0.000183344 3.6478e-05
45 1 0.908818 0.498236 0.911861 0 6.58035e-05 0.00017488
46 1 0.545573 0.668006 0.348718 0 -0.00019753 9.56059e-05
47 1 0.448926 0.498631 0.489854 0 0.000152588 0.000115395
48 1 0.198926 0.668036 0.489854 0 -0.000152707 0.000114918
49 1 0.102271 0.498576 0.630925 0 2.92063e-05 0.000115752
50 1 0.852271 0.668091 0.630925 0 -2.92063e-05 0.000115633
51 1 0.755597 0.49875 0.771837 0 4.93526e-05 -0.000104904
52 1 0.735759 0.177112 0.984709 0 -0.000183821 3.68357e-05
53 1 0.658818 0.668431 0.911861 0 -6.54459e-05 0.000175238
54 1 0.505597 0.667917 0.771837 0 -4.99487e-05 -0.000104785
55 1 0.408818 0.498236 0.911861 0 6.49691e-05 0.000174165
56 1 0.158818 0.668431 0.911861 0 -6.50883e-05 0.000175476
ITEM: TIMESTEP
8
ITEM: NUMBER OF ATOMS
56
ITEM: BOX BOUNDS xy xz yz pp pp pp
-1.4477894902229309e+00 1.2206987559795380e+01 -4.7683715820312500e-07
-7.5370073318481445e-03 5.5339480042457581e+00 -1.4259012937545776e+00
-3.2569408416748047e-02 1.9052529454231262e+01 2.8610229492187500e-06
ITEM: ATOMS id type xs ys zs fx fy fz
1 1 0.565729 0.998245 0.138586 0 1.9908e-05 0.000132442
2 1 0.315729 0.168422 0.138586 0 -1.9908e-05 0.000132918
3 1 0.218952 0.998756 0.278619 0 7.39098e-06 -0.000138402
4 1 0.968952 0.167911 0.278619 0 -6.79493e-06 -0.000137448
5 1 0.872277 -0.00142012 0.419526 0 5.75781e-05 -7.27177e-06
6 1 0.0657293 0.998245 0.138586 0 1.97887e-05 0.000131726
7 1 0.988789 0.489582 0.0657466 0 5.4121e-05 1.7643e-05
8 1 0.815729 0.168422 0.138586 0 -1.90735e-05 0.000131845
9 1 0.738789 0.677085 0.0657466 0 -5.47171e-05 1.74046e-05
10 1 0.718952 0.998756 0.278619 0 7.7486e-06 -0.000138164
11 1 0.622277 0.168087 0.419526 0 -5.78165e-05 -7.27177e-06
12 1 0.525622 -0.00135369 0.560596 0 -8.34465e-06 -3.45707e-05
13 1 0.275622 0.168021 0.560596 0 8.22544e-06 -3.55244e-05
14 1 0.178975 -0.00132569 0.701731 0 5.10216e-05 -3.45707e-05
15 1 0.928975 0.167993 0.701731 0 -5.07832e-05 -3.49283e-05
16 1 0.83238 0.999673 0.843325 0 -7.98702e-06 -4.91142e-05
17 1 0.642168 0.499673 0.207127 0 -8.22544e-06 4.8399e-05
18 1 0.468952 0.167911 0.278619 0 -7.7486e-06 -0.000137568
19 1 0.392168 0.666994 0.207127 0 8.22544e-06 4.85182e-05
20 1 0.372277 -0.0014201 0.419526 0 5.73397e-05 -7.62939e-06
21 1 0.295573 0.498674 0.348721 0 4.95911e-05 3.44515e-05
22 1 0.122277 0.168087 0.419526 0 -5.6982e-05 -7.86781e-06
23 1 0.0455734 0.667993 0.348721 0 -5.10216e-05 3.46899e-05