ITEM: TIMESTEP
0
ITEM: NUMBER OF ATOMS
48
ITEM: BOX BOUNDS xy xz yz pp pp pp
-5.6318928003311157e+00 8.6109705567359924e+00 2.5110912919044495e+00
-1.0506033897399902e-02 9.6185076832771301e+00 -5.6173359751701355e+00
-2.6944518089294434e-02 1.9544072151184082e+01 3.6519104242324829e-01
ITEM: ATOMS id type xs ys zs fx fy fz
1 1 0.951538 0.165578 0.0319985 0 0 2.72379
2 1 0.507753 0.0752984 0.0528317 0 0 0.159418
3 1 0.637997 0.123911 0.656998 0 0 -0.00327122
4 1 0.868795 0.950298 0.927832 0 0 -2.72379
5 1 0.531504 0.158632 0.802832 0 0 0.00371647
6 1 0.31258 0.040578 0.906998 0 0 -0.159418
7 1 0.975288 0.248911 0.781998 0 0 0.0153321
8 1 0.963413 0.207245 0.406998 0 0 0.000620484
9 1 0.194212 0.0336318 0.677832 0 0 -0.00703716
10 1 0.85692 0.241965 0.552832 0 0 -0.000620127
11 1 0.845045 0.200298 0.177832 0 0 -0.0153321
12 1 0.626122 0.0822446 0.281998 0 0 0.00703728
13 1 0.28883 0.290578 0.156998 0 0 -0.00371623
14 1 0.519628 0.116965 0.427832 0 0 0.000401974
15 1 0.951538 0.498911 0.0319984 0 0 2.72379
16 1 0.507753 0.408632 0.0528317 0 0 0.159418
17 1 0.637997 0.457245 0.656998 0 0 -0.00327146
18 1 0.868795 0.283632 0.927832 0 0 -2.72379
19 1 0.531504 0.491965 0.802832 0 0 0.00371635
20 1 0.31258 0.373911 0.906998 0 0 -0.159418
21 1 0.975288 0.582245 0.781998 0 0 0.0153319
22 1 0.300705 0.332245 0.531998 0 0 -0.00040102
23 1 0.963413 0.540578 0.406998 0 0 0.000620484
24 1 0.194212 0.366965 0.677832 0 0 -0.00703681
25 1 0.85692 0.575298 0.552832 0 0 -0.000620604
26 1 0.182337 0.325298 0.302832 0 0 0.00327098
27 1 0.845045 0.533632 0.177832 0 0 -0.0153329
28 1 0.626122 0.415578 0.281998 0 0 0.00703716
29 1 0.28883 0.623911 0.156998 0 0 -0.00371647
30 1 0.519629 0.450298 0.427832 0 0 0.000401378
31 1 0.951538 0.832245 0.0319985 0 0 2.72379
32 1 0.507753 0.741965 0.0528317 0 0 0.159418
33 1 0.637997 0.790578 0.656998 0 0 -0.00327122
34 1 0.868795 0.616965 0.927832 0 0 -2.72379
35 1 0.531504 0.825298 0.802832 0 0 0.00371671
36 1 0.31258 0.707245 0.906998 0 0 -0.159418
37 1 0.975288 0.915578 0.781998 0 0 0.0153316
38 1 0.300705 0.665578 0.531998 0 0 -0.000402212
39 1 0.963413 0.873911 0.406998 0 0 0.000620723
40 1 0.194212 0.700298 0.677832 0 0 -0.00703633
41 1 0.85692 0.908632 0.552832 0 0 -0.000621438
42 1 0.182337 0.658632 0.302832 0 0 0.00327146
43 1 0.845045 0.866965 0.177832 0 0 -0.0153322
44 1 0.626122 0.748911 0.281998 0 0 0.00703704
45 1 0.28883 0.957245 0.156998 0 0 -0.00371647
46 1 0.519629 0.783632 0.427832 0 0 0.000401974
47 1 0.300705 0.998911 0.531998 0 0 -0.000401735
48 1 0.182337 0.991965 0.302832 0 0 0.00327134
ITEM: TIMESTEP
1
ITEM: NUMBER OF ATOMS
48
ITEM: BOX BOUNDS xy xz yz pp pp pp
-5.6318928003311157e+00 8.6109705567359924e+00 2.5110912919044495e+00
-1.0506033897399902e-02 9.6185076832771301e+00 -5.6173359751701355e+00
-2.6944518089294434e-02 1.9544072151184082e+01 3.6519104242324829e-01
ITEM: ATOMS id type xs ys zs fx fy fz
1 1 0.956315 0.165377 0.037108 0 0 1.38524
2 1 0.508033 0.0752866 0.0531308 0 0 0.133705
3 1 0.637991 0.123912 0.656992 0 0 -0.00768232
4 1 0.864018 0.9505 0.922722 0 0 -1.38524
5 1 0.53151 0.158631 0.802839 0 0 -0.0812831
6 1 0.3123 0.0405898 0.906699 0 0 -0.133705
7 1 0.975315 0.24891 0.782027 0 0 -0.0516835
8 1 0.963414 0.207245 0.407 0 0 -0.000546694
9 1 0.1942 0.0336323 0.677819 0 0 -0.0115659
10 1 0.856919 0.241965 0.552831 0 0 0.000546217
11 1 0.845018 0.200299 0.177803 0 0 0.0516834
12 1 0.626134 0.0822441 0.282012 0 0 0.0115658
13 1 0.288823 0.290578 0.156991 0 0 0.0812829
14 1 0.519629 0.116965 0.427832 0 0 -0.000580907
15 1 0.956315 0.49871 0.037108 0 0 1.38524
16 1 0.508033 0.40862 0.0531308 0 0 0.133705
17 1 0.637991 0.457245 0.656992 0 0 -0.0076822
18 1 0.864018 0.283833 0.922722 0 0 -1.38524
19 1 0.53151 0.491965 0.802839 0 0 -0.081283
20 1 0.3123 0.373923 0.906699 0 0 -0.133705
21 1 0.975315 0.582244 0.782027 0 0 -0.051684
22 1 0.300704 0.332245 0.531998 0 0 0.000581741
23 1 0.963414 0.540578 0.407 0 0 -0.000546813
24 1 0.1942 0.366966 0.677819 0 0 -0.0115657
25 1 0.856919 0.575298 0.552831 0 0 0.000546336
26 1 0.182343 0.325298 0.302838 0 0 0.00768232
27 1 0.845018 0.533633 0.177803 0 0 0.0516831
28 1 0.626134 0.415577 0.282012 0 0 0.0115659
29 1 0.288823 0.623912 0.156991 0 0 0.081283
30 1 0.519629 0.450298 0.427832 0 0 -0.000581264
31 1 0.956315 0.832043 0.037108 0 0 1.38524
32 1 0.508033 0.741953 0.0531308 0 0 0.133705
33 1 0.637991 0.790578 0.656992 0 0 -0.00768232
34 1 0.864018 0.617167 0.922722 0 0 -1.38524
35 1 0.53151 0.825298 0.802839 0 0 -0.0812826
36 1 0.3123 0.707256 0.906699 0 0 -0.133705
37 1 0.975315 0.915577 0.782027 0 0 -0.0516835
38 1 0.300704 0.665578 0.531998 0 0 0.000581384
39 1 0.963414 0.873911 0.407 0 0 -0.00054574
40 1 0.1942 0.700299 0.677819 0 0 -0.0115653
41 1 0.856919 0.908632 0.552831 0 0 0.000545859
42 1 0.182343 0.658631 0.302838 0 0 0.0076822
43 1 0.845018 0.866966 0.177803 0 0 0.0516833
44 1 0.626134 0.748911 0.282012 0 0 0.011566
45 1 0.288823 0.957245 0.156991 0 0 0.0812826
46 1 0.519629 0.783632 0.427832 0 0 -0.000580668
47 1 0.300704 0.998911 0.531998 0 0 0.000580907
48 1 0.182343 0.991965 0.302838 0 0 0.0076822
ITEM: TIMESTEP
2
ITEM: NUMBER OF ATOMS
48
ITEM: BOX BOUNDS xy xz yz pp pp pp
-5.6318928003311157e+00 8.6109705567359924e+00 2.5110912919044495e+00
-1.0506033897399902e-02 9.6185076832771301e+00 -5.6173359751701355e+00
-2.6944518089294434e-02 1.9544072151184082e+01 3.6519104242324829e-01
ITEM: ATOMS id type xs ys zs fx fy fz
1 1 0.961092 0.165175 0.0422176 0 0 0.412859
2 1 0.508494 0.0752672 0.053624 0 0 0.0920398
3 1 0.637964 0.123913 0.656964 0 0 -0.0129125
4 1 0.859241 0.950701 0.917613 0 0 -0.412858
5 1 0.53123 0.158643 0.802539 0 0 -0.1711
6 1 0.311839 0.0406092 0.906206 0 0 -0.0920399
7 1 0.975137 0.248918 0.781837 0 0 -0.132942
8 1 0.963412 0.207245 0.406998 0 0 -0.000502944
9 1 0.19416 0.033634 0.677776 0 0 -0.0186362
10 1 0.856921 0.241965 0.552833 0 0 0.000503182
11 1 0.845196 0.200292 0.177994 0 0 0.132942
12 1 0.626174 0.0822424 0.282054 0 0 0.0186363
13 1 0.289104 0.290566 0.157291 0 0 0.1711
14 1 0.519627 0.116965 0.42783 0 0 -0.000221133
15 1 0.961092 0.498508 0.0422176 0 0 0.412859
16 1 0.508494 0.408601 0.053624 0 0 0.0920397
17 1 0.637964 0.457246 0.656964 0 0 -0.0129126
18 1 0.859241 0.284035 0.917613 0 0 -0.412858
19 1 0.53123 0.491977 0.802539 0 0 -0.1711
20 1 0.311839 0.373943 0.906206 0 0 -0.0920399
21 1 0.975137 0.582251 0.781837 0 0 -0.132942
22 1 0.300706 0.332245 0.532 0 0 0.000221372
23 1 0.963412 0.540578 0.406998 0 0 -0.000503182
24 1 0.19416 0.366967 0.677776 0 0 -0.0186362
25 1 0.856921 0.575298 0.552833 0 0 0.000503063
26 1 0.182369 0.325297 0.302866 0 0 0.0129126
27 1 0.845196 0.533625 0.177994 0 0 0.132941
28 1 0.626174 0.415576 0.282054 0 0 0.0186362
29 1 0.289104 0.6239 0.157291 0 0 0.1711
30 1 0.519627 0.450298 0.42783 0 0 -0.000221491
31 1 0.961092 0.831842 0.0422176 0 0 0.412859
32 1 0.508494 0.741934 0.053624 0 0 0.0920401
33 1 0.637964 0.790579 0.656964 0 0 -0.0129128
34 1 0.859241 0.617368 0.917613 0 0 -0.412858
35 1 0.53123 0.82531 0.802539 0 0 -0.1711
36 1 0.311839 0.707276 0.906206 0 0 -0.0920396
37 1 0.975137 0.915584 0.781837 0 0 -0.132943
38 1 0.300706 0.665578 0.532 0 0 0.000221372
39 1 0.963412 0.873911 0.406998 0 0 -0.000503182
40 1 0.19416 0.700301 0.677776 0 0 -0.0186361
41 1 0.856921 0.908632 0.552833 0 0 0.000502825
42 1 0.182369 0.65863 0.302866 0 0 0.0129128
43 1 0.845196 0.866959 0.177994 0 0 0.132942
44 1 0.626174 0.748909 0.282054 0 0 0.0186368
45 1 0.289104 0.957233 0.157291 0 0 0.1711
46 1 0.519627 0.783632 0.42783 0 0 -0.000221372
47 1 0.300706 0.998911 0.532 0 0 0.000221252
48 1 0.182369 0.991964 0.302866 0 0 0.012913
ITEM: TIMESTEP
3
ITEM: NUMBER OF ATOMS
48
ITEM: BOX BOUNDS xy xz yz pp pp pp
-5.6318928003311157e+00 8.6109705567359924e+00 2.5110912919044495e+00
-1.0506033897399902e-02 9.6185076832771301e+00 -5.6173359751701355e+00
-2.6944518089294434e-02 1.9544072151184082e+01 3.6519104242324829e-01
ITEM: ATOMS id type xs ys zs fx fy fz
1 1 0.965079 0.165007 0.0464819 0 0 -0.14939
2 1 0.509383 0.0752297 0.0545746 0 0 0.0405988
3 1 0.63784 0.123918 0.656831 0 0 -0.0443004
4 1 0.855255 0.950869 0.913348 0 0 0.14939
5 1 0.529578 0.158713 0.800772 0 0 -0.175726
6 1 0.310951 0.0406467 0.905256 0 0 -0.0405995
7 1 0.973853 0.248972 0.780463 0 0 -0.154843
8 1 0.963408 0.207245 0.406992 0 0 0.0048691
9 1 0.19398 0.0336415 0.677583 0 0 -0.0484005
10 1 0.856926 0.241965 0.552838 0 0 -0.00486946
11 1 0.84648 0.200238 0.179367 0 0 0.154844
12 1 0.626354 0.0822348 0.282247 0 0 0.0484005
13 1 0.290756 0.290497 0.159059 0 0 0.175726
14 1 0.519625 0.116965 0.427828 0 0 0.00635684
15 1 0.965079 0.49834 0.0464819 0 0 -0.14939
16 1 0.509383 0.408563 0.0545746 0 0 0.0405986
17 1 0.63784 0.457251 0.656831 0 0 -0.0443007
18 1 0.855255 0.284203 0.913348 0 0 0.14939
19 1 0.529578 0.492046 0.800772 0 0 -0.175726
20 1 0.310951 0.37398 0.905256 0 0 -0.0405991
21 1 0.973853 0.582305 0.780463 0 0 -0.154844
22 1 0.300708 0.332244 0.532002 0 0 -0.00635648
23 1 0.963408 0.540578 0.406992 0 0 0.0048691
24 1 0.19398 0.366975 0.677583 0 0 -0.0484004
25 1 0.856926 0.575298 0.552838 0 0 -0.00486934
26 1 0.182494 0.325292 0.303 0 0 0.0443008
27 1 0.84648 0.533571 0.179367 0 0 0.154844
28 1 0.626354 0.415568 0.282247 0 0 0.0484003
29 1 0.290756 0.62383 0.159059 0 0 0.175727
30 1 0.519625 0.450299 0.427828 0 0 0.00635672
31 1 0.965079 0.831674 0.0464819 0 0 -0.14939
32 1 0.509383 0.741896 0.0545746 0 0 0.0405989
33 1 0.63784 0.790585 0.656831 0 0 -0.0443006
34 1 0.855255 0.617536 0.913348 0 0 0.14939
35 1 0.529578 0.82538 0.800772 0 0 -0.175726
36 1 0.310951 0.707313 0.905256 0 0 -0.0405993
37 1 0.973853 0.915639 0.780463 0 0 -0.154844
38 1 0.300708 0.665578 0.532002 0 0 -0.00635672
39 1 0.963408 0.873912 0.406992 0 0 0.00486982
40 1 0.19398 0.700308 0.677583 0 0 -0.0483996
41 1 0.856926 0.908632 0.552838 0 0 -0.0048697
42 1 0.182494 0.658625 0.303 0 0 0.0443004
43 1 0.84648 0.866905 0.179367 0 0 0.154844
44 1 0.626354 0.748901 0.282247 0 0 0.0484004
45 1 0.290756 0.957163 0.159059 0 0 0.175726
46 1 0.519625 0.783632 0.427828 0 0 0.00635695
47 1 0.300708 0.998911 0.532002 0 0 -0.00635719
48 1 0.182494 0.991958 0.303 0 0 0.0443004
ITEM: TIMESTEP
4
ITEM: NUMBER OF ATOMS
48
ITEM: BOX BOUNDS xy xz yz pp pp pp
-5.6318928003311157e+00 8.6109705567359924e+00 2.5110912919044495e+00
-1.0506033897399902e-02 9.6185076832771301e+00 -5.6173359751701355e+00
-2.6944518089294434e-02 1.9544072151184082e+01 3.6519104242324829e-01
ITEM: ATOMS id type xs ys zs fx fy fz
1 1 0.965291 0.164998 0.0467091 0 0 -0.0130764
2 1 0.510644 0.0751765 0.0559236 0 0 0.0240356
3 1 0.637029 0.123952 0.655963 0 0 -0.106971
4 1 0.855042 0.950878 0.913121 0 0 0.0130758
5 1 0.525586 0.158881 0.796502 0 0 0.042093
6 1 0.309689 0.0406999 0.903907 0 0 -0.0240357
7 1 0.970451 0.249115 0.776825 0 0 0.0155405
8 1 0.963484 0.207242 0.407074 0 0 0.0225666
9 1 0.193064 0.0336801 0.676604 0 0 -0.101752
10 1 0.856849 0.241968 0.552756 0 0 -0.0225663
11 1 0.849882 0.200094 0.183005 0 0 -0.015541
12 1 0.627269 0.0821962 0.283226 0 0 0.101752
13 1 0.294747 0.290328 0.163328 0 0 -0.0420922
14 1 0.519728 0.116961 0.427938 0 0 0.026544
15 1 0.965291 0.498331 0.0467091 0 0 -0.0130759
16 1 0.510644 0.40851 0.0559236 0 0 0.0240358
17 1 0.637029 0.457285 0.655963 0 0 -0.106971
18 1 0.855042 0.284212 0.913121 0 0 0.0130761
19 1 0.525586 0.492215 0.796502 0 0 0.0420932
20 1 0.309689 0.374033 0.903907 0 0 -0.024036
21 1 0.970451 0.582449 0.776825 0 0 0.0155411
22 1 0.300605 0.332249 0.531892 0 0 -0.026544
23 1 0.963484 0.540575 0.407074 0 0 0.0225668
24 1 0.193064 0.367013 0.676604 0 0 -0.101752
25 1 0.856849 0.575301 0.552756 0 0 -0.0225667
26 1 0.183305 0.325258 0.303867 0 0 0.10697
27 1 0.849882 0.533428 0.183005 0 0 -0.0155406
28 1 0.627269 0.41553 0.283226 0 0 0.101752
29 1 0.294747 0.623662 0.163328 0 0 -0.0420927
30 1 0.519728 0.450294 0.427938 0 0 0.0265439
31 1 0.965291 0.831665 0.0467091 0 0 -0.0130763
32 1 0.510644 0.741843 0.0559236 0 0 0.0240359
33 1 0.637029 0.790619 0.655963 0 0 -0.106971
34 1 0.855042 0.617545 0.913121 0 0 0.0130756
35 1 0.525586 0.825548 0.796502 0 0 0.0420927
36 1 0.309689 0.707367 0.903907 0 0 -0.0240356
37 1 0.970451 0.915782 0.776825 0 0 0.0155412
38 1 0.300605 0.665582 0.531892 0 0 -0.0265435
39 1 0.963484 0.873908 0.407074 0 0 0.0225663
40 1 0.193064 0.700347 0.676604 0 0 -0.101752
41 1 0.856849 0.908635 0.552756 0 0 -0.0225662
42 1 0.183305 0.658591 0.303867 0 0 0.106971
43 1 0.849882 0.866761 0.183005 0 0 -0.0155406
44 1 0.627269 0.748863 0.283226 0 0 0.101751
45 1 0.294747 0.956995 0.163328 0 0 -0.0420923
46 1 0.519728 0.783628 0.427938 0 0 0.026544
47 1 0.300605 0.998916 0.531892 0 0 -0.0265434
48 1 0.183305 0.991924 0.303867 0 0 0.106971
ITEM: TIMESTEP
5
ITEM: NUMBER OF ATOMS
48
ITEM: BOX BOUNDS xy xz yz pp pp pp
-5.6318928003311157e+00 8.6109705567359924e+00 2.5110912919044495e+00
-1.0506033897399902e-02 9.6185076832771301e+00 -5.6173359751701355e+00
-2.6944518089294434e-02 1.9544072151184082e+01 3.6519104242324829e-01
ITEM: ATOMS id type xs ys zs fx fy fz
1 1 0.965084 0.165007 0.0464874 0 0 0.0415282
2 1 0.511621 0.0751353 0.0569688 0 0 -0.0227388
3 1 0.634413 0.124062 0.653165 0 0 0.00524187
4 1 0.85525 0.95087 0.913343 0 0 -0.0415276
5 1 0.52506 0.158903 0.79594 0 0 -0.00653946
6 1 0.308712 0.0407411 0.902861 0 0 0.0227389
7 1 0.969561 0.249153 0.775873 0 0 -0.00981104
8 1 0.964002 0.20722 0.407628 0 0 0.0414325
9 1 0.190524 0.0337873 0.673887 0 0 0.0108789
10 1 0.856331 0.24199 0.552202 0 0 -0.0414324
11 1 0.850772 0.200057 0.183957 0 0 0.00981045
12 1 0.629809 0.0820891 0.285943 0 0 -0.0108787
13 1 0.295273 0.290306 0.16389 0 0 0.00653851
14 1 0.520342 0.116935 0.428595 0 0 0.047495
15 1 0.965084 0.49834 0.0464874 0 0 0.0415279
16 1 0.511621 0.408469 0.0569688 0 0 -0.0227385
17 1 0.634413 0.457396 0.653165 0 0 0.00524151
18 1 0.85525 0.284203 0.913343 0 0 -0.0415279
19 1 0.52506 0.492237 0.79594 0 0 -0.00653934
20 1 0.308712 0.374074 0.902861 0 0 0.0227389
21 1 0.969561 0.582486 0.775873 0 0 -0.00981081
22 1 0.299992 0.332275 0.531236 0 0 -0.047495
23 1 0.964002 0.540553 0.407628 0 0 0.041432
24 1 0.190524 0.367121 0.673887 0 0 0.0108788
25 1 0.856331 0.575323 0.552202 0 0 -0.0414317
26 1 0.185921 0.325147 0.306665 0 0 -0.00524068
27 1 0.850772 0.53339 0.183957 0 0 0.00981057
28 1 0.629809 0.415422 0.285943 0 0 -0.0108783
29 1 0.295273 0.62364 0.16389 0 0 0.00653863
30 1 0.520342 0.450268 0.428595 0 0 0.0474951
31 1 0.965084 0.831673 0.0464874 0 0 0.0415281
32 1 0.511621 0.741802 0.0569689 0 0 -0.0227388
33 1 0.634413 0.790729 0.653165 0 0 0.00524175
34 1 0.85525 0.617536 0.913343 0 0 -0.0415276
35 1 0.52506 0.82557 0.79594 0 0 -0.00653934
36 1 0.308712 0.707408 0.902861 0 0 0.0227393
37 1 0.969561 0.915819 0.775873 0 0 -0.00981128
38 1 0.299992 0.665608 0.531236 0 0 -0.0474955
39 1 0.964002 0.873886 0.407628 0 0 0.041432
40 1 0.190524 0.700454 0.673887 0 0 0.0108783
41 1 0.856331 0.908657 0.552202 0 0 -0.0414324
42 1 0.185921 0.658481 0.306665 0 0 -0.00524116
43 1 0.850772 0.866724 0.183957 0 0 0.00981033
44 1 0.629809 0.748756 0.285943 0 0 -0.0108778
45 1 0.295273 0.956973 0.16389 0 0 0.00653875
46 1 0.520342 0.783602 0.428595 0 0 0.0474946
47 1 0.299992 0.998941 0.531236 0 0 -0.0474954
48 1 0.185921 0.991814 0.306665 0 0 -0.00524163
ITEM: TIMESTEP
6
ITEM: NUMBER OF ATOMS
48
ITEM: BOX BOUNDS xy xz yz pp pp pp
-5.6318928003311157e+00 8.6109705567359924e+00 2.5110912919044495e+00
-1.0506033897399902e-02 9.6185076832771301e+00 -5.6173359751701355e+00
-2.6944518089294434e-02 1.9544072151184082e+01 3.6519104242324829e-01
ITEM: ATOMS id type xs ys zs fx fy fz
1 1 0.965549 0.164987 0.0469847 0 0 -0.0102851
2 1 0.511505 0.0751402 0.0568448 0 0 -0.0104464
3 1 0.634056 0.124078 0.652783 0 0 0.00278413
4 1 0.854785 0.950889 0.912845 0 0 0.0102849
5 1 0.524897 0.15891 0.795766 0 0 -0.0150682
6 1 0.308828 0.0407362 0.902985 0 0 0.0104469
7 1 0.969301 0.249164 0.775594 0 0 -0.0105971
8 1 0.964582 0.207195 0.408249 0 0 0.000268221
9 1 0.190247 0.0337989 0.673591 0 0 0.00470686
10 1 0.855751 0.242014 0.551581 0 0 -0.00026834
11 1 0.851033 0.200046 0.184236 0 0 0.0105981
12 1 0.630086 0.0820774 0.286239 0 0 -0.0047071
13 1 0.295436 0.290299 0.164065 0 0 0.0150679
14 1 0.52101 0.116907 0.429309 0 0 0.00372052
15 1 0.965549 0.49832 0.0469847 0 0 -0.0102854
16 1 0.511505 0.408474 0.0568448 0 0 -0.010447
17 1 0.634056 0.457411 0.652783 0 0 0.00278401
18 1 0.854785 0.284223 0.912845 0 0 0.0102848
19 1 0.524897 0.492244 0.795766 0 0 -0.0150682
20 1 0.308828 0.37407 0.902985 0 0 0.0104471
21 1 0.969301 0.582497 0.775594 0 0 -0.0105977
22 1 0.299323 0.332303 0.530521 0 0 -0.00372052
23 1 0.964582 0.540529 0.408249 0 0 0.000268102
24 1 0.190247 0.367132 0.673591 0 0 0.00470686
25 1 0.855751 0.575348 0.551581 0 0 -0.00026834
26 1 0.186278 0.325132 0.307047 0 0 -0.00278366
27 1 0.851033 0.533379 0.184236 0 0 0.0105979
28 1 0.630086 0.415411 0.286239 0 0 -0.0047071
29 1 0.295436 0.623633 0.164065 0 0 0.0150682
30 1 0.52101 0.45024 0.429309 0 0 0.00372064
31 1 0.965549 0.831654 0.0469847 0 0 -0.0102851
32 1 0.511505 0.741807 0.0568448 0 0 -0.0104468
33 1 0.634056 0.790744 0.652783 0 0 0.00278401
34 1 0.854785 0.617556 0.912845 0 0 0.0102853
35 1 0.524897 0.825577 0.795766 0 0 -0.0150681
36 1 0.308828 0.707403 0.902985 0 0 0.0104464
37 1 0.969301 0.91583 0.775594 0 0 -0.0105973
38 1 0.299323 0.665636 0.530521 0 0 -0.00372112
39 1 0.964582 0.873862 0.408249 0 0 0.00026834
40 1 0.190247 0.700466 0.673591 0 0 0.0047071
41 1 0.855751 0.908681 0.551581 0 0 -0.000268221
42 1 0.186278 0.658466 0.307047 0 0 -0.00278389
43 1 0.851033 0.866713 0.184236 0 0 0.0105976
44 1 0.630086 0.748744 0.286239 0 0 -0.00470722
45 1 0.295436 0.956966 0.164065 0 0 0.0150679
46 1 0.52101 0.783573 0.429309 0 0 0.00372052
47 1 0.299323 0.99897 0.530521 0 0 -0.0037204
48 1 0.186278 0.991799 0.307047 0 0 -0.00278401
ITEM: TIMESTEP
7
ITEM: NUMBER OF ATOMS
48
ITEM: BOX BOUNDS xy xz yz pp pp pp
-5.6318928003311157e+00 8.6109705567359924e+00 2.5110912919044495e+00
-1.0506033897399902e-02 9.6185076832771301e+00 -5.6173359751701355e+00
-2.6944518089294434e-02 1.9544072151184082e+01 3.6519104242324829e-01
ITEM: ATOMS id type xs ys zs fx fy fz
1 1 0.96547 0.16499 0.0469005 0 0 0.00501716
2 1 0.511401 0.0751446 0.0567339 0 0 -0.000638723
3 1 0.634068 0.124077 0.652796 0 0 -0.00246477
4 1 0.854863 0.950886 0.91293 0 0 -0.0050174
5 1 0.524748 0.158917 0.795606 0 0 -0.0029006
6 1 0.308932 0.0407318 0.903096 0 0 0.000638962
7 1 0.96919 0.249168 0.775475 0 0 -0.000971556
8 1 0.964608 0.207194 0.408277 0 0 -0.00290418
9 1 0.19028 0.0337975 0.673626 0 0 -0.00163174
10 1 0.855725 0.242015 0.551553 0 0 0.0029037
11 1 0.851143 0.200041 0.184355 0 0 0.000971556
12 1 0.630053 0.0820788 0.286204 0 0 0.00163186
13 1 0.295585 0.290293 0.164224 0 0 0.0029006
14 1 0.521072 0.116904 0.429376 0 0 -0.00113308
15 1 0.96547 0.498324 0.0469005 0 0 0.00501728
16 1 0.511401 0.408478 0.0567339 0 0 -0.000638843
17 1 0.634068 0.45741 0.652796 0 0 -0.00246465
18 1 0.854863 0.284219 0.91293 0 0 -0.00501704
19 1 0.524748 0.49225 0.795606 0 0 -0.00290096
20 1 0.308932 0.374065 0.903096 0 0 0.000638962
21 1 0.96919 0.582502 0.775475 0 0 -0.000971675
22 1 0.299261 0.332306 0.530454 0 0 0.00113332
23 1 0.964608 0.540528 0.408277 0 0 -0.00290358
24 1 0.19028 0.367131 0.673626 0 0 -0.00163186
25 1 0.855725 0.575349 0.551554 0 0 0.0029037
26 1 0.186266 0.325133 0.307034 0 0 0.00246453
27 1 0.851143 0.533375 0.184355 0 0 0.000971437
28 1 0.630053 0.415412 0.286204 0 0 0.00163186
29 1 0.295585 0.623626 0.164224 0 0 0.0029006
30 1 0.521072 0.450238 0.429376 0 0 -0.00113308
31 1 0.96547 0.831657 0.0469005 0 0 0.00501728
32 1 0.511401 0.741811 0.0567339 0 0 -0.000638843
33 1 0.634068 0.790744 0.652796 0 0 -0.00246477
34 1 0.854863 0.617553 0.91293 0 0 -0.00501704
35 1 0.524748 0.825583 0.795606 0 0 -0.00290048
36 1 0.308932 0.707398 0.903096 0 0 0.000638843
37 1 0.96919 0.915835 0.775475 0 0 -0.000971675
38 1 0.299261 0.665639 0.530454 0 0 0.00113332
39 1 0.964608 0.873861 0.408277 0 0 -0.00290334
40 1 0.19028 0.700464 0.673626 0 0 -0.00163174
41 1 0.855725 0.908682 0.551553 0 0 0.00290358
42 1 0.186266 0.658466 0.307034 0 0 0.00246441
43 1 0.851143 0.866708 0.184355 0 0 0.000971675
44 1 0.630053 0.748745 0.286204 0 0 0.00163174
45 1 0.295585 0.95696 0.164224 0 0 0.00290048
46 1 0.521072 0.783571 0.429376 0 0 -0.00113285
47 1 0.299261 0.998972 0.530454 0 0 0.00113297
48 1 0.186266 0.991799 0.307034 0 0 0.00246465
ITEM: TIMESTEP
8
ITEM: NUMBER OF ATOMS
48
ITEM: BOX BOUNDS xy xz yz pp pp pp
-5.6318928003311157e+00 8.6109705567359924e+00 2.5110912919044495e+00
-1.0506033897399902e-02 9.6185076832771301e+00 -5.6173359751701355e+00
-2.6944518089294434e-02 1.9544072151184082e+01 3.6519104242324829e-01
ITEM: ATOMS id type xs ys zs fx fy fz
1 1 0.965532 0.164988 0.0469663 0 0 -0.000715017
2 1 0.511375 0.0751457 0.0567052 0 0 0.00216889
3 1 0.634033 0.124078 0.652759 0 0 -0.00136495
4 1 0.854802 0.950888 0.912864 0 0 0.000715375
5 1 0.52468 0.158919 0.795533 0 0 -0.000503898
6 1 0.308959 0.0407307 0.903125 0 0 -0.00216877
7 1 0.969157 0.24917 0.77544 0 0 -0.000553966
8 1 0.964569 0.207196 0.408235 0 0 0.00052762
9 1 0.190262 0.0337983 0.673606 0 0 -0.00134099
10 1 0.855764 0.242014 0.551595 0 0 -0.000527143
11 1 0.851177 0.20004 0.18439 0 0 0.000553966
12 1 0.630072 0.082078 0.286224 0 0 0.00134087
13 1 0.295654 0.29029 0.164297 0 0 0.000503898
14 1 0.521066 0.116904 0.429369 0 0 0.000735044
15 1 0.965532 0.498321 0.0469663 0 0 -0.000715137
16 1 0.511375 0.408479 0.0567051 0 0 0.00216866
17 1 0.634033 0.457412 0.652759 0 0 -0.00136483
18 1 0.854802 0.284222 0.912864 0 0 0.000714898
19 1 0.52468 0.492253 0.795533 0 0 -0.000503659
20 1 0.308959 0.374064 0.903125 0 0 -0.00216877
21 1 0.969157 0.582503 0.77544 0 0 -0.000553966
22 1 0.299268 0.332305 0.530461 0 0 -0.000735044
23 1 0.964569 0.540529 0.408235 0 0 0.00052762
24 1 0.190262 0.367132 0.673606 0 0 -0.00134087
25 1 0.855764 0.575347 0.551595 0 0 -0.00052762
26 1 0.1863 0.325131 0.307071 0 0 0.00136483
27 1 0.851177 0.533373 0.18439 0 0 0.000553966
28 1 0.630072 0.415411 0.286224 0 0 0.00134087
29 1 0.295654 0.623624 0.164297 0 0 0.000503778
30 1 0.521066 0.450238 0.429369 0 0 0.000735164
31 1 0.965532 0.831655 0.0469663 0 0 -0.000715137
32 1 0.511375 0.741812 0.0567052 0 0 0.00216877
33 1 0.634033 0.790745 0.652759 0 0 -0.00136471
34 1 0.854802 0.617555 0.912864 0 0 0.000715017
35 1 0.52468 0.825586 0.795533 0 0 -0.000503778
36 1 0.308959 0.707397 0.903125 0 0 -0.00216877
37 1 0.969157 0.915837 0.77544 0 0 -0.000554204
38 1 0.299268 0.665639 0.530461 0 0 -0.000735044
39 1 0.964569 0.873863 0.408235 0 0 0.000526905
40 1 0.190262 0.700465 0.673606 0 0 -0.00134075
41 1 0.855764 0.90868 0.551595 0 0 -0.000527382
42 1 0.1863 0.658465 0.307071 0 0 0.00136507
43 1 0.851177 0.866706 0.18439 0 0 0.000553727
44 1 0.630072 0.748745 0.286224 0 0 0.00134099
45 1 0.295654 0.956957 0.164297 0 0 0.000503778
46 1 0.521066 0.783571 0.429369 0 0 0.000735164
47 1 0.299268 0.998972 0.530461 0 0 -0.000735402
48 1 0.1863 0.991798 0.307071 0 0 0.00136495
ITEM: TIMESTEP
9
ITEM: NUMBER OF ATOMS
48
ITEM: BOX BOUNDS xy xz yz pp pp pp
-5.6318928003311157e+00 8.6109705567359924e+00 2.5110912919044495e+00
-1.0506033897399902e-02 9.6185076832771301e+00 -5.6173359751701355e+00
-2.6944518089294434e-02 1.9544072151184082e+01 3.6519104242324829e-01
ITEM: ATOMS id type xs ys zs fx fy fz
1 1 0.965533 0.164988 0.0469682 0 0 0.000307918
2 1 0.511427 0.0751435 0.0567614 0 0 -0.00060451
3 1 0.633981 0.124081 0.652703 0 0 0.000213861
4 1 0.8548 0.950889 0.912862 0 0 -0.000308752
5 1 0.524641 0.158921 0.795491 0 0 2.88486e-05
6 1 0.308906 0.0407329 0.903069 0 0 0.00060463
7 1 0.969129 0.249171 0.77541 0 0 -0.00094974
8 1 0.96457 0.207196 0.408236 0 0 0.00139034
9 1 0.190216 0.0338002 0.673558 0 0 1.96695e-05
10 1 0.855763 0.242014 0.551594 0 0 -0.0013907
11 1 0.851204 0.200039 0.18442 0 0 0.00094986
12 1 0.630117 0.0820761 0.286272 0 0 -1.9908e-05
13 1 0.295693 0.290289 0.164339 0 0 -2.92063e-05
14 1 0.521085 0.116904 0.429389 0 0 0.000851393
15 1 0.965533 0.498321 0.0469682 0 0 0.000308394
16 1 0.511427 0.408477 0.0567614 0 0 -0.00060451
17 1 0.633981 0.457414 0.652703 0 0 0.000213504
18 1 0.8548 0.284222 0.912862 0 0 -0.000307798
19 1 0.524641 0.492254 0.795491 0 0 2.8491e-05
20 1 0.308906 0.374066 0.903069 0 0 0.00060451
21 1 0.969129 0.582504 0.77541 0 0 -0.000950098
22 1 0.299249 0.332306 0.530441 0 0 -0.00085175
23 1 0.96457 0.540529 0.408236 0 0 0.00138998
24 1 0.190216 0.367134 0.673558 0 0 1.96695e-05
25 1 0.855763 0.575347 0.551594 0 0 -0.00138986
26 1 0.186352 0.325129 0.307127 0 0 -0.000213027
27 1 0.851204 0.533372 0.18442 0 0 0.000949502
28 1 0.630117 0.415409 0.286272 0 0 -1.97887e-05
29 1 0.295693 0.623622 0.164339 0 0 -2.88486e-05
30 1 0.521085 0.450237 0.429389 0 0 0.000851512
31 1 0.965533 0.831654 0.0469682 0 0 0.000308275
32 1 0.511427 0.74181 0.0567614 0 0 -0.000604868
33 1 0.633981 0.790747 0.652703 0 0 0.000213146
34 1 0.8548 0.617555 0.912862 0 0 -0.000307918
35 1 0.524641 0.825588 0.795491 0 0 2.86102e-05
36 1 0.308906 0.7074 0.903069 0 0 0.000604868
37 1 0.969129 0.915838 0.77541 0 0 -0.000949264
38 1 0.299249 0.665639 0.530441 0 0 -0.000851512
39 1 0.96457 0.873862 0.408236 0 0 0.00139105
40 1 0.190216 0.700467 0.673558 0 0 1.93119e-05
41 1 0.855763 0.908681 0.551594 0 0 -0.00139022
42 1 0.186352 0.658462 0.307127 0 0 -0.000213742
43 1 0.851204 0.866705 0.18442 0 0 0.000950217
44 1 0.630117 0.748743 0.286272 0 0 -1.96695e-05
45 1 0.295693 0.956955 0.164339 0 0 -2.86102e-05
46 1 0.521085 0.78357 0.429389 0 0 0.000851154
47 1 0.299249 0.998973 0.530441 0 0 -0.000850916
48 1 0.186352 0.991796 0.307127 0 0 -0.000213504
ITEM: TIMESTEP
10
ITEM: NUMBER OF ATOMS
48
ITEM: BOX BOUNDS xy xz yz pp pp pp
-5.6318928003311157e+00 8.6109705567359924e+00 2.5110912919044495e+00
-1.0506033897399902e-02 9.6185076832771301e+00 -5.6173359751701355e+00
-2.6944518089294434e-02 1.9544072151184082e+01 3.6519104242324829e-01
ITEM: ATOMS id type xs ys zs fx fy fz
1 1 0.965538 0.164988 0.0469735 0 0 0.000188589
2 1 0.511429 0.0751434 0.0567633 0 0 -0.000401139
3 1 0.633974 0.124081 0.652696 0 0 -0.000248551
4 1 0.854795 0.950889 0.912857 0 0 -0.000188112
5 1 0.524633 0.158921 0.795483 0 0 0.000102043
6 1 0.308904 0.040733 0.903067 0 0 0.000401497
7 1 0.969109 0.249172 0.775389 0 0 -0.000139475
8 1 0.964591 0.207195 0.408258 0 0 -6.69956e-05
9 1 0.190207 0.0338006 0.673548 0 0 -0.000306726
10 1 0.855742 0.242015 0.551572 0 0 6.67572e-05
11 1 0.851224 0.200038 0.184441 0 0 0.000139236
12 1 0.630126 0.0820758 0.286282 0 0 0.000306845
13 1 0.2957 0.290288 0.164347 0 0 -0.000101447
14 1 0.521101 0.116903 0.429407 0 0 -0.000326514
15 1 0.965538 0.498321 0.0469735 0 0 0.000188112
16 1 0.511429 0.408477 0.0567632 0 0 -0.000400782
17 1 0.633974 0.457414 0.652696 0 0 -0.000248432
18 1 0.854795 0.284222 0.912857 0 0 -0.000188708
19 1 0.524633 0.492255 0.795483 0 0 0.000102282
20 1 0.308904 0.374066 0.903067 0 0 0.000400901
21 1 0.969109 0.582505 0.775389 0 0 -0.00013876
22 1 0.299232 0.332307 0.530423 0 0 0.000326395
23 1 0.964591 0.540528 0.408258 0 0 -6.67572e-05
24 1 0.190207 0.367134 0.673548 0 0 -0.000306964
25 1 0.855742 0.575348 0.551572 0 0 6.69956e-05
26 1 0.18636 0.325129 0.307135 0 0 0.000248075
27 1 0.851224 0.533371 0.184441 0 0 0.000139475
28 1 0.630126 0.415409 0.286282 0 0 0.000307202
29 1 0.2957 0.623622 0.164347 0 0 -0.000101924
30 1 0.521101 0.450236 0.429407 0 0 -0.000326633
31 1 0.965538 0.831654 0.0469735 0 0 0.000187993
32 1 0.511429 0.74181 0.0567633 0 0 -0.00040102
33 1 0.633974 0.790748 0.652696 0 0 -0.000248432
34 1 0.854795 0.617555 0.912857 0 0 -0.000189066
35 1 0.524633 0.825588 0.795483 0 0 0.000101805
36 1 0.308905 0.7074 0.903067 0 0 0.000400662
37 1 0.969109 0.915839 0.775389 0 0 -0.000139236
38 1 0.299232 0.66564 0.530423 0 0 0.000326276
39 1 0.964591 0.873862 0.408258 0 0 -6.67572e-05
40 1 0.190207 0.700467 0.673548 0 0 -0.000306845
41 1 0.855742 0.908681 0.551572 0 0 6.69956e-05
42 1 0.18636 0.658462 0.307135 0 0 0.000248313
43 1 0.851224 0.866704 0.184441 0 0 0.000139713
44 1 0.630126 0.748742 0.286282 0 0 0.000306726
45 1 0.2957 0.956955 0.164347 0 0 -0.000101686
46 1 0.521101 0.78357 0.429407 0 0 -0.000326395
47 1 0.299232 0.998973 0.530423 0 0 0.000326633
48 1 0.18636 0.991795 0.307135 0 0 0.000247836
ITEM: TIMESTEP
11
ITEM: NUMBER OF ATOMS
48
ITEM: BOX BOUNDS xy xz yz pp pp pp
-5.6318928003311157e+00 8.6109705567359924e+00 2.5110912919044495e+00
-1.0506033897399902e-02 9.6185076832771301e+00 -5.6173359751701355e+00
-2.6944518089294434e-02 1.9544072151184082e+01 3.6519104242324829e-01
ITEM: ATOMS id type xs ys zs fx fy fz
1 1 0.965541 0.164987 0.0469768 0 0 -0.000130057
2 1 0.511424 0.0751436 0.0567576 0 0 7.39098e-06
3 1 0.63397 0.124081 0.652691 0 0 -3.96967e-05
4 1 0.854792 0.950889 0.912853 0 0 0.0001297
5 1 0.524634 0.158921 0.795483 0 0 -8.66652e-05
6 1 0.30891 0.0407327 0.903073 0 0 -7.7486e-06
7 1 0.969105 0.249172 0.775385 0 0 -3.21865e-06
8 1 0.964593 0.207195 0.40826 0 0 1.3113e-06
9 1 0.190202 0.0338008 0.673543 0 0 -3.69549e-05
10 1 0.855741 0.242015 0.55157 0 0 -1.3113e-06
11 1 0.851228 0.200038 0.184445 0 0 3.45707e-06
12 1 0.630131 0.0820755 0.286287 0 0 3.73125e-05
13 1 0.2957 0.290288 0.164347 0 0 8.67844e-05
14 1 0.521098 0.116903 0.429404 0 0 -4.25577e-05
15 1 0.965541 0.498321 0.0469768 0 0 -0.000130057
16 1 0.511424 0.408477 0.0567576 0 0 7.39098e-06
17 1 0.63397 0.457414 0.652691 0 0 -3.93391e-05
18 1 0.854792 0.284222 0.912853 0 0 0.000129938
19 1 0.524634 0.492255 0.795483 0 0 -8.65459e-05
20 1 0.30891 0.374066 0.903073 0 0 -6.91414e-06
21 1 0.969105 0.582505 0.775385 0 0 -4.05312e-06
22 1 0.299235 0.332307 0.530426 0 0 4.24385e-05
23 1 0.964593 0.540528 0.40826 0 0 1.19209e-06
24 1 0.190202 0.367134 0.673543 0 0 -3.69549e-05
25 1 0.855741 0.575348 0.55157 0 0 -1.3113e-06
26 1 0.186364 0.325129 0.307139 0 0 3.94583e-05
27 1 0.851228 0.533371 0.184445 0 0 3.21865e-06
28 1 0.630131 0.415409 0.286287 0 0 3.69549e-05
29 1 0.2957 0.623622 0.164347 0 0 8.65459e-05