ITEM: TIMESTEP
0
ITEM: NUMBER OF ATOMS
56
ITEM: BOX BOUNDS xy xz yz pp pp pp
-2.3841817132662952e+00 1.2163911692441133e+01 1.5526132515564727e-08
-3.0061665652343075e-03 5.5294143007778995e+00 -2.4053698946513227e+00
7.7232233150646462e-04 1.9019187752468508e+01 2.1812666742635317e-08
ITEM: ATOMS id type xs ys zs fx fy fz
1 1 0.576688 3.09294e-05 0.132367 0 0.0167829 0.70234
2 1 0.326689 0.166637 0.132367 0 -0.0168023 0.702348
3 1 0.24282 1.50434e-05 0.275226 0 -0.00482563 0.00395353
4 1 0.99282 0.166653 0.275226 0 0.00481571 0.00395501
5 1 0.908898 1.01858e-05 0.418082 0 -0.000902966 0.000159443
6 1 0.0766887 3.06084e-05 0.132367 0 0.0167911 0.702346
7 1 0.993596 0.500062 0.06094 0 0.154372 0.763249
8 1 0.82669 0.166637 0.132367 0 -0.0167939 0.702349
9 1 0.743597 0.666605 0.06094 0 -0.154361 0.763294
10 1 0.742821 1.49384e-05 0.275226 0 -0.00482165 0.00395883
11 1 0.658897 0.166657 0.418083 0 0.000907728 0.000158034
12 1 0.574966 1.60347e-05 0.560942 0 -0.0010631 -5.91611e-05
13 1 0.324967 0.166652 0.560941 0 0.00104526 -4.55458e-05
14 1 0.241042 1.61665e-05 0.703801 0 -0.00184537 0.00230158
15 1 0.991042 0.166652 0.703801 0 0.00181861 0.00229176
16 1 0.907131 1.72772e-05 0.846652 0 -0.0154863 -0.024902
17 1 0.65977 0.500017 0.203801 0 -0.0154735 0.0249124
18 1 0.49282 0.166653 0.275226 0 0.00479715 0.00395437
19 1 0.409772 0.66665 0.203801 0 0.0154895 0.0249147
20 1 0.408898 1.09165e-05 0.418082 0 -0.000923518 0.000164433
21 1 0.32586 0.500016 0.346652 0 -0.00183162 -0.00229528
22 1 0.158898 0.166657 0.418082 0 0.000910501 0.000162654
23 1 0.0758598 0.666651 0.346652 0 0.00184334 -0.00230336
24 1 0.0749668 1.5722e-05 0.560941 0 -0.00105336 -4.2453e-05
25 1 0.991934 0.500016 0.489511 0 -0.00105046 4.35179e-05
26 1 0.824968 0.166652 0.560941 0 0.00104602 -2.88677e-05
27 1 0.741935 0.666651 0.489511 0 0.00105402 5.13604e-05
28 1 0.493596 0.500061 0.0609401 0 0.154393 0.763261
29 1 0.243596 0.666605 0.06094 0 -0.154372 0.763269
30 1 0.159771 0.500017 0.203801 0 -0.0154741 0.0249163
31 1 0.909772 0.66665 0.203801 0 0.0154706 0.0249169
32 1 0.825861 0.500016 0.346652 0 -0.00184294 -0.00230309
33 1 0.65713 0.16665 0.846652 0 0.015481 -0.0249295
34 1 0.573306 6.23935e-05 0.989513 0 0.154363 -0.763247
35 1 0.323306 0.166605 0.989513 0 -0.154384 -0.76327
36 1 0.741041 1.60929e-05 0.703801 0 -0.00184356 0.00229599
37 1 0.658002 0.50001 0.632371 0 -0.000908872 -0.000182691
38 1 0.491042 0.166651 0.703801 0 0.00183641 0.00230445
39 1 0.408003 0.666656 0.63237 0 0.00091703 -0.000167861
40 1 0.40713 1.72431e-05 0.846652 0 -0.0154845 -0.0249168
41 1 0.324081 0.500015 0.775227 0 -0.00481286 -0.00395196
42 1 0.15713 0.16665 0.846652 0 0.0154705 -0.0249145
43 1 0.074081 0.666652 0.775227 0 0.00482788 -0.00395562
44 1 0.0733059 6.17797e-05 0.989513 0 0.154383 -0.763266
45 1 0.990214 0.50003 0.918085 0 0.0167954 -0.702321
46 1 0.575859 0.666651 0.346652 0 0.00185201 -0.00229322
47 1 0.491934 0.500015 0.489511 0 -0.00102927 5.09892e-05
48 1 0.241934 0.666651 0.489511 0 0.00105587 4.58694e-05
49 1 0.158003 0.500011 0.63237 0 -0.000908321 -0.000166436
50 1 0.908004 0.666656 0.63237 0 0.000926849 -0.000154613
51 1 0.824082 0.500015 0.775227 0 -0.00481113 -0.00394738
52 1 0.823305 0.166605 0.989513 0 -0.15437 -0.763277
53 1 0.740212 0.666636 0.918086 0 -0.016792 -0.702382
54 1 0.574081 0.666653 0.775227 0 0.00481053 -0.00394524
55 1 0.490213 0.50003 0.918085 0 0.0168022 -0.702347
56 1 0.240213 0.666636 0.918085 0 -0.0167898 -0.702352
ITEM: TIMESTEP
9
ITEM: NUMBER OF ATOMS
56
ITEM: BOX BOUNDS xy xz yz pp pp pp
-2.3841817132662952e+00 1.2163911692441133e+01 1.5526132515564727e-08
-3.0061665652343075e-03 5.5294143007778995e+00 -2.4053698946513227e+00
7.7232233150646462e-04 1.9019187752468508e+01 2.1812666742635317e-08
ITEM: ATOMS id type xs ys zs fx fy fz
1 1 0.578245 0.00138437 0.140226 0 0.000122472 0.000124517
2 1 0.328245 0.165283 0.140226 0 -0.000121725 0.000124202
3 1 0.243764 -0.00255663 0.279992 0 -3.47598e-05 -6.86858e-05
4 1 0.993764 0.169223 0.279992 0 3.47138e-05 -7.26078e-05
5 1 0.909297 -0.00195998 0.420095 0 3.37258e-05 -7.95135e-05
6 1 0.0782453 0.00138369 0.140226 0 0.000121694 0.00012663
7 1 0.995033 0.50543 0.0681972 0 7.10408e-05 -7.3119e-05
8 1 0.828246 0.165283 0.140226 0 -0.000122736 0.000127668
9 1 0.745035 0.661238 0.0681972 0 -7.01296e-05 -7.58497e-05
10 1 0.743765 -0.00255658 0.279992 0 -3.4793e-05 -7.07255e-05
11 1 0.659296 0.168628 0.420095 0 -3.24105e-05 -7.77816e-05
12 1 0.57486 -0.00187579 0.560404 0 0.000119638 2.35533e-05
13 1 0.32486 0.168543 0.560404 0 -0.000118625 2.33615e-05
14 1 0.240451 -0.00199126 0.700817 0 -1.1983e-05 5.59861e-05
15 1 0.990451 0.168657 0.700817 0 1.10732e-05 5.5833e-05
16 1 0.906078 -0.00211655 0.841337 0 3.71365e-05 -8.75123e-06
17 1 0.660823 0.497883 0.209116 0 3.63028e-05 1.1594e-05
18 1 0.493764 0.169223 0.279992 0 3.42383e-05 -7.12593e-05
19 1 0.410824 0.668784 0.209116 0 -3.66335e-05 1.09617e-05
20 1 0.409297 -0.00196022 0.420095 0 3.39727e-05 -8.04281e-05
21 1 0.326451 0.498009 0.349636 0 -1.14866e-05 -5.59671e-05
22 1 0.159297 0.168628 0.420095 0 -3.44645e-05 -7.88956e-05
23 1 0.0764508 0.668658 0.349636 0 1.15627e-05 -5.7515e-05
24 1 0.0748604 -0.00187579 0.560404 0 0.000120358 2.21314e-05
25 1 0.992041 0.498124 0.490049 0 0.000119166 -2.13813e-05
26 1 0.824861 0.168543 0.560404 0 -0.000119708 2.17289e-05
27 1 0.742042 0.668543 0.490049 0 -0.000120309 -2.33718e-05
28 1 0.495033 0.505431 0.068197 0 7.10616e-05 -7.28246e-05
29 1 0.245034 0.661237 0.0681972 0 -7.06912e-05 -7.87631e-05
30 1 0.160824 0.497883 0.209116 0 3.53964e-05 1.1332e-05
31 1 0.910824 0.668783 0.209116 0 -3.59801e-05 1.06621e-05
32 1 0.826452 0.498009 0.349636 0 -1.07031e-05 -5.60532e-05
33 1 0.656077 0.168784 0.841336 0 -3.68077e-05 -1.06642e-05
34 1 0.571868 0.00543004 0.982256 0 7.0712e-05 7.5011e-05
35 1 0.321868 0.161237 0.982256 0 -7.11553e-05 7.53668e-05
36 1 0.74045 -0.00199126 0.700817 0 -1.24053e-05 5.75731e-05
37 1 0.657604 0.498039 0.630358 0 3.5025e-05 7.91951e-05
38 1 0.490451 0.168658 0.700817 0 1.08207e-05 5.74515e-05
39 1 0.407605 0.668627 0.630358 0 -3.45703e-05 7.98382e-05
40 1 0.406077 -0.00211689 0.841337 0 3.60822e-05 -1.17267e-05
41 1 0.323137 0.497443 0.770461 0 -3.44955e-05 6.78388e-05
42 1 0.156077 0.168784 0.841337 0 -3.61961e-05 -1.03854e-05
43 1 0.0731369 0.669223 0.770461 0 3.36386e-05 7.01692e-05
44 1 0.0718684 0.00543082 0.982256 0 7.08316e-05 7.4006e-05
45 1 0.988657 0.501385 0.910228 0 0.000122745 -0.000128584
46 1 0.57645 0.668658 0.349636 0 1.07887e-05 -5.70653e-05
47 1 0.492041 0.498125 0.490049 0 0.000119048 -2.38491e-05
48 1 0.242041 0.668543 0.490049 0 -0.000119941 -2.35638e-05
49 1 0.157605 0.498039 0.630358 0 3.41171e-05 8.25648e-05
50 1 0.907605 0.668627 0.630358 0 -3.38309e-05 7.77477e-05
51 1 0.823138 0.497443 0.770461 0 -3.44914e-05 7.23502e-05
52 1 0.821867 0.161238 0.982255 0 -7.10415e-05 7.1288e-05
53 1 0.738655 0.665283 0.910227 0 -0.000122058 -0.000124848
54 1 0.573137 0.669223 0.770461 0 3.52981e-05 7.19639e-05
55 1 0.488656 0.501384 0.910227 0 0.000122898 -0.000128268
56 1 0.238656 0.665283 0.910227 0 -0.000121576 -0.000120281
