ITEM: TIMESTEP
0
ITEM: NUMBER OF ATOMS
48
ITEM: BOX BOUNDS xy xz yz pp pp pp
-5.9368867874145508e+00 8.6109705567359924e+00 2.5110912919044495e+00
-1.0506033897399902e-02 9.6185076832771301e+00 -5.9223299622535706e+00
-2.6944518089294434e-02 1.9544072151184082e+01 3.6519104242324829e-01
ITEM: ATOMS id type xs ys zs fx fy fz
1 1 0.953134 0.165578 0.0319985 0 0 2.22341
2 1 0.510389 0.0752984 0.0528317 0 0 0.225902
3 1 0.670768 0.123911 0.656998 0 0 -0.0023694
4 1 0.915076 0.950298 0.927832 0 0 -2.22341
5 1 0.57155 0.158632 0.802832 0 0 0.00561368
6 1 0.357822 0.040578 0.906998 0 0 -0.225902
7 1 0.0142951 0.248911 0.781998 0 0 0.0159791
8 1 0.983715 0.207245 0.406998 0 0 0.000330806
9 1 0.228023 0.0336318 0.677832 0 0 -0.00594902
10 1 0.884496 0.241965 0.552832 0 0 -0.000330448
11 1 0.853916 0.200298 0.177832 0 0 -0.0159791
12 1 0.640188 0.0822446 0.281998 0 0 0.00594914
13 1 0.296661 0.290578 0.156998 0 0 -0.00561357
14 1 0.540969 0.116965 0.427832 0 0 0.000289679
15 1 0.953134 0.498911 0.0319984 0 0 2.22342
16 1 0.510389 0.408632 0.0528317 0 0 0.225902
17 1 0.670768 0.457245 0.656998 0 0 -0.00236976
18 1 0.915076 0.283632 0.927832 0 0 -2.22341
19 1 0.57155 0.491965 0.802832 0 0 0.00561368
20 1 0.357822 0.373911 0.906998 0 0 -0.225902
21 1 0.0142951 0.582245 0.781998 0 0 0.0159787
22 1 0.327241 0.332245 0.531998 0 0 -0.000288606
23 1 0.983715 0.540578 0.406998 0 0 0.000330806
24 1 0.228023 0.366965 0.677832 0 0 -0.00594902
25 1 0.884496 0.575298 0.552832 0 0 -0.000330925
26 1 0.197442 0.325298 0.302832 0 0 0.00236917
27 1 0.853916 0.533632 0.177832 0 0 -0.0159792
28 1 0.640188 0.415578 0.281998 0 0 0.00594902
29 1 0.296661 0.623911 0.156998 0 0 -0.00561368
30 1 0.540969 0.450298 0.427832 0 0 0.000289083
31 1 0.953134 0.832245 0.0319985 0 0 2.22341
32 1 0.510389 0.741965 0.0528317 0 0 0.225902
33 1 0.670768 0.790578 0.656998 0 0 -0.0023694
34 1 0.915076 0.616965 0.927832 0 0 -2.22342
35 1 0.57155 0.825298 0.802832 0 0 0.0056138
36 1 0.357822 0.707245 0.906998 0 0 -0.225902
37 1 0.0142951 0.915578 0.781998 0 0 0.0159786
38 1 0.327241 0.665578 0.531998 0 0 -0.000289917
39 1 0.983715 0.873911 0.406998 0 0 0.000331044
40 1 0.228023 0.700298 0.677832 0 0 -0.00594831
41 1 0.884496 0.908632 0.552832 0 0 -0.000331759
42 1 0.197442 0.658632 0.302832 0 0 0.00236952
43 1 0.853916 0.866965 0.177832 0 0 -0.0159789
44 1 0.640188 0.748911 0.281998 0 0 0.0059489
45 1 0.296661 0.957245 0.156998 0 0 -0.00561392
46 1 0.540969 0.783632 0.427832 0 0 0.000289679
47 1 0.327241 0.998911 0.531998 0 0 -0.00028944
48 1 0.197442 0.991965 0.302832 0 0 0.00236964
ITEM: TIMESTEP
1
ITEM: NUMBER OF ATOMS
48
ITEM: BOX BOUNDS xy xz yz pp pp pp
-5.9368867874145508e+00 8.6109705567359924e+00 2.5110912919044495e+00
-1.0506033897399902e-02 9.6185076832771301e+00 -5.9223299622535706e+00
-2.6944518089294434e-02 1.9544072151184082e+01 3.6519104242324829e-01
ITEM: ATOMS id type xs ys zs fx fy fz
1 1 0.958166 0.165377 0.037108 0 0 1.08015
2 1 0.5109 0.0752779 0.0533509 0 0 0.175339
3 1 0.670763 0.123912 0.656993 0 0 -0.00737357
4 1 0.910044 0.9505 0.922722 0 0 -1.08015
5 1 0.571562 0.158631 0.802845 0 0 -0.0831636
6 1 0.357311 0.0405984 0.906479 0 0 -0.175339
7 1 0.0143313 0.24891 0.782035 0 0 -0.0553459
8 1 0.983715 0.207245 0.406999 0 0 -0.000819087
9 1 0.228009 0.0336323 0.677818 0 0 -0.010824
10 1 0.884495 0.241965 0.552831 0 0 0.000819087
11 1 0.853879 0.2003 0.177795 0 0 0.0553461
12 1 0.640201 0.0822441 0.282012 0 0 0.010824
13 1 0.296648 0.290578 0.156986 0 0 0.0831636
14 1 0.54097 0.116965 0.427832 0 0 -0.000742674
15 1 0.958166 0.49871 0.037108 0 0 1.08015
16 1 0.5109 0.408611 0.0533509 0 0 0.175338
17 1 0.670763 0.457245 0.656993 0 0 -0.00737369
18 1 0.910044 0.283833 0.922722 0 0 -1.08015
19 1 0.571562 0.491965 0.802845 0 0 -0.0831637
20 1 0.357311 0.373932 0.906479 0 0 -0.175339
21 1 0.0143313 0.582243 0.782035 0 0 -0.0553467
22 1 0.327241 0.332245 0.531998 0 0 0.000743032
23 1 0.983715 0.540578 0.406999 0 0 -0.000819206
24 1 0.228009 0.366966 0.677818 0 0 -0.010824
25 1 0.884495 0.575298 0.552831 0 0 0.000819087
26 1 0.197448 0.325298 0.302837 0 0 0.00737357
27 1 0.853879 0.533633 0.177795 0 0 0.0553454
28 1 0.640201 0.415577 0.282012 0 0 0.010824
29 1 0.296648 0.623912 0.156986 0 0 0.0831633
30 1 0.54097 0.450298 0.427832 0 0 -0.000743151
31 1 0.958166 0.832043 0.037108 0 0 1.08015
32 1 0.5109 0.741945 0.0533509 0 0 0.175339
33 1 0.670763 0.790578 0.656993 0 0 -0.00737369
34 1 0.910044 0.617167 0.922722 0 0 -1.08015
35 1 0.571562 0.825298 0.802845 0 0 -0.0831636
36 1 0.357311 0.707265 0.906479 0 0 -0.175338
37 1 0.0143313 0.915577 0.782035 0 0 -0.0553465
38 1 0.327241 0.665578 0.531998 0 0 0.00074327
39 1 0.983715 0.873911 0.406999 0 0 -0.000818491
40 1 0.228009 0.700299 0.677818 0 0 -0.0108235
41 1 0.884495 0.908632 0.552831 0 0 0.000818253
42 1 0.197448 0.658631 0.302837 0 0 0.00737381
43 1 0.853879 0.866966 0.177795 0 0 0.055346
44 1 0.640201 0.748911 0.282012 0 0 0.0108242
45 1 0.296648 0.957245 0.156986 0 0 0.0831634
46 1 0.54097 0.783632 0.427832 0 0 -0.000742912
47 1 0.327241 0.998911 0.531998 0 0 0.000742912
48 1 0.197448 0.991965 0.302837 0 0 0.00737369
ITEM: TIMESTEP
2
ITEM: NUMBER OF ATOMS
48
ITEM: BOX BOUNDS xy xz yz pp pp pp
-5.9368867874145508e+00 8.6109705567359924e+00 2.5110912919044495e+00
-1.0506033897399902e-02 9.6185076832771301e+00 -5.9223299622535706e+00
-2.6944518089294434e-02 1.9544072151184082e+01 3.6519104242324829e-01
ITEM: ATOMS id type xs ys zs fx fy fz
1 1 0.963198 0.165175 0.0422176 0 0 0.232788
2 1 0.511717 0.0752452 0.0541803 0 0 0.100147
3 1 0.670729 0.123913 0.656958 0 0 -0.0148103
4 1 0.905013 0.950701 0.917613 0 0 -0.232787
5 1 0.571175 0.158647 0.802451 0 0 -0.171553
6 1 0.356494 0.0406311 0.90565 0 0 -0.100147
7 1 0.0140734 0.24892 0.781773 0 0 -0.135966
8 1 0.983712 0.207245 0.406995 0 0 -0.000359178
9 1 0.227959 0.0336343 0.677767 0 0 -0.0198822
10 1 0.884499 0.241965 0.552835 0 0 0.000358701
11 1 0.854137 0.200289 0.178057 0 0 0.135966
12 1 0.640252 0.0822421 0.282063 0 0 0.0198817
13 1 0.297036 0.290563 0.157379 0 0 0.171553
14 1 0.540966 0.116965 0.427829 0 0 5.1856e-05
15 1 0.963198 0.498508 0.0422176 0 0 0.232788
16 1 0.511717 0.408579 0.0541803 0 0 0.100147
17 1 0.670729 0.457246 0.656958 0 0 -0.0148107
18 1 0.905013 0.284035 0.917613 0 0 -0.232787
19 1 0.571175 0.49198 0.802451 0 0 -0.171553
20 1 0.356494 0.373964 0.90565 0 0 -0.100147
21 1 0.0140734 0.582254 0.781773 0 0 -0.135966
22 1 0.327244 0.332245 0.532001 0 0 -5.07832e-05
23 1 0.983712 0.540578 0.406995 0 0 -0.000359058
24 1 0.227959 0.366968 0.677767 0 0 -0.0198815
25 1 0.884499 0.575298 0.552835 0 0 0.000358582
26 1 0.197482 0.325297 0.302872 0 0 0.01481
27 1 0.854137 0.533623 0.178057 0 0 0.135965
28 1 0.640252 0.415575 0.282063 0 0 0.0198816
29 1 0.297036 0.623896 0.157379 0 0 0.171553
30 1 0.540966 0.450299 0.427829 0 0 5.16176e-05
31 1 0.963198 0.831842 0.0422176 0 0 0.232788
32 1 0.511717 0.741912 0.0541803 0 0 0.100148
33 1 0.670729 0.79058 0.656958 0 0 -0.0148106
34 1 0.905013 0.617368 0.917613 0 0 -0.232788
35 1 0.571175 0.825313 0.802451 0 0 -0.171553
36 1 0.356494 0.707298 0.90565 0 0 -0.100148
37 1 0.0140734 0.915587 0.781773 0 0 -0.135966
38 1 0.327244 0.665578 0.532001 0 0 -5.16176e-05
39 1 0.983712 0.873911 0.406995 0 0 -0.000357985
40 1 0.227959 0.700301 0.677767 0 0 -0.0198814
41 1 0.884499 0.908632 0.552835 0 0 0.000358343
42 1 0.197482 0.65863 0.302872 0 0 0.0148104
43 1 0.854137 0.866956 0.178057 0 0 0.135966
44 1 0.640252 0.748909 0.282063 0 0 0.0198823
45 1 0.297036 0.95723 0.157379 0 0 0.171553
46 1 0.540966 0.783632 0.427829 0 0 5.19753e-05
47 1 0.327244 0.998911 0.532001 0 0 -5.16176e-05
48 1 0.197482 0.991963 0.302872 0 0 0.0148106
ITEM: TIMESTEP
3
ITEM: NUMBER OF ATOMS
48
ITEM: BOX BOUNDS xy xz yz pp pp pp
-5.9368867874145508e+00 8.6109705567359924e+00 2.5110912919044495e+00
-1.0506033897399902e-02 9.6185076832771301e+00 -5.9223299622535706e+00
-2.6944518089294434e-02 1.9544072151184082e+01 3.6519104242324829e-01
ITEM: ATOMS id type xs ys zs fx fy fz
1 1 0.96701 0.165022 0.046089 0 0 -0.174376
2 1 0.513357 0.0751796 0.0558458 0 0 0.00882435
3 1 0.670486 0.123923 0.656712 0 0 -0.0659505
4 1 0.9012 0.950854 0.913741 0 0 0.174377
5 1 0.568365 0.158759 0.799598 0 0 -0.10887
6 1 0.354854 0.0406968 0.903984 0 0 -0.00882423
7 1 0.0118467 0.249009 0.779512 0 0 -0.108037
8 1 0.983706 0.207245 0.406989 0 0 0.00912809
9 1 0.227633 0.0336473 0.677436 0 0 -0.0676447
10 1 0.884505 0.241965 0.552841 0 0 -0.00912774
11 1 0.856364 0.2002 0.180318 0 0 0.108036
12 1 0.640577 0.082229 0.282394 0 0 0.0676451
13 1 0.299845 0.29045 0.160232 0 0 0.10887
14 1 0.540967 0.116965 0.42783 0 0 0.0114242
15 1 0.96701 0.498356 0.046089 0 0 -0.174377
16 1 0.513357 0.408513 0.0558458 0 0 0.00882399
17 1 0.670486 0.457256 0.656712 0 0 -0.0659503
18 1 0.9012 0.284187 0.913741 0 0 0.174377
19 1 0.568365 0.492093 0.799598 0 0 -0.10887
20 1 0.354854 0.37403 0.903984 0 0 -0.00882399
21 1 0.0118467 0.582343 0.779512 0 0 -0.108037
22 1 0.327243 0.332245 0.532 0 0 -0.0114245
23 1 0.983706 0.540578 0.406989 0 0 0.00912774
24 1 0.227633 0.366981 0.677436 0 0 -0.0676446
25 1 0.884505 0.575298 0.552841 0 0 -0.0091275
26 1 0.197725 0.325287 0.303118 0 0 0.0659508
27 1 0.856364 0.533534 0.180318 0 0 0.108037
28 1 0.640577 0.415562 0.282394 0 0 0.067645
29 1 0.299845 0.623784 0.160232 0 0 0.10887
30 1 0.540967 0.450298 0.42783 0 0 0.0114236
31 1 0.96701 0.831689 0.046089 0 0 -0.174377
32 1 0.513357 0.741846 0.0558458 0 0 0.00882375
33 1 0.670486 0.790589 0.656712 0 0 -0.0659505
34 1 0.9012 0.617521 0.913741 0 0 0.174377
35 1 0.568365 0.825426 0.799598 0 0 -0.10887
36 1 0.354854 0.707363 0.903984 0 0 -0.00882399
37 1 0.0118467 0.915676 0.779512 0 0 -0.108036
38 1 0.327243 0.665578 0.532 0 0 -0.0114237
39 1 0.983706 0.873912 0.406989 0 0 0.00912738
40 1 0.227633 0.700314 0.677436 0 0 -0.0676448
41 1 0.884505 0.908631 0.552841 0 0 -0.00912786
42 1 0.197725 0.65862 0.303118 0 0 0.0659505
43 1 0.856364 0.866867 0.180318 0 0 0.108036
44 1 0.640577 0.748896 0.282394 0 0 0.0676446
45 1 0.299845 0.957117 0.160232 0 0 0.10887
46 1 0.540967 0.783632 0.42783 0 0 0.0114241
47 1 0.327243 0.998911 0.532 0 0 -0.0114243
48 1 0.197725 0.991954 0.303118 0 0 0.0659508
ITEM: TIMESTEP
4
ITEM: NUMBER OF ATOMS
48
ITEM: BOX BOUNDS xy xz yz pp pp pp
-5.9368867874145508e+00 8.6109705567359924e+00 2.5110912919044495e+00
-1.0506033897399902e-02 9.6185076832771301e+00 -5.9223299622535706e+00
-2.6944518089294434e-02 1.9544072151184082e+01 3.6519104242324829e-01
ITEM: ATOMS id type xs ys zs fx fy fz
1 1 0.966478 0.165044 0.0455484 0 0 0.00812685
2 1 0.514378 0.0751387 0.0568831 0 0 -0.00085938
3 1 0.669371 0.123967 0.655579 0 0 -0.0923748
4 1 0.901733 0.950833 0.914282 0 0 -0.00812757
5 1 0.565217 0.158885 0.796401 0 0 0.0531934
6 1 0.353832 0.0407377 0.902947 0 0 0.000859141
7 1 0.00902709 0.249122 0.776649 0 0 0.0251955
8 1 0.983839 0.20724 0.407124 0 0 0.0266855
9 1 0.226448 0.0336948 0.676232 0 0 -0.0863461
10 1 0.884372 0.24197 0.552706 0 0 -0.0266852
11 1 0.859184 0.200087 0.183181 0 0 -0.0251952
12 1 0.641763 0.0821816 0.283598 0 0 0.0863466
13 1 0.302994 0.290324 0.163429 0 0 -0.0531936
14 1 0.541138 0.116958 0.428003 0 0 0.0309604
15 1 0.966478 0.498377 0.0455484 0 0 0.00812757
16 1 0.514378 0.408472 0.0568831 0 0 -0.00085938
17 1 0.669371 0.457301 0.655579 0 0 -0.0923742
18 1 0.901733 0.284166 0.914282 0 0 -0.00812721
19 1 0.565217 0.492219 0.796401 0 0 0.0531933
20 1 0.353832 0.374071 0.902947 0 0 0.000859141
21 1 0.0090271 0.582456 0.776649 0 0 0.0251956
22 1 0.327073 0.332251 0.531827 0 0 -0.0309608
23 1 0.983839 0.540573 0.407124 0 0 0.0266855
24 1 0.226448 0.367028 0.676232 0 0 -0.0863469
25 1 0.884372 0.575303 0.552706 0 0 -0.026685
26 1 0.19884 0.325242 0.304251 0 0 0.0923748
27 1 0.859184 0.533421 0.183181 0 0 -0.0251955
28 1 0.641763 0.415515 0.283598 0 0 0.0863461
29 1 0.302994 0.623658 0.163429 0 0 -0.0531931
30 1 0.541138 0.450292 0.428003 0 0 0.0309606
31 1 0.966478 0.83171 0.0455484 0 0 0.00812733
32 1 0.514378 0.741805 0.0568831 0 0 -0.000859499
33 1 0.669371 0.790634 0.655579 0 0 -0.0923744
34 1 0.901733 0.617499 0.914282 0 0 -0.00812733
35 1 0.565217 0.825552 0.796401 0 0 0.0531934
36 1 0.353832 0.707404 0.902947 0 0 0.000859499
37 1 0.00902709 0.915789 0.776649 0 0 0.0251956
38 1 0.327073 0.665585 0.531827 0 0 -0.0309607
39 1 0.983839 0.873906 0.407124 0 0 0.026685
40 1 0.226448 0.700361 0.676232 0 0 -0.0863465
41 1 0.884372 0.908637 0.552706 0 0 -0.0266849
42 1 0.19884 0.658576 0.304251 0 0 0.0923744
43 1 0.859184 0.866754 0.183181 0 0 -0.025195
44 1 0.641763 0.748848 0.283598 0 0 0.0863461
45 1 0.302994 0.956991 0.163429 0 0 -0.0531931
46 1 0.541138 0.783625 0.428003 0 0 0.0309604
47 1 0.327073 0.998918 0.531827 0 0 -0.0309608
48 1 0.19884 0.991909 0.304251 0 0 0.0923742
ITEM: TIMESTEP
5
ITEM: NUMBER OF ATOMS
48
ITEM: BOX BOUNDS xy xz yz pp pp pp
-5.9368867874145508e+00 8.6109705567359924e+00 2.5110912919044495e+00
-1.0506033897399902e-02 9.6185076832771301e+00 -5.9223299622535706e+00
-2.6944518089294434e-02 1.9544072151184082e+01 3.6519104242324829e-01
ITEM: ATOMS id type xs ys zs fx fy fz
1 1 0.966427 0.165046 0.0454971 0 0 0.0290153
2 1 0.514788 0.0751223 0.0572987 0 0 -0.0148652
3 1 0.666946 0.124064 0.653117 0 0 0.00857735
4 1 0.901783 0.950831 0.914333 0 0 -0.0290147
5 1 0.565027 0.158893 0.796208 0 0 -0.00494576
6 1 0.353423 0.0407541 0.902531 0 0 0.014865
7 1 0.00838111 0.249148 0.775993 0 0 -0.00361991
8 1 0.98446 0.207215 0.407755 0 0 0.0320381
9 1 0.224121 0.0337879 0.67387 0 0 0.0138967
10 1 0.883751 0.241995 0.552075 0 0 -0.0320381
11 1 0.859829 0.200062 0.183837 0 0 0.00361955
12 1 0.644089 0.0820884 0.28596 0 0 -0.0138972
13 1 0.303184 0.290317 0.163622 0 0 0.00494647
14 1 0.541866 0.116929 0.428742 0 0 0.0374272
15 1 0.966427 0.498379 0.0454971 0 0 0.0290149
16 1 0.514788 0.408456 0.0572987 0 0 -0.014865
17 1 0.666946 0.457398 0.653117 0 0 0.00857687
18 1 0.901783 0.284164 0.914333 0 0 -0.0290155
19 1 0.565027 0.492226 0.796208 0 0 -0.00494564
20 1 0.353423 0.374087 0.902531 0 0 0.0148647
21 1 0.00838112 0.582481 0.775993 0 0 -0.00361991
22 1 0.326345 0.332281 0.531088 0 0 -0.0374273
23 1 0.98446 0.540548 0.407755 0 0 0.0320382
24 1 0.224121 0.367121 0.67387 0 0 0.0138967
25 1 0.883751 0.575328 0.552075 0 0 -0.0320385
26 1 0.201264 0.325145 0.306713 0 0 -0.00857711
27 1 0.859829 0.533395 0.183837 0 0 0.00362027
28 1 0.644089 0.415422 0.28596 0 0 -0.0138965
29 1 0.303184 0.62365 0.163622 0 0 0.00494564
30 1 0.541866 0.450263 0.428742 0 0 0.0374275
31 1 0.966427 0.831712 0.045497 0 0 0.0290151
32 1 0.514788 0.741789 0.0572987 0 0 -0.0148648
33 1 0.666946 0.790731 0.653117 0 0 0.00857675
34 1 0.901783 0.617497 0.914333 0 0 -0.0290151
35 1 0.565027 0.82556 0.796208 0 0 -0.00494587
36 1 0.353423 0.707421 0.902531 0 0 0.0148652
37 1 0.00838112 0.915815 0.775993 0 0 -0.00362027
38 1 0.326345 0.665614 0.531088 0 0 -0.0374275
39 1 0.98446 0.873881 0.407755 0 0 0.0320382
40 1 0.224121 0.700455 0.67387 0 0 0.0138968
41 1 0.883751 0.908662 0.552075 0 0 -0.0320383
42 1 0.201264 0.658479 0.306713 0 0 -0.00857699
43 1 0.85983 0.866728 0.183837 0 0 0.00361979
44 1 0.644089 0.748755 0.28596 0 0 -0.0138965
45 1 0.303184 0.956983 0.163622 0 0 0.00494599
46 1 0.541866 0.783596 0.428742 0 0 0.0374269
47 1 0.326345 0.998947 0.531088 0 0 -0.0374268
48 1 0.201264 0.991812 0.306713 0 0 -0.00857687
ITEM: TIMESTEP
6
ITEM: NUMBER OF ATOMS
48
ITEM: BOX BOUNDS xy xz yz pp pp pp
-5.9368867874145508e+00 8.6109705567359924e+00 2.5110912919044495e+00
-1.0506033897399902e-02 9.6185076832771301e+00 -5.9223299622535706e+00
-2.6944518089294434e-02 1.9544072151184082e+01 3.6519104242324829e-01
ITEM: ATOMS id type xs ys zs fx fy fz
1 1 0.966752 0.165033 0.0458268 0 0 -0.00555515
2 1 0.514659 0.0751275 0.057168 0 0 -0.00447547
3 1 0.666806 0.12407 0.652975 0 0 0.00226772
4 1 0.901459 0.950844 0.914003 0 0 0.00555527
5 1 0.564952 0.158896 0.796132 0 0 -0.00919342
6 1 0.353552 0.0407489 0.902662 0 0 0.00447512
7 1 0.0082766 0.249152 0.775887 0 0 -0.00491953
8 1 0.984885 0.207198 0.408187 0 0 0.000161648
9 1 0.224051 0.0337907 0.673799 0 0 0.00397861
10 1 0.883326 0.242012 0.551643 0 0 -0.000161648
11 1 0.859934 0.200057 0.183943 0 0 0.00491965
12 1 0.64416 0.0820856 0.286032 0 0 -0.00397849
13 1 0.303259 0.290314 0.163698 0 0 0.00919318
14 1 0.542362 0.116909 0.429246 0 0 0.00311875
15 1 0.966752 0.498366 0.0458268 0 0 -0.00555527
16 1 0.514659 0.408461 0.057168 0 0 -0.00447524
17 1 0.666806 0.457403 0.652975 0 0 0.00226724
18 1 0.901459 0.284177 0.914003 0 0 0.00555539
19 1 0.564952 0.492229 0.796132 0 0 -0.0091933
20 1 0.353552 0.374082 0.902662 0 0 0.00447512
21 1 0.00827661 0.582486 0.775887 0 0 -0.00491929
22 1 0.325848 0.3323 0.530584 0 0 -0.00311875
23 1 0.984885 0.540531 0.408187 0 0 0.000161767
24 1 0.224051 0.367124 0.673799 0 0 0.00397885
25 1 0.883326 0.575345 0.551643 0 0 -0.000161886
26 1 0.201405 0.32514 0.306855 0 0 -0.0022676
27 1 0.859934 0.533391 0.183943 0 0 0.00491989
28 1 0.64416 0.415419 0.286032 0 0 -0.00397861
29 1 0.303259 0.623647 0.163698 0 0 0.0091939
30 1 0.542362 0.450243 0.429246 0 0 0.00311923
31 1 0.966752 0.831699 0.0458268 0 0 -0.00555491
32 1 0.514659 0.741794 0.057168 0 0 -0.00447524
33 1 0.666806 0.790737 0.652975 0 0 0.0022676
34 1 0.901459 0.61751 0.914003 0 0 0.00555491
35 1 0.564952 0.825563 0.796132 0 0 -0.00919342
36 1 0.353552 0.707416 0.902662 0 0 0.004475
37 1 0.0082766 0.915819 0.775887 0 0 -0.00491929
38 1 0.325848 0.665634 0.530584 0 0 -0.00311899
39 1 0.984885 0.873864 0.408187 0 0 0.00016129
40 1 0.224051 0.700457 0.673799 0 0 0.00397861
41 1 0.883326 0.908679 0.551643 0 0 -0.000161529
42 1 0.201405 0.658473 0.306855 0 0 -0.00226772
43 1 0.859934 0.866724 0.183943 0 0 0.00491953
44 1 0.64416 0.748752 0.286032 0 0 -0.00397873
45 1 0.303259 0.95698 0.163698 0 0 0.00919282
46 1 0.542362 0.783576 0.429246 0 0 0.00311887
47 1 0.325848 0.998967 0.530584 0 0 -0.00311899
48 1 0.201405 0.991806 0.306855 0 0 -0.00226748
ITEM: TIMESTEP
7
ITEM: NUMBER OF ATOMS
48
ITEM: BOX BOUNDS xy xz yz pp pp pp
-5.9368867874145508e+00 8.6109705567359924e+00 2.5110912919044495e+00
-1.0506033897399902e-02 9.6185076832771301e+00 -5.9223299622535706e+00
-2.6944518089294434e-02 1.9544072151184082e+01 3.6519104242324829e-01
ITEM: ATOMS id type xs ys zs fx fy fz
1 1 0.9667 0.165035 0.0457735 0 0 0.00306606
2 1 0.514614 0.0751292 0.0571228 0 0 -3.62396e-05
3 1 0.666827 0.124069 0.652996 0 0 -0.00102508
4 1 0.901511 0.950841 0.914057 0 0 -0.0030663
5 1 0.564862 0.158899 0.79604 0 0 -0.00188768
6 1 0.353596 0.0407471 0.902707 0 0 3.65973e-05
7 1 0.00822791 0.249154 0.775837 0 0 -0.00022316
8 1 0.984889 0.207198 0.408191 0 0 -0.00122631
9 1 0.22409 0.0337892 0.673838 0 0 -0.000232577
10 1 0.883322 0.242012 0.551639 0 0 0.00122619
11 1 0.859983 0.200055 0.183993 0 0 0.00022316
12 1 0.644121 0.0820872 0.285992 0 0 0.000232458
13 1 0.303349 0.29031 0.16379 0 0 0.00188768
14 1 0.542396 0.116908 0.42928 0 0 0.00036633
15 1 0.9667 0.498368 0.0457735 0 0 0.00306618
16 1 0.514614 0.408463 0.0571228 0 0 -3.62396e-05
17 1 0.666827 0.457402 0.652996 0 0 -0.00102496
18 1 0.901511 0.284175 0.914057 0 0 -0.00306582
19 1 0.564862 0.492233 0.79604 0 0 -0.00188756
20 1 0.353596 0.37408 0.902707 0 0 3.6478e-05
21 1 0.00822793 0.582488 0.775837 0 0 -0.000223279
22 1 0.325815 0.332302 0.53055 0 0 -0.00036633
23 1 0.984889 0.540531 0.408191 0 0 -0.00122654
24 1 0.22409 0.367123 0.673838 0 0 -0.000232458
25 1 0.883322 0.575345 0.551639 0 0 0.00122619
26 1 0.201384 0.325141 0.306834 0 0 0.00102484
27 1 0.859983 0.533389 0.183993 0 0 0.000222683
28 1 0.644121 0.41542 0.285992 0 0 0.000232816
29 1 0.303349 0.623644 0.16379 0 0 0.00188708
30 1 0.542396 0.450241 0.42928 0 0 0.000366449
31 1 0.9667 0.831702 0.0457735 0 0 0.00306594
32 1 0.514614 0.741796 0.0571228 0 0 -3.6478e-05
33 1 0.666827 0.790736 0.652996 0 0 -0.00102496
34 1 0.901511 0.617508 0.914057 0 0 -0.00306547
35 1 0.564862 0.825566 0.79604 0 0 -0.00188804
36 1 0.353596 0.707414 0.902707 0 0 3.6478e-05
37 1 0.00822792 0.915821 0.775837 0 0 -0.000223041
38 1 0.325815 0.665635 0.53055 0 0 -0.00036633
39 1 0.984889 0.873864 0.408191 0 0 -0.00122607
40 1 0.22409 0.700456 0.673838 0 0 -0.000232577
41 1 0.883322 0.908679 0.551639 0 0 0.00122631
42 1 0.201383 0.658474 0.306834 0 0 0.0010252
43 1 0.859983 0.866722 0.183993 0 0 0.00022316
44 1 0.644121 0.748754 0.285992 0 0 0.000232816
45 1 0.303349 0.956977 0.16379 0 0 0.00188768
46 1 0.542396 0.783575 0.42928 0 0 0.00036633
47 1 0.325815 0.998968 0.53055 0 0 -0.000366211
48 1 0.201383 0.991807 0.306834 0 0 0.0010246
ITEM: TIMESTEP
8
ITEM: NUMBER OF ATOMS
48
ITEM: BOX BOUNDS xy xz yz pp pp pp
-5.9368867874145508e+00 8.6109705567359924e+00 2.5110912919044495e+00
-1.0506033897399902e-02 9.6185076832771301e+00 -5.9223299622535706e+00
-2.6944518089294434e-02 1.9544072151184082e+01 3.6519104242324829e-01
ITEM: ATOMS id type xs ys zs fx fy fz
1 1 0.96674 0.165033 0.0458149 0 0 -0.000647545
2 1 0.514608 0.0751295 0.057116 0 0 0.000870109
3 1 0.666814 0.12407 0.652983 0 0 -0.000939369
4 1 0.90147 0.950843 0.914015 0 0 0.000648022
5 1 0.56482 0.158901 0.795998 0 0 -0.000319481
6 1 0.353603 0.0407469 0.902714 0 0 -0.000870466
7 1 0.00821765 0.249155 0.775827 0 0 -0.000453234
8 1 0.98487 0.207198 0.408172 0 0 -4.91142e-05
9 1 0.224091 0.0337891 0.673839 0 0 -0.000915527
10 1 0.88334 0.242011 0.551658 0 0 4.91142e-05
11 1 0.859993 0.200055 0.184003 0 0 0.000453234
12 1 0.644119 0.0820872 0.285991 0 0 0.000915051
13 1 0.303391 0.290309 0.163832 0 0 0.0003196
14 1 0.542406 0.116908 0.429291 0 0 0.00019598
15 1 0.966741 0.498367 0.0458149 0 0 -0.000647783
16 1 0.514608 0.408463 0.057116 0 0 0.000869989
17 1 0.666814 0.457403 0.652983 0 0 -0.00093925
18 1 0.90147 0.284176 0.914015 0 0 0.000647545
19 1 0.56482 0.492235 0.795998 0 0 -0.000319719
20 1 0.353603 0.37408 0.902714 0 0 -0.000870109
21 1 0.00821766 0.582488 0.775827 0 0 -0.000453234
22 1 0.325805 0.332302 0.530539 0 0 -0.000196695
23 1 0.98487 0.540532 0.408172 0 0 -4.88758e-05
24 1 0.224091 0.367122 0.673839 0 0 -0.000915051
25 1 0.88334 0.575345 0.551658 0 0 4.88758e-05
26 1 0.201397 0.32514 0.306847 0 0 0.000939727
27 1 0.859993 0.533388 0.184003 0 0 0.000453353
28 1 0.644119 0.415421 0.285991 0 0 0.000914931
29 1 0.303391 0.623642 0.163832 0 0 0.000320196
30 1 0.542406 0.450241 0.429291 0 0 0.000196815
31 1 0.96674 0.8317 0.0458149 0 0 -0.000647783
32 1 0.514608 0.741796 0.057116 0 0 0.000870228
33 1 0.666814 0.790736 0.652983 0 0 -0.000939131
34 1 0.90147 0.61751 0.914015 0 0 0.000647306
35 1 0.56482 0.825568 0.795998 0 0 -0.000319123
36 1 0.353603 0.707414 0.902714 0 0 -0.000870466
37 1 0.00821766 0.915821 0.775827 0 0 -0.000453353
38 1 0.325805 0.665635 0.530539 0 0 -0.000196457
39 1 0.98487 0.873865 0.408172 0 0 -4.91142e-05
40 1 0.224091 0.700456 0.673839 0 0 -0.000915647
41 1 0.88334 0.908678 0.551658 0 0 4.93526e-05
42 1 0.201397 0.658473 0.306847 0 0 0.000939131
43 1 0.859993 0.866722 0.184003 0 0 0.000453115
44 1 0.644119 0.748754 0.285991 0 0 0.000915051
45 1 0.303391 0.956975 0.163832 0 0 0.000319958
46 1 0.542406 0.783574 0.429291 0 0 0.000196695
47 1 0.325805 0.998969 0.530539 0 0 -0.000196576
48 1 0.201397 0.991807 0.306847 0 0 0.000939727
ITEM: TIMESTEP
9
ITEM: NUMBER OF ATOMS
48
ITEM: BOX BOUNDS xy xz yz pp pp pp
-5.9368867874145508e+00 8.6109705567359924e+00 2.5110912919044495e+00
-1.0506033897399902e-02 9.6185076832771301e+00 -5.9223299622535706e+00
-2.6944518089294434e-02 1.9544072151184082e+01 3.6519104242324829e-01
ITEM: ATOMS id type xs ys zs fx fy fz
1 1 0.966738 0.165033 0.045812 0 0 0.000371695
2 1 0.514628 0.0751287 0.0571369 0 0 -0.000105262
3 1 0.666785 0.124071 0.652953 0 0 1.44243e-05
4 1 0.901473 0.950843 0.914018 0 0 -0.00037241
5 1 0.564797 0.158902 0.795974 0 0 0.000196695
6 1 0.353582 0.0407477 0.902693 0 0 0.0001055
7 1 0.00820216 0.249155 0.775811 0 0 -0.000494123
8 1 0.984862 0.207199 0.408164 0 0 0.000947118
9 1 0.224068 0.0337901 0.673816 0 0 -0.000157237
10 1 0.883348 0.242011 0.551666 0 0 -0.000947356
11 1 0.860008 0.200054 0.184019 0 0 0.000493765
12 1 0.644143 0.0820863 0.286015 0 0 0.000157714
13 1 0.303414 0.290308 0.163856 0 0 -0.000196457
14 1 0.542415 0.116907 0.4293 0 0 0.000474811
15 1 0.966738 0.498367 0.045812 0 0 0.000372052
16 1 0.514628 0.408462 0.0571369 0 0 -0.000105143
17 1 0.666785 0.457404 0.652953 0 0 1.43051e-05
18 1 0.901473 0.284176 0.914018 0 0 -0.000371933
19 1 0.564797 0.492235 0.795974 0 0 0.000197053
20 1 0.353582 0.374081 0.902693 0 0 0.000104904
21 1 0.00820217 0.582489 0.775811 0 0 -0.000493288
22 1 0.325796 0.332303 0.53053 0 0 -0.000473976
23 1 0.984862 0.540532 0.408164 0 0 0.000947237
24 1 0.224068 0.367123 0.673816 0 0 -0.000157714
25 1 0.883348 0.575344 0.551666 0 0 -0.000946641
26 1 0.201426 0.325139 0.306877 0 0 -1.46627e-05
27 1 0.860008 0.533388 0.184019 0 0 0.000493526
28 1 0.644143 0.41542 0.286015 0 0 0.000158072
29 1 0.303414 0.623641 0.163856 0 0 -0.000197291
30 1 0.542415 0.450241 0.4293 0 0 0.00047338
31 1 0.966738 0.8317 0.045812 0 0 0.000372648
32 1 0.514628 0.741795 0.0571369 0 0 -0.000105262
33 1 0.666785 0.790737 0.652953 0 0 1.43051e-05
34 1 0.901473 0.61751 0.914018 0 0 -0.000371695
35 1 0.564797 0.825569 0.795974 0 0 0.000196338
36 1 0.353582 0.707414 0.902693 0 0 0.000105739
37 1 0.00820216 0.915822 0.775811 0 0 -0.000493646
38 1 0.325796 0.665636 0.53053 0 0 -0.000473976
39 1 0.984862 0.873865 0.408164 0 0 0.000947356
40 1 0.224068 0.700457 0.673816 0 0 -0.000157475
41 1 0.883348 0.908678 0.551666 0 0 -0.000947952
42 1 0.201426 0.658472 0.306877 0 0 -1.44243e-05
43 1 0.860008 0.866721 0.184019 0 0 0.000493526
44 1 0.644143 0.748753 0.286015 0 0 0.000157595
45 1 0.303414 0.956974 0.163856 0 0 -0.000197172
46 1 0.542415 0.783574 0.4293 0 0 0.000473738
47 1 0.325796 0.998969 0.53053 0 0 -0.000473738
48 1 0.201426 0.991806 0.306877 0 0 -1.46627e-05
ITEM: TIMESTEP
10
ITEM: NUMBER OF ATOMS
48
ITEM: BOX BOUNDS xy xz yz pp pp pp
-5.9368867874145508e+00 8.6109705567359924e+00 2.5110912919044495e+00
-1.0506033897399902e-02 9.6185076832771301e+00 -5.9223299622535706e+00
-2.6944518089294434e-02 1.9544072151184082e+01 3.6519104242324829e-01
ITEM: ATOMS id type xs ys zs fx fy fz
1 1 0.966744 0.165033 0.0458182 0 0 -1.10865e-05
2 1 0.514634 0.0751285 0.0571422 0 0 -0.000234604
3 1 0.666775 0.124071 0.652943 0 0 -6.50883e-05
4 1 0.901467 0.950843 0.914012 0 0 1.13249e-05
5 1 0.564792 0.158902 0.79597 0 0 -2.81334e-05
6 1 0.353577 0.0407479 0.902688 0 0 0.000234485
7 1 0.00818708 0.249156 0.775796 0 0 -0.000111938
8 1 0.984878 0.207198 0.40818 0 0 2.563e-05
9 1 0.224056 0.0337905 0.673804 0 0 -0.000121832
10 1 0.883333 0.242012 0.55165 0 0 -2.52724e-05
11 1 0.860024 0.200054 0.184034 0 0 0.000112653
12 1 0.644154 0.0820858 0.286026 0 0 0.00012207
13 1 0.303418 0.290307 0.16386 0 0 2.76566e-05
14 1 0.542427 0.116907 0.429312 0 0 -0.000239611
15 1 0.966744 0.498366 0.0458182 0 0 -1.13249e-05
16 1 0.514633 0.408462 0.0571422 0 0 -0.000234365
17 1 0.666775 0.457405 0.652943 0 0 -6.52075e-05
18 1 0.901467 0.284177 0.914012 0 0 1.10865e-05
19 1 0.564792 0.492236 0.79597 0 0 -2.82526e-05
20 1 0.353577 0.374081 0.902688 0 0 0.000234723
21 1 0.00818711 0.582489 0.775796 0 0 -0.000112653
22 1 0.325783 0.332303 0.530518 0 0 0.000240207
23 1 0.984878 0.540531 0.40818 0 0 2.52724e-05
24 1 0.224056 0.367124 0.673804 0 0 -0.000122547
25 1 0.883333 0.575345 0.55165 0 0 -2.55108e-05
26 1 0.201436 0.325138 0.306887 0 0 6.47306e-05
27 1 0.860024 0.533387 0.184034 0 0 0.000112891
28 1 0.644154 0.415419 0.286026 0 0 0.000121713
29 1 0.303418 0.623641 0.16386 0 0 2.76566e-05
30 1 0.542427 0.45024 0.429312 0 0 -0.00023973
31 1 0.966744 0.8317 0.0458182 0 0 -1.18017e-05
32 1 0.514633 0.741795 0.0571422 0 0 -0.000234246
33 1 0.666775 0.790738 0.652943 0 0 -6.52075e-05
34 1 0.901467 0.61751 0.914012 0 0 1.15633e-05
35 1 0.564792 0.825569 0.79597 0 0 -2.81334e-05
36 1 0.353577 0.707415 0.902688 0 0 0.000234485
37 1 0.00818709 0.915823 0.775796 0 0 -0.000112414
38 1 0.325784 0.665636 0.530518 0 0 0.000239968
39 1 0.984878 0.873865 0.40818 0 0 2.51532e-05
40 1 0.224056 0.700457 0.673804 0 0 -0.000121474
41 1 0.883333 0.908678 0.55165 0 0 -2.53916e-05
42 1 0.201436 0.658472 0.306887 0 0 6.53267e-05
43 1 0.860024 0.866721 0.184034 0 0 0.00011301
44 1 0.644154 0.748752 0.286026 0 0 0.000121832
45 1 0.303418 0.956974 0.16386 0 0 2.80142e-05
46 1 0.542427 0.783573 0.429312 0 0 -0.000240088
47 1 0.325784 0.99897 0.530518 0 0 0.000239491
48 1 0.201436 0.991805 0.306887 0 0 6.49691e-05
ITEM: TIMESTEP
11
ITEM: NUMBER OF ATOMS
48
ITEM: BOX BOUNDS xy xz yz pp pp pp
-5.9368867874145508e+00 8.6109705567359924e+00 2.5110912919044495e+00
-1.0506033897399902e-02 9.6185076832771301e+00 -5.9223299622535706e+00
-2.6944518089294434e-02 1.9544072151184082e+01 3.6519104242324829e-01
ITEM: ATOMS id type xs ys zs fx fy fz
1 1 0.966744 0.165033 0.0458185 0 0 2.21729e-05
2 1 0.51463 0.0751286 0.0571391 0 0 2.8491e-05
3 1 0.666773 0.124071 0.652941 0 0 6.31809e-06
4 1 0.901467 0.950843 0.914012 0 0 -2.25306e-05
5 1 0.564791 0.158902 0.795969 0 0 -2.47955e-05
6 1 0.35358 0.0407478 0.902691 0 0 -2.7895e-05
7 1 0.00818432 0.249156 0.775793 0 0 2.76566e-05
8 1 0.984879 0.207198 0.408181 0 0 2.6226e-05
9 1 0.224054 0.0337906 0.673801 0 0 -7.7486e-06
10 1 0.883331 0.242012 0.551649 0 0 -2.63453e-05
11 1 0.860026 0.200054 0.184037 0 0 -2.80142e-05
12 1 0.644157 0.0820857 0.286029 0 0 7.86781e-06
13 1 0.303419 0.290307 0.163861 0 0 2.5034e-05
14 1 0.542424 0.116907 0.429309 0 0 -3.17097e-05
15 1 0.966744 0.498366 0.0458185 0 0 2.22921e-05
16 1 0.51463 0.408462 0.0571391 0 0 2.81334e-05
17 1 0.666773 0.457405 0.652941 0 0 6.19888e-06
18 1 0.901467 0.284177 0.914012 0 0 -2.19345e-05
19 1 0.564791 0.492236 0.795969 0 0 -2.49147e-05
20 1 0.35358 0.374081 0.902691 0 0 -2.7895e-05
21 1 0.00818434 0.582489 0.775793 0 0 2.77758e-05
22 1 0.325786 0.332303 0.530521 0 0 3.12328e-05
23 1 0.984879 0.540531 0.408181 0 0 2.61068e-05
24 1 0.224054 0.367124 0.673801 0 0 -7.51019e-06
25 1 0.883331 0.575345 0.551649 0 0 -2.6226e-05