ITEM: TIMESTEP
0
ITEM: NUMBER OF ATOMS
56
ITEM: BOX BOUNDS xy xz yz pp pp pp
-2.4697008728981018e+00 1.2203788340091705e+01 0.0000000000000000e+00
-8.4733366966247559e-03 5.5348814725875854e+00 -2.4510123729705811e+00
-2.9168844223022461e-02 1.9049128890037537e+01 0.0000000000000000e+00
ITEM: ATOMS id type xs ys zs fx fy fz
1 1 0.576615 4.41887e-05 0.132366 0 0.0244064 0.675413
2 1 0.326616 0.166624 0.132366 0 -0.0244217 0.675438
3 1 0.242672 2.39879e-05 0.275225 0 0.000337601 -0.00434875
4 1 0.992672 0.166644 0.275225 0 -0.000360489 -0.00434303
5 1 0.908675 1.9421e-05 0.418082 0 4.00543e-05 -2.86102e-05
6 1 0.0766158 4.41295e-05 0.132366 0 0.0244122 0.675421
7 1 0.99356 0.500074 0.0609403 0 0.156055 0.729813
8 1 0.826617 0.166623 0.132366 0 -0.0244179 0.675461
9 1 0.743561 0.666593 0.0609403 0 -0.156044 0.729855
10 1 0.742673 2.39872e-05 0.275225 0 0.000341415 -0.0043354
11 1 0.658674 0.166647 0.418082 0 -3.62396e-05 -3.8147e-05
12 1 0.574667 2.47556e-05 0.560942 0 -1.71661e-05 -1.52588e-05
13 1 0.324668 0.166643 0.560942 0 7.62939e-06 -1.71661e-05
14 1 0.240668 2.39811e-05 0.703801 0 -0.000307083 0.00131226
15 1 0.990668 0.166644 0.703801 0 0.000278473 0.00130844
16 1 0.906682 2.63435e-05 0.846651 0 0.00639725 -0.00369644
17 1 0.659661 0.500026 0.203802 0 0.00640678 0.0037117
18 1 0.492672 0.166645 0.275225 0 -0.00038147 -0.00434113
19 1 0.409662 0.66664 0.203802 0 -0.0063858 0.00371933
20 1 0.408676 2.01694e-05 0.418082 0 2.28882e-05 -2.86102e-05
21 1 0.325675 0.500023 0.346651 0 -0.000284195 -0.001297
22 1 0.158675 0.166648 0.418082 0 -4.00543e-05 -3.05176e-05
23 1 0.0756746 0.666642 0.346651 0 0.000322342 -0.00131607
24 1 0.0746677 2.49573e-05 0.560941 0 -2.28882e-05 -5.72205e-06
25 1 0.991674 0.500025 0.489511 0 -1.33514e-05 1.90735e-06
26 1 0.824669 0.166643 0.560941 0 7.62939e-06 -1.90735e-06
27 1 0.741676 0.666642 0.489511 0 2.09808e-05 2.28882e-05
28 1 0.49356 0.500073 0.0609404 0 0.156082 0.729828
29 1 0.24356 0.666593 0.0609403 0 -0.156057 0.72982
30 1 0.159662 0.500026 0.203802 0 0.00640297 0.00370979
31 1 0.909662 0.666641 0.203802 0 -0.00640488 0.00371552
32 1 0.825675 0.500024 0.346651 0 -0.000310898 -0.00131226
33 1 0.656681 0.166641 0.846652 0 -0.00640106 -0.00374031
34 1 0.572783 7.47473e-05 0.989512 0 0.156036 -0.729801
35 1 0.322783 0.166594 0.989513 0 -0.156073 -0.729832
36 1 0.740667 2.44315e-05 0.703801 0 -0.000312805 0.00131035
37 1 0.657666 0.50002 0.632371 0 3.62396e-05 1.71661e-05
38 1 0.490668 0.166643 0.703801 0 0.000291824 0.00131607
39 1 0.407667 0.666647 0.632371 0 -3.05176e-05 3.05176e-05
40 1 0.406681 2.63314e-05 0.846651 0 0.00640106 -0.00371742
41 1 0.323671 0.500023 0.775228 0 0.000352859 0.00434685
42 1 0.156681 0.166641 0.846651 0 -0.00639915 -0.00372124
43 1 0.0736704 0.666644 0.775228 0 -0.000349045 0.00433159
44 1 0.0727834 7.37033e-05 0.989512 0 0.156063 -0.729811
45 1 0.989727 0.500043 0.918087 0 0.0244179 -0.6754
46 1 0.575674 0.666643 0.346651 0 0.000324249 -0.00131035
47 1 0.491675 0.500025 0.489511 0 -9.53674e-06 5.72205e-06
48 1 0.241675 0.666642 0.489511 0 2.28882e-05 5.72205e-06
49 1 0.157667 0.500019 0.632371 0 4.76837e-05 3.8147e-05
50 1 0.907668 0.666647 0.63237 0 -1.71661e-05 5.14984e-05
51 1 0.823672 0.500022 0.775228 0 0.000371933 0.00434303
52 1 0.822781 0.166594 0.989513 0 -0.156052 -0.729856
53 1 0.739726 0.666624 0.918087 0 -0.024416 -0.675482
54 1 0.57367 0.666643 0.775228 0 -0.000354767 0.00434875
55 1 0.489727 0.500044 0.918087 0 0.0244217 -0.67544
56 1 0.239727 0.666624 0.918087 0 -0.0244102 -0.675428
ITEM: TIMESTEP
1
ITEM: NUMBER OF ATOMS
56
ITEM: BOX BOUNDS xy xz yz pp pp pp
-2.4697008728981018e+00 1.2203788340091705e+01 0.0000000000000000e+00
-8.4733366966247559e-03 5.5348814725875854e+00 -2.4510123729705811e+00
-2.9168844223022461e-02 1.9049128890037537e+01 0.0000000000000000e+00
ITEM: ATOMS id type xs ys zs fx fy fz
1 1 0.577588 0.000647434 0.137217 0 0.024765 0.108059
2 1 0.327589 0.16602 0.137217 0 -0.0247822 0.108061
3 1 0.242666 3.23322e-05 0.275194 0 -0.0168419 0.0933132
4 1 0.992666 0.166635 0.275194 0 0.0168362 0.0933094
5 1 0.908675 2.0411e-05 0.418082 0 -0.000770569 -0.00146484
6 1 0.0775885 0.000647517 0.137217 0 0.0247707 0.108055
7 1 0.994611 0.503931 0.0661815 0 0.0257378 0.0903053
8 1 0.827589 0.16602 0.137217 0 -0.0247688 0.108044
9 1 0.744612 0.662736 0.0661818 0 -0.0257378 0.0902996
10 1 0.742667 3.24258e-05 0.275194 0 -0.0168381 0.0933056
11 1 0.658674 0.166646 0.418082 0 0.000780106 -0.00147247
12 1 0.574667 2.43313e-05 0.560941 0 0.000143051 0.00273705
13 1 0.324668 0.166643 0.560942 0 -0.000150681 0.00273705
14 1 0.24067 1.63911e-05 0.703811 0 -0.00247192 -0.00425339
15 1 0.99067 0.166651 0.703811 0 0.00247002 -0.00426102
16 1 0.906677 0.000184462 0.846625 0 -0.00198174 -0.130703
17 1 0.659666 0.500184 0.203828 0 -0.00197601 0.130714
18 1 0.492666 0.166635 0.275194 0 0.0168266 0.0933132
19 1 0.409667 0.666482 0.203828 0 0.00198936 0.130713
20 1 0.408676 2.07351e-05 0.418082 0 -0.000772476 -0.00147247
21 1 0.325673 0.500016 0.346642 0 -0.00247383 0.0042572
22 1 0.158675 0.166647 0.418082 0 0.000770569 -0.00147057
23 1 0.0756727 0.66665 0.346642 0 0.00247574 0.00425339
24 1 0.0746677 2.43916e-05 0.560941 0 0.000141144 0.00274086
25 1 0.991674 0.500025 0.489511 0 0.000143051 -0.00274277
26 1 0.824669 0.166643 0.560941 0 -0.000148773 0.0027504
27 1 0.741676 0.666642 0.489511 0 -0.000141144 -0.00272751
28 1 0.494611 0.503931 0.0661817 0 0.0257492 0.0903015
29 1 0.244611 0.662735 0.0661816 0 -0.0257435 0.0903053
30 1 0.159667 0.500185 0.203828 0 -0.00197983 0.130716
31 1 0.909667 0.666483 0.203828 0 0.00197792 0.130722
32 1 0.825674 0.500017 0.346642 0 -0.00247192 0.00424957
33 1 0.656675 0.166482 0.846625 0 0.00197983 -0.130733
34 1 0.571732 0.00393145 0.984271 0 0.0257454 -0.0902977
35 1 0.321732 0.162736 0.984271 0 -0.0257454 -0.0903091
36 1 0.740669 1.67e-05 0.703811 0 -0.00247192 -0.00424767
37 1 0.657666 0.500021 0.632371 0 -0.000772476 0.00144958
38 1 0.49067 0.16665 0.703811 0 0.0024662 -0.0042572
39 1 0.407668 0.666647 0.632371 0 0.00078392 0.00146866
40 1 0.406676 0.000184544 0.846625 0 -0.00197983 -0.130714
41 1 0.323677 0.500032 0.775259 0 -0.01684 -0.0933037
42 1 0.156675 0.166483 0.846625 0 0.00198364 -0.13072
43 1 0.0736766 0.666635 0.775259 0 0.0168381 -0.0933151
44 1 0.0717324 0.00393106 0.984271 0 0.0257473 -0.0903015
45 1 0.988755 0.500647 0.913236 0 0.0247688 -0.108047
46 1 0.575672 0.666651 0.346642 0 0.00246239 0.00424957
47 1 0.491675 0.500024 0.489511 0 0.000146866 -0.00273514
48 1 0.241675 0.666642 0.489511 0 -0.000137329 -0.00274467
49 1 0.157667 0.50002 0.632371 0 -0.000772476 0.00147438
50 1 0.907668 0.666646 0.632371 0 0.000780106 0.0014801
51 1 0.823678 0.500032 0.775259 0 -0.0168343 -0.0933151
52 1 0.82173 0.162737 0.984271 0 -0.0257339 -0.0902996
53 1 0.738754 0.66602 0.913236 0 -0.0247746 -0.108059
54 1 0.573677 0.666635 0.775259 0 0.0168343 -0.0933094
55 1 0.488754 0.500647 0.913236 0 0.0247707 -0.108049
56 1 0.238754 0.66602 0.913236 0 -0.0247707 -0.108057
ITEM: TIMESTEP
2
ITEM: NUMBER OF ATOMS
56
ITEM: BOX BOUNDS xy xz yz pp pp pp
-2.4697008728981018e+00 1.2203788340091705e+01 0.0000000000000000e+00
-8.4733366966247559e-03 5.5348814725875854e+00 -2.4510123729705811e+00
-2.9168844223022461e-02 1.9049128890037537e+01 0.0000000000000000e+00
ITEM: ATOMS id type xs ys zs fx fy fz
1 1 0.578149 0.00285562 0.140016 0 -0.00311852 -0.0484257
2 1 0.32815 0.16381 0.140016 0 0.0031395 -0.0484314
3 1 0.243151 -0.00146938 0.277611 0 -0.00102615 0.0545216
4 1 0.99315 0.168137 0.277611 0 0.00101471 0.0545197
5 1 0.908668 -4.82971e-05 0.418044 0 -0.00783539 0.0413342
6 1 0.0781499 0.00285621 0.140016 0 -0.00313759 -0.0484161
7 1 0.99508 0.506226 0.0685211 0 -0.0100899 -0.0675774
8 1 0.828151 0.163811 0.140016 0 0.00312805 -0.0484104
9 1 0.745081 0.660441 0.0685213 0 0.0101051 -0.067585
10 1 0.743152 -0.00146895 0.277611 0 -0.00102234 0.0545216
11 1 0.658667 0.166716 0.418044 0 0.00783157 0.0413322
12 1 0.574681 3.70865e-05 0.561012 0 -0.00224304 -0.0035305
13 1 0.324682 0.166629 0.561013 0 0.00225449 -0.0035305
14 1 0.240648 -0.000204019 0.703701 0 -0.0111542 -0.0715618
15 1 0.990648 0.166871 0.7037 0 0.011137 -0.0715542
16 1 0.905998 7.7598e-06 0.843238 0 -0.00218773 -0.0324821
17 1 0.660345 0.500008 0.207215 0 -0.00219727 0.0324707
18 1 0.493151 0.168136 0.277611 0 0.00101471 0.0545216
19 1 0.410346 0.666659 0.207215 0 0.00218391 0.0324841
20 1 0.408668 -4.8143e-05 0.418044 0 -0.00784302 0.0413342
21 1 0.325695 0.499796 0.346752 0 -0.0111485 0.0715694
22 1 0.158668 0.166716 0.418044 0 0.00784111 0.0413322
23 1 0.0756948 0.666871 0.346752 0 0.0111561 0.0715694
24 1 0.0746819 3.69767e-05 0.561012 0 -0.00224495 -0.00352669
25 1 0.99166 0.500037 0.48944 0 -0.00224113 0.00353241
26 1 0.824683 0.16663 0.561013 0 0.00224876 -0.0035305
27 1 0.741661 0.66663 0.489441 0 0.00224495 0.00351715
28 1 0.49508 0.506227 0.0685212 0 -0.0100956 -0.0675888
29 1 0.24508 0.66044 0.0685212 0 0.0100994 -0.0675907
30 1 0.160346 0.500008 0.207215 0 -0.00219536 0.0324745
31 1 0.910346 0.666659 0.207215 0 0.00219154 0.0324688
32 1 0.825696 0.499796 0.346752 0 -0.0111523 0.0715675
33 1 0.655996 0.166659 0.843238 0 0.00219154 -0.0324631
34 1 0.571263 0.00622704 0.981932 0 -0.0101051 0.0675831
35 1 0.321263 0.16044 0.981931 0 0.0100975 0.0675945
36 1 0.740647 -0.00020371 0.703701 0 -0.0111523 -0.0715656
37 1 0.657673 0.499952 0.632409 0 -0.0078392 -0.0413189
38 1 0.490648 0.16687 0.703701 0 0.0111637 -0.0715694
39 1 0.407675 0.666717 0.632409 0 0.00782013 -0.0413361
40 1 0.405997 8.01206e-06 0.843238 0 -0.00219727 -0.0324745
41 1 0.323192 0.49853 0.772842 0 -0.00101852 -0.0545273
42 1 0.155996 0.16666 0.843238 0 0.00218582 -0.0324707
43 1 0.0731918 0.668136 0.772841 0 0.00102806 -0.0545101
44 1 0.0712632 0.00622683 0.981932 0 -0.0100994 0.0675964
45 1 0.988193 0.502855 0.910437 0 -0.00312233 0.04842
46 1 0.575694 0.66687 0.346752 0 0.0111656 0.0715694
47 1 0.49166 0.500037 0.489441 0 -0.00223923 0.00351524
48 1 0.24166 0.66663 0.48944 0 0.00224495 0.00352478
49 1 0.157675 0.499951 0.632409 0 -0.00783539 -0.0413418
50 1 0.907676 0.666716 0.632409 0 0.00783157 -0.0413342
51 1 0.823193 0.498531 0.772842 0 -0.00101662 -0.0545254
52 1 0.821261 0.160442 0.981932 0 0.0100937 0.0675659
53 1 0.738192 0.663811 0.910437 0 0.00313187 0.0484219
54 1 0.573192 0.668136 0.772842 0 0.00101662 -0.0545349
55 1 0.488193 0.502856 0.910437 0 -0.00312805 0.0484219
56 1 0.238193 0.663811 0.910437 0 0.00312424 0.0484295
ITEM: TIMESTEP
3
ITEM: NUMBER OF ATOMS
56
ITEM: BOX BOUNDS xy xz yz pp pp pp
-2.4697008728981018e+00 1.2203788340091705e+01 0.0000000000000000e+00
-8.4733366966247559e-03 5.5348814725875854e+00 -2.4510123729705811e+00
-2.9168844223022461e-02 1.9049128890037537e+01 0.0000000000000000e+00
ITEM: ATOMS id type xs ys zs fx fy fz
1 1 0.578138 0.00345354 0.139962 0 -0.00904274 0.0259781
2 1 0.328139 0.163213 0.139962 0 0.00904465 0.02598
3 1 0.243592 -0.00212875 0.279812 0 0.00889206 -0.0191364
4 1 0.993592 0.168795 0.279812 0 -0.00887871 -0.0191269
5 1 0.908858 -0.000703988 0.418994 0 -0.00744438 0.0461712
6 1 0.078139 0.0034528 0.139962 0 -0.00904274 0.0259819
7 1 0.994944 0.506297 0.067843 0 0.00687981 0.0181217
8 1 0.82814 0.163214 0.139962 0 0.00905037 0.0259686
9 1 0.744945 0.660371 0.0678429 0 -0.00688934 0.0181274
10 1 0.743593 -0.00212788 0.279812 0 0.00888443 -0.0191269
11 1 0.658857 0.167372 0.418994 0 0.00744629 0.0461788
12 1 0.57467 -0.000138161 0.560957 0 -0.00935555 -0.01894
13 1 0.324671 0.166805 0.560957 0 0.00935745 -0.0189419
14 1 0.240305 -0.00118454 0.701988 0 -0.00584412 -0.0469379
15 1 0.990305 0.16785 0.701988 0 0.00585175 -0.0469322
16 1 0.905585 -0.000235835 0.841179 0 0.00362396 0.0417271
17 1 0.660758 0.499764 0.209274 0 0.00362778 -0.0417328
18 1 0.493592 0.168794 0.279812 0 -0.00886726 -0.0191345
19 1 0.410759 0.666903 0.209274 0 -0.00363541 -0.0417423
20 1 0.408858 -0.000704512 0.418994 0 -0.00744057 0.0461788
21 1 0.326038 0.498815 0.348465 0 -0.00584793 0.0469303
22 1 0.158858 0.167372 0.418994 0 0.0074482 0.0461807
23 1 0.0760382 0.667852 0.348465 0 0.00583839 0.0469265
24 1 0.0746709 -0.000138489 0.560957 0 -0.00934982 -0.0189476
25 1 0.991671 0.499862 0.489495 0 -0.00936317 0.0189476
26 1 0.824672 0.166805 0.560958 0 0.00936127 -0.0189457
27 1 0.741672 0.666805 0.489496 0 0.00935936 0.0189438
28 1 0.494944 0.506298 0.0678428 0 0.00689507 0.0181274
29 1 0.244944 0.660369 0.0678428 0 -0.00688934 0.0181293
30 1 0.160759 0.499764 0.209274 0 0.00362015 -0.041729
31 1 0.910759 0.666903 0.209274 0 -0.00363731 -0.0417366
32 1 0.826039 0.498816 0.348465 0 -0.00584602 0.0469398
33 1 0.655583 0.166903 0.841179 0 -0.00362015 0.0417328
34 1 0.571399 0.00629743 0.98261 0 0.00687599 -0.018137
35 1 0.321399 0.160369 0.98261 0 -0.00688744 -0.0181141
36 1 0.740304 -0.00118408 0.701988 0 -0.00585365 -0.0469475
37 1 0.657483 0.499296 0.631459 0 -0.00744629 -0.0461731
38 1 0.490305 0.167851 0.701988 0 0.00584221 -0.0469341
39 1 0.407485 0.667371 0.631459 0 0.00744629 -0.0461845
40 1 0.405584 -0.000236283 0.841179 0 0.00362778 0.0417404
41 1 0.322751 0.497872 0.77064 0 0.00888824 0.0191326
42 1 0.155583 0.166903 0.841179 0 -0.00362396 0.0417423
43 1 0.0727505 0.668796 0.77064 0 -0.0089016 0.0191345
44 1 0.0713993 0.00629774 0.98261 0 0.00689888 -0.0181255
45 1 0.988204 0.503453 0.910491 0 -0.00904083 -0.02598
46 1 0.576038 0.667851 0.348465 0 0.0058403 0.0469379
47 1 0.491671 0.499863 0.489495 0 -0.0093689 0.0189381
48 1 0.241671 0.666806 0.489495 0 0.00935555 0.0189514
49 1 0.157485 0.499295 0.631459 0 -0.00744629 -0.0461731
50 1 0.907485 0.667372 0.631459 0 0.00744247 -0.0461788
51 1 0.822752 0.497872 0.77064 0 0.00888443 0.0191479
52 1 0.821397 0.160371 0.982609 0 -0.00688362 -0.0181141
53 1 0.738203 0.663214 0.910491 0 0.00904465 -0.0259895
54 1 0.57275 0.668794 0.77064 0 -0.00888062 0.0191422
55 1 0.488204 0.503453 0.910491 0 -0.00905037 -0.0259895
56 1 0.238204 0.663214 0.910491 0 0.00905037 -0.0259876
ITEM: TIMESTEP
4
ITEM: NUMBER OF ATOMS
56
ITEM: BOX BOUNDS xy xz yz pp pp pp
-2.4697008728981018e+00 1.2203788340091705e+01 0.0000000000000000e+00
-8.4733366966247559e-03 5.5348814725875854e+00 -2.4510123729705811e+00
-2.9168844223022461e-02 1.9049128890037537e+01 0.0000000000000000e+00
ITEM: ATOMS id type xs ys zs fx fy fz
1 1 0.578233 0.0030716 0.140433 0 -0.00116158 0.00493813
2 1 0.328234 0.163596 0.140433 0 0.00115585 0.00495148
3 1 0.243671 -0.00177762 0.280205 0 0.00120163 0.000486374
4 1 0.99367 0.168444 0.280205 0 -0.00120735 0.000484467
5 1 0.909098 -0.00141124 0.420189 0 -0.00317764 0.00271988
6 1 0.0782335 0.0030704 0.140433 0 -0.00116158 0.00494576
7 1 0.994966 0.506768 0.0679525 0 -0.00116348 0.000324249
8 1 0.828234 0.163597 0.140432 0 0.00115395 0.00495148
9 1 0.744967 0.6599 0.0679525 0 0.00115967 0.000320435
10 1 0.743672 -0.00177709 0.280205 0 0.00120354 0.000476837
11 1 0.659097 0.168079 0.420189 0 0.00318336 0.00272369
12 1 0.574595 -0.000804971 0.560581 0 -0.0105 -0.0114765
13 1 0.324596 0.167473 0.560582 0 0.0105 -0.0114765
14 1 0.24001 -0.00189915 0.700518 0 0.00195694 0.00795555
15 1 0.99001 0.168565 0.700518 0 -0.00194931 0.00794792
16 1 0.905601 -8.41284e-05 0.841261 0 0.00634766 0.00279427
17 1 0.660742 0.499916 0.209192 0 0.00633812 -0.00278091
18 1 0.493671 0.168444 0.280205 0 -0.00120354 0.000476837
19 1 0.410743 0.66675 0.209192 0 -0.0063324 -0.00278473
20 1 0.409098 -0.00141175 0.420189 0 -0.00317764 0.00271988
21 1 0.326333 0.498101 0.349935 0 0.00196075 -0.00795937
22 1 0.159098 0.168079 0.420189 0 0.00317955 0.00271988
23 1 0.0763331 0.668566 0.349935 0 -0.00195503 -0.00795174
24 1 0.0745955 -0.000805003 0.560582 0 -0.0105 -0.0114765
25 1 0.991747 0.499195 0.489871 0 -0.0105019 0.0114765
26 1 0.824597 0.167473 0.560582 0 0.0105019 -0.0114765
27 1 0.741748 0.667472 0.489871 0 0.0105038 0.0114746
28 1 0.494966 0.50677 0.0679523 0 -0.00116539 0.000320435
29 1 0.244966 0.659898 0.0679523 0 0.00115585 0.000331879
30 1 0.160743 0.499915 0.209192 0 0.00634384 -0.00278473
31 1 0.910743 0.66675 0.209192 0 -0.00633621 -0.00278664
32 1 0.826334 0.498101 0.349935 0 0.00195122 -0.00795174
33 1 0.6556 0.166751 0.841261 0 -0.00633812 0.00278282
34 1 0.571377 0.00676752 0.9825 0 -0.00115395 -0.000322342
35 1 0.321377 0.159898 0.982501 0 0.00116158 -0.000331879
36 1 0.740009 -0.00189925 0.700517 0 0.00195503 0.00795746
37 1 0.657243 0.498588 0.630264 0 -0.00317764 -0.0027256
38 1 0.49001 0.168566 0.700518 0 -0.00197029 0.00796318
39 1 0.407245 0.668079 0.630264 0 0.00318527 -0.00271416
40 1 0.4056 -8.4569e-05 0.841261 0 0.00634384 0.0027771
41 1 0.322672 0.498223 0.770248 0 0.00119781 -0.000484467
42 1 0.1556 0.166751 0.841261 0 -0.00633621 0.00279045
43 1 0.0726718 0.668444 0.770248 0 -0.00120544 -0.000486374
44 1 0.0713774 0.00676949 0.982501 0 -0.00116158 -0.000328064
45 1 0.98811 0.503071 0.91002 0 -0.00115204 -0.00493622
46 1 0.576333 0.668566 0.349935 0 -0.00195503 -0.00795937
47 1 0.491747 0.499195 0.489871 0 -0.010498 0.0114841
48 1 0.241747 0.667473 0.489871 0 0.0105019 0.0114708
49 1 0.157245 0.498588 0.630264 0 -0.00318146 -0.00271606
50 1 0.907246 0.668079 0.630264 0 0.00317001 -0.00271606
51 1 0.822673 0.498223 0.770248 0 0.00120163 -0.000494003
52 1 0.821375 0.1599 0.9825 0 0.00115395 -0.000328064
53 1 0.738109 0.663596 0.91002 0 0.00116539 -0.00493813
54 1 0.572672 0.668443 0.770248 0 -0.00119781 -0.000488281
55 1 0.488109 0.503071 0.91002 0 -0.0011692 -0.00494576
56 1 0.238109 0.663596 0.91002 0 0.00115585 -0.00494576
ITEM: TIMESTEP
5
ITEM: NUMBER OF ATOMS
56
ITEM: BOX BOUNDS xy xz yz pp pp pp
-2.4697008728981018e+00 1.2203788340091705e+01 0.0000000000000000e+00
-8.4733366966247559e-03 5.5348814725875854e+00 -2.4510123729705811e+00
-2.9168844223022461e-02 1.9049128890037537e+01 0.0000000000000000e+00
ITEM: ATOMS id type xs ys zs fx fy fz
1 1 0.578252 0.00299457 0.140528 0 0.000993729 -0.000350952
2 1 0.328253 0.163673 0.140528 0 -0.00100136 -0.000349045
3 1 0.243673 -0.00169818 0.280216 0 0.00203514 0.00181389
4 1 0.993673 0.168364 0.280216 0 -0.0020237 0.00180817
5 1 0.909109 -0.00162009 0.420247 0 -0.0038681 -0.00283241
6 1 0.0782526 0.00299337 0.140528 0 0.00100136 -0.000350952
7 1 0.994967 0.506696 0.0679592 0 -0.00124741 -0.00301552
8 1 0.828253 0.163673 0.140528 0 -0.000999451 -0.000352859
9 1 0.744969 0.659972 0.0679591 0 0.00124741 -0.00300407
10 1 0.743674 -0.00169753 0.280216 0 0.0020256 0.00181198
11 1 0.659108 0.168288 0.420247 0 0.0038662 -0.00283813
12 1 0.574551 -0.00148579 0.560364 0 -0.00377083 0.00304794
13 1 0.324552 0.168153 0.560364 0 0.00377464 0.00305176
14 1 0.240038 -0.00177692 0.700659 0 0.000534058 -0.00266075
15 1 0.990038 0.168443 0.700659 0 -0.000537872 -0.00265121
16 1 0.905612 0.000326058 0.841314 0 0.000495911 0.00191498
17 1 0.660731 0.500325 0.209139 0 0.000499725 -0.00191879
18 1 0.493673 0.168364 0.280216 0 -0.00202751 0.0018177
19 1 0.410732 0.666341 0.209139 0 -0.000492096 -0.00192833
20 1 0.40911 -0.0016206 0.420247 0 -0.00387001 -0.00284767
21 1 0.326305 0.498223 0.349794 0 0.000526428 0.00265884
22 1 0.159109 0.168288 0.420247 0 0.00387383 -0.00284004
23 1 0.0763048 0.668444 0.349794 0 -0.00053978 0.00265694
24 1 0.0745519 -0.00148582 0.560364 0 -0.00377846 0.00305367
25 1 0.99179 0.498514 0.490089 0 -0.00377083 -0.00305176
26 1 0.824553 0.168154 0.560365 0 0.00377846 0.00304604
27 1 0.741791 0.668153 0.490088 0 0.00377464 -0.00305176
28 1 0.494967 0.506697 0.0679589 0 -0.00125694 -0.00300598
29 1 0.244967 0.65997 0.0679592 0 0.00126076 -0.00302124
30 1 0.160732 0.500325 0.209139 0 0.000488281 -0.00192261
31 1 0.910732 0.666341 0.209139 0 -0.000497818 -0.00191689
32 1 0.826306 0.498223 0.349794 0 0.000541687 0.00265694
33 1 0.65561 0.166342 0.841313 0 -0.000495911 0.00191498
34 1 0.571376 0.00669572 0.982494 0 -0.0012455 0.00300598
35 1 0.321376 0.159971 0.982494 0 0.00124359 0.00300789
36 1 0.740037 -0.00177716 0.700658 0 0.000543594 -0.00265503
37 1 0.657232 0.498379 0.630206 0 -0.00387383 0.00284576
38 1 0.490038 0.168443 0.700659 0 -0.000528336 -0.00265884
39 1 0.407233 0.668288 0.630206 0 0.0038681 0.00283813
40 1 0.405611 0.000325372 0.841314 0 0.000488281 0.00191498
41 1 0.32267 0.498302 0.770237 0 0.00203133 -0.0018177
42 1 0.15561 0.166342 0.841314 0 -0.000497818 0.00191307
43 1 0.0726695 0.668364 0.770237 0 -0.00202751 -0.00181198
44 1 0.071376 0.00669721 0.982494 0 -0.00125504 0.00301552
45 1 0.988091 0.502995 0.909925 0 0.00100327 0.000352859
46 1 0.576304 0.668444 0.349794 0 -0.00053215 0.00265884
47 1 0.49179 0.498514 0.490088 0 -0.00377655 -0.00304413
48 1 0.24179 0.668154 0.490088 0 0.00377083 -0.00305176
49 1 0.157233 0.498379 0.630206 0 -0.0038681 0.00284195
50 1 0.907234 0.668287 0.630206 0 0.00387573 0.00283051
51 1 0.822671 0.498303 0.770236 0 0.00201797 -0.00180626
52 1 0.821374 0.159972 0.982493 0 0.00124931 0.00302124
53 1 0.738089 0.663674 0.909925 0 -0.00100517 0.000350952
54 1 0.572669 0.668364 0.770236 0 -0.00203133 -0.00181007
55 1 0.48809 0.502993 0.909925 0 0.00100708 0.000352859
56 1 0.23809 0.663673 0.909925 0 -0.000997543 0.000362396
ITEM: TIMESTEP
6
ITEM: NUMBER OF ATOMS
56
ITEM: BOX BOUNDS xy xz yz pp pp pp
-2.4697008728981018e+00 1.2203788340091705e+01 0.0000000000000000e+00
-8.4733366966247559e-03 5.5348814725875854e+00 -2.4510123729705811e+00
-2.9168844223022461e-02 1.9049128890037537e+01 0.0000000000000000e+00
ITEM: ATOMS id type xs ys zs fx fy fz
1 1 0.578255 0.00305466 0.140542 0 0.000268936 0.000425339
2 1 0.328256 0.163612 0.140543 0 -0.000261307 0.000411987
3 1 0.243682 -0.00151859 0.280261 0 -1.14441e-05 -0.000745773
4 1 0.993682 0.168186 0.28026 0 -7.62939e-06 -0.000734329
5 1 0.909099 -0.00197522 0.420195 0 -0.000547409 0.00101662
6 1 0.0782555 0.00305406 0.140543 0 0.000265121 0.000419617
7 1 0.994954 0.50658 0.0678916 0 0.00066185 0.000295639
8 1 0.828256 0.163613 0.140543 0 -0.000265121 0.000429153
9 1 0.744955 0.660088 0.0678917 0 -0.000667572 0.000291824
10 1 0.743683 -0.00151866 0.28026 0 -3.8147e-06 -0.000738144
11 1 0.659098 0.168643 0.420195 0 0.000535965 0.00102425
12 1 0.574555 -0.00194571 0.560382 0 -0.000640869 0.000715256
13 1 0.324556 0.168614 0.560383 0 0.000629425 0.000715256
14 1 0.240032 -0.00170564 0.700631 0 -0.000646591 -0.000270844
15 1 0.990033 0.168372 0.700631 0 0.000648499 -0.000276566
16 1 0.905623 0.000462952 0.84137 0 -0.000257492 -0.000349045
17 1 0.66072 0.500462 0.209083 0 -0.000247955 0.000352859
18 1 0.493682 0.168185 0.28026 0 1.14441e-05 -0.000749588
19 1 0.410721 0.666205 0.209082 0 0.000230789 0.000364304
20 1 0.409099 -0.00197587 0.420195 0 -0.000541687 0.00103188
21 1 0.32631 0.498294 0.349822 0 -0.000635147 0.000274658
22 1 0.159099 0.168644 0.420195 0 0.00053215 0.00102234
23 1 0.0763103 0.668372 0.349822 0 0.000650406 0.000278473
24 1 0.0745556 -0.00194634 0.560383 0 -0.000637054 0.000713348
25 1 0.991786 0.498054 0.49007 0 -0.000629425 -0.000717163
26 1 0.824557 0.168614 0.560383 0 0.000631332 0.00071907
27 1 0.741788 0.668614 0.49007 0 0.000637054 -0.000709534
28 1 0.494953 0.506581 0.0678916 0 0.000671387 0.00028038
29 1 0.244954 0.660087 0.0678915 0 -0.000679016 0.000299454
30 1 0.160721 0.500461 0.209083 0 -0.000234604 0.000350952
31 1 0.910721 0.666204 0.209083 0 0.000247955 0.000350952
32 1 0.826311 0.498295 0.349822 0 -0.000642776 0.000272751
33 1 0.655622 0.166205 0.84137 0 0.000244141 -0.00034523
34 1 0.571389 0.00658028 0.982561 0 0.000659943 -0.000282288
35 1 0.321389 0.160086 0.982561 0 -0.00066185 -0.000286102
36 1 0.740031 -0.00170515 0.700631 0 -0.000656128 -0.000276566
37 1 0.657242 0.498024 0.630258 0 -0.000535965 -0.00102615
38 1 0.490033 0.168372 0.700631 0 0.000642776 -0.000284195
39 1 0.407244 0.668643 0.630258 0 0.00053978 -0.00102997
40 1 0.405622 0.000461605 0.84137 0 -0.000242233 -0.000347137
41 1 0.322661 0.498481 0.770192 0 -9.53674e-06 0.000751495
42 1 0.155622 0.166205 0.84137 0 0.00025177 -0.000350952
43 1 0.0726606 0.668185 0.770192 0 0 0.000743866
44 1 0.0713896 0.00658091 0.982562 0 0.000677109 -0.000295639
45 1 0.988088 0.503056 0.909911 0 0.000265121 -0.000429153
46 1 0.57631 0.668373 0.349822 0 0.000648499 0.000272751
47 1 0.491787 0.498054 0.49007 0 -0.000629425 -0.000720978
48 1 0.241787 0.668614 0.49007 0 0.000640869 -0.000709534
49 1 0.157244 0.498024 0.630258 0 -0.000537872 -0.00103188
50 1 0.907245 0.668643 0.630258 0 0.000545502 -0.00102234
51 1 0.822662 0.498481 0.770192 0 1.14441e-05 0.000740051
52 1 0.821387 0.160088 0.982561 0 -0.000658035 -0.000299454
53 1 0.738087 0.663613 0.90991 0 -0.000263214 -0.000427246
54 1 0.57266 0.668185 0.770192 0 5.72205e-06 0.000757217
55 1 0.488087 0.503054 0.90991 0 0.000272751 -0.000429153
56 1 0.238087 0.663613 0.90991 0 -0.000276566 -0.000436783
ITEM: TIMESTEP
7
ITEM: NUMBER OF ATOMS
56
ITEM: BOX BOUNDS xy xz yz pp pp pp
-2.4697008728981018e+00 1.2203788340091705e+01 0.0000000000000000e+00
-8.4733366966247559e-03 5.5348814725875854e+00 -2.4510123729705811e+00
-2.9168844223022461e-02 1.9049128890037537e+01 0.0000000000000000e+00
ITEM: ATOMS id type xs ys zs fx fy fz
1 1 0.578257 0.00307783 0.140553 0 5.72205e-06 -0.000494003
2 1 0.328258 0.163589 0.140552 0 -9.53674e-06 -0.000484467
3 1 0.243679 -0.00151081 0.280246 0 -0.000303268 0.000637054
4 1 0.993679 0.168176 0.280247 0 0.000320435 0.00063324
5 1 0.909103 -0.00203358 0.420215 0 -2.67029e-05 0.000141144
6 1 0.0782575 0.00307697 0.140553 0 1.90735e-06 -0.000495911
7 1 0.994954 0.506624 0.0678948 0 0.000293732 -0.000108719
8 1 0.828258 0.16359 0.140553 0 -5.72205e-06 -0.000499725
9 1 0.744956 0.660043 0.0678949 0 -0.000303268 -0.000114441
10 1 0.74368 -0.00151034 0.280246 0 -0.00030899 0.000646591
11 1 0.659102 0.168701 0.420215 0 4.19617e-05 0.0001297
12 1 0.574558 -0.00201616 0.560399 0 -0.000209808 -4.76837e-05
13 1 0.324559 0.168683 0.560399 0 0.00021553 -3.8147e-05
14 1 0.240031 -0.00175097 0.700624 0 -0.000352859 0.000200272
15 1 0.990031 0.168417 0.700624 0 0.000341415 0.000200272
16 1 0.905622 0.000450124 0.841366 0 0.000106812 -0.00034523
17 1 0.660721 0.50045 0.209088 0 9.34601e-05 0.000333786
18 1 0.493679 0.168177 0.280246 0 0.000303268 0.000646591
19 1 0.410722 0.666216 0.209088 0 -8.2016e-05 0.000329971
20 1 0.409103 -0.00203382 0.420215 0 -2.28882e-05 0.0001297
21 1 0.326312 0.498249 0.349829 0 -0.000356674 -0.000202179
22 1 0.159103 0.168701 0.420215 0 3.8147e-05 0.000141144
23 1 0.0763118 0.668418 0.349829 0 0.000337601 -0.000205994
24 1 0.0745589 -0.00201654 0.560399 0 -0.000204086 -4.19617e-05
25 1 0.991783 0.497984 0.490054 0 -0.000225067 4.76837e-05
26 1 0.82456 0.168684 0.560399 0 0.000213623 -4.3869e-05
27 1 0.741784 0.668684 0.490054 0 0.000205994 4.57764e-05
28 1 0.494954 0.506626 0.0678945 0 0.000293732 -0.000101089
29 1 0.244954 0.660041 0.0678948 0 -0.000286102 -0.00012207
30 1 0.160722 0.50045 0.209088 0 8.2016e-05 0.000341415
31 1 0.910722 0.666216 0.209088 0 -9.15527e-05 0.000341415
32 1 0.826313 0.49825 0.349829 0 -0.000350952 -0.000198364
33 1 0.655621 0.166217 0.841365 0 -9.53674e-05 -0.000335693
34 1 0.571389 0.00662449 0.982558 0 0.000299454 0.000101089
35 1 0.321389 0.160042 0.982558 0 -0.000297546 9.53674e-05
36 1 0.74003 -0.00175116 0.700624 0 -0.000339508 0.000198364
37 1 0.657238 0.497966 0.630238 0 -3.43323e-05 -0.000135422
38 1 0.490031 0.168417 0.700624 0 0.000349045 0.000209808
39 1 0.40724 0.668701 0.630237 0 3.24249e-05 -0.000127792
40 1 0.405621 0.000449895 0.841365 0 9.72748e-05 -0.000337601
41 1 0.322664 0.498489 0.770207 0 -0.00030899 -0.000642776
42 1 0.155621 0.166217 0.841365 0 -0.000104904 -0.000337601
43 1 0.0726635 0.668177 0.770207 0 0.000320435 -0.000642776
44 1 0.0713889 0.00662637 0.982558 0 0.000291824 0.000112534
45 1 0.988086 0.503079 0.909901 0 -1.90735e-06 0.000490189
46 1 0.576311 0.668418 0.349829 0 0.000349045 -0.000196457
47 1 0.491783 0.497984 0.490054 0 -0.000217438 4.3869e-05
48 1 0.241783 0.668684 0.490054 0 0.000202179 3.8147e-05
49 1 0.15724 0.497966 0.630238 0 -3.8147e-05 -0.000135422
50 1 0.907241 0.668701 0.630238 0 3.24249e-05 -0.000141144
51 1 0.822665 0.49849 0.770206 0 -0.000314713 -0.00063324
52 1 0.821387 0.160044 0.982558 0 -0.000291824 0.000116348
53 1 0.738084 0.66359 0.9099 0 -9.53674e-06 0.000511169
54 1 0.572663 0.668177 0.770207 0 0.000310898 -0.000659943
55 1 0.488085 0.503078 0.9099 0 0 0.000499725
56 1 0.238085 0.663589 0.9099 0 1.33514e-05 0.000507355
ITEM: TIMESTEP
8
ITEM: NUMBER OF ATOMS
56
ITEM: BOX BOUNDS xy xz yz pp pp pp
-2.4697008728981018e+00 1.2203788340091705e+01 0.0000000000000000e+00
-8.4733366966247559e-03 5.5348814725875854e+00 -2.4510123729705811e+00
-2.9168844223022461e-02 1.9049128890037537e+01 0.0000000000000000e+00
ITEM: ATOMS id type xs ys zs fx fy fz
1 1 0.578255 0.00308463 0.140545 0 0.000101089 0.00022316
2 1 0.328256 0.163582 0.140545 0 -0.000102997 0.00022316
3 1 0.243681 -0.00153092 0.280256 0 -7.05719e-05 0.000198364
4 1 0.993681 0.168197 0.280256 0 6.67572e-05 0.000192642
5 1 0.909105 -0.00205161 0.420224 0 -5.72205e-05 -2.47955e-05
6 1 0.078256 0.00308342 0.140545 0 9.53674e-05 0.000230789
7 1 0.994954 0.506658 0.0678934 0 6.29425e-05 0.000162125
8 1 0.828257 0.163583 0.140545 0 -0.000104904 0.000234604
9 1 0.744955 0.660009 0.0678933 0 -5.72205e-05 0.000171661
10 1 0.743682 -0.00153073 0.280256 0 -7.24792e-05 0.000196457
11 1 0.659104 0.16872 0.420224 0 5.34058e-05 -2.86102e-05
12 1 0.574559 -0.00205095 0.560403 0 4.95911e-05 -9.15527e-05
13 1 0.32456 0.168718 0.560403 0 -5.14984e-05 -8.7738e-05
14 1 0.240031 -0.00178934 0.700626 0 0 -0.000120163
15 1 0.990032 0.168455 0.700626 0 3.8147e-06 -0.000127792
16 1 0.905621 0.000454432 0.841357 0 -4.19617e-05 9.53674e-05
17 1 0.660723 0.500454 0.209096 0 -3.62396e-05 -8.7738e-05
18 1 0.493681 0.168197 0.280256 0 6.67572e-05 0.000196457
19 1 0.410724 0.666213 0.209096 0 4.57764e-05 -9.15527e-05
20 1 0.409105 -0.00205145 0.420224 0 -6.67572e-05 -2.28882e-05
21 1 0.326311 0.498211 0.349827 0 7.62939e-06 0.000125885
22 1 0.159105 0.16872 0.420224 0 4.95911e-05 -2.47955e-05
23 1 0.0763113 0.668455 0.349827 0 1.90735e-06 0.000125885