ITEM: TIMESTEP
0
ITEM: NUMBER OF ATOMS
32
ITEM: BOX BOUNDS xy xz yz pp pp pp
-2.1013021469116211e-03 8.7953941822052002e+00 2.3987438678741455e+00
-4.1524946689605713e-02 2.2124402940273285e+01 -0.0000000000000000e+00
-1.4066457748413086e-02 5.1965324282646179e+00 0.0000000000000000e+00
ITEM: ATOMS id type xs ys zs fx fy fz
1 1 0.893023 0.336621 0.593597 0 0.000762105 -1.19209e-07
2 1 0.393023 0.336621 0.593597 0 0.000762701 -4.76837e-07
3 1 0.158643 0.294954 0.093597 0 0.00115168 7.15256e-07
4 1 0.658643 0.294954 0.0935971 0 0.00115061 3.57628e-07
5 1 0.096163 0.461621 0.593597 0 -2.11e-05 3.57628e-07
6 1 0.596163 0.461621 0.593597 0 -2.15769e-05 1.19209e-07
7 1 0.861783 0.419954 0.0935971 0 -4.51803e-05 -4.76837e-07
8 1 0.361783 0.419954 0.0935971 0 -4.54187e-05 0
9 1 0.799303 0.586621 0.593597 0 4.01735e-05 -3.57628e-07
10 1 0.299303 0.586621 0.593597 0 3.99351e-05 -7.15256e-07
11 1 0.00244379 0.711621 0.593597 0 -0.0011518 -1.3113e-06
12 1 0.502444 0.711621 0.593597 0 -0.00115156 -1.3113e-06
13 1 0.768064 0.669954 0.093597 0 -0.000767708 1.3113e-06
14 1 0.0649233 0.544954 0.0935971 0 2.2769e-05 1.19209e-07
15 1 0.564923 0.544954 0.0935971 0 2.31266e-05 -1.19209e-07
16 1 0.268064 0.669954 0.093597 0 -0.000767469 1.43051e-06
17 1 0.705584 0.83662 0.593597 0 0.00760579 1.19209e-07
18 1 0.205584 0.83662 0.593597 0 0.00760484 -2.38419e-07
19 1 0.908725 0.96162 0.593597 0 -0.194755 -2.38419e-07
20 1 0.408725 0.96162 0.593597 0 -0.194755 -1.19209e-07
21 1 0.971204 0.794954 0.093597 0 0.00244904 4.76837e-07
22 1 0.471204 0.794954 0.0935971 0 0.00244963 3.57628e-07
23 1 0.674345 0.919954 0.0935971 0 -0.322996 -5.96046e-07
24 1 0.174345 0.919954 0.093597 0 -0.322997 8.34465e-07
25 1 0.986742 0.0866205 0.593597 0 0.323001 -9.53674e-07
26 1 0.486742 0.0866205 0.593597 0 0.323002 -8.34465e-07
27 1 0.252362 0.0449538 0.093597 0 0.194752 1.19209e-06
28 1 0.752362 0.0449538 0.093597 0 0.194752 4.76837e-07
29 1 0.189882 0.211621 0.593597 0 -0.00244796 -3.57628e-07
30 1 0.689882 0.211621 0.593597 0 -0.00244832 -3.57628e-07
31 1 0.955502 0.169954 0.093597 0 -0.00759935 7.15256e-07
32 1 0.455502 0.169954 0.0935971 0 -0.00759947 0
ITEM: TIMESTEP
1
ITEM: NUMBER OF ATOMS
32
ITEM: BOX BOUNDS xy xz yz pp pp pp
-2.1013021469116211e-03 8.7953941822052002e+00 2.3987438678741455e+00
-4.1524946689605713e-02 2.2124402940273285e+01 -0.0000000000000000e+00
-1.4066457748413086e-02 5.1965324282646179e+00 0.0000000000000000e+00
ITEM: ATOMS id type xs ys zs fx fy fz
1 1 0.89302 0.336628 0.593597 0 0.00202167 0
2 1 0.39302 0.336628 0.593597 0 0.00202239 -1.19209e-07
3 1 0.158638 0.294965 0.0935971 0 0.00898707 0
4 1 0.658638 0.294965 0.0935971 0 0.00898695 2.38419e-07
5 1 0.0961631 0.46162 0.593597 0 0.000237823 3.57628e-07
6 1 0.596163 0.46162 0.593597 0 0.000237584 -1.19209e-07
7 1 0.861783 0.419954 0.0935971 0 -0.000759602 -4.76837e-07
8 1 0.361783 0.419954 0.0935971 0 -0.000759482 -1.19209e-07
9 1 0.799303 0.586621 0.593597 0 0.000756383 2.38419e-07
10 1 0.299303 0.586621 0.593597 0 0.000756502 0
11 1 0.00244799 0.711609 0.593597 0 -0.00898647 -4.76837e-07
12 1 0.502448 0.711609 0.593597 0 -0.008986 -4.76837e-07
13 1 0.768066 0.669946 0.0935971 0 -0.00202429 2.38419e-07
14 1 0.0649232 0.544954 0.0935971 0 -0.000239372 -2.38419e-07
15 1 0.564923 0.544954 0.0935971 0 -0.000239134 1.19209e-07
16 1 0.268066 0.669946 0.0935971 0 -0.00202441 3.57628e-07
17 1 0.705557 0.836694 0.593597 0 -0.0660102 0
18 1 0.205556 0.836694 0.593597 0 -0.0660106 1.19209e-07
19 1 0.909435 0.959725 0.593597 0 0.0550777 0
20 1 0.409435 0.959725 0.593597 0 0.0550784 1.19209e-07
21 1 0.971195 0.794978 0.0935971 0 -0.0724212 2.38419e-07
22 1 0.471195 0.794978 0.0935971 0 -0.0724216 1.19209e-07
23 1 0.675523 0.91681 0.0935971 0 -0.0181035 -1.19209e-07
24 1 0.175523 0.91681 0.093597 0 -0.0181035 0
25 1 0.985564 0.0897638 0.593597 0 0.018106 -1.19209e-07
26 1 0.485563 0.0897638 0.593597 0 0.0181055 1.19209e-07
27 1 0.251651 0.0468491 0.093597 0 -0.0550766 2.38419e-07
28 1 0.751651 0.0468491 0.093597 0 -0.0550761 0
29 1 0.189891 0.211597 0.593597 0 0.0724217 -2.38419e-07
30 1 0.689891 0.211597 0.593597 0 0.0724212 0
31 1 0.95553 0.16988 0.0935971 0 0.0660126 2.38419e-07
32 1 0.45553 0.16988 0.0935971 0 0.0660126 -2.38419e-07
ITEM: TIMESTEP
2
ITEM: NUMBER OF ATOMS
32
ITEM: BOX BOUNDS xy xz yz pp pp pp
-2.1013021469116211e-03 8.7953941822052002e+00 2.3987438678741455e+00
-4.1524946689605713e-02 2.2124402940273285e+01 -0.0000000000000000e+00
-1.4066457748413086e-02 5.1965324282646179e+00 0.0000000000000000e+00
ITEM: ATOMS id type xs ys zs fx fy fz
1 1 0.893001 0.336679 0.593597 0 0.0388961 -1.19209e-07
2 1 0.393001 0.33668 0.593597 0 0.0388957 3.57628e-07
3 1 0.158555 0.295187 0.0935971 0 0.0456257 -1.19209e-07
4 1 0.658555 0.295187 0.0935971 0 0.0456258 0
5 1 0.096161 0.461626 0.593597 0 0.00257719 -7.15256e-07
6 1 0.596161 0.461626 0.593597 0 0.00257766 0
7 1 0.86179 0.419935 0.0935971 0 0.0106264 4.76837e-07
8 1 0.36179 0.419935 0.0935971 0 0.010626 1.19209e-07
9 1 0.799296 0.586639 0.593597 0 -0.0106249 -2.38419e-07
10 1 0.299296 0.586639 0.593597 0 -0.0106256 2.38419e-07
11 1 0.00253111 0.711388 0.593597 0 -0.0456262 1.07288e-06
12 1 0.502531 0.711388 0.593597 0 -0.0456264 8.34465e-07
13 1 0.768086 0.669895 0.0935971 0 -0.0388957 -8.34465e-07
14 1 0.0649254 0.544948 0.0935971 0 -0.00258029 3.57628e-07
15 1 0.564925 0.544948 0.0935971 0 -0.002581 -2.38419e-07
16 1 0.268086 0.669895 0.0935971 0 -0.0388951 -8.34465e-07
17 1 0.706148 0.835117 0.593597 0 0.0152832 2.38419e-07
18 1 0.206148 0.835117 0.593597 0 0.0152835 1.19209e-07
19 1 0.909166 0.960444 0.593597 0 0.00956333 0
20 1 0.409166 0.960444 0.593597 0 0.00956202 -1.19209e-07
21 1 0.971851 0.793228 0.0935971 0 -0.00695646 -5.96046e-07
22 1 0.471851 0.793228 0.0935971 0 -0.00695586 -3.57628e-07
23 1 0.676071 0.915347 0.093597 0 0.0073278 1.19209e-07
24 1 0.176071 0.915347 0.0935971 0 0.00732756 2.38419e-07
25 1 0.985015 0.0912273 0.593597 0 -0.00732946 4.76837e-07
26 1 0.485015 0.0912273 0.593597 0 -0.00732839 0
27 1 0.251921 0.04613 0.0935971 0 -0.0095582 -1.19209e-07
28 1 0.751921 0.04613 0.0935971 0 -0.00955844 -1.19209e-07
29 1 0.189235 0.213346 0.593597 0 0.00695562 1.19209e-07
30 1 0.689235 0.213346 0.593597 0 0.00695598 -1.19209e-07
31 1 0.954938 0.171458 0.0935971 0 -0.0152837 -3.57628e-07
32 1 0.454938 0.171458 0.0935971 0 -0.0152838 1.19209e-07
ITEM: TIMESTEP
3
ITEM: NUMBER OF ATOMS
32
ITEM: BOX BOUNDS xy xz yz pp pp pp
-2.1013021469116211e-03 8.7953941822052002e+00 2.3987438678741455e+00
-4.1524946689605713e-02 2.2124402940273285e+01 -0.0000000000000000e+00
-1.4066457748413086e-02 5.1965324282646179e+00 0.0000000000000000e+00
ITEM: ATOMS id type xs ys zs fx fy fz
1 1 0.892639 0.337644 0.593597 0 0.0037899 1.19209e-07
2 1 0.392639 0.337644 0.593597 0 0.00378966 -1.19209e-07
3 1 0.158113 0.296365 0.0935971 0 -0.00646353 0
4 1 0.658113 0.296365 0.0935971 0 -0.00646353 -2.38419e-07
5 1 0.0961368 0.461691 0.593597 0 0.0117339 3.57628e-07
6 1 0.596137 0.461691 0.593597 0 0.0117339 0
7 1 0.861695 0.420189 0.0935971 0 0.0286826 0
8 1 0.361695 0.420189 0.0935971 0 0.0286829 0
9 1 0.799392 0.586385 0.593597 0 -0.028685 0
10 1 0.299392 0.586385 0.593597 0 -0.0286838 -1.19209e-07
11 1 0.00297299 0.710209 0.593597 0 0.00646329 -8.34465e-07
12 1 0.502973 0.710209 0.593597 0 0.00646293 -4.76837e-07
13 1 0.768448 0.66893 0.0935971 0 -0.00379062 4.76837e-07
14 1 0.0649496 0.544884 0.0935971 0 -0.0117328 -3.57628e-07
15 1 0.56495 0.544884 0.0935971 0 -0.0117321 0
16 1 0.268448 0.66893 0.0935971 0 -0.00379133 5.96046e-07
17 1 0.70618 0.835031 0.593597 0 -0.00105488 -7.15256e-07
18 1 0.20618 0.835031 0.593597 0 -0.00105453 -2.38419e-07
19 1 0.909 0.960887 0.593597 0 -0.0174531 0
20 1 0.409 0.960887 0.593597 0 -0.0174518 4.76837e-07
21 1 0.972106 0.792549 0.093597 0 -0.00292718 8.34465e-07
22 1 0.472106 0.792549 0.0935971 0 -0.00292766 3.57628e-07
23 1 0.676164 0.9151 0.093597 0 -0.00665784 2.38419e-07
24 1 0.176164 0.9151 0.0935971 0 -0.00665724 -4.76837e-07
25 1 0.984922 0.0914739 0.593597 0 0.00666106 -1.19209e-07
26 1 0.484922 0.091474 0.593597 0 0.00665951 1.19209e-07
27 1 0.252087 0.0456875 0.0935971 0 0.0174507 -2.38419e-07
28 1 0.752087 0.0456875 0.093597 0 0.0174507 3.57628e-07
29 1 0.188981 0.214025 0.593597 0 0.0029273 -2.38419e-07
30 1 0.688981 0.214025 0.593597 0 0.0029273 2.38419e-07
31 1 0.954906 0.171543 0.0935971 0 0.00105512 0
32 1 0.454906 0.171543 0.0935971 0 0.00105608 0
ITEM: TIMESTEP
4
ITEM: NUMBER OF ATOMS
32
ITEM: BOX BOUNDS xy xz yz pp pp pp
-2.1013021469116211e-03 8.7953941822052002e+00 2.3987438678741455e+00
-4.1524946689605713e-02 2.2124402940273285e+01 -0.0000000000000000e+00
-1.4066457748413086e-02 5.1965324282646179e+00 0.0000000000000000e+00
ITEM: ATOMS id type xs ys zs fx fy fz
1 1 0.892537 0.337916 0.593597 0 0.00033021 0
2 1 0.392537 0.337916 0.593597 0 0.00033021 -2.38419e-07
3 1 0.158055 0.296522 0.0935971 0 -0.000772834 0
4 1 0.658055 0.296522 0.0935971 0 -0.000772715 -1.19209e-07
5 1 0.0960616 0.461891 0.593597 0 -0.00568593 0
6 1 0.596062 0.461891 0.593597 0 -0.00568664 -1.19209e-07
7 1 0.861503 0.4207 0.0935971 0 0.000964403 0
8 1 0.361503 0.4207 0.0935971 0 0.000964046 0
9 1 0.799583 0.585874 0.593597 0 -0.000964046 -2.38419e-07
10 1 0.299583 0.585874 0.593597 0 -0.000964165 -4.76837e-07
11 1 0.00303157 0.710053 0.593597 0 0.000772238 -1.19209e-07
12 1 0.503032 0.710053 0.593597 0 0.000772476 0
13 1 0.768549 0.668658 0.0935971 0 -0.000329971 4.76837e-07
14 1 0.0650248 0.544683 0.0935971 0 0.00568533 1.19209e-07
15 1 0.565025 0.544683 0.0935971 0 0.00568545 2.38419e-07
16 1 0.26855 0.668658 0.0935971 0 -0.00033021 1.19209e-07
17 1 0.706193 0.834996 0.593597 0 -0.00834012 4.76837e-07
18 1 0.206193 0.834996 0.593597 0 -0.00834084 2.38419e-07
19 1 0.909067 0.960707 0.593597 0 -0.00236773 3.57628e-07
20 1 0.409067 0.960707 0.593597 0 -0.00236762 -5.96046e-07
21 1 0.972179 0.792354 0.0935971 0 -0.00360191 -4.76837e-07
22 1 0.472179 0.792354 0.0935971 0 -0.00360179 -1.19209e-07
23 1 0.676224 0.914941 0.0935971 0 0.0035603 -1.19209e-07
24 1 0.176224 0.914941 0.0935971 0 0.0035603 2.38419e-07
25 1 0.984863 0.0916339 0.593597 0 -0.00356007 -1.19209e-07
26 1 0.484862 0.0916339 0.593597 0 -0.00355983 0
27 1 0.252019 0.0458673 0.0935971 0 0.00236714 2.38419e-07
28 1 0.752019 0.0458673 0.0935971 0 0.00236714 -2.38419e-07
29 1 0.188908 0.214221 0.593597 0 0.00360274 2.38419e-07
30 1 0.688908 0.214221 0.593597 0 0.00360239 0
31 1 0.954893 0.171579 0.0935971 0 0.00834155 2.38419e-07
32 1 0.454893 0.171579 0.0935971 0 0.00834048 0
ITEM: TIMESTEP
5
ITEM: NUMBER OF ATOMS
32
ITEM: BOX BOUNDS xy xz yz pp pp pp
-2.1013021469116211e-03 8.7953941822052002e+00 2.3987438678741455e+00
-4.1524946689605713e-02 2.2124402940273285e+01 -0.0000000000000000e+00
-1.4066457748413086e-02 5.1965324282646179e+00 0.0000000000000000e+00
ITEM: ATOMS id type xs ys zs fx fy fz
1 1 0.892523 0.337953 0.593597 0 -0.000708699 1.19209e-07
2 1 0.392523 0.337953 0.593597 0 -0.000708938 -1.19209e-07
3 1 0.158054 0.296525 0.0935971 0 0.00467837 -1.19209e-07
4 1 0.658054 0.296525 0.0935971 0 0.00467777 0
5 1 0.0960932 0.461807 0.593597 0 -0.000726938 3.57628e-07
6 1 0.596093 0.461807 0.593597 0 -0.000727057 3.57628e-07
7 1 0.861475 0.420776 0.0935971 0 -0.00114405 -4.76837e-07
8 1 0.361475 0.420776 0.0935971 0 -0.00114405 -7.15256e-07
9 1 0.799611 0.585799 0.593597 0 0.00114322 7.15256e-07
10 1 0.299612 0.585799 0.593597 0 0.00114346 4.76837e-07
11 1 0.00303271 0.71005 0.593597 0 -0.00467718 1.19209e-07
12 1 0.503033 0.71005 0.593597 0 -0.00467765 2.38419e-07
13 1 0.768563 0.668621 0.0935971 0 0.000708699 -3.57628e-07
14 1 0.0649932 0.544767 0.0935971 0 0.000727296 -2.38419e-07
15 1 0.564993 0.544767 0.0935971 0 0.0007267 -2.38419e-07
16 1 0.268563 0.668621 0.0935971 0 0.000709772 -2.38419e-07
17 1 0.706254 0.834835 0.593597 0 -0.000878811 -2.38419e-07
18 1 0.206254 0.834835 0.593597 0 -0.000878334 -1.19209e-07
19 1 0.909091 0.960642 0.593597 0 -0.00229084 0
20 1 0.409091 0.960642 0.593597 0 -0.0022912 1.19209e-07
21 1 0.972212 0.792264 0.0935971 0 0.00175548 2.38419e-07
22 1 0.472212 0.792264 0.0935971 0 0.00175524 1.19209e-07
23 1 0.676206 0.914989 0.0935971 0 -0.00197375 1.19209e-07
24 1 0.176206 0.914989 0.0935971 0 -0.00197339 -2.38419e-07
25 1 0.984881 0.091585 0.593597 0 0.00197315 -1.19209e-07
26 1 0.484881 0.091585 0.593597 0 0.00197279 0
27 1 0.251995 0.0459319 0.0935971 0 0.00229168 0
28 1 0.751995 0.0459319 0.093597 0 0.00229192 0
29 1 0.188874 0.21431 0.593597 0 -0.001755 1.19209e-07
30 1 0.688874 0.21431 0.593597 0 -0.00175548 0
31 1 0.954833 0.171739 0.0935971 0 0.000877857 -1.19209e-07
32 1 0.454833 0.171739 0.0935971 0 0.000877976 2.38419e-07
ITEM: TIMESTEP
6
ITEM: NUMBER OF ATOMS
32
ITEM: BOX BOUNDS xy xz yz pp pp pp
-2.1013021469116211e-03 8.7953941822052002e+00 2.3987438678741455e+00
-4.1524946689605713e-02 2.2124402940273285e+01 -0.0000000000000000e+00
-1.4066457748413086e-02 5.1965324282646179e+00 0.0000000000000000e+00
ITEM: ATOMS id type xs ys zs fx fy fz
1 1 0.892524 0.33795 0.593597 0 -0.00113797 -3.57628e-07
2 1 0.392524 0.33795 0.593597 0 -0.00113785 0
3 1 0.158021 0.296611 0.0935971 0 0.0010457 3.57628e-07
4 1 0.658021 0.296611 0.0935971 0 0.0010463 0
5 1 0.0961069 0.46177 0.593597 0 0.00164974 -7.15256e-07
6 1 0.596107 0.46177 0.593597 0 0.00165021 -7.15256e-07
7 1 0.861475 0.420776 0.0935971 0 0.00136888 5.96046e-07
8 1 0.361475 0.420776 0.0935971 0 0.00136948 4.76837e-07
9 1 0.799612 0.585799 0.593597 0 -0.00136888 -4.76837e-07
10 1 0.299612 0.585799 0.593597 0 -0.00136888 -2.38419e-07
11 1 0.00306506 0.709963 0.593597 0 -0.00104654 1.19209e-07
12 1 0.503065 0.709963 0.593597 0 -0.00104642 -1.19209e-07
13 1 0.768562 0.668624 0.0935971 0 0.00113773 1.19209e-07
14 1 0.0649794 0.544804 0.0935971 0 -0.00164986 4.76837e-07
15 1 0.564979 0.544804 0.0935971 0 -0.0016495 3.57628e-07
16 1 0.268562 0.668624 0.0935971 0 0.00113738 2.38419e-07
17 1 0.706276 0.834774 0.593597 0 -0.000611186 -1.19209e-07
18 1 0.206276 0.834774 0.593597 0 -0.000611067 -2.38419e-07
19 1 0.909114 0.960583 0.593597 0 0.000998259 -5.96046e-07
20 1 0.409114 0.960583 0.593597 0 0.000997901 3.57628e-07
21 1 0.97221 0.792271 0.0935971 0 -0.000132322 1.19209e-07
22 1 0.47221 0.792271 0.0935971 0 -0.000132442 1.19209e-07
23 1 0.676214 0.914967 0.0935971 0 0.000443935 1.19209e-07
24 1 0.176214 0.914967 0.0935971 0 0.000443339 2.38419e-07
25 1 0.984872 0.0916074 0.593597 0 -0.000442743 2.38419e-07
26 1 0.484872 0.0916074 0.593597 0 -0.000442743 1.19209e-07
27 1 0.251973 0.0459918 0.0935971 0 -0.000998855 -3.57628e-07
28 1 0.751973 0.0459918 0.093597 0 -0.000998497 2.38419e-07
29 1 0.188877 0.214303 0.593597 0 0.000131726 0
30 1 0.688877 0.214303 0.593597 0 0.000132203 -1.19209e-07
31 1 0.95481 0.1718 0.0935971 0 0.000610828 -1.19209e-07
32 1 0.45481 0.1718 0.0935971 0 0.00061214 -1.19209e-07
ITEM: TIMESTEP
7
ITEM: NUMBER OF ATOMS
32
ITEM: BOX BOUNDS xy xz yz pp pp pp
-2.1013021469116211e-03 8.7953941822052002e+00 2.3987438678741455e+00
-4.1524946689605713e-02 2.2124402940273285e+01 -0.0000000000000000e+00
-1.4066457748413086e-02 5.1965324282646179e+00 0.0000000000000000e+00
ITEM: ATOMS id type xs ys zs fx fy fz
1 1 0.89253 0.337933 0.593597 0 0.000455499 2.38419e-07
2 1 0.392531 0.337933 0.593597 0 0.000455379 2.38419e-07
3 1 0.15801 0.296642 0.0935971 0 6.11544e-05 -2.38419e-07
4 1 0.65801 0.296642 0.0935971 0 6.09159e-05 -1.19209e-07
5 1 0.0961004 0.461788 0.593597 0 -0.000224948 1.19209e-07
6 1 0.5961 0.461788 0.593597 0 -0.00022471 0
7 1 0.861467 0.420796 0.0935971 0 0.000404358 -2.38419e-07
8 1 0.361467 0.420796 0.0935971 0 0.000404596 0
9 1 0.799619 0.585778 0.593597 0 -0.000404358 1.19209e-07
10 1 0.299619 0.585778 0.593597 0 -0.000404477 3.57628e-07
11 1 0.00307671 0.709932 0.593597 0 -6.12736e-05 0
12 1 0.503077 0.709932 0.593597 0 -6.09159e-05 0
13 1 0.768556 0.668641 0.0935971 0 -0.000455379 -1.19209e-07
14 1 0.0649859 0.544787 0.0935971 0 0.000224948 -3.57628e-07
15 1 0.564986 0.544787 0.0935971 0 0.000224829 -2.38419e-07
16 1 0.268556 0.668641 0.0935971 0 -0.000455856 0
17 1 0.706284 0.834754 0.593597 0 -3.76701e-05 1.19209e-07
18 1 0.206284 0.834754 0.593597 0 -3.77893e-05 1.19209e-07
19 1 0.909112 0.960586 0.593597 0 0.000271797 1.19209e-07
20 1 0.409112 0.960586 0.593597 0 0.000271916 2.38419e-07
21 1 0.97221 0.792271 0.0935971 0 -7.78437e-05 0
22 1 0.47221 0.792271 0.0935971 0 -7.79629e-05 0
23 1 0.676213 0.914969 0.0935971 0 -6.42538e-05 -1.19209e-07
24 1 0.176213 0.914969 0.0935971 0 -6.44922e-05 -2.38419e-07
25 1 0.984873 0.091605 0.593597 0 6.44922e-05 1.19209e-07
26 1 0.484873 0.091605 0.593597 0 6.42538e-05 -1.19209e-07
27 1 0.251974 0.0459882 0.0935971 0 -0.000271678 0
28 1 0.751974 0.0459882 0.0935971 0 -0.000271559 1.19209e-07
29 1 0.188876 0.214304 0.593597 0 7.76052e-05 -1.19209e-07
30 1 0.688876 0.214304 0.593597 0 7.82013e-05 -2.38419e-07
31 1 0.954803 0.17182 0.0935971 0 3.8147e-05 1.19209e-07
32 1 0.454802 0.17182 0.0935971 0 3.70741e-05 1.19209e-07
ITEM: TIMESTEP
8
ITEM: NUMBER OF ATOMS
32
ITEM: BOX BOUNDS xy xz yz pp pp pp
-2.1013021469116211e-03 8.7953941822052002e+00 2.3987438678741455e+00
-4.1524946689605713e-02 2.2124402940273285e+01 -0.0000000000000000e+00
-1.4066457748413086e-02 5.1965324282646179e+00 0.0000000000000000e+00
ITEM: ATOMS id type xs ys zs fx fy fz
1 1 0.892527 0.337942 0.593597 0 2.26498e-05 -4.76837e-07
2 1 0.392527 0.337942 0.593597 0 2.32458e-05 -5.96046e-07
3 1 0.158008 0.296646 0.0935971 0 0.000133991 4.76837e-07
4 1 0.658008 0.296646 0.0935971 0 0.000134587 4.76837e-07
5 1 0.0961017 0.461784 0.593597 0 -3.05176e-05 -1.19209e-07
6 1 0.596102 0.461784 0.593597 0 -3.016e-05 1.19209e-07
7 1 0.861463 0.420807 0.0935971 0 -1.19209e-05 1.19209e-07
8 1 0.361463 0.420807 0.0935971 0 -1.19209e-05 1.19209e-07
9 1 0.799623 0.585767 0.593597 0 1.14441e-05 -2.38419e-07
10 1 0.299623 0.585767 0.593597 0 1.12057e-05 -3.57628e-07
11 1 0.00307831 0.709928 0.593597 0 -0.000133872 0
12 1 0.503078 0.709928 0.593597 0 -0.000134349 0
13 1 0.768559 0.668632 0.0935971 0 -2.26498e-05 0
14 1 0.0649846 0.54479 0.0935971 0 3.0756e-05 4.76837e-07
15 1 0.564985 0.54479 0.0935971 0 3.0756e-05 1.19209e-07
16 1 0.268559 0.668632 0.0935971 0 -2.2769e-05 -2.38419e-07
17 1 0.706285 0.834751 0.593597 0 9.97782e-05 -1.19209e-07
18 1 0.206285 0.834751 0.593597 0 0.000100136 0
19 1 0.90911 0.960593 0.593597 0 -0.000183702 0
20 1 0.40911 0.960593 0.593597 0 -0.000183344 -2.38419e-07
21 1 0.972211 0.792269 0.0935971 0 -0.000240564 0
22 1 0.472211 0.792269 0.0935971 0 -0.000239968 0
23 1 0.676214 0.914968 0.0935971 0 -0.000222087 1.19209e-07
24 1 0.176214 0.914968 0.093597 0 -0.000222087 3.57628e-07
25 1 0.984873 0.0916063 0.593597 0 0.000221491 0
26 1 0.484873 0.0916063 0.593597 0 0.000221729 2.38419e-07
27 1 0.251976 0.0459816 0.0935971 0 0.000183702 0
28 1 0.751976 0.0459816 0.0935971 0 0.000183344 -1.19209e-07
29 1 0.188876 0.214306 0.593597 0 0.000240326 0
30 1 0.688876 0.214306 0.593597 0 0.000240207 2.38419e-07
31 1 0.954801 0.171823 0.0935971 0 -9.97782e-05 -1.19209e-07
32 1 0.454801 0.171823 0.0935971 0 -9.9659e-05 -2.38419e-07
ITEM: TIMESTEP
9
ITEM: NUMBER OF ATOMS
32
ITEM: BOX BOUNDS xy xz yz pp pp pp
-2.1013021469116211e-03 8.7953941822052002e+00 2.3987438678741455e+00
-4.1524946689605713e-02 2.2124402940273285e+01 -0.0000000000000000e+00
-1.4066457748413086e-02 5.1965324282646179e+00 0.0000000000000000e+00
ITEM: ATOMS id type xs ys zs fx fy fz
1 1 0.892526 0.337945 0.593597 0 -3.74317e-05 3.57628e-07
2 1 0.392526 0.337945 0.593597 0 -3.74317e-05 3.57628e-07
3 1 0.158007 0.29665 0.0935971 0 1.9908e-05 -3.57628e-07
4 1 0.658007 0.29665 0.0935971 0 1.95503e-05 -4.76837e-07
5 1 0.0961024 0.461782 0.593597 0 8.89301e-05 0
6 1 0.596102 0.461782 0.593597 0 8.80957e-05 2.38419e-07
7 1 0.861462 0.42081 0.0935971 0 -4.14848e-05 -1.19209e-07
8 1 0.361462 0.42081 0.0935971 0 -4.11272e-05 -1.19209e-07
9 1 0.799624 0.585764 0.593597 0 4.19617e-05 0
10 1 0.299624 0.585764 0.593597 0 4.19617e-05 0
11 1 0.00307977 0.709924 0.593597 0 -2.00272e-05 -1.19209e-07
12 1 0.50308 0.709924 0.593597 0 -1.97887e-05 0
13 1 0.76856 0.668629 0.0935971 0 3.74317e-05 2.38419e-07
14 1 0.064984 0.544792 0.0935971 0 -8.91685e-05 -2.38419e-07
15 1 0.564984 0.544792 0.0935971 0 -8.90493e-05 -2.38419e-07
16 1 0.26856 0.668629 0.0935971 0 3.76701e-05 2.38419e-07
17 1 0.706284 0.834753 0.593597 0 -0.000141859 1.19209e-07
18 1 0.206284 0.834753 0.593597 0 -0.000141859 0
19 1 0.909111 0.960591 0.593597 0 6.18696e-05 0
20 1 0.409111 0.960591 0.593597 0 6.11544e-05 0
21 1 0.972213 0.792263 0.0935971 0 -0.000132084 -1.19209e-07
22 1 0.472213 0.792263 0.0935971 0 -0.000132322 -1.19209e-07
23 1 0.676215 0.914963 0.0935971 0 2.80142e-05 0
24 1 0.176215 0.914963 0.0935971 0 2.80142e-05 0
25 1 0.984871 0.0916111 0.593597 0 -2.81334e-05 -2.38419e-07
26 1 0.484871 0.0916111 0.593597 0 -2.75373e-05 -1.19209e-07
27 1 0.251976 0.0459834 0.0935971 0 -6.16312e-05 0
28 1 0.751976 0.0459834 0.0935971 0 -6.13928e-05 2.38419e-07
29 1 0.188874 0.214311 0.593597 0 0.000132322 1.19209e-07
30 1 0.688874 0.214311 0.593597 0 0.000131845 1.19209e-07
31 1 0.954802 0.171822 0.0935971 0 0.000141382 2.38419e-07
32 1 0.454802 0.171822 0.0935971 0 0.000142217 0
ITEM: TIMESTEP
10
ITEM: NUMBER OF ATOMS
32
ITEM: BOX BOUNDS xy xz yz pp pp pp
-2.1013021469116211e-03 8.7953941822052002e+00 2.3987438678741455e+00
-4.1524946689605713e-02 2.2124402940273285e+01 -0.0000000000000000e+00
-1.4066457748413086e-02 5.1965324282646179e+00 0.0000000000000000e+00
ITEM: ATOMS id type xs ys zs fx fy fz
1 1 0.892526 0.337945 0.593597 0 6.17504e-05 0
2 1 0.392526 0.337945 0.593597 0 6.12736e-05 0
3 1 0.158006 0.296652 0.0935971 0 1.96695e-05 -1.19209e-07
4 1 0.658006 0.296652 0.0935971 0 1.96695e-05 -1.19209e-07
5 1 0.0961019 0.461784 0.593597 0 1.75238e-05 2.38419e-07
6 1 0.596102 0.461784 0.593597 0 1.7643e-05 -1.19209e-07
7 1 0.861462 0.42081 0.0935971 0 -2.51532e-05 1.19209e-07
8 1 0.361462 0.42081 0.0935971 0 -2.563e-05 1.19209e-07
9 1 0.799624 0.585764 0.593597 0 2.51532e-05 1.19209e-07
10 1 0.299624 0.585764 0.593597 0 2.58684e-05 0
11 1 0.00308032 0.709923 0.593597 0 -2.00272e-05 0
12 1 0.50308 0.709923 0.593597 0 -1.95503e-05 0
13 1 0.76856 0.668629 0.0935971 0 -6.19888e-05 -3.57628e-07
14 1 0.0649844 0.544791 0.0935971 0 -1.77622e-05 -2.38419e-07
15 1 0.564984 0.544791 0.0935971 0 -1.74046e-05 0
16 1 0.26856 0.668629 0.0935971 0 -6.1512e-05 -1.19209e-07
17 1 0.706285 0.83475 0.593597 0 -5.96046e-05 1.19209e-07
18 1 0.206285 0.83475 0.593597 0 -6.02007e-05 1.19209e-07
19 1 0.90911 0.960592 0.593597 0 -3.33786e-06 1.19209e-07
20 1 0.40911 0.960592 0.593597 0 -2.5034e-06 1.19209e-07
21 1 0.972214 0.79226 0.0935971 0 5.90086e-05 1.19209e-07
22 1 0.472214 0.79226 0.0935971 0 5.91278e-05 1.19209e-07
23 1 0.676216 0.914962 0.0935971 0 -4.55379e-05 -1.19209e-07
24 1 0.176216 0.914962 0.0935971 0 -4.47035e-05 -1.19209e-07
25 1 0.984871 0.0916119 0.593597 0 4.56572e-05 2.38419e-07
26 1 0.484871 0.0916119 0.593597 0 4.47035e-05 0
27 1 0.251976 0.0459828 0.0935971 0 2.98023e-06 -1.19209e-07
28 1 0.751976 0.0459828 0.0935971 0 3.09944e-06 0
29 1 0.188872 0.214315 0.593597 0 -5.8651e-05 0
30 1 0.688872 0.214315 0.593597 0 -5.87702e-05 -1.19209e-07
31 1 0.954801 0.171824 0.0935971 0 5.93662e-05 -2.38419e-07
32 1 0.454801 0.171824 0.0935971 0 5.98431e-05 2.38419e-07
ITEM: TIMESTEP
11
ITEM: NUMBER OF ATOMS
32
ITEM: BOX BOUNDS xy xz yz pp pp pp
-2.1013021469116211e-03 8.7953941822052002e+00 2.3987438678741455e+00
-4.1524946689605713e-02 2.2124402940273285e+01 -0.0000000000000000e+00
-1.4066457748413086e-02 5.1965324282646179e+00 0.0000000000000000e+00
ITEM: ATOMS id type xs ys zs fx fy fz
1 1 0.892526 0.337946 0.593597 0 8.9407e-06 -1.19209e-07
2 1 0.392526 0.337946 0.593597 0 8.58307e-06 1.19209e-07
3 1 0.158006 0.296652 0.0935971 0 5.72205e-06 1.19209e-07
4 1 0.658006 0.296652 0.0935971 0 5.72205e-06 1.19209e-07
5 1 0.0961017 0.461784 0.593597 0 3.8147e-06 0
6 1 0.596102 0.461784 0.593597 0 4.64916e-06 -2.38419e-07
7 1 0.861462 0.42081 0.0935971 0 1.33514e-05 0
8 1 0.361462 0.42081 0.0935971 0 1.3113e-05 -1.19209e-07
9 1 0.799624 0.585765 0.593597 0 -1.3113e-05 -2.38419e-07
10 1 0.299624 0.585765 0.593597 0 -1.34706e-05 0
11 1 0.00308059 0.709922 0.593597 0 -5.72205e-06 -1.19209e-07
12 1 0.503081 0.709922 0.593597 0 -5.72205e-06 -2.38419e-07
13 1 0.768561 0.668628 0.0935971 0 -8.46386e-06 2.38419e-07
14 1 0.0649846 0.54479 0.0935971 0 -4.05312e-06 0
15 1 0.564985 0.54479 0.0935971 0 -4.17233e-06 3.57628e-07
16 1 0.268561 0.668628 0.0935971 0 -8.9407e-06 0
17 1 0.706286 0.834749 0.593597 0 3.33786e-06 -2.38419e-07
18 1 0.206286 0.834749 0.593597 0 3.69549e-06 -1.19209e-07
19 1 0.90911 0.960592 0.593597 0 -1.44243e-05 0
20 1 0.40911 0.960592 0.593597 0 -1.50204e-05 -2.38419e-07
21 1 0.972214 0.79226 0.0935971 0 -3.57628e-07 2.38419e-07
22 1 0.472214 0.79226 0.0935971 0 -5.96046e-07 1.19209e-07
23 1 0.676216 0.914961 0.0935971 0 3.69549e-06 2.38419e-07
24 1 0.176216 0.914961 0.0935971 0 3.09944e-06 0
25 1 0.98487 0.0916129 0.593597 0 -3.57628e-06 0
26 1 0.48487 0.0916129 0.593597 0 -2.6226e-06 1.19209e-07
27 1 0.251976 0.0459827 0.093597 0 1.45435e-05 3.57628e-07
28 1 0.751976 0.0459827 0.0935971 0 1.41859e-05 -1.19209e-07
29 1 0.188872 0.214315 0.593597 0 0 0
30 1 0.688872 0.214315 0.593597 0 2.38419e-07 -3.57628e-07
31 1 0.954801 0.171826 0.0935971 0 -3.09944e-06 2.38419e-07
32 1 0.4548 0.171826 0.0935971 0 -3.33786e-06 -1.19209e-07
ITEM: TIMESTEP
12
ITEM: NUMBER OF ATOMS
32
ITEM: BOX BOUNDS xy xz yz pp pp pp
-2.1013021469116211e-03 8.7953941822052002e+00 2.3987438678741455e+00
-4.1524946689605713e-02 2.2124402940273285e+01 -0.0000000000000000e+00
-1.4066457748413086e-02 5.1965324282646179e+00 0.0000000000000000e+00
ITEM: ATOMS id type xs ys zs fx fy fz
1 1 0.892525 0.337947 0.593597 0 1.19209e-07 0
2 1 0.392525 0.337947 0.593597 0 3.57628e-07 0
3 1 0.158006 0.296653 0.0935971 0 4.52995e-06 0
4 1 0.658006 0.296653 0.0935971 0 4.17233e-06 -1.19209e-07
5 1 0.0961017 0.461784 0.593597 0 -1.78814e-06 -2.38419e-07
6 1 0.596102 0.461784 0.593597 0 -2.74181e-06 1.19209e-07
7 1 0.861462 0.42081 0.0935971 0 2.02656e-06 -1.19209e-07
8 1 0.361462 0.42081 0.0935971 0 2.38419e-06 1.19209e-07
9 1 0.799624 0.585764 0.593597 0 -1.90735e-06 2.38419e-07
10 1 0.299624 0.585764 0.593597 0 -2.02656e-06 0
11 1 0.00308064 0.709922 0.593597 0 -3.8147e-06 1.19209e-07
12 1 0.503081 0.709922 0.593597 0 -4.29153e-06 2.38419e-07
13 1 0.768561 0.668628 0.0935971 0 -7.15256e-07 -2.38419e-07
14 1 0.0649847 0.54479 0.0935971 0 1.90735e-06 1.19209e-07
15 1 0.564985 0.54479 0.0935971 0 1.90735e-06 -2.38419e-07
16 1 0.268561 0.668628 0.0935971 0 -4.76837e-07 0
17 1 0.706286 0.834749 0.593597 0 -5.24521e-06 2.38419e-07
18 1 0.206286 0.834749 0.593597 0 -5.48363e-06 1.19209e-07
19 1 0.90911 0.960591 0.593597 0 3.69549e-06 1.19209e-07
20 1 0.40911 0.960591 0.593597 0 3.93391e-06 2.38419e-07
21 1 0.972214 0.79226 0.0935971 0 -5.36442e-06 -3.57628e-07
22 1 0.472214 0.79226 0.0935971 0 -5.126e-06 -1.19209e-07
23 1 0.676216 0.914961 0.0935971 0 7.51019e-06 -4.76837e-07
24 1 0.176216 0.914961 0.0935971 0 7.39098e-06 1.19209e-07
25 1 0.98487 0.0916129 0.593597 0 -7.39098e-06 1.19209e-07
26 1 0.48487 0.0916129 0.593597 0 -8.34465e-06 -1.19209e-07
27 1 0.251976 0.0459829 0.0935971 0 -3.57628e-06 0
28 1 0.751976 0.045983 0.0935971 0 -3.33786e-06 1.19209e-07
29 1 0.188872 0.214315 0.593597 0 5.96046e-06 0
30 1 0.688872 0.214315 0.593597 0 5.60284e-06 3.57628e-07
31 1 0.954801 0.171826 0.0935971 0 4.88758e-06 -2.38419e-07
32 1 0.4548 0.171826 0.0935971 0 5.24521e-06 -1.19209e-07
ITEM: TIMESTEP
13
ITEM: NUMBER OF ATOMS
32
ITEM: BOX BOUNDS xy xz yz pp pp pp
-2.1013021469116211e-03 8.7953941822052002e+00 2.3987438678741455e+00
-4.1524946689605713e-02 2.2124402940273285e+01 -0.0000000000000000e+00
-1.4066457748413086e-02 5.1965324282646179e+00 0.0000000000000000e+00
ITEM: ATOMS id type xs ys zs fx fy fz
1 1 0.892525 0.337947 0.593597 0 -2.38419e-07 0
2 1 0.392525 0.337947 0.593597 0 -2.38419e-07 -1.19209e-07
3 1 0.158006 0.296653 0.0935971 0 2.5034e-06 0
4 1 0.658006 0.296653 0.0935971 0 2.74181e-06 1.19209e-07
5 1 0.0961017 0.461784 0.593597 0 -1.90735e-06 0
6 1 0.596102 0.461784 0.593597 0 -2.26498e-06 0
7 1 0.861462 0.42081 0.0935971 0 -2.38419e-07 0
8 1 0.361462 0.42081 0.0935971 0 0 0
9 1 0.799624 0.585764 0.593597 0 -2.38419e-07 0
10 1 0.299624 0.585764 0.593597 0 3.57628e-07 1.19209e-07
11 1 0.00308068 0.709922 0.593597 0 -2.6226e-06 0
12 1 0.503081 0.709922 0.593597 0 -2.6226e-06 1.19209e-07
13 1 0.768561 0.668628 0.0935971 0 4.76837e-07 -1.19209e-07
14 1 0.0649847 0.54479 0.0935971 0 2.02656e-06 0
15 1 0.564985 0.54479 0.0935971 0 2.38419e-06 -1.19209e-07
16 1 0.268561 0.668628 0.0935971 0 5.96046e-07 0
17 1 0.706286 0.834749 0.593597 0 -2.38419e-06 0
18 1 0.206286 0.834749 0.593597 0 -2.6226e-06 1.19209e-07
19 1 0.90911 0.960591 0.593597 0 -2.38419e-07 -2.38419e-07
20 1 0.40911 0.960591 0.593597 0 -1.19209e-07 2.38419e-07
21 1 0.972214 0.792259 0.0935971 0 -4.76837e-07 0
22 1 0.472214 0.792259 0.0935971 0 -5.96046e-07 -2.38419e-07
23 1 0.676216 0.914962 0.0935971 0 -3.57628e-06 2.38419e-07
24 1 0.176216 0.914962 0.0935971 0 -3.21865e-06 -1.19209e-07
25 1 0.98487 0.0916128 0.593597 0 3.69549e-06 0
26 1 0.48487 0.0916128 0.593597 0 3.09944e-06 -1.19209e-07
27 1 0.251976 0.045983 0.0935971 0 3.57628e-07 0
28 1 0.751976 0.045983 0.0935971 0 0 0
29 1 0.188872 0.214315 0.593597 0 -1.19209e-07 -1.19209e-07
30 1 0.688872 0.214315 0.593597 0 -1.19209e-07 1.19209e-07
31 1 0.954801 0.171826 0.0935971 0 3.09944e-06 -1.19209e-07
32 1 0.4548 0.171826 0.0935971 0 2.5034e-06 2.38419e-07
ITEM: TIMESTEP
14
ITEM: NUMBER OF ATOMS
32
ITEM: BOX BOUNDS xy xz yz pp pp pp
-2.1013021469116211e-03 8.7953941822052002e+00 2.3987438678741455e+00
-4.1524946689605713e-02 2.2124402940273285e+01 -0.0000000000000000e+00
-1.4066457748413086e-02 5.1965324282646179e+00 0.0000000000000000e+00
ITEM: ATOMS id type xs ys zs fx fy fz
1 1 0.892525 0.337947 0.593597 0 -1.07288e-06 0