ITEM: TIMESTEP
0
ITEM: NUMBER OF ATOMS
56
ITEM: BOX BOUNDS xy xz yz pp pp pp
-2.5362306092282956e+00 1.2163911692441133e+01 1.5526132515564727e-08
-3.0061665652343075e-03 5.5294143007778995e+00 -2.5574187906133230e+00
7.7232233150646462e-04 1.9019187752468508e+01 2.1812666742635317e-08
ITEM: ATOMS id type xs ys zs fx fy fz
1 1 0.578345 3.09294e-05 0.132367 0 0.018448 0.622524
2 1 0.328346 0.166637 0.132367 0 -0.0184674 0.622533
3 1 0.246267 1.50434e-05 0.275226 0 -0.00527459 0.00409674
4 1 0.996266 0.166653 0.275226 0 0.00526458 0.00409816
5 1 0.914134 1.01858e-05 0.418082 0 -0.000917985 7.87719e-05
6 1 0.0783462 3.06084e-05 0.132367 0 0.0184561 0.62253
7 1 0.994359 0.500062 0.06094 0 0.271371 0.744782
8 1 0.828347 0.166637 0.132367 0 -0.0184589 0.622537
9 1 0.74436 0.666605 0.06094 0 -0.27136 0.744829
10 1 0.746267 1.49384e-05 0.275226 0 -0.00527056 0.00410161
11 1 0.664132 0.166657 0.418083 0 0.000922741 7.73987e-05
12 1 0.58199 1.60347e-05 0.560942 0 -0.00107587 1.15082e-05
13 1 0.331991 0.166652 0.560941 0 0.00105807 2.50615e-05
14 1 0.249855 1.61665e-05 0.703801 0 -0.0017836 0.00209684
15 1 0.999855 0.166652 0.703801 0 0.00175668 0.00208696
16 1 0.917733 1.72772e-05 0.846652 0 -0.0160712 -0.022187
17 1 0.662322 0.500017 0.203801 0 -0.0160587 0.0221973
18 1 0.496266 0.166653 0.275226 0 0.00524595 0.00409706
19 1 0.412324 0.66665 0.203801 0 0.0160745 0.0221995
20 1 0.414134 1.09165e-05 0.418082 0 -0.000938576 8.38785e-05
21 1 0.330201 0.500016 0.346652 0 -0.00176976 -0.00209065
22 1 0.164133 0.166657 0.418082 0 0.000925558 8.19954e-05
23 1 0.0802005 0.666651 0.346652 0 0.00178148 -0.00209879
24 1 0.0819908 1.5722e-05 0.560941 0 -0.0010662 2.81266e-05
25 1 0.998064 0.500016 0.489511 0 -0.00106326 -2.70158e-05
26 1 0.831992 0.166652 0.560941 0 0.00105881 4.17129e-05
27 1 0.748065 0.666651 0.489511 0 0.00106686 -1.91191e-05
28 1 0.494359 0.500061 0.0609401 0 0.271395 0.744798
29 1 0.244359 0.666605 0.06094 0 -0.271374 0.744803
30 1 0.162323 0.500017 0.203801 0 -0.0160592 0.0222013
31 1 0.912323 0.66665 0.203801 0 0.0160557 0.0222019
32 1 0.830201 0.500016 0.346652 0 -0.00178118 -0.0020984
33 1 0.667731 0.16665 0.846652 0 0.0160661 -0.0222144
34 1 0.585696 6.23935e-05 0.989513 0 0.271362 -0.744778
35 1 0.335696 0.166605 0.989513 0 -0.271386 -0.744806
36 1 0.749854 1.60929e-05 0.703801 0 -0.00178172 0.0020913
37 1 0.665921 0.50001 0.632371 0 -0.000923973 -0.000101933
38 1 0.499855 0.166651 0.703801 0 0.00177468 0.00209964
39 1 0.415922 0.666656 0.63237 0 0.000932064 -8.71083e-05
40 1 0.417732 1.72431e-05 0.846652 0 -0.0160696 -0.0222017
41 1 0.333789 0.500015 0.775227 0 -0.00526169 -0.004095
42 1 0.167732 0.16665 0.846652 0 0.0160555 -0.0221996
43 1 0.0837883 0.666652 0.775227 0 0.00527671 -0.0040987
44 1 0.0856964 6.17797e-05 0.989513 0 0.271384 -0.7448
45 1 0.00170969 0.50003 0.918085 0 0.0184606 -0.622505
46 1 0.5802 0.666651 0.346652 0 0.00179029 -0.00208844
47 1 0.498064 0.500015 0.489511 0 -0.0010421 -1.94996e-05
48 1 0.248064 0.666651 0.489511 0 0.00106869 -2.46966e-05
49 1 0.165922 0.500011 0.63237 0 -0.00092335 -8.57323e-05
50 1 0.915922 0.666656 0.63237 0 0.000941914 -7.39086e-05
51 1 0.83379 0.500015 0.775227 0 -0.00526007 -0.00409062
52 1 0.835695 0.166605 0.989513 0 -0.271369 -0.744813
53 1 0.751708 0.666636 0.918086 0 -0.0184569 -0.62257
54 1 0.583788 0.666653 0.775227 0 0.00525941 -0.00408824
55 1 0.501709 0.50003 0.918085 0 0.0184671 -0.622532
56 1 0.251709 0.666636 0.918085 0 -0.0184549 -0.622536
ITEM: TIMESTEP
7
ITEM: NUMBER OF ATOMS
56
ITEM: BOX BOUNDS xy xz yz pp pp pp
-2.5362306092282956e+00 1.2163911692441133e+01 1.5526132515564727e-08
-3.0061665652343075e-03 5.5294143007778995e+00 -2.5574187906133230e+00
7.7232233150646462e-04 1.9019187752468508e+01 2.1812666742635317e-08
ITEM: ATOMS id type xs ys zs fx fy fz
1 1 0.579864 0.00392021 0.139577 0 5.11536e-05 -0.000269626
2 1 0.329865 0.162747 0.139577 0 -5.13182e-05 -0.000269422
3 1 0.247209 -0.00232281 0.2797 0 0.000107793 -0.000374475
4 1 0.997209 0.168989 0.2797 0 -0.000107106 -0.000375535
5 1 0.914528 -0.00180436 0.419955 0 -0.000193239 0.00107626
6 1 0.0798646 0.00391931 0.139577 0 5.04961e-05 -0.000273446
7 1 0.995802 0.512782 0.0677935 0 0.000275931 -0.000194285
8 1 0.829865 0.162747 0.139577 0 -5.01314e-05 -0.000272341
9 1 0.745803 0.653886 0.0677936 0 -0.000277836 -0.000193781
10 1 0.74721 -0.00232273 0.2797 0 0.000107616 -0.000374848
11 1 0.664527 0.168472 0.419954 0 0.000192251 0.0010746
12 1 0.581878 -0.00168686 0.560407 0 -0.000749937 0.000207635
13 1 0.331878 0.168354 0.560407 0 0.000749852 0.000210612
14 1 0.24925 -0.00187065 0.700932 0 0.000104962 0.000567441
15 1 0.999251 0.168537 0.700932 0 -0.000103953 0.000565325
16 1 0.916661 -0.00142462 0.841563 0 -0.000493128 0.000117767
17 1 0.663394 0.498575 0.20889 0 -0.000492389 -0.00011541
18 1 0.497209 0.168989 0.2797 0 -0.000107349 -0.000375843
19 1 0.413395 0.668092 0.20889 0 0.000492831 -0.000114457
20 1 0.414528 -0.00180454 0.419954 0 -0.000194023 0.00107492
21 1 0.330805 0.49813 0.349521 0 0.000105377 -0.000567396
22 1 0.164528 0.168472 0.419954 0 0.000192336 0.00107443
23 1 0.0808048 0.668538 0.349521 0 -0.000105529 -0.000566467
24 1 0.0818782 -0.00168685 0.560407 0 -0.000748797 0.000208437
25 1 0.998177 0.498313 0.490046 0 -0.000748327 -0.000208506
26 1 0.831879 0.168354 0.560407 0 0.000748345 0.00020889
27 1 0.748178 0.668354 0.490046 0 0.000750144 -0.000207309
28 1 0.495802 0.512783 0.0677933 0 0.000276728 -0.000197487
29 1 0.245802 0.653884 0.0677935 0 -0.000275848 -0.000197551
30 1 0.163395 0.498575 0.20889 0 -0.000493742 -0.000113616
31 1 0.913395 0.668092 0.20889 0 0.000492544 -0.000114536
32 1 0.830806 0.49813 0.349521 0 0.000106755 -0.0005659
33 1 0.666659 0.168092 0.841562 0 0.000493082 0.000116892
34 1 0.584253 0.0127823 0.982659 0 0.00027651 0.000193404
35 1 0.334253 0.153885 0.982659 0 -0.00027712 0.000195881
36 1 0.749249 -0.00187068 0.700932 0 0.000104609 0.000563754
37 1 0.665527 0.498195 0.630498 0 -0.000192448 -0.00107465
38 1 0.499251 0.168537 0.700932 0 -0.000105202 0.000566675
39 1 0.415528 0.668472 0.630498 0 0.000191719 -0.00107518
40 1 0.41666 -0.00142502 0.841563 0 -0.000492503 0.000115363
41 1 0.332846 0.497677 0.770753 0 0.000107588 0.000374808
42 1 0.16666 0.168092 0.841563 0 0.000493908 0.00010994
43 1 0.082846 0.668989 0.770753 0 -0.000109389 0.000375873
44 1 0.0842531 0.0127833 0.98266 0 0.00027527 0.000202249
45 1 0.000191322 0.503921 0.910876 0 5.25988e-05 0.000267561
46 1 0.580804 0.668538 0.349521 0 -0.000105262 -0.000566821
47 1 0.498176 0.498314 0.490046 0 -0.000748232 -0.000207204
48 1 0.248177 0.668354 0.490046 0 0.000749708 -0.000209858
49 1 0.165528 0.498195 0.630498 0 -0.000193859 -0.00107483
50 1 0.915528 0.668472 0.630498 0 0.000191868 -0.00107638
51 1 0.832847 0.497677 0.770753 0 0.000108497 0.000374021
52 1 0.834252 0.153886 0.982659 0 -0.000276336 0.00019602
53 1 0.75019 0.662748 0.910875 0 -4.96148e-05 0.000269758
54 1 0.582846 0.668989 0.770753 0 -0.000108607 0.000373752
55 1 0.500191 0.50392 0.910876 0 5.05388e-05 0.000272239
56 1 0.250191 0.662747 0.910876 0 -4.99175e-05 0.000272928
