ITEM: TIMESTEP
0
ITEM: NUMBER OF ATOMS
48
ITEM: BOX BOUNDS xy xz yz pp pp pp
-4.4170713424682617e+00 8.5982638597488403e+00 2.5251476168632507e+00
-1.1132121086120605e-02 9.5149352550506592e+00 -4.4292775392532349e+00
-4.7147274017333984e-03 1.9521842360496521e+01 2.6099252700805664e-01
ITEM: ATOMS id type xs ys zs fx fy fz
1 1 0.94426 0.166857 0.0318549 0 0 2.12991
2 1 0.497093 0.0743484 0.0530456 0 0 -0.101093
3 1 0.528484 0.124689 0.656895 0 0 -0.000759125
4 1 0.710717 0.949019 0.927975 0 0 -2.12991
5 1 0.397837 0.157245 0.802828 0 0 0.000434875
6 1 0.157884 0.041528 0.906785 0 0 0.101095
7 1 0.844893 0.249629 0.781799 0 0 -0.0144844
8 1 0.89161 0.208292 0.407038 0 0 -0.00133514
9 1 0.0815619 0.032398 0.677762 0 0 0.00496483
10 1 0.763367 0.240917 0.552793 0 0 0.00133514
11 1 0.810084 0.199581 0.178031 0 0 0.0144882
12 1 0.573415 0.0834783 0.282068 0 0 -0.00496864
13 1 0.25714 0.291965 0.157002 0 0 -0.000431061
14 1 0.444718 0.116061 0.427856 0 0 -0.00251389
15 1 0.94426 0.50019 0.0318549 0 0 2.12991
16 1 0.497093 0.407682 0.0530456 0 0 -0.101097
17 1 0.528484 0.458022 0.656895 0 0 -0.000757217
18 1 0.710717 0.282353 0.927975 0 0 -2.12991
19 1 0.397837 0.490578 0.802828 0 0 0.000431061
20 1 0.157883 0.374861 0.906785 0 0 0.101095
21 1 0.844893 0.582962 0.781799 0 0 -0.0144882
22 1 0.210259 0.333148 0.531974 0 0 0.00251198
23 1 0.89161 0.541626 0.407038 0 0 -0.00133705
24 1 0.0815618 0.365731 0.677762 0 0 0.00496864
25 1 0.763367 0.574251 0.552793 0 0 0.00133514
26 1 0.126493 0.324521 0.302936 0 0 0.000757217
27 1 0.810084 0.532914 0.178031 0 0 0.0144863
28 1 0.573415 0.416812 0.282068 0 0 -0.00496674
29 1 0.25714 0.625298 0.157002 0 0 -0.000431061
30 1 0.444718 0.449395 0.427856 0 0 -0.00250626
31 1 0.94426 0.833524 0.031855 0 0 2.12991
32 1 0.497093 0.741015 0.0530456 0 0 -0.101093
33 1 0.528484 0.791356 0.656895 0 0 -0.000757217
34 1 0.710717 0.615686 0.927975 0 0 -2.12991
35 1 0.397837 0.823911 0.802828 0 0 0.000431061
36 1 0.157884 0.708195 0.906785 0 0 0.101093
37 1 0.844893 0.916296 0.781799 0 0 -0.0144882
38 1 0.210259 0.666482 0.531974 0 0 0.00250626
39 1 0.89161 0.874959 0.407038 0 0 -0.00133896
40 1 0.0815619 0.699065 0.677762 0 0 0.00497055
41 1 0.763367 0.907584 0.552793 0 0 0.00133896
42 1 0.126493 0.657854 0.302936 0 0 0.000757217
43 1 0.810084 0.866247 0.178031 0 0 0.0144863
44 1 0.573415 0.750145 0.282068 0 0 -0.00496674
45 1 0.25714 0.958632 0.157002 0 0 -0.000434875
46 1 0.444718 0.782728 0.427856 0 0 -0.00251198
47 1 0.210259 0.999815 0.531974 0 0 0.00251007
48 1 0.126493 0.991187 0.302936 0 0 0.000759125
ITEM: TIMESTEP
1
ITEM: NUMBER OF ATOMS
48
ITEM: BOX BOUNDS xy xz yz pp pp pp
-4.4170713424682617e+00 8.5982638597488403e+00 2.5251476168632507e+00
-1.1132121086120605e-02 9.5149352550506592e+00 -4.4292775392532349e+00
-4.7147274017333984e-03 1.9521842360496521e+01 2.6099252700805664e-01
ITEM: ATOMS id type xs ys zs fx fy fz
1 1 0.948063 0.166713 0.0369762 0 0 1.02779
2 1 0.496913 0.0743552 0.0528025 0 0 -0.12944
3 1 0.528482 0.124689 0.656893 0 0 -0.00440979
4 1 0.706914 0.949164 0.922854 0 0 -1.0278
5 1 0.397838 0.157245 0.802829 0 0 -0.0829506
6 1 0.158064 0.0415212 0.907028 0 0 0.12944
7 1 0.844867 0.24963 0.781764 0 0 -0.0685959
8 1 0.891607 0.208292 0.407034 0 0 -0.0007267
9 1 0.0815708 0.0323977 0.677774 0 0 0.00476265
10 1 0.76337 0.240917 0.552796 0 0 0.000730515
11 1 0.810109 0.19958 0.178066 0 0 0.0685997
12 1 0.573406 0.0834786 0.282056 0 0 -0.00476456
13 1 0.257139 0.291965 0.157001 0 0 0.0829411
14 1 0.444713 0.116061 0.42785 0 0 -0.00152779
15 1 0.948063 0.500046 0.0369762 0 0 1.02779
16 1 0.496913 0.407689 0.0528025 0 0 -0.129442
17 1 0.528482 0.458022 0.656893 0 0 -0.00440788
18 1 0.706914 0.282497 0.922854 0 0 -1.0278
19 1 0.397838 0.490578 0.802829 0 0 -0.082943
20 1 0.158064 0.374854 0.907028 0 0 0.129438
21 1 0.844867 0.582963 0.781764 0 0 -0.0685997
22 1 0.210264 0.333148 0.53198 0 0 0.00152588
23 1 0.891607 0.541626 0.407034 0 0 -0.000728607
24 1 0.0815707 0.365731 0.677774 0 0 0.00475502
25 1 0.76337 0.574251 0.552796 0 0 0.000734329
26 1 0.126495 0.324521 0.302937 0 0 0.00440788
27 1 0.810109 0.532913 0.178066 0 0 0.0685997
28 1 0.573406 0.416812 0.282056 0 0 -0.00476265
29 1 0.257139 0.625298 0.157001 0 0 0.0829487
30 1 0.444713 0.449395 0.42785 0 0 -0.00152779
31 1 0.948063 0.83338 0.0369762 0 0 1.0278
32 1 0.496913 0.741022 0.0528025 0 0 -0.12944
33 1 0.528482 0.791356 0.656893 0 0 -0.00440598
34 1 0.706914 0.61583 0.922854 0 0 -1.0278
35 1 0.397838 0.823911 0.802829 0 0 -0.0829449
36 1 0.158064 0.708188 0.907028 0 0 0.129442
37 1 0.844868 0.916297 0.781764 0 0 -0.0685978
38 1 0.210264 0.666481 0.53198 0 0 0.00152779
39 1 0.891607 0.874959 0.407034 0 0 -0.000730515
40 1 0.0815707 0.699064 0.677774 0 0 0.00475693
41 1 0.76337 0.907584 0.552796 0 0 0.000734329
42 1 0.126495 0.657854 0.302937 0 0 0.00440788
43 1 0.810109 0.866246 0.178066 0 0 0.0685978
44 1 0.573406 0.750145 0.282056 0 0 -0.00476456
45 1 0.257139 0.958632 0.157001 0 0 0.0829487
46 1 0.444713 0.782728 0.42785 0 0 -0.00152779
47 1 0.210264 0.999815 0.53198 0 0 0.00152779
48 1 0.126495 0.991187 0.302937 0 0 0.00440979
ITEM: TIMESTEP
2
ITEM: NUMBER OF ATOMS
48
ITEM: BOX BOUNDS xy xz yz pp pp pp
-4.4170713424682617e+00 8.5982638597488403e+00 2.5251476168632507e+00
-1.1132121086120605e-02 9.5149352550506592e+00 -4.4292775392532349e+00
-4.7147274017333984e-03 1.9521842360496521e+01 2.6099252700805664e-01
ITEM: ATOMS id type xs ys zs fx fy fz
1 1 0.951865 0.166569 0.0420974 0 0 0.196922
2 1 0.496434 0.0743734 0.0521575 0 0 -0.123568
3 1 0.528466 0.12469 0.656871 0 0 -0.0174217
4 1 0.703112 0.949308 0.917733 0 0 -0.196918
5 1 0.397531 0.157256 0.802415 0 0 -0.155233
6 1 0.158543 0.041503 0.907673 0 0 0.123568
7 1 0.844614 0.24964 0.781422 0 0 -0.119696
8 1 0.891605 0.208292 0.407031 0 0 -0.00028038
9 1 0.0815884 0.032397 0.677798 0 0 -0.00750542
10 1 0.763372 0.240917 0.552799 0 0 0.000282288
11 1 0.810363 0.19957 0.178408 0 0 0.119696
12 1 0.573389 0.0834793 0.282032 0 0 0.00749969
13 1 0.257446 0.291954 0.157415 0 0 0.155231
14 1 0.444708 0.116062 0.427843 0 0 0.000183105
15 1 0.951865 0.499902 0.0420974 0 0 0.19692
16 1 0.496434 0.407707 0.0521576 0 0 -0.123564
17 1 0.528466 0.458023 0.656871 0 0 -0.0174255
18 1 0.703112 0.282641 0.917733 0 0 -0.196924
19 1 0.397531 0.49059 0.802415 0 0 -0.15523
20 1 0.158543 0.374836 0.907673 0 0 0.123566
21 1 0.844614 0.582973 0.781422 0 0 -0.119699
22 1 0.21027 0.333148 0.531987 0 0 -0.000185013
23 1 0.891605 0.541626 0.407031 0 0 -0.000278473
24 1 0.0815883 0.36573 0.677798 0 0 -0.00749588
25 1 0.763372 0.574251 0.552799 0 0 0.000286102
26 1 0.126511 0.32452 0.302959 0 0 0.0174236
27 1 0.810363 0.532903 0.178408 0 0 0.119694
28 1 0.573389 0.416813 0.282032 0 0 0.00750351
29 1 0.257446 0.625287 0.157415 0 0 0.155233
30 1 0.444708 0.449395 0.427843 0 0 0.000183105
31 1 0.951865 0.833235 0.0420974 0 0 0.19692
32 1 0.496434 0.74104 0.0521576 0 0 -0.123568
33 1 0.528466 0.791356 0.656871 0 0 -0.0174255
34 1 0.703112 0.615974 0.917733 0 0 -0.19692
35 1 0.397531 0.823923 0.802415 0 0 -0.155235
36 1 0.158543 0.70817 0.907673 0 0 0.123562
37 1 0.844614 0.916306 0.781422 0 0 -0.119701
38 1 0.21027 0.666481 0.531987 0 0 -0.000183105
39 1 0.891605 0.874959 0.407031 0 0 -0.00028038
40 1 0.0815883 0.699064 0.677798 0 0 -0.0075016
41 1 0.763372 0.907584 0.552799 0 0 0.000282288
42 1 0.126511 0.657853 0.302959 0 0 0.0174236
43 1 0.810363 0.866237 0.178408 0 0 0.119701
44 1 0.573389 0.750146 0.282032 0 0 0.0075016
45 1 0.257446 0.95862 0.157415 0 0 0.155231
46 1 0.444708 0.782728 0.427843 0 0 0.000183105
47 1 0.210269 0.999815 0.531987 0 0 -0.000183105
48 1 0.126511 0.991187 0.302959 0 0 0.0174255
ITEM: TIMESTEP
3
ITEM: NUMBER OF ATOMS
48
ITEM: BOX BOUNDS xy xz yz pp pp pp
-4.4170713424682617e+00 8.5982638597488403e+00 2.5251476168632507e+00
-1.1132121086120605e-02 9.5149352550506592e+00 -4.4292775392532349e+00
-4.7147274017333984e-03 1.9521842360496521e+01 2.6099252700805664e-01
ITEM: ATOMS id type xs ys zs fx fy fz
1 1 0.954097 0.166484 0.045103 0 0 -0.10671
2 1 0.495033 0.0744265 0.0502715 0 0 -0.000677109
3 1 0.528269 0.124697 0.656605 0 0 -0.0632305
4 1 0.70088 0.949392 0.914727 0 0 0.106709
5 1 0.395772 0.157323 0.800046 0 0 -0.0585804
6 1 0.159943 0.0414499 0.909559 0 0 0.000679016
7 1 0.843257 0.249691 0.779595 0 0 -0.042942
8 1 0.891601 0.208293 0.407026 0 0 0.00470543
9 1 0.0815033 0.0324003 0.677683 0 0 -0.0614643
10 1 0.763376 0.240917 0.552804 0 0 -0.00470543
11 1 0.81172 0.199518 0.180235 0 0 0.0429459
12 1 0.573474 0.0834761 0.282147 0 0 0.0614624
13 1 0.259205 0.291887 0.159784 0 0 0.058588
14 1 0.44471 0.116062 0.427846 0 0 0.00787735
15 1 0.954097 0.499817 0.045103 0 0 -0.106709
16 1 0.495033 0.40776 0.0502716 0 0 -0.000684738
17 1 0.528268 0.45803 0.656605 0 0 -0.0632267
18 1 0.70088 0.282726 0.914727 0 0 0.106712
19 1 0.395772 0.490656 0.800046 0 0 -0.0585918
20 1 0.159943 0.374783 0.909559 0 0 0.000680923
21 1 0.843257 0.583025 0.779595 0 0 -0.0429401
22 1 0.210267 0.333148 0.531985 0 0 -0.00787544
23 1 0.891601 0.541626 0.407026 0 0 0.00469589
24 1 0.0815034 0.365734 0.677683 0 0 -0.0614681
25 1 0.763376 0.57425 0.552804 0 0 -0.00470734
26 1 0.126708 0.324513 0.303225 0 0 0.063221
27 1 0.81172 0.532852 0.180235 0 0 0.0429497
28 1 0.573474 0.416809 0.282147 0 0 0.0614624
29 1 0.259205 0.62522 0.159784 0 0 0.0585861
30 1 0.44471 0.449395 0.427846 0 0 0.00787735
31 1 0.954097 0.833151 0.0451031 0 0 -0.10671
32 1 0.495033 0.741093 0.0502715 0 0 -0.000675201
33 1 0.528268 0.791364 0.656605 0 0 -0.0632229
34 1 0.70088 0.616059 0.914727 0 0 0.106705
35 1 0.395772 0.82399 0.800046 0 0 -0.0585861
36 1 0.159943 0.708117 0.909559 0 0 0.000686646
37 1 0.843257 0.916358 0.779595 0 0 -0.0429363
38 1 0.210268 0.666481 0.531985 0 0 -0.00787544
39 1 0.891601 0.874959 0.407026 0 0 0.00470543
40 1 0.0815033 0.699067 0.677683 0 0 -0.0614643
41 1 0.763376 0.907584 0.552804 0 0 -0.00470924
42 1 0.126708 0.657846 0.303225 0 0 0.0632267
43 1 0.81172 0.866185 0.180235 0 0 0.0429363
44 1 0.573474 0.750143 0.282147 0 0 0.0614643
45 1 0.259205 0.958553 0.159784 0 0 0.0585899
46 1 0.44471 0.782728 0.427846 0 0 0.00787735
47 1 0.210267 0.999815 0.531985 0 0 -0.00787354
48 1 0.126708 0.991179 0.303225 0 0 0.0632229
ITEM: TIMESTEP
4
ITEM: NUMBER OF ATOMS
48
ITEM: BOX BOUNDS xy xz yz pp pp pp
-4.4170713424682617e+00 8.5982638597488403e+00 2.5251476168632507e+00
-1.1132121086120605e-02 9.5149352550506592e+00 -4.4292775392532349e+00
-4.7147274017333984e-03 1.9521842360496521e+01 2.6099252700805664e-01
ITEM: ATOMS id type xs ys zs fx fy fz
1 1 0.953649 0.166501 0.0444995 0 0 0.0274963
2 1 0.494623 0.0744421 0.0497183 0 0 0.0572128
3 1 0.527565 0.124724 0.655657 0 0 -0.0469055
4 1 0.701328 0.949375 0.915331 0 0 -0.0275021
5 1 0.394665 0.157365 0.798556 0 0 0.0277786
6 1 0.160354 0.0414343 0.910112 0 0 -0.0572147
7 1 0.842427 0.249723 0.778477 0 0 0.017231
8 1 0.891649 0.208291 0.40709 0 0 0.022604
9 1 0.08085 0.032425 0.676803 0 0 -0.0500126
10 1 0.763328 0.240919 0.55274 0 0 -0.0226078
11 1 0.81255 0.199487 0.181353 0 0 -0.0172367
12 1 0.574127 0.0834513 0.283027 0 0 0.0500202
13 1 0.260312 0.291845 0.161275 0 0 -0.0277843
14 1 0.444791 0.116059 0.427955 0 0 0.0259609
15 1 0.953649 0.499834 0.0444995 0 0 0.0274963
16 1 0.494623 0.407775 0.0497183 0 0 0.0572166
17 1 0.527565 0.458057 0.655657 0 0 -0.0469036
18 1 0.701328 0.282709 0.915331 0 0 -0.0274868
19 1 0.394665 0.490698 0.798556 0 0 0.0277805
20 1 0.160354 0.374768 0.910112 0 0 -0.0572128
21 1 0.842427 0.583056 0.778477 0 0 0.017231
22 1 0.210186 0.333151 0.531875 0 0 -0.0259552
23 1 0.891649 0.541624 0.40709 0 0 0.0226173
24 1 0.08085 0.365758 0.676804 0 0 -0.0500183
25 1 0.763328 0.574252 0.55274 0 0 -0.0226212
26 1 0.127412 0.324486 0.304173 0 0 0.0469093
27 1 0.81255 0.53282 0.181353 0 0 -0.0172386
28 1 0.574127 0.416785 0.283027 0 0 0.0500126
29 1 0.260312 0.625178 0.161275 0 0 -0.0277863
30 1 0.444791 0.449392 0.427955 0 0 0.0259609
31 1 0.953649 0.833168 0.0444995 0 0 0.0274963
32 1 0.494623 0.741109 0.0497184 0 0 0.0572147
33 1 0.527565 0.79139 0.655657 0 0 -0.0469036
34 1 0.701328 0.616042 0.915331 0 0 -0.0274849
35 1 0.394665 0.824032 0.798556 0 0 0.0277824
36 1 0.160354 0.708101 0.910112 0 0 -0.0572166
37 1 0.842427 0.916389 0.778477 0 0 0.0172386
38 1 0.210186 0.666484 0.531875 0 0 -0.0259628
39 1 0.891649 0.874957 0.40709 0 0 0.0226078
40 1 0.08085 0.699092 0.676804 0 0 -0.0500107
41 1 0.763328 0.907586 0.55274 0 0 -0.0226078
42 1 0.127412 0.657819 0.304173 0 0 0.0469074
43 1 0.81255 0.866154 0.181353 0 0 -0.017231
44 1 0.574127 0.750118 0.283027 0 0 0.0500183
45 1 0.260312 0.958511 0.161275 0 0 -0.0277901
46 1 0.444791 0.782725 0.427955 0 0 0.025959
47 1 0.210186 0.999818 0.531875 0 0 -0.0259647
48 1 0.127412 0.991153 0.304173 0 0 0.0469055
ITEM: TIMESTEP
5
ITEM: NUMBER OF ATOMS
48
ITEM: BOX BOUNDS xy xz yz pp pp pp
-4.4170713424682617e+00 8.5982638597488403e+00 2.5251476168632507e+00
-1.1132121086120605e-02 9.5149352550506592e+00 -4.4292775392532349e+00
-4.7147274017333984e-03 1.9521842360496521e+01 2.6099252700805664e-01
ITEM: ATOMS id type xs ys zs fx fy fz
1 1 0.953791 0.166496 0.0446913 0 0 0.0125465
2 1 0.495224 0.0744193 0.0505286 0 0 0.0197487
3 1 0.526462 0.124766 0.654173 0 0 0.0169964
4 1 0.701185 0.949381 0.915139 0 0 -0.0125389
5 1 0.394426 0.157374 0.798234 0 0 -0.00745201
6 1 0.159752 0.0414571 0.909302 0 0 -0.0197411
7 1 0.842194 0.249732 0.778164 0 0 -0.0182095
8 1 0.892009 0.208277 0.407575 0 0 0.0198612
9 1 0.0797316 0.0324675 0.675297 0 0 0.0166054
10 1 0.762968 0.240933 0.552255 0 0 -0.0198593
11 1 0.812783 0.199478 0.181666 0 0 0.0182114
12 1 0.575245 0.0834089 0.284533 0 0 -0.0166111
13 1 0.260551 0.291836 0.161596 0 0 0.00745201
14 1 0.44522 0.116042 0.428534 0 0 0.020895
15 1 0.953791 0.499829 0.0446913 0 0 0.0125465
16 1 0.495224 0.407753 0.0505286 0 0 0.0197468
17 1 0.526462 0.458099 0.654173 0 0 0.0169926
18 1 0.701186 0.282714 0.915139 0 0 -0.012558
19 1 0.394426 0.490707 0.798234 0 0 -0.00744057
20 1 0.159752 0.37479 0.909302 0 0 -0.0197487
21 1 0.842194 0.583065 0.778164 0 0 -0.0182056
22 1 0.209757 0.333167 0.531297 0 0 -0.0209026
23 1 0.892009 0.54161 0.407575 0 0 0.0198536
24 1 0.0797315 0.365801 0.675297 0 0 0.0166111
25 1 0.762968 0.574266 0.552255 0 0 -0.0198383
26 1 0.128514 0.324444 0.305657 0 0 -0.0169907
27 1 0.812783 0.532811 0.181666 0 0 0.0182133
28 1 0.575245 0.416742 0.284533 0 0 -0.0166035
29 1 0.260551 0.625169 0.161596 0 0 0.0074501
30 1 0.44522 0.449376 0.428534 0 0 0.0208912
31 1 0.953791 0.833162 0.0446914 0 0 0.0125427
32 1 0.495224 0.741086 0.0505287 0 0 0.0197411
33 1 0.526463 0.791432 0.654173 0 0 0.0169907
34 1 0.701186 0.616048 0.915139 0 0 -0.0125561
35 1 0.394426 0.824041 0.798234 0 0 -0.00744057
36 1 0.159753 0.708124 0.909302 0 0 -0.0197449
37 1 0.842194 0.916398 0.778164 0 0 -0.0182209
38 1 0.209757 0.666501 0.531297 0 0 -0.0208969
39 1 0.892009 0.874944 0.407575 0 0 0.0198517
40 1 0.0797316 0.699134 0.675297 0 0 0.0165958
41 1 0.762968 0.907599 0.552255 0 0 -0.019846
42 1 0.128514 0.657777 0.305658 0 0 -0.0169983
43 1 0.812783 0.866145 0.181666 0 0 0.0182152
44 1 0.575245 0.750076 0.284533 0 0 -0.0166168
45 1 0.260551 0.958502 0.161596 0 0 0.00745392
46 1 0.44522 0.782709 0.428533 0 0 0.0208969
47 1 0.209757 0.999834 0.531297 0 0 -0.0208969
48 1 0.128514 0.991111 0.305657 0 0 -0.0169926
ITEM: TIMESTEP
6
ITEM: NUMBER OF ATOMS
48
ITEM: BOX BOUNDS xy xz yz pp pp pp
-4.4170713424682617e+00 8.5982638597488403e+00 2.5251476168632507e+00
-1.1132121086120605e-02 9.5149352550506592e+00 -4.4292775392532349e+00
-4.7147274017333984e-03 1.9521842360496521e+01 2.6099252700805664e-01
ITEM: ATOMS id type xs ys zs fx fy fz
1 1 0.953919 0.166491 0.0448636 0 0 -0.00370407
2 1 0.495468 0.0744101 0.0508563 0 0 0.00597
3 1 0.526492 0.124764 0.654212 0 0 0.000463486
4 1 0.701058 0.949386 0.914967 0 0 0.00370026
5 1 0.394333 0.157378 0.798109 0 0 -0.00494194
6 1 0.159509 0.0414663 0.908974 0 0 -0.00597191
7 1 0.842006 0.249739 0.77791 0 0 -0.0092907
8 1 0.892226 0.208269 0.407868 0 0 -0.00714111
9 1 0.0797556 0.0324666 0.67533 0 0 0.00110054
10 1 0.762751 0.240941 0.551962 0 0 0.00713539
11 1 0.812971 0.199471 0.18192 0 0 0.00929451
12 1 0.575221 0.0834098 0.284501 0 0 -0.00109863
13 1 0.260644 0.291832 0.161721 0 0 0.00494194
14 1 0.445455 0.116033 0.428849 0 0 -0.00705528
15 1 0.953919 0.499824 0.0448636 0 0 -0.00370216
16 1 0.495468 0.407743 0.0508563 0 0 0.00596619
17 1 0.526492 0.458098 0.654212 0 0 0.000463486
18 1 0.701058 0.282719 0.914967 0 0 0.00370216
19 1 0.394333 0.490711 0.798109 0 0 -0.00494766
20 1 0.159509 0.3748 0.908974 0 0 -0.00597191
21 1 0.842006 0.583072 0.77791 0 0 -0.00928879
22 1 0.209522 0.333176 0.530981 0 0 0.00705528
23 1 0.892226 0.541602 0.407868 0 0 -0.00714111
24 1 0.0797555 0.3658 0.67533 0 0 0.00109673
25 1 0.762751 0.574274 0.551962 0 0 0.00713921
26 1 0.128485 0.324445 0.305618 0 0 -0.000461578
27 1 0.812971 0.532804 0.18192 0 0 0.0092907
28 1 0.575221 0.416743 0.284501 0 0 -0.00109863
29 1 0.260644 0.625166 0.161721 0 0 0.00494576
30 1 0.445455 0.449367 0.428849 0 0 -0.00705528
31 1 0.953919 0.833157 0.0448636 0 0 -0.00370216
32 1 0.495468 0.741077 0.0508563 0 0 0.00596809
33 1 0.526492 0.791431 0.654212 0 0 0.000461578
34 1 0.701058 0.616052 0.914967 0 0 0.00370407
35 1 0.394333 0.824044 0.798109 0 0 -0.00494957
36 1 0.159509 0.708133 0.908974 0 0 -0.00596809
37 1 0.842006 0.916405 0.77791 0 0 -0.0092926
38 1 0.209522 0.66651 0.530981 0 0 0.00705338
39 1 0.892226 0.874935 0.407868 0 0 -0.00713539
40 1 0.0797555 0.699133 0.67533 0 0 0.00110054
41 1 0.762751 0.907607 0.551962 0 0 0.0071373
42 1 0.128485 0.657779 0.305618 0 0 -0.000459671
43 1 0.812971 0.866138 0.18192 0 0 0.0092926
44 1 0.575221 0.750076 0.284501 0 0 -0.00109863
45 1 0.260644 0.958499 0.161721 0 0 0.00494957
46 1 0.445455 0.7827 0.428849 0 0 -0.00705338
47 1 0.209522 0.999843 0.530981 0 0 0.00705719
48 1 0.128485 0.991112 0.305618 0 0 -0.000459671
ITEM: TIMESTEP
7
ITEM: NUMBER OF ATOMS
48
ITEM: BOX BOUNDS xy xz yz pp pp pp
-4.4170713424682617e+00 8.5982638597488403e+00 2.5251476168632507e+00
-1.1132121086120605e-02 9.5149352550506592e+00 -4.4292775392532349e+00
-4.7147274017333984e-03 1.9521842360496521e+01 2.6099252700805664e-01
ITEM: ATOMS id type xs ys zs fx fy fz
1 1 0.953894 0.166492 0.0448294 0 0 0.0046711
2 1 0.495571 0.0744061 0.0509954 0 0 0.00212479
3 1 0.526501 0.124764 0.654225 0 0 -0.00241852
4 1 0.701083 0.949385 0.915001 0 0 -0.00466728
5 1 0.394263 0.15738 0.798014 0 0 0.00130844
6 1 0.159406 0.0414703 0.908835 0 0 -0.0021286
7 1 0.841871 0.249744 0.777729 0 0 0.000839233
8 1 0.892173 0.208271 0.407797 0 0 -0.00130272
9 1 0.0797717 0.032466 0.675351 0 0 -0.00195503
10 1 0.762804 0.240939 0.552033 0 0 0.00131035
11 1 0.813106 0.199466 0.182101 0 0 -0.000839233
12 1 0.575205 0.0834104 0.284479 0 0 0.00195122
13 1 0.260714 0.29183 0.161816 0 0 -0.00130653
14 1 0.445405 0.116035 0.428782 0 0 -0.00149345
15 1 0.953894 0.499825 0.0448294 0 0 0.00466347
16 1 0.495571 0.40774 0.0509953 0 0 0.0021286
17 1 0.526501 0.458097 0.654225 0 0 -0.00241852
18 1 0.701083 0.282718 0.915001 0 0 -0.0046711
19 1 0.394263 0.490714 0.798014 0 0 0.00130844
20 1 0.159406 0.374804 0.908835 0 0 -0.00212479
21 1 0.841871 0.583077 0.777729 0 0 0.000833511
22 1 0.209572 0.333174 0.531048 0 0 0.00149155
23 1 0.892173 0.541604 0.407797 0 0 -0.00130653
24 1 0.0797716 0.365799 0.675351 0 0 -0.0019455
25 1 0.762804 0.574272 0.552033 0 0 0.00130463
26 1 0.128476 0.324446 0.305605 0 0 0.00241852
27 1 0.813106 0.532799 0.182101 0 0 -0.000841141
28 1 0.575205 0.416744 0.284479 0 0 0.00195312
29 1 0.260714 0.625163 0.161816 0 0 -0.00130463
30 1 0.445405 0.449369 0.428782 0 0 -0.00148964
31 1 0.953894 0.833158 0.0448294 0 0 0.00466919
32 1 0.495571 0.741073 0.0509954 0 0 0.00212669
33 1 0.526501 0.791431 0.654225 0 0 -0.00242233
34 1 0.701083 0.616051 0.915001 0 0 -0.0046711
35 1 0.394263 0.824047 0.798014 0 0 0.00130653
36 1 0.159406 0.708137 0.908835 0 0 -0.00212288
37 1 0.841871 0.91641 0.777729 0 0 0.000841141
38 1 0.209572 0.666508 0.531048 0 0 0.00150299
39 1 0.892174 0.874937 0.407797 0 0 -0.00131226
40 1 0.0797716 0.699133 0.675351 0 0 -0.00195503
41 1 0.762804 0.907605 0.552033 0 0 0.00130081
42 1 0.128476 0.657779 0.305605 0 0 0.00241661
43 1 0.813106 0.866133 0.182101 0 0 -0.000843048
44 1 0.575205 0.750077 0.284479 0 0 0.00196457
45 1 0.260714 0.958496 0.161816 0 0 -0.00130844
46 1 0.445405 0.782702 0.428782 0 0 -0.00149918
47 1 0.209572 0.999841 0.531048 0 0 0.00149727
48 1 0.128476 0.991112 0.305605 0 0 0.0024147
ITEM: TIMESTEP
8
ITEM: NUMBER OF ATOMS
48
ITEM: BOX BOUNDS xy xz yz pp pp pp
-4.4170713424682617e+00 8.5982638597488403e+00 2.5251476168632507e+00
-1.1132121086120605e-02 9.5149352550506592e+00 -4.4292775392532349e+00
-4.7147274017333984e-03 1.9521842360496521e+01 2.6099252700805664e-01
ITEM: ATOMS id type xs ys zs fx fy fz
1 1 0.953923 0.166491 0.0448685 0 0 -0.000135422
2 1 0.495595 0.0744052 0.0510284 0 0 0.000322342
3 1 0.526486 0.124765 0.654204 0 0 -0.000822067
4 1 0.701054 0.949386 0.914962 0 0 0.000135422
5 1 0.394265 0.15738 0.798016 0 0 -0.000455856
6 1 0.159381 0.0414712 0.908802 0 0 -0.000324249
7 1 0.841864 0.249744 0.777719 0 0 -0.000141144
8 1 0.892159 0.208271 0.407778 0 0 0.000871658
9 1 0.0797601 0.0324664 0.675336 0 0 -0.000579834
10 1 0.762818 0.240938 0.552052 0 0 -0.000871658
11 1 0.813113 0.199466 0.182111 0 0 0.000137329
12 1 0.575217 0.0834099 0.284494 0 0 0.000576019
13 1 0.260712 0.29183 0.161814 0 0 0.000457764
14 1 0.44539 0.116036 0.428762 0 0 0.000766754
15 1 0.953923 0.499824 0.0448685 0 0 -0.0001297
16 1 0.495595 0.407739 0.0510284 0 0 0.000326157
17 1 0.526486 0.458098 0.654204 0 0 -0.000823975
18 1 0.701054 0.282719 0.914962 0 0 0.000135422
19 1 0.394265 0.490713 0.798016 0 0 -0.000452042
20 1 0.159381 0.374805 0.908802 0 0 -0.000326157
21 1 0.841864 0.583077 0.777719 0 0 -0.000137329
22 1 0.209587 0.333174 0.531068 0 0 -0.000762939
23 1 0.892159 0.541605 0.407778 0 0 0.00087738
24 1 0.0797601 0.3658 0.675336 0 0 -0.000574112
25 1 0.762818 0.574272 0.552052 0 0 -0.000873566
26 1 0.128491 0.324445 0.305626 0 0 0.00082016
27 1 0.813113 0.532799 0.182111 0 0 0.000141144
28 1 0.575217 0.416743 0.284494 0 0 0.000577927
29 1 0.260712 0.625163 0.161814 0 0 0.000450134
30 1 0.44539 0.449369 0.428762 0 0 0.000759125
31 1 0.953923 0.833157 0.0448685 0 0 -0.000123978
32 1 0.495595 0.741072 0.0510284 0 0 0.000324249
33 1 0.526486 0.791431 0.654204 0 0 -0.000822067
34 1 0.701054 0.616053 0.914962 0 0 0.000131607
35 1 0.394265 0.824047 0.798016 0 0 -0.000455856
36 1 0.159381 0.708138 0.908802 0 0 -0.000324249
37 1 0.841864 0.916411 0.777719 0 0 -0.000143051
38 1 0.209587 0.666507 0.531068 0 0 -0.000772476
39 1 0.892159 0.874938 0.407778 0 0 0.000875473
40 1 0.07976 0.699133 0.675336 0 0 -0.000572205
41 1 0.762818 0.907605 0.552052 0 0 -0.000873566
42 1 0.128491 0.657778 0.305626 0 0 0.000822067
43 1 0.813113 0.866132 0.182111 0 0 0.000139236
44 1 0.575217 0.750077 0.284495 0 0 0.000574112
45 1 0.260712 0.958496 0.161814 0 0 0.000450134
46 1 0.44539 0.782703 0.428762 0 0 0.000770569
47 1 0.209587 0.99984 0.531068 0 0 -0.000766754
48 1 0.128491 0.991112 0.305626 0 0 0.000822067
ITEM: TIMESTEP
9
ITEM: NUMBER OF ATOMS
48
ITEM: BOX BOUNDS xy xz yz pp pp pp
-4.4170713424682617e+00 8.5982638597488403e+00 2.5251476168632507e+00
-1.1132121086120605e-02 9.5149352550506592e+00 -4.4292775392532349e+00
-4.7147274017333984e-03 1.9521842360496521e+01 2.6099252700805664e-01
ITEM: ATOMS id type xs ys zs fx fy fz
1 1 0.953925 0.166491 0.0448716 0 0 -0.000247955
2 1 0.495606 0.0744048 0.0510421 0 0 -0.00021553
3 1 0.526468 0.124765 0.65418 0 0 -9.34601e-05
4 1 0.701052 0.949386 0.914959 0 0 0.000249863
5 1 0.394256 0.15738 0.798005 0 0 -0.000528336
6 1 0.159371 0.0414716 0.908788 0 0 0.000204086
7 1 0.84186 0.249744 0.777714 0 0 -0.000635147
8 1 0.892174 0.208271 0.407797 0 0 -0.000232697
9 1 0.0797472 0.0324669 0.675318 0 0 -0.000270844
10 1 0.762803 0.240939 0.552033 0 0 0.000226974
11 1 0.813117 0.199465 0.182117 0 0 0.000629425
12 1 0.57523 0.0834095 0.284512 0 0 0.00028801
13 1 0.260721 0.291829 0.161825 0 0 0.00053215
14 1 0.445402 0.116035 0.428778 0 0 -7.82013e-05
15 1 0.953925 0.499824 0.0448717 0 0 -0.000257492
16 1 0.495606 0.407738 0.0510422 0 0 -0.000217438
17 1 0.526468 0.458099 0.65418 0 0 -8.58307e-05
18 1 0.701052 0.282719 0.914959 0 0 0.000247955
19 1 0.394256 0.490714 0.798005 0 0 -0.000535965
20 1 0.159371 0.374805 0.908788 0 0 0.000219345
21 1 0.84186 0.583078 0.777714 0 0 -0.00063324
22 1 0.209575 0.333174 0.531052 0 0 7.24792e-05
23 1 0.892174 0.541604 0.407797 0 0 -0.000240326
24 1 0.0797473 0.3658 0.675318 0 0 -0.000286102
25 1 0.762803 0.574272 0.552033 0 0 0.000234604
26 1 0.128509 0.324444 0.30565 0 0 9.15527e-05
27 1 0.813117 0.532799 0.182117 0 0 0.00063324
28 1 0.57523 0.416743 0.284512 0 0 0.000272751
29 1 0.260721 0.625163 0.161825 0 0 0.000547409
30 1 0.445402 0.449369 0.428778 0 0 -6.29425e-05
31 1 0.953925 0.833157 0.0448719 0 0 -0.000267029
32 1 0.495606 0.741071 0.0510422 0 0 -0.00021553
33 1 0.526468 0.791432 0.65418 0 0 -9.15527e-05
34 1 0.701052 0.616053 0.914959 0 0 0.000257492
35 1 0.394256 0.824047 0.798005 0 0 -0.000530243
36 1 0.159371 0.708138 0.908788 0 0 0.000211716
37 1 0.84186 0.916411 0.777714 0 0 -0.000627518
38 1 0.209575 0.666508 0.531052 0 0 8.39233e-05
39 1 0.892174 0.874937 0.407797 0 0 -0.000232697
40 1 0.0797473 0.699134 0.675318 0 0 -0.000286102
41 1 0.762803 0.907605 0.552033 0 0 0.000226974
42 1 0.128509 0.657778 0.30565 0 0 8.7738e-05
43 1 0.813117 0.866132 0.182117 0 0 0.000637054
44 1 0.57523 0.750076 0.284512 0 0 0.000282288
45 1 0.260721 0.958496 0.161825 0 0 0.000547409
46 1 0.445402 0.782702 0.428778 0 0 -7.43866e-05
47 1 0.209575 0.999841 0.531052 0 0 7.24792e-05
48 1 0.128509 0.991111 0.30565 0 0 8.96454e-05
ITEM: TIMESTEP
10
ITEM: NUMBER OF ATOMS
48
ITEM: BOX BOUNDS xy xz yz pp pp pp
-4.4170713424682617e+00 8.5982638597488403e+00 2.5251476168632507e+00
-1.1132121086120605e-02 9.5149352550506592e+00 -4.4292775392532349e+00
-4.7147274017333984e-03 1.9521842360496521e+01 2.6099252700805664e-01
ITEM: ATOMS id type xs ys zs fx fy fz
1 1 0.953925 0.166491 0.0448716 0 0 -0.000247955
2 1 0.495606 0.0744048 0.0510421 0 0 -0.00021553
3 1 0.526468 0.124765 0.65418 0 0 -9.34601e-05
4 1 0.701052 0.949386 0.914959 0 0 0.000249863
5 1 0.394256 0.15738 0.798005 0 0 -0.000528336
6 1 0.159371 0.0414716 0.908788 0 0 0.000204086
7 1 0.84186 0.249744 0.777714 0 0 -0.000635147
8 1 0.892174 0.208271 0.407797 0 0 -0.000232697
9 1 0.0797472 0.0324669 0.675318 0 0 -0.000270844
10 1 0.762803 0.240939 0.552033 0 0 0.000226974
11 1 0.813117 0.199465 0.182117 0 0 0.000629425
12 1 0.57523 0.0834095 0.284512 0 0 0.00028801
13 1 0.260721 0.291829 0.161825 0 0 0.00053215
14 1 0.445402 0.116035 0.428778 0 0 -7.82013e-05
15 1 0.953925 0.499824 0.0448717 0 0 -0.000257492
16 1 0.495606 0.407738 0.0510422 0 0 -0.000217438
17 1 0.526468 0.458099 0.65418 0 0 -8.58307e-05
18 1 0.701052 0.282719 0.914959 0 0 0.000247955
19 1 0.394256 0.490714 0.798005 0 0 -0.000535965
20 1 0.159371 0.374805 0.908788 0 0 0.000219345
21 1 0.84186 0.583078 0.777714 0 0 -0.00063324
22 1 0.209575 0.333174 0.531052 0 0 7.24792e-05
23 1 0.892174 0.541604 0.407797 0 0 -0.000240326
24 1 0.0797473 0.3658 0.675318 0 0 -0.000286102
25 1 0.762803 0.574272 0.552033 0 0 0.000234604
26 1 0.128509 0.324444 0.30565 0 0 9.15527e-05
27 1 0.813117 0.532799 0.182117 0 0 0.00063324
28 1 0.57523 0.416743 0.284512 0 0 0.000272751
29 1 0.260721 0.625163 0.161825 0 0 0.000547409
30 1 0.445402 0.449369 0.428778 0 0 -6.29425e-05
31 1 0.953925 0.833157 0.0448719 0 0 -0.000267029
32 1 0.495606 0.741071 0.0510422 0 0 -0.00021553
33 1 0.526468 0.791432 0.65418 0 0 -9.15527e-05
34 1 0.701052 0.616053 0.914959 0 0 0.000257492
35 1 0.394256 0.824047 0.798005 0 0 -0.000530243
36 1 0.159371 0.708138 0.908788 0 0 0.000211716
37 1 0.84186 0.916411 0.777714 0 0 -0.000627518
38 1 0.209575 0.666508 0.531052 0 0 8.39233e-05
39 1 0.892174 0.874937 0.407797 0 0 -0.000232697
40 1 0.0797473 0.699134 0.675318 0 0 -0.000286102
41 1 0.762803 0.907605 0.552033 0 0 0.000226974
42 1 0.128509 0.657778 0.30565 0 0 8.7738e-05
43 1 0.813117 0.866132 0.182117 0 0 0.000637054
44 1 0.57523 0.750076 0.284512 0 0 0.000282288
45 1 0.260721 0.958496 0.161825 0 0 0.000547409
46 1 0.445402 0.782702 0.428778 0 0 -7.43866e-05
47 1 0.209575 0.999841 0.531052 0 0 7.24792e-05
48 1 0.128509 0.991111 0.30565 0 0 8.96454e-05
