ITEM: TIMESTEP
0
ITEM: NUMBER OF ATOMS
32
ITEM: BOX BOUNDS xy xz yz pp pp pp
-2.1013021469116211e-03 6.7164828181266785e+00 3.1983250379562378e-01
-4.1524946689605713e-02 2.2124402940273285e+01 -0.0000000000000000e+00
-1.4066457748413086e-02 5.1965324282646179e+00 0.0000000000000000e+00
ITEM: ATOMS id type xs ys zs fx fy fz
1 1 0.00238837 0.336621 0.593597 0 0.0001688 -1.19209e-07
2 1 0.502388 0.336621 0.593597 0 0.000169754 -4.76837e-07
3 1 0.254471 0.294954 0.093597 0 0.000321627 7.15256e-07
4 1 0.754471 0.294954 0.0935971 0 0.000320435 3.57628e-07
5 1 0.24614 0.461621 0.593597 0 -3.21865e-06 3.57628e-07
6 1 0.746141 0.461621 0.593597 0 -3.69549e-06 1.19209e-07
7 1 0.998223 0.419954 0.0935971 0 -1.0252e-05 -4.76837e-07
8 1 0.498223 0.419954 0.0935971 0 -1.04904e-05 0
9 1 0.989892 0.586621 0.593597 0 5.60284e-06 -3.57628e-07
10 1 0.489893 0.586621 0.593597 0 5.36442e-06 -7.15256e-07
11 1 0.233645 0.711621 0.593597 0 -0.000322104 -1.3113e-06
12 1 0.733645 0.711621 0.593597 0 -0.000321865 -1.3113e-06
13 1 0.985727 0.669954 0.093597 0 -0.000174761 1.3113e-06
14 1 0.241975 0.544954 0.0935971 0 4.88758e-06 1.19209e-07
15 1 0.741975 0.544954 0.0935971 0 5.24521e-06 -1.19209e-07
16 1 0.485727 0.669954 0.093597 0 -0.000174403 1.43051e-06
17 1 0.977397 0.83662 0.593597 0 0.00236475 0
18 1 0.477397 0.83662 0.593597 0 0.00236404 -2.38419e-07
19 1 0.221149 0.96162 0.593597 0 -0.0295588 -4.76837e-07
20 1 0.721149 0.96162 0.593597 0 -0.0295587 -2.38419e-07
21 1 0.229479 0.794954 0.093597 0 0.000680208 4.76837e-07
22 1 0.729479 0.794954 0.0935971 0 0.000680447 2.38419e-07
23 1 0.973231 0.919954 0.0935971 0 -0.0522559 -1.19209e-07
24 1 0.473231 0.919954 0.093597 0 -0.052256 7.15256e-07
25 1 0.0148843 0.0866205 0.593597 0 0.0522603 -9.53674e-07
26 1 0.514884 0.0866205 0.593597 0 0.0522593 -5.96046e-07
27 1 0.266967 0.0449538 0.093597 0 0.0295569 1.07288e-06
28 1 0.766967 0.0449538 0.093597 0 0.0295576 4.76837e-07
29 1 0.258636 0.211621 0.593597 0 -0.000678897 -2.38419e-07
30 1 0.758636 0.211621 0.593597 0 -0.000679255 -4.76837e-07
31 1 0.010719 0.169954 0.093597 0 -0.00235868 7.15256e-07
32 1 0.510719 0.169954 0.0935971 0 -0.00235832 1.19209e-07
ITEM: TIMESTEP
1
ITEM: NUMBER OF ATOMS
32
ITEM: BOX BOUNDS xy xz yz pp pp pp
-2.1013021469116211e-03 6.7164828181266785e+00 3.1983250379562378e-01
-4.1524946689605713e-02 2.2124402940273285e+01 -0.0000000000000000e+00
-1.4066457748413086e-02 5.1965324282646179e+00 0.0000000000000000e+00
ITEM: ATOMS id type xs ys zs fx fy fz
1 1 0.00238826 0.336623 0.593597 0 0.000406623 2.38419e-07
2 1 0.502388 0.336623 0.593597 0 0.000406146 2.38419e-07
3 1 0.254471 0.294958 0.0935971 0 0.00171161 0
4 1 0.754471 0.294958 0.0935971 0 0.00171125 0
5 1 0.24614 0.461621 0.593597 0 5.79357e-05 1.19209e-07
6 1 0.746141 0.461621 0.593597 0 5.76973e-05 -1.19209e-07
7 1 0.998223 0.419954 0.0935971 0 -0.000153184 -3.57628e-07
8 1 0.498223 0.419954 0.0935971 0 -0.000153065 -2.38419e-07
9 1 0.989892 0.586621 0.593597 0 0.000149608 2.38419e-07
10 1 0.489893 0.586621 0.593597 0 0.000149727 0
11 1 0.233645 0.711616 0.593597 0 -0.00171149 1.19209e-07
12 1 0.733645 0.711616 0.593597 0 -0.00171113 3.57628e-07
13 1 0.985727 0.669952 0.0935971 0 -0.000406623 -4.76837e-07
14 1 0.241975 0.544954 0.0935971 0 -5.90086e-05 0
15 1 0.741975 0.544954 0.0935971 0 -5.9247e-05 -1.19209e-07
16 1 0.485727 0.669952 0.0935971 0 -0.000406742 -2.38419e-07
17 1 0.977395 0.836651 0.593597 0 -0.0119367 2.38419e-07
18 1 0.477395 0.836651 0.593597 0 -0.0119374 3.57628e-07
19 1 0.221168 0.961237 0.593597 0 0.0104469 1.19209e-07
20 1 0.721168 0.961237 0.593597 0 0.0104473 2.38419e-07
21 1 0.229479 0.794963 0.0935971 0 -0.0139147 0
22 1 0.729479 0.794963 0.0935971 0 -0.0139145 -2.38419e-07
23 1 0.973265 0.919276 0.0935971 0 -0.00421405 -5.96046e-07
24 1 0.473265 0.919276 0.093597 0 -0.00421429 0
25 1 0.0148504 0.0872986 0.593597 0 0.00421536 1.19209e-07
26 1 0.51485 0.0872986 0.593597 0 0.00421548 0
27 1 0.266948 0.0453374 0.093597 0 -0.0104446 2.38419e-07
28 1 0.766948 0.0453374 0.0935971 0 -0.0104439 0
29 1 0.258637 0.211612 0.593597 0 0.0139146 0
30 1 0.758637 0.211612 0.593597 0 0.0139138 -1.19209e-07
31 1 0.0107206 0.169923 0.0935971 0 0.0119387 1.19209e-07
32 1 0.51072 0.169923 0.0935971 0 0.011938 -2.38419e-07
ITEM: TIMESTEP
2
ITEM: NUMBER OF ATOMS
32
ITEM: BOX BOUNDS xy xz yz pp pp pp
-2.1013021469116211e-03 6.7164828181266785e+00 3.1983250379562378e-01
-4.1524946689605713e-02 2.2124402940273285e+01 -0.0000000000000000e+00
-1.4066457748413086e-02 5.1965324282646179e+00 0.0000000000000000e+00
ITEM: ATOMS id type xs ys zs fx fy fz
1 1 0.00238771 0.336634 0.593597 0 0.00755012 -2.38419e-07
2 1 0.502388 0.336634 0.593597 0 0.00755107 -1.19209e-07
3 1 0.254469 0.295003 0.0935971 0 0.00862229 2.38419e-07
4 1 0.754469 0.295003 0.0935971 0 0.00862312 2.38419e-07
5 1 0.24614 0.461622 0.593597 0 0.000549555 -5.96046e-07
6 1 0.74614 0.461622 0.593597 0 0.000549793 -3.57628e-07
7 1 0.998223 0.41995 0.0935971 0 0.0021503 4.76837e-07
8 1 0.498223 0.41995 0.0935971 0 0.00215018 2.38419e-07
9 1 0.989892 0.586625 0.593597 0 -0.00214827 -1.19209e-07
10 1 0.489892 0.586625 0.593597 0 -0.00214827 4.76837e-07
11 1 0.233647 0.711572 0.593597 0 -0.00862336 1.19209e-07
12 1 0.733647 0.711572 0.593597 0 -0.00862372 -1.19209e-07
13 1 0.985728 0.669941 0.0935971 0 -0.00755107 3.57628e-07
14 1 0.241975 0.544953 0.0935971 0 -0.000553489 -2.38419e-07
15 1 0.741975 0.544953 0.0935971 0 -0.000553489 0
16 1 0.485728 0.669941 0.0935971 0 -0.0075506 -2.38419e-07
17 1 0.97741 0.836359 0.593597 0 0.00255227 -4.76837e-07
18 1 0.47741 0.836359 0.593597 0 0.00255275 -1.19209e-07
19 1 0.221161 0.961379 0.593597 0 0.00184572 0
20 1 0.721161 0.961379 0.593597 0 0.00184619 1.19209e-07
21 1 0.229496 0.794613 0.0935971 0 -0.00191975 0
22 1 0.729496 0.794613 0.093597 0 -0.00191998 3.57628e-07
23 1 0.973281 0.918952 0.093597 0 0.00201476 3.57628e-07
24 1 0.473281 0.918952 0.0935971 0 0.00201416 -1.19209e-07
25 1 0.0148343 0.0876221 0.593597 0 -0.00201368 7.15256e-07
26 1 0.514834 0.0876221 0.593597 0 -0.00201344 3.57628e-07
27 1 0.266955 0.0451956 0.0935971 0 -0.00184369 -4.76837e-07
28 1 0.766955 0.0451956 0.0935971 0 -0.00184441 -2.38419e-07
29 1 0.258619 0.211961 0.593597 0 0.00192046 -1.19209e-07
30 1 0.758619 0.211961 0.593597 0 0.00192106 1.19209e-07
31 1 0.010706 0.170216 0.0935971 0 -0.00255334 -4.76837e-07
32 1 0.510706 0.170216 0.0935971 0 -0.00255322 -1.19209e-07
ITEM: TIMESTEP
3
ITEM: NUMBER OF ATOMS
32
ITEM: BOX BOUNDS xy xz yz pp pp pp
-2.1013021469116211e-03 6.7164828181266785e+00 3.1983250379562378e-01
-4.1524946689605713e-02 2.2124402940273285e+01 -0.0000000000000000e+00
-1.4066457748413086e-02 5.1965324282646179e+00 0.0000000000000000e+00
ITEM: ATOMS id type xs ys zs fx fy fz
1 1 0.002378 0.336828 0.593597 0 0.00078249 1.19209e-07
2 1 0.502378 0.336828 0.593597 0 0.000781894 2.38419e-07
3 1 0.254457 0.295234 0.0935971 0 -0.00124323 -4.76837e-07
4 1 0.754457 0.295234 0.0935971 0 -0.00124419 -2.38419e-07
5 1 0.24614 0.461636 0.593597 0 0.00221264 4.76837e-07
6 1 0.74614 0.461636 0.593597 0 0.00221252 4.76837e-07
7 1 0.998221 0.420003 0.0935971 0 0.0053978 -4.76837e-07
8 1 0.498221 0.420003 0.0935971 0 0.00539792 -4.76837e-07
9 1 0.989895 0.586571 0.593597 0 -0.00539994 -1.19209e-07
10 1 0.489895 0.586571 0.593597 0 -0.00539958 -5.96046e-07
11 1 0.233659 0.711341 0.593597 0 0.0012455 1.19209e-07
12 1 0.733659 0.711341 0.593597 0 0.00124586 0
13 1 0.985738 0.669746 0.0935971 0 -0.000783801 -3.57628e-07
14 1 0.241976 0.544938 0.0935971 0 -0.00221133 4.76837e-07
15 1 0.741976 0.544938 0.0935971 0 -0.00221145 2.38419e-07
16 1 0.485738 0.669746 0.0935971 0 -0.000783682 1.19209e-07
17 1 0.977411 0.836342 0.593597 0 -0.000445962 4.76837e-07
18 1 0.47741 0.836342 0.593597 0 -0.000445843 -2.38419e-07
19 1 0.221156 0.961465 0.593597 0 -0.00364769 -1.19209e-07
20 1 0.721156 0.961465 0.593597 0 -0.00364888 -5.96046e-07
21 1 0.229504 0.794467 0.0935971 0 -0.000495553 -1.19209e-07
22 1 0.729504 0.794467 0.0935971 0 -0.000495672 -2.38419e-07
23 1 0.973283 0.918913 0.093597 0 -0.00131488 1.19209e-07
24 1 0.473283 0.918913 0.093597 0 -0.00131381 2.38419e-07
25 1 0.0148323 0.087661 0.593597 0 0.001315 -5.96046e-07
26 1 0.514832 0.087661 0.593597 0 0.00131583 -4.76837e-07
27 1 0.266959 0.0451095 0.093597 0 0.00364733 3.57628e-07
28 1 0.766959 0.0451095 0.093597 0 0.00364769 8.34465e-07
29 1 0.258612 0.212107 0.593597 0 0.000494599 -1.19209e-07
30 1 0.758612 0.212107 0.593597 0 0.000494957 0
31 1 0.0107051 0.170232 0.093597 0 0.00044632 3.57628e-07
32 1 0.510705 0.170232 0.093597 0 0.000447154 5.96046e-07
ITEM: TIMESTEP
4
ITEM: NUMBER OF ATOMS
32
ITEM: BOX BOUNDS xy xz yz pp pp pp
-2.1013021469116211e-03 6.7164828181266785e+00 3.1983250379562378e-01
-4.1524946689605713e-02 2.2124402940273285e+01 -0.0000000000000000e+00
-1.4066457748413086e-02 5.1965324282646179e+00 0.0000000000000000e+00
ITEM: ATOMS id type xs ys zs fx fy fz
1 1 0.00237511 0.336886 0.593597 0 -3.8147e-05 -1.19209e-07
2 1 0.502375 0.336886 0.593597 0 -3.8147e-05 -2.38419e-07
3 1 0.254455 0.295266 0.0935971 0 -9.40561e-05 -1.19209e-07
4 1 0.754455 0.295266 0.0935971 0 -9.38177e-05 -2.38419e-07
5 1 0.246138 0.461677 0.593597 0 -0.0011878 0
6 1 0.746138 0.461677 0.593597 0 -0.0011878 0
7 1 0.998215 0.420106 0.0935971 0 -3.51667e-05 1.19209e-07
8 1 0.498215 0.420106 0.0935971 0 -3.50475e-05 2.38419e-07
9 1 0.9899 0.586468 0.593597 0 3.52859e-05 1.19209e-07
10 1 0.4899 0.586468 0.593597 0 3.49283e-05 -1.19209e-07
11 1 0.23366 0.711309 0.593597 0 9.35793e-05 0
12 1 0.73366 0.711309 0.593597 0 9.36985e-05 -3.57628e-07
13 1 0.98574 0.669688 0.0935971 0 3.82662e-05 0
14 1 0.241978 0.544898 0.0935971 0 0.00118792 -1.19209e-07
15 1 0.741978 0.544897 0.0935971 0 0.00118804 0
16 1 0.48574 0.669688 0.0935971 0 3.75509e-05 3.57628e-07
17 1 0.977411 0.836331 0.593597 0 -0.00169981 0
18 1 0.477411 0.836331 0.593597 0 -0.00169981 2.38419e-07
19 1 0.221159 0.961423 0.593597 0 -0.000557065 2.38419e-07
20 1 0.721159 0.961423 0.593597 0 -0.000556707 2.38419e-07
21 1 0.229506 0.794426 0.0935971 0 -0.000530124 -1.19209e-07
22 1 0.729506 0.794426 0.0935971 0 -0.000530124 0
23 1 0.973285 0.918882 0.093597 0 0.000192165 0
24 1 0.473285 0.918882 0.0935971 0 0.000192642 -2.38419e-07
25 1 0.0148308 0.0876921 0.593597 0 -0.000192881 -1.19209e-07
26 1 0.514831 0.0876921 0.593597 0 -0.000193596 1.19209e-07
27 1 0.266957 0.0451511 0.0935971 0 0.000557899 1.19209e-07
28 1 0.766957 0.0451511 0.0935971 0 0.000557065 -4.76837e-07
29 1 0.25861 0.212149 0.593597 0 0.000530243 1.19209e-07
30 1 0.75861 0.212149 0.593597 0 0.000530005 2.38419e-07
31 1 0.0107046 0.170243 0.0935971 0 0.0017004 1.19209e-07
32 1 0.510704 0.170243 0.0935971 0 0.0017004 0
ITEM: TIMESTEP
5
ITEM: NUMBER OF ATOMS
32
ITEM: BOX BOUNDS xy xz yz pp pp pp
-2.1013021469116211e-03 6.7164828181266785e+00 3.1983250379562378e-01
-4.1524946689605713e-02 2.2124402940273285e+01 -0.0000000000000000e+00
-1.4066457748413086e-02 5.1965324282646179e+00 0.0000000000000000e+00
ITEM: ATOMS id type xs ys zs fx fy fz
1 1 0.00237481 0.336892 0.593597 0 -0.000267744 0
2 1 0.502375 0.336892 0.593597 0 -0.000267506 -1.19209e-07
3 1 0.254455 0.295267 0.0935971 0 0.000915647 -1.19209e-07
4 1 0.754455 0.295267 0.0935971 0 0.000915647 3.57628e-07
5 1 0.246139 0.461657 0.593597 0 2.21729e-05 -1.19209e-07
6 1 0.746139 0.461657 0.593597 0 2.21729e-05 1.19209e-07
7 1 0.998215 0.420118 0.0935971 0 -0.000169516 1.19209e-07
8 1 0.498215 0.420118 0.0935971 0 -0.000169754 0
9 1 0.989901 0.586457 0.593597 0 0.000169873 -1.19209e-07
10 1 0.489901 0.586457 0.593597 0 0.000169396 2.38419e-07
11 1 0.23366 0.711307 0.593597 0 -0.000915647 -2.38419e-07
12 1 0.73366 0.711307 0.593597 0 -0.000915647 7.15256e-07
13 1 0.985741 0.669682 0.0935971 0 0.000267863 0
14 1 0.241977 0.544917 0.0935971 0 -2.24113e-05 -1.19209e-07
15 1 0.741977 0.544917 0.0935971 0 -2.22921e-05 -2.38419e-07
16 1 0.485741 0.669682 0.0935971 0 0.000267506 -4.76837e-07
17 1 0.977413 0.836294 0.593597 0 -7.60555e-05 1.19209e-07
18 1 0.477413 0.836294 0.593597 0 -7.56979e-05 -3.57628e-07
19 1 0.221159 0.961407 0.593597 0 -0.00013721 1.19209e-07
20 1 0.721159 0.961407 0.593597 0 -0.000137806 0
21 1 0.229506 0.79441 0.0935971 0 0.000169158 1.19209e-07
22 1 0.729506 0.79441 0.0935971 0 0.000169039 -2.38419e-07
23 1 0.973285 0.918883 0.093597 0 -0.000166774 1.19209e-07
24 1 0.473285 0.918883 0.093597 0 -0.000166893 2.38419e-07
25 1 0.0148308 0.0876917 0.593597 0 0.000166893 -1.19209e-07
26 1 0.514831 0.0876917 0.593597 0 0.000167251 2.38419e-07
27 1 0.266956 0.0451674 0.0935971 0 0.000137091 -2.38419e-07
28 1 0.766956 0.0451674 0.0935971 0 0.000137448 1.19209e-07
29 1 0.258609 0.212165 0.593597 0 -0.000169635 3.57628e-07
30 1 0.758609 0.212165 0.593597 0 -0.000169158 -1.19209e-07
31 1 0.0107027 0.17028 0.0935971 0 7.62939e-05 -1.19209e-07
32 1 0.510703 0.17028 0.0935971 0 7.62939e-05 -2.38419e-07
ITEM: TIMESTEP
6
ITEM: NUMBER OF ATOMS
32
ITEM: BOX BOUNDS xy xz yz pp pp pp
-2.1013021469116211e-03 6.7164828181266785e+00 3.1983250379562378e-01
-4.1524946689605713e-02 2.2124402940273285e+01 -0.0000000000000000e+00
-1.4066457748413086e-02 5.1965324282646179e+00 0.0000000000000000e+00
ITEM: ATOMS id type xs ys zs fx fy fz
1 1 0.00237501 0.336888 0.593597 0 -6.1512e-05 1.19209e-07
2 1 0.502375 0.336888 0.593597 0 -6.2108e-05 1.19209e-07
3 1 0.254454 0.295286 0.0935971 0 4.86374e-05 1.19209e-07
4 1 0.754454 0.295286 0.0935971 0 4.91142e-05 -1.19209e-07
5 1 0.246139 0.461654 0.593597 0 0.000195503 2.38419e-07
6 1 0.746139 0.461654 0.593597 0 0.000195742 0
7 1 0.998215 0.420117 0.0935971 0 0.000294328 -2.38419e-07
8 1 0.498215 0.420117 0.0935971 0 0.000294447 -1.19209e-07
9 1 0.989901 0.586458 0.593597 0 -0.000294566 -2.38419e-07
10 1 0.489901 0.586458 0.593597 0 -0.000294209 -1.19209e-07
11 1 0.233661 0.711289 0.593597 0 -4.85182e-05 -1.19209e-07
12 1 0.733661 0.711289 0.593597 0 -4.88758e-05 -3.57628e-07
13 1 0.985741 0.669686 0.0935971 0 6.1512e-05 1.19209e-07
14 1 0.241977 0.544921 0.0935971 0 -0.000195861 0
15 1 0.741977 0.544921 0.0935971 0 -0.000195861 1.19209e-07
16 1 0.485741 0.669686 0.0935971 0 6.18696e-05 2.38419e-07
17 1 0.977413 0.836286 0.593597 0 -7.37906e-05 -1.19209e-07
18 1 0.477413 0.836286 0.593597 0 -7.33137e-05 1.19209e-07
19 1 0.22116 0.961401 0.593597 0 0.000123978 0
20 1 0.72116 0.961401 0.593597 0 0.000124454 0
21 1 0.229506 0.79441 0.0935971 0 -9.05991e-06 0
22 1 0.729506 0.79441 0.0935971 0 -8.9407e-06 3.57628e-07
23 1 0.973285 0.91888 0.0935971 0 1.66893e-05 0
24 1 0.473285 0.91888 0.0935971 0 1.60933e-05 0
25 1 0.0148306 0.0876948 0.593597 0 -1.5974e-05 0
26 1 0.514831 0.0876948 0.593597 0 -1.64509e-05 0
27 1 0.266956 0.0451733 0.0935971 0 -0.000124216 1.19209e-07
28 1 0.766956 0.0451733 0.0935971 0 -0.000123978 -1.19209e-07
29 1 0.258609 0.212164 0.593597 0 9.29832e-06 -2.38419e-07
30 1 0.758609 0.212164 0.593597 0 8.22544e-06 -3.57628e-07
31 1 0.0107023 0.170289 0.0935971 0 7.37906e-05 3.57628e-07
32 1 0.510702 0.170289 0.0935971 0 7.35521e-05 1.19209e-07
ITEM: TIMESTEP
7
ITEM: NUMBER OF ATOMS
32
ITEM: BOX BOUNDS xy xz yz pp pp pp
-2.1013021469116211e-03 6.7164828181266785e+00 3.1983250379562378e-01
-4.1524946689605713e-02 2.2124402940273285e+01 -0.0000000000000000e+00
-1.4066457748413086e-02 5.1965324282646179e+00 0.0000000000000000e+00
ITEM: ATOMS id type xs ys zs fx fy fz
1 1 0.00237508 0.336887 0.593597 0 0.000101209 0
2 1 0.502375 0.336887 0.593597 0 0.000101328 0
3 1 0.254454 0.295288 0.0935971 0 1.52588e-05 0
4 1 0.754454 0.295288 0.0935971 0 1.49012e-05 -2.38419e-07
5 1 0.246139 0.461656 0.593597 0 -6.13928e-05 0
6 1 0.746139 0.461656 0.593597 0 -6.1512e-05 -3.57628e-07
7 1 0.998215 0.420121 0.0935971 0 5.79357e-05 0
8 1 0.498215 0.420121 0.0935971 0 5.81741e-05 1.19209e-07
9 1 0.989901 0.586454 0.593597 0 -5.81741e-05 -1.19209e-07
10 1 0.489901 0.586454 0.593597 0 -5.76973e-05 -1.19209e-07
11 1 0.233661 0.711286 0.593597 0 -1.43051e-05 1.19209e-07
12 1 0.733661 0.711286 0.593597 0 -1.50204e-05 0
13 1 0.98574 0.669688 0.0935971 0 -0.000101447 -1.19209e-07
14 1 0.241977 0.544918 0.0935971 0 6.12736e-05 0
15 1 0.741977 0.544918 0.0935971 0 6.12736e-05 2.38419e-07
16 1 0.485741 0.669688 0.0935971 0 -0.000101089 1.19209e-07
17 1 0.977413 0.836284 0.593597 0 2.14577e-06 -2.38419e-07
18 1 0.477413 0.836284 0.593597 0 1.66893e-06 -1.19209e-07
19 1 0.22116 0.961402 0.593597 0 1.09673e-05 -2.38419e-07
20 1 0.72116 0.961402 0.593597 0 1.0252e-05 0
21 1 0.229506 0.79441 0.0935971 0 -2.24113e-05 1.19209e-07
22 1 0.729506 0.79441 0.0935971 0 -2.22921e-05 1.19209e-07
23 1 0.973285 0.918879 0.0935971 0 -2.0504e-05 3.57628e-07
24 1 0.473285 0.918879 0.0935971 0 -2.0504e-05 1.19209e-07
25 1 0.0148306 0.087695 0.593597 0 2.03848e-05 2.38419e-07
26 1 0.514831 0.0876949 0.593597 0 2.07424e-05 -1.19209e-07
27 1 0.266956 0.0451721 0.0935971 0 -1.10865e-05 0
28 1 0.766956 0.0451722 0.0935971 0 -1.01328e-05 1.19209e-07
29 1 0.258609 0.212164 0.593597 0 2.22921e-05 -1.19209e-07
30 1 0.758609 0.212164 0.593597 0 2.24113e-05 3.57628e-07
31 1 0.0107022 0.170291 0.0935971 0 -2.26498e-06 -3.57628e-07
32 1 0.510702 0.170291 0.0935971 0 -2.38419e-06 1.19209e-07
ITEM: TIMESTEP
8
ITEM: NUMBER OF ATOMS
32
ITEM: BOX BOUNDS xy xz yz pp pp pp
-2.1013021469116211e-03 6.7164828181266785e+00 3.1983250379562378e-01
-4.1524946689605713e-02 2.2124402940273285e+01 -0.0000000000000000e+00
-1.4066457748413086e-02 5.1965324282646179e+00 0.0000000000000000e+00
ITEM: ATOMS id type xs ys zs fx fy fz
1 1 0.00237497 0.336889 0.593597 0 -7.98702e-06 -3.57628e-07
2 1 0.502375 0.336889 0.593597 0 -7.98702e-06 0
3 1 0.254454 0.295289 0.0935971 0 2.61068e-05 -2.38419e-07
4 1 0.754454 0.295289 0.0935971 0 2.64645e-05 3.57628e-07
5 1 0.246139 0.461655 0.593597 0 2.14577e-06 -2.38419e-07
6 1 0.746139 0.461655 0.593597 0 1.78814e-06 3.57628e-07
7 1 0.998215 0.420123 0.0935971 0 -1.58548e-05 2.38419e-07
8 1 0.498215 0.420123 0.0935971 0 -1.5974e-05 -1.19209e-07
9 1 0.989901 0.586451 0.593597 0 1.5974e-05 3.57628e-07
10 1 0.489901 0.586451 0.593597 0 1.54972e-05 4.76837e-07
11 1 0.233661 0.711285 0.593597 0 -2.75373e-05 1.19209e-07
12 1 0.733661 0.711285 0.593597 0 -2.69413e-05 0
13 1 0.985741 0.669686 0.0935971 0 8.10623e-06 -1.19209e-07
14 1 0.241977 0.544919 0.0935971 0 -1.78814e-06 -4.76837e-07
15 1 0.741977 0.544919 0.0935971 0 -1.54972e-06 -5.96046e-07
16 1 0.485741 0.669686 0.0935971 0 7.62939e-06 0
17 1 0.977413 0.836283 0.593597 0 1.43051e-06 5.96046e-07
18 1 0.477413 0.836283 0.593597 0 1.66893e-06 3.57628e-07
19 1 0.22116 0.961403 0.593597 0 -1.91927e-05 2.38419e-07
20 1 0.72116 0.961403 0.593597 0 -1.83582e-05 2.38419e-07
21 1 0.229506 0.794409 0.0935971 0 -5.66244e-05 -2.38419e-07
22 1 0.729507 0.794409 0.0935971 0 -5.6386e-05 -4.76837e-07
23 1 0.973285 0.918879 0.0935971 0 -1.84774e-05 -4.76837e-07
24 1 0.473285 0.918879 0.0935971 0 -1.83582e-05 -1.19209e-07
25 1 0.0148306 0.0876955 0.593597 0 1.84774e-05 0
26 1 0.51483 0.0876955 0.593597 0 1.81198e-05 -1.19209e-07
27 1 0.266956 0.0451716 0.0935971 0 1.93119e-05 0
28 1 0.766956 0.0451717 0.0935971 0 1.78814e-05 0
29 1 0.258609 0.212165 0.593597 0 5.68628e-05 2.38419e-07
30 1 0.758609 0.212165 0.593597 0 5.72205e-05 -1.19209e-07
31 1 0.0107022 0.170291 0.0935971 0 -9.53674e-07 2.38419e-07
32 1 0.510702 0.170291 0.0935971 0 -7.15256e-07 -1.19209e-07
ITEM: TIMESTEP
9
ITEM: NUMBER OF ATOMS
32
ITEM: BOX BOUNDS xy xz yz pp pp pp
-2.1013021469116211e-03 6.7164828181266785e+00 3.1983250379562378e-01
-4.1524946689605713e-02 2.2124402940273285e+01 -0.0000000000000000e+00
-1.4066457748413086e-02 5.1965324282646179e+00 0.0000000000000000e+00
ITEM: ATOMS id type xs ys zs fx fy fz
1 1 0.00237495 0.336889 0.593597 0 -3.57628e-07 1.19209e-07
2 1 0.502375 0.336889 0.593597 0 -1.19209e-07 -1.19209e-07
3 1 0.254454 0.29529 0.0935971 0 5.96046e-07 3.57628e-07
4 1 0.754454 0.29529 0.0935971 0 5.96046e-07 0
5 1 0.246139 0.461655 0.593597 0 2.03848e-05 2.38419e-07
6 1 0.746139 0.461655 0.593597 0 2.06232e-05 0
7 1 0.998215 0.420123 0.0935971 0 4.76837e-07 -3.57628e-07
8 1 0.498215 0.420123 0.0935971 0 3.57628e-07 -1.19209e-07
9 1 0.989901 0.586451 0.593597 0 -3.57628e-07 -3.57628e-07
10 1 0.489901 0.586451 0.593597 0 -4.76837e-07 -5.96046e-07
11 1 0.233661 0.711284 0.593597 0 -1.19209e-07 1.19209e-07
12 1 0.733661 0.711284 0.593597 0 0 0
13 1 0.985741 0.669685 0.0935971 0 4.76837e-07 1.19209e-07
14 1 0.241977 0.54492 0.093597 0 -2.03848e-05 5.96046e-07
15 1 0.741977 0.54492 0.0935971 0 -2.12193e-05 3.57628e-07
16 1 0.485741 0.669685 0.0935971 0 8.34465e-07 -1.19209e-07
17 1 0.977413 0.836283 0.593597 0 -2.64645e-05 -5.96046e-07
18 1 0.477413 0.836283 0.593597 0 -2.67029e-05 -3.57628e-07
19 1 0.22116 0.961402 0.593597 0 1.10865e-05 0
20 1 0.72116 0.961402 0.593597 0 1.03712e-05 -3.57628e-07
21 1 0.229507 0.794408 0.0935971 0 9.53674e-07 3.57628e-07
22 1 0.729507 0.794408 0.093597 0 7.15256e-07 3.57628e-07
23 1 0.973285 0.918878 0.0935971 0 -1.50204e-05 3.57628e-07
24 1 0.473285 0.918878 0.0935971 0 -1.46627e-05 1.19209e-07
25 1 0.0148306 0.0876961 0.593597 0 1.50204e-05 -5.96046e-07
26 1 0.51483 0.087696 0.593597 0 1.49012e-05 3.57628e-07
27 1 0.266956 0.045172 0.0935971 0 -1.04904e-05 2.38419e-07
28 1 0.766956 0.045172 0.0935971 0 -1.04904e-05 1.19209e-07
29 1 0.258609 0.212167 0.593597 0 -1.3113e-06 -3.57628e-07
30 1 0.758609 0.212167 0.593597 0 -8.34465e-07 0
31 1 0.0107022 0.170291 0.0935971 0 2.59876e-05 2.38419e-07
32 1 0.510702 0.170291 0.0935971 0 2.563e-05 -1.19209e-07
ITEM: TIMESTEP
10
ITEM: NUMBER OF ATOMS
32
ITEM: BOX BOUNDS xy xz yz pp pp pp
-2.1013021469116211e-03 6.7164828181266785e+00 3.1983250379562378e-01
-4.1524946689605713e-02 2.2124402940273285e+01 -0.0000000000000000e+00
-1.4066457748413086e-02 5.1965324282646179e+00 0.0000000000000000e+00
ITEM: ATOMS id type xs ys zs fx fy fz
1 1 0.00237495 0.336889 0.593597 0 1.2517e-05 4.76837e-07
2 1 0.502375 0.336889 0.593597 0 1.21593e-05 0
3 1 0.254454 0.29529 0.0935971 0 2.98023e-06 -2.38419e-07
4 1 0.754454 0.29529 0.0935971 0 3.21865e-06 -4.76837e-07
5 1 0.246139 0.461655 0.593597 0 -3.09944e-06 -2.38419e-07
6 1 0.746139 0.461655 0.593597 0 -3.09944e-06 -2.38419e-07
7 1 0.998215 0.420123 0.0935971 0 -2.5034e-06 -1.19209e-07
8 1 0.498215 0.420123 0.0935971 0 -2.38419e-06 5.96046e-07
9 1 0.989901 0.586451 0.593597 0 2.38419e-06 1.19209e-07
10 1 0.489901 0.586451 0.593597 0 2.6226e-06 0
11 1 0.233661 0.711284 0.593597 0 -3.21865e-06 -3.57628e-07
12 1 0.733661 0.711284 0.593597 0 -3.21865e-06 -1.19209e-07
13 1 0.985741 0.669685 0.0935971 0 -1.26362e-05 1.19209e-07
14 1 0.241977 0.544919 0.0935971 0 3.21865e-06 0
15 1 0.741977 0.544919 0.0935971 0 3.09944e-06 -1.19209e-07
16 1 0.485741 0.669685 0.0935971 0 -1.2517e-05 1.19209e-07
17 1 0.977413 0.836283 0.593597 0 -4.76837e-07 2.38419e-07
18 1 0.477413 0.836283 0.593597 0 -1.19209e-07 1.19209e-07
19 1 0.22116 0.961403 0.593597 0 -1.19209e-07 1.19209e-07
20 1 0.72116 0.961403 0.593597 0 -2.38419e-07 2.38419e-07
21 1 0.229507 0.794407 0.0935971 0 5.48363e-06 0
22 1 0.729507 0.794407 0.0935971 0 5.126e-06 1.19209e-07
23 1 0.973285 0.918878 0.0935971 0 -2.74181e-06 -2.38419e-07
24 1 0.473285 0.918878 0.0935971 0 -3.09944e-06 -2.38419e-07
25 1 0.0148306 0.0876965 0.593597 0 3.33786e-06 7.15256e-07
26 1 0.51483 0.0876965 0.593597 0 3.33786e-06 -1.19209e-07
27 1 0.266956 0.0451718 0.0935971 0 1.19209e-07 -1.19209e-07
28 1 0.766956 0.0451718 0.0935971 0 2.38419e-07 -4.76837e-07
29 1 0.258609 0.212167 0.593597 0 -5.36442e-06 1.19209e-07
30 1 0.758609 0.212167 0.593597 0 -6.31809e-06 0
31 1 0.0107022 0.170292 0.0935971 0 7.15256e-07 -2.38419e-07
32 1 0.510702 0.170292 0.0935971 0 5.96046e-07 2.38419e-07
ITEM: TIMESTEP
11
ITEM: NUMBER OF ATOMS
32
ITEM: BOX BOUNDS xy xz yz pp pp pp
-2.1013021469116211e-03 6.7164828181266785e+00 3.1983250379562378e-01
-4.1524946689605713e-02 2.2124402940273285e+01 -0.0000000000000000e+00
-1.4066457748413086e-02 5.1965324282646179e+00 0.0000000000000000e+00
ITEM: ATOMS id type xs ys zs fx fy fz
1 1 0.00237494 0.336889 0.593597 0 1.19209e-06 -1.19209e-07
2 1 0.502375 0.336889 0.593597 0 4.76837e-07 1.19209e-07
3 1 0.254454 0.29529 0.0935971 0 7.15256e-07 1.19209e-07
4 1 0.754454 0.29529 0.0935971 0 5.96046e-07 0
5 1 0.246139 0.461655 0.593597 0 -5.96046e-07 2.38419e-07
6 1 0.746139 0.461655 0.593597 0 -3.57628e-07 1.19209e-07
7 1 0.998215 0.420123 0.0935971 0 1.54972e-06 0
8 1 0.498215 0.420123 0.0935971 0 1.66893e-06 -5.96046e-07
9 1 0.989901 0.586451 0.593597 0 -1.54972e-06 0
10 1 0.489901 0.586451 0.593597 0 -1.19209e-06 0
11 1 0.233661 0.711284 0.593597 0 -4.76837e-07 0
12 1 0.733661 0.711284 0.593597 0 -1.19209e-07 0
13 1 0.985741 0.669685 0.0935971 0 -1.43051e-06 0
14 1 0.241977 0.544919 0.0935971 0 0 0
15 1 0.741977 0.544919 0.0935971 0 1.07288e-06 0
16 1 0.485741 0.669685 0.0935971 0 -1.19209e-06 -1.19209e-07
17 1 0.977413 0.836283 0.593597 0 5.96046e-07 1.19209e-07
18 1 0.477413 0.836283 0.593597 0 0 1.19209e-07
19 1 0.22116 0.961403 0.593597 0 -4.76837e-07 0
20 1 0.72116 0.961403 0.593597 0 -3.57628e-07 0
21 1 0.229507 0.794407 0.0935971 0 -2.14577e-06 -2.38419e-07
22 1 0.729507 0.794407 0.0935971 0 -2.14577e-06 1.19209e-07
23 1 0.973285 0.918878 0.0935971 0 1.43051e-06 0
24 1 0.473285 0.918878 0.0935971 0 1.66893e-06 0
25 1 0.0148305 0.0876966 0.593597 0 -1.19209e-06 0
26 1 0.51483 0.0876966 0.593597 0 -2.26498e-06 -2.38419e-07
27 1 0.266956 0.0451718 0.0935971 0 3.57628e-07 -2.38419e-07
28 1 0.766956 0.0451718 0.0935971 0 5.96046e-07 4.76837e-07
29 1 0.258609 0.212167 0.593597 0 2.26498e-06 0
30 1 0.758609 0.212167 0.593597 0 2.02656e-06 2.38419e-07
31 1 0.0107022 0.170292 0.0935971 0 -3.57628e-07 -1.19209e-07
32 1 0.510702 0.170292 0.0935971 0 -3.57628e-07 0
ITEM: TIMESTEP
12
ITEM: NUMBER OF ATOMS
32
ITEM: BOX BOUNDS xy xz yz pp pp pp
-2.1013021469116211e-03 6.7164828181266785e+00 3.1983250379562378e-01
-4.1524946689605713e-02 2.2124402940273285e+01 -0.0000000000000000e+00
-1.4066457748413086e-02 5.1965324282646179e+00 0.0000000000000000e+00
ITEM: ATOMS id type xs ys zs fx fy fz
1 1 0.00237493 0.336889 0.593597 0 -9.53674e-07 -1.19209e-07
2 1 0.502375 0.336889 0.593597 0 -2.38419e-07 0
3 1 0.254454 0.29529 0.0935971 0 8.34465e-07 0
4 1 0.754454 0.29529 0.0935971 0 5.96046e-07 2.38419e-07
5 1 0.246139 0.461655 0.593597 0 4.76837e-07 -3.57628e-07
6 1 0.746139 0.461655 0.593597 0 2.38419e-07 -3.57628e-07
7 1 0.998215 0.420123 0.0935971 0 9.53674e-07 3.57628e-07
8 1 0.498215 0.420123 0.0935971 0 7.15256e-07 2.38419e-07
9 1 0.989901 0.586451 0.593597 0 -1.07288e-06 2.38419e-07
10 1 0.489901 0.586451 0.593597 0 -1.19209e-06 2.38419e-07
11 1 0.233661 0.711284 0.593597 0 -8.34465e-07 0
12 1 0.733661 0.711284 0.593597 0 -5.96046e-07 1.19209e-07
13 1 0.985741 0.669685 0.0935971 0 1.19209e-06 0
14 1 0.241977 0.544919 0.0935971 0 -3.57628e-07 -4.76837e-07
15 1 0.741977 0.544919 0.0935971 0 -1.07288e-06 2.38419e-07
16 1 0.485741 0.669685 0.0935971 0 9.53674e-07 -1.19209e-07
17 1 0.977413 0.836283 0.593597 0 -4.76837e-07 0
18 1 0.477413 0.836283 0.593597 0 3.57628e-07 0
19 1 0.22116 0.961403 0.593597 0 -2.38419e-07 -1.19209e-07
20 1 0.72116 0.961403 0.593597 0 -3.57628e-07 0
21 1 0.229507 0.794407 0.0935971 0 -4.76837e-07 1.19209e-07
22 1 0.729507 0.794407 0.0935971 0 -4.76837e-07 -1.19209e-07
23 1 0.973285 0.918878 0.0935971 0 3.57628e-07 0
24 1 0.473285 0.918878 0.0935971 0 -4.76837e-07 1.19209e-07
25 1 0.0148306 0.0876966 0.593597 0 -5.96046e-07 1.19209e-07
26 1 0.51483 0.0876966 0.593597 0 7.15256e-07 2.38419e-07
27 1 0.266956 0.0451718 0.0935971 0 5.96046e-07 1.19209e-07
28 1 0.766956 0.0451718 0.0935971 0 3.57628e-07 -3.57628e-07
29 1 0.258609 0.212167 0.593597 0 2.38419e-07 2.38419e-07
30 1 0.758609 0.212167 0.593597 0 5.96046e-07 -4.76837e-07
31 1 0.0107022 0.170292 0.0935971 0 3.57628e-07 -1.19209e-07
32 1 0.510702 0.170292 0.0935971 0 -1.19209e-07 0
