ITEM: TIMESTEP
0
ITEM: NUMBER OF ATOMS
32
ITEM: BOX BOUNDS xy xz yz pp pp pp
-2.4071335792541504e-03 6.3992393016815186e+00 0.0000000000000000e+00
-9.1621279716491699e-03 7.7414305806159973e+00 0.0000000000000000e+00
5.4966151714324951e-02 2.0670420289039612e+01 2.2118372917175293e+00
ITEM: ATOMS id type xs ys zs fx fy fz
1 1 0.999986 0.642426 0.0597547 0 0 1.09521
2 1 0.499986 0.642426 0.0597547 0 0 1.09521
3 1 0.249986 0.142427 0.0597528 0 0 1.09554
4 1 0.749986 0.142427 0.0597528 0 0 1.09554
5 1 0.999986 0.542602 0.309759 0 0 0.0102081
6 1 0.249986 0.426605 0.184759 0 0 0.00335121
7 1 0.749986 0.426605 0.184759 0 0 0.00335121
8 1 0.499986 0.542602 0.309759 0 0 0.0102081
9 1 0.999986 0.926606 0.184758 0 0 0.00341034
10 1 0.249986 0.0426012 0.309758 0 0 0.0102711
11 1 0.499986 0.926606 0.184758 0 0 0.00341034
12 1 0.749986 0.0426012 0.309758 0 0 0.0102711
13 1 0.999986 0.442754 0.559748 0 0 0.000806808
14 1 0.499986 0.442754 0.559748 0 0 0.000806808
15 1 0.249986 0.942755 0.559748 0 0 0.000797272
16 1 0.749986 0.942755 0.559748 0 0 0.000797272
17 1 0.249986 0.326775 0.434754 0 0 -0.000801086
18 1 0.749986 0.326775 0.434754 0 0 -0.000801086
19 1 0.999986 0.826776 0.434754 0 0 -0.00082016
20 1 0.499986 0.826776 0.434754 0 0 -0.00082016
21 1 0.999986 0.342914 0.809743 0 0 -0.00339699
22 1 0.249986 0.226924 0.684743 0 0 -0.0102711
23 1 0.499986 0.342914 0.809743 0 0 -0.00339699
24 1 0.749986 0.226924 0.684743 0 0 -0.0102711
25 1 0.999986 0.726924 0.684742 0 0 -0.0102158
26 1 0.249986 0.842915 0.809742 0 0 -0.00336266
27 1 0.749986 0.842915 0.809742 0 0 -0.00336266
28 1 0.499986 0.726924 0.684742 0 0 -0.0102158
29 1 0.249986 0.127092 0.934748 0 0 -1.09552
30 1 0.749986 0.127092 0.934748 0 0 -1.09552
31 1 0.999986 0.627092 0.934746 0 0 -1.0952
32 1 0.499986 0.627092 0.934746 0 0 -1.0952
ITEM: TIMESTEP
1
ITEM: NUMBER OF ATOMS
32
ITEM: BOX BOUNDS xy xz yz pp pp pp
-2.4071335792541504e-03 6.3992393016815186e+00 0.0000000000000000e+00
-9.1621279716491699e-03 7.7414305806159973e+00 0.0000000000000000e+00
5.4966151714324951e-02 2.0670420289039612e+01 2.2118372917175293e+00
ITEM: ATOMS id type xs ys zs fx fy fz
1 1 0.999986 0.640489 0.0646039 0 0 0.243946
2 1 0.499986 0.640489 0.0646039 0 0 0.243946
3 1 0.249986 0.14049 0.0646035 0 0 0.243986
4 1 0.749986 0.14049 0.0646035 0 0 0.243986
5 1 0.999986 0.542584 0.309805 0 0 0.00844383
6 1 0.249986 0.426599 0.184774 0 0 0.172195
7 1 0.749986 0.426599 0.184774 0 0 0.172195
8 1 0.499986 0.542584 0.309805 0 0 0.00844383
9 1 0.999986 0.9266 0.184773 0 0 0.172251
10 1 0.249986 0.042583 0.309804 0 0 0.00849342
11 1 0.499986 0.9266 0.184773 0 0 0.172251
12 1 0.749986 0.042583 0.309804 0 0 0.00849342
13 1 0.999986 0.442753 0.559751 0 0 -0.00278282
14 1 0.499986 0.442753 0.559751 0 0 -0.00278282
15 1 0.249986 0.942753 0.559751 0 0 -0.00278282
16 1 0.749986 0.942753 0.559751 0 0 -0.00278282
17 1 0.249986 0.326777 0.434751 0 0 0.00277901
18 1 0.749986 0.326777 0.434751 0 0 0.00277901
19 1 0.999986 0.826778 0.434751 0 0 0.00278091
20 1 0.499986 0.826778 0.434751 0 0 0.00278091
21 1 0.999986 0.342921 0.809728 0 0 -0.172247
22 1 0.249986 0.226943 0.684698 0 0 -0.00850677
23 1 0.499986 0.342921 0.809728 0 0 -0.172247
24 1 0.749986 0.226943 0.684698 0 0 -0.00850677
25 1 0.999986 0.726942 0.684697 0 0 -0.00845528
26 1 0.249986 0.842921 0.809727 0 0 -0.172205
27 1 0.749986 0.842921 0.809727 0 0 -0.172205
28 1 0.499986 0.726942 0.684697 0 0 -0.00845528
29 1 0.249986 0.129029 0.929897 0 0 -0.243971
30 1 0.749986 0.129029 0.929897 0 0 -0.243971
31 1 0.999986 0.629028 0.929897 0 0 -0.243925
32 1 0.499986 0.629028 0.929897 0 0 -0.243925
ITEM: TIMESTEP
2
ITEM: NUMBER OF ATOMS
32
ITEM: BOX BOUNDS xy xz yz pp pp pp
-2.4071335792541504e-03 6.3992393016815186e+00 0.0000000000000000e+00
-9.1621279716491699e-03 7.7414305806159973e+00 0.0000000000000000e+00
5.4966151714324951e-02 2.0670420289039612e+01 2.2118372917175293e+00
ITEM: ATOMS id type xs ys zs fx fy fz
1 1 0.999986 0.639016 0.0682926 0 0 -0.116728
2 1 0.499986 0.639016 0.0682926 0 0 -0.116728
3 1 0.249986 0.139016 0.0682927 0 0 -0.116777
4 1 0.749986 0.139016 0.0682927 0 0 -0.116777
5 1 0.999986 0.542533 0.309932 0 0 0.0871868
6 1 0.249986 0.425559 0.187378 0 0 0.133987
7 1 0.749986 0.425559 0.187378 0 0 0.133987
8 1 0.499986 0.542533 0.309932 0 0 0.0871868
9 1 0.999986 0.92556 0.187377 0 0 0.134016
10 1 0.249986 0.0425317 0.309932 0 0 0.0871944
11 1 0.499986 0.92556 0.187377 0 0 0.134016
12 1 0.749986 0.0425317 0.309932 0 0 0.0871944
13 1 0.999986 0.442769 0.559709 0 0 -0.0047226
14 1 0.499986 0.442769 0.559709 0 0 -0.0047226
15 1 0.249986 0.94277 0.559709 0 0 -0.0047226
16 1 0.749986 0.94277 0.559709 0 0 -0.0047226
17 1 0.249986 0.32676 0.434793 0 0 0.00471497
18 1 0.749986 0.32676 0.434793 0 0 0.00471497
19 1 0.999986 0.826761 0.434793 0 0 0.00470734
20 1 0.499986 0.826761 0.434793 0 0 0.00470734
21 1 0.999986 0.343961 0.807124 0 0 -0.134007
22 1 0.249986 0.226994 0.684569 0 0 -0.0871925
23 1 0.499986 0.343961 0.807124 0 0 -0.134007
24 1 0.749986 0.226994 0.684569 0 0 -0.0871925
25 1 0.999986 0.726993 0.684569 0 0 -0.0871944
26 1 0.249986 0.843961 0.807123 0 0 -0.133995
27 1 0.749986 0.843961 0.807123 0 0 -0.133995
28 1 0.499986 0.726993 0.684569 0 0 -0.0871944
29 1 0.249986 0.130502 0.926208 0 0 0.116795
30 1 0.749986 0.130502 0.926208 0 0 0.116795
31 1 0.999986 0.630501 0.926209 0 0 0.116737
32 1 0.499986 0.630501 0.926209 0 0 0.116737
ITEM: TIMESTEP
3
ITEM: NUMBER OF ATOMS
32
ITEM: BOX BOUNDS xy xz yz pp pp pp
-2.4071335792541504e-03 6.3992393016815186e+00 0.0000000000000000e+00
-9.1621279716491699e-03 7.7414305806159973e+00 0.0000000000000000e+00
5.4966151714324951e-02 2.0670420289039612e+01 2.2118372917175293e+00
ITEM: ATOMS id type xs ys zs fx fy fz
1 1 0.999986 0.638998 0.068338 0 0 -0.000141144
2 1 0.499986 0.638998 0.068338 0 0 -0.000141144
3 1 0.249986 0.138998 0.0683377 0 0 -0.000127792
4 1 0.749986 0.138998 0.0683377 0 0 -0.000127792
5 1 0.999986 0.54201 0.311242 0 0 0.111137
6 1 0.249986 0.424308 0.190512 0 0 -0.0507221
7 1 0.749986 0.424308 0.190512 0 0 -0.0507221
8 1 0.499986 0.54201 0.311242 0 0 0.111137
9 1 0.999986 0.924308 0.190512 0 0 -0.0507469
10 1 0.249986 0.0420086 0.311242 0 0 0.111128
11 1 0.499986 0.924308 0.190512 0 0 -0.0507469
12 1 0.749986 0.0420086 0.311242 0 0 0.111128
13 1 0.999986 0.442804 0.559622 0 0 -0.0381298
14 1 0.499986 0.442804 0.559622 0 0 -0.0381298
15 1 0.249986 0.942805 0.559622 0 0 -0.0381203
16 1 0.749986 0.942805 0.559622 0 0 -0.0381203
17 1 0.249986 0.326725 0.43488 0 0 0.0381012
18 1 0.749986 0.326725 0.43488 0 0 0.0381012
19 1 0.999986 0.826726 0.43488 0 0 0.0381145
20 1 0.499986 0.826726 0.43488 0 0 0.0381145
21 1 0.999986 0.345212 0.803989 0 0 0.0507584
22 1 0.249986 0.227517 0.683259 0 0 -0.111113
23 1 0.499986 0.345212 0.803989 0 0 0.0507584
24 1 0.749986 0.227517 0.683259 0 0 -0.111113
25 1 0.999986 0.727516 0.68326 0 0 -0.111145
26 1 0.249986 0.845213 0.803989 0 0 0.0507298
27 1 0.749986 0.845213 0.803989 0 0 0.0507298
28 1 0.499986 0.727516 0.68326 0 0 -0.111145
29 1 0.249986 0.13052 0.926163 0 0 0.000143051
30 1 0.749986 0.13052 0.926163 0 0 0.000143051
31 1 0.999986 0.630519 0.926164 0 0 0.000133514
32 1 0.499986 0.630519 0.926164 0 0 0.000133514
ITEM: TIMESTEP
4
ITEM: NUMBER OF ATOMS
32
ITEM: BOX BOUNDS xy xz yz pp pp pp
-2.4071335792541504e-03 6.3992393016815186e+00 0.0000000000000000e+00
-9.1621279716491699e-03 7.7414305806159973e+00 0.0000000000000000e+00
5.4966151714324951e-02 2.0670420289039612e+01 2.2118372917175293e+00
ITEM: ATOMS id type xs ys zs fx fy fz
1 1 0.999986 0.638992 0.0683525 0 0 0.0119362
2 1 0.499986 0.638992 0.0683525 0 0 0.0119362
3 1 0.249986 0.138993 0.0683523 0 0 0.0119591
4 1 0.749986 0.138993 0.0683523 0 0 0.0119591
5 1 0.999986 0.541123 0.313463 0 0 -0.015337
6 1 0.249986 0.424162 0.190878 0 0 0.00372696
7 1 0.749986 0.424162 0.190878 0 0 0.00372696
8 1 0.499986 0.541123 0.313463 0 0 -0.015337
9 1 0.999986 0.924162 0.190878 0 0 0.00370789
10 1 0.249986 0.0411216 0.313463 0 0 -0.0153599
11 1 0.499986 0.924162 0.190878 0 0 0.00370789
12 1 0.749986 0.0411216 0.313463 0 0 -0.0153599
13 1 0.999986 0.443055 0.558993 0 0 -0.0500793
14 1 0.499986 0.443055 0.558993 0 0 -0.0500793
15 1 0.249986 0.943056 0.558994 0 0 -0.0500927
16 1 0.749986 0.943056 0.558994 0 0 -0.0500927
17 1 0.249986 0.326474 0.435508 0 0 0.050087
18 1 0.749986 0.326474 0.435508 0 0 0.050087
19 1 0.999986 0.826475 0.435508 0 0 0.0500813
20 1 0.499986 0.826475 0.435508 0 0 0.0500813
21 1 0.999986 0.345358 0.803624 0 0 -0.00369263
22 1 0.249986 0.228404 0.681038 0 0 0.0153389
23 1 0.499986 0.345358 0.803624 0 0 -0.00369263
24 1 0.749986 0.228404 0.681038 0 0 0.0153389
25 1 0.999986 0.728403 0.681038 0 0 0.0153484
26 1 0.249986 0.845359 0.803624 0 0 -0.00371552
27 1 0.749986 0.845359 0.803624 0 0 -0.00371552
28 1 0.499986 0.728403 0.681038 0 0 0.0153484
29 1 0.249986 0.130526 0.926149 0 0 -0.0119629
30 1 0.749986 0.130526 0.926149 0 0 -0.0119629
31 1 0.999986 0.630525 0.926149 0 0 -0.0119457
32 1 0.499986 0.630525 0.926149 0 0 -0.0119457
ITEM: TIMESTEP
5
ITEM: NUMBER OF ATOMS
32
ITEM: BOX BOUNDS xy xz yz pp pp pp
-2.4071335792541504e-03 6.3992393016815186e+00 0.0000000000000000e+00
-9.1621279716491699e-03 7.7414305806159973e+00 0.0000000000000000e+00
5.4966151714324951e-02 2.0670420289039612e+01 2.2118372917175293e+00
ITEM: ATOMS id type xs ys zs fx fy fz
1 1 0.999986 0.638951 0.0684556 0 0 0.00398254
2 1 0.499986 0.638951 0.0684556 0 0 0.00398254
3 1 0.249986 0.138951 0.0684556 0 0 0.00398827
4 1 0.749986 0.138951 0.0684556 0 0 0.00398827
5 1 0.999986 0.54109 0.313546 0 0 -0.00209427
6 1 0.249986 0.424135 0.190944 0 0 0.00566292
7 1 0.749986 0.424135 0.190944 0 0 0.00566292
8 1 0.499986 0.54109 0.313546 0 0 -0.00209427
9 1 0.999986 0.924135 0.190945 0 0 0.00564575
10 1 0.249986 0.0410886 0.313546 0 0 -0.00209045
11 1 0.499986 0.924135 0.190945 0 0 0.00564575
12 1 0.749986 0.0410886 0.313546 0 0 -0.00209045
13 1 0.999986 0.44325 0.558506 0 0 -0.00189209
14 1 0.499986 0.44325 0.558506 0 0 -0.00189209
15 1 0.249986 0.94325 0.558506 0 0 -0.00188065
16 1 0.749986 0.94325 0.558506 0 0 -0.00188065
17 1 0.249986 0.32628 0.435995 0 0 0.00188828
18 1 0.749986 0.32628 0.435995 0 0 0.00188828
19 1 0.999986 0.826281 0.435995 0 0 0.00188446
20 1 0.499986 0.826281 0.435995 0 0 0.00188446
21 1 0.999986 0.345385 0.803557 0 0 -0.00566292
22 1 0.249986 0.228437 0.680956 0 0 0.00209427
23 1 0.499986 0.345385 0.803557 0 0 -0.00566292
24 1 0.749986 0.228437 0.680956 0 0 0.00209427
25 1 0.999986 0.728436 0.680956 0 0 0.00209999
26 1 0.249986 0.845385 0.803557 0 0 -0.00565338
27 1 0.749986 0.845385 0.803557 0 0 -0.00565338
28 1 0.499986 0.728436 0.680956 0 0 0.00209999
29 1 0.249986 0.130567 0.926046 0 0 -0.00399017
30 1 0.749986 0.130567 0.926046 0 0 -0.00399017
31 1 0.999986 0.630566 0.926046 0 0 -0.00398254
32 1 0.499986 0.630566 0.926046 0 0 -0.00398254
ITEM: TIMESTEP
6
ITEM: NUMBER OF ATOMS
32
ITEM: BOX BOUNDS xy xz yz pp pp pp
-2.4071335792541504e-03 6.3992393016815186e+00 0.0000000000000000e+00
-9.1621279716491699e-03 7.7414305806159973e+00 0.0000000000000000e+00
5.4966151714324951e-02 2.0670420289039612e+01 2.2118372917175293e+00
ITEM: ATOMS id type xs ys zs fx fy fz
1 1 0.999986 0.638929 0.0685108 0 0 0.00115967
2 1 0.499986 0.638929 0.0685108 0 0 0.00115967
3 1 0.249986 0.138929 0.0685109 0 0 0.00114822
4 1 0.749986 0.138929 0.0685109 0 0 0.00114822
5 1 0.999986 0.541101 0.313517 0 0 0.00357628
6 1 0.249986 0.424104 0.191023 0 0 0.00113678
7 1 0.749986 0.424104 0.191023 0 0 0.00113678
8 1 0.499986 0.541101 0.313517 0 0 0.00357628
9 1 0.999986 0.924104 0.191023 0 0 0.00115776
10 1 0.249986 0.0411002 0.313517 0 0 0.00357246
11 1 0.499986 0.924104 0.191023 0 0 0.00115776
12 1 0.749986 0.0411002 0.313517 0 0 0.00357246
13 1 0.999986 0.44326 0.55848 0 0 0.00181007
14 1 0.499986 0.44326 0.55848 0 0 0.00181007
15 1 0.249986 0.943261 0.55848 0 0 0.00180817
16 1 0.749986 0.943261 0.55848 0 0 0.00180817
17 1 0.249986 0.326269 0.436021 0 0 -0.00180817
18 1 0.749986 0.326269 0.436021 0 0 -0.00180817
19 1 0.999986 0.82627 0.436021 0 0 -0.00179291
20 1 0.499986 0.82627 0.436021 0 0 -0.00179291
21 1 0.999986 0.345416 0.803479 0 0 -0.00115395
22 1 0.249986 0.228425 0.680985 0 0 -0.00357628
23 1 0.499986 0.345416 0.803479 0 0 -0.00115395
24 1 0.749986 0.228425 0.680985 0 0 -0.00357628
25 1 0.999986 0.728425 0.680985 0 0 -0.00358009
26 1 0.249986 0.845417 0.803479 0 0 -0.00114632
27 1 0.749986 0.845417 0.803479 0 0 -0.00114632
28 1 0.499986 0.728425 0.680985 0 0 -0.00358009
29 1 0.249986 0.130589 0.925991 0 0 -0.00115395
30 1 0.749986 0.130589 0.925991 0 0 -0.00115395
31 1 0.999986 0.630588 0.925991 0 0 -0.00115776
32 1 0.499986 0.630588 0.925991 0 0 -0.00115776
ITEM: TIMESTEP
7
ITEM: NUMBER OF ATOMS
32
ITEM: BOX BOUNDS xy xz yz pp pp pp
-2.4071335792541504e-03 6.3992393016815186e+00 0.0000000000000000e+00
-9.1621279716491699e-03 7.7414305806159973e+00 0.0000000000000000e+00
5.4966151714324951e-02 2.0670420289039612e+01 2.2118372917175293e+00
ITEM: ATOMS id type xs ys zs fx fy fz
1 1 0.999986 0.638912 0.068553 0 0 -0.00131607
2 1 0.499986 0.638912 0.068553 0 0 -0.00131607
3 1 0.249986 0.138912 0.0685529 0 0 -0.00130463
4 1 0.749986 0.138912 0.0685529 0 0 -0.00130463
5 1 0.999986 0.541082 0.313566 0 0 0.0011425
6 1 0.249986 0.424083 0.191074 0 0 0.000734329
7 1 0.749986 0.424083 0.191074 0 0 0.000734329
8 1 0.499986 0.541082 0.313566 0 0 0.0011425
9 1 0.999986 0.924084 0.191074 0 0 0.000724792
10 1 0.249986 0.0410806 0.313566 0 0 0.00115013
11 1 0.499986 0.924084 0.191074 0 0 0.000724792
12 1 0.749986 0.0410806 0.313566 0 0 0.00115013
13 1 0.999986 0.443252 0.5585 0 0 -0.00205231
14 1 0.499986 0.443252 0.5585 0 0 -0.00205231
15 1 0.249986 0.943253 0.558501 0 0 -0.00205994
16 1 0.749986 0.943253 0.558501 0 0 -0.00205994
17 1 0.249986 0.326277 0.436001 0 0 0.00206184
18 1 0.749986 0.326277 0.436001 0 0 0.00206184
19 1 0.999986 0.826278 0.436001 0 0 0.00205231
20 1 0.499986 0.826278 0.436001 0 0 0.00205231
21 1 0.999986 0.345437 0.803427 0 0 -0.000717163
22 1 0.249986 0.228445 0.680936 0 0 -0.00115013
23 1 0.499986 0.345437 0.803427 0 0 -0.000717163
24 1 0.749986 0.228445 0.680936 0 0 -0.00115013
25 1 0.999986 0.728444 0.680936 0 0 -0.00114441
26 1 0.249986 0.845437 0.803427 0 0 -0.000734329
27 1 0.749986 0.845437 0.803427 0 0 -0.000734329
28 1 0.499986 0.728444 0.680936 0 0 -0.00114441
29 1 0.249986 0.130606 0.925949 0 0 0.00130653
30 1 0.749986 0.130606 0.925949 0 0 0.00130653
31 1 0.999986 0.630605 0.925949 0 0 0.00130653
32 1 0.499986 0.630605 0.925949 0 0 0.00130653
ITEM: TIMESTEP
8
ITEM: NUMBER OF ATOMS
32
ITEM: BOX BOUNDS xy xz yz pp pp pp
-2.4071335792541504e-03 6.3992393016815186e+00 0.0000000000000000e+00
-9.1621279716491699e-03 7.7414305806159973e+00 0.0000000000000000e+00
5.4966151714324951e-02 2.0670420289039612e+01 2.2118372917175293e+00
ITEM: ATOMS id type xs ys zs fx fy fz
1 1 0.999986 0.638914 0.0685483 0 0 0.000570297
2 1 0.499986 0.638914 0.0685483 0 0 0.000570297
3 1 0.249986 0.138914 0.0685483 0 0 0.000555038
4 1 0.749986 0.138914 0.0685483 0 0 0.000555038
5 1 0.999986 0.541064 0.313612 0 0 0.000272751
6 1 0.249986 0.424068 0.191113 0 0 -0.000556946
7 1 0.749986 0.424068 0.191113 0 0 -0.000556946
8 1 0.499986 0.541064 0.313612 0 0 0.000272751
9 1 0.999986 0.924068 0.191113 0 0 -0.000556946
10 1 0.249986 0.0410623 0.313612 0 0 0.000276566
11 1 0.499986 0.924068 0.191113 0 0 -0.000556946
12 1 0.749986 0.0410623 0.313612 0 0 0.000276566
13 1 0.999986 0.443264 0.558471 0 0 -0.000417709
14 1 0.499986 0.443264 0.558471 0 0 -0.000417709
15 1 0.249986 0.943265 0.558471 0 0 -0.000429153
16 1 0.749986 0.943265 0.558471 0 0 -0.000429153
17 1 0.249986 0.326265 0.436031 0 0 0.000415802
18 1 0.749986 0.326265 0.436031 0 0 0.000415802
19 1 0.999986 0.826266 0.436031 0 0 0.000408173
20 1 0.499986 0.826266 0.436031 0 0 0.000408173
21 1 0.999986 0.345452 0.803388 0 0 0.000541687
22 1 0.249986 0.228463 0.68089 0 0 -0.000246048
23 1 0.499986 0.345452 0.803388 0 0 0.000541687
24 1 0.749986 0.228463 0.68089 0 0 -0.000246048
25 1 0.999986 0.728462 0.68089 0 0 -0.000267029
26 1 0.249986 0.845453 0.803388 0 0 0.000558853
27 1 0.749986 0.845453 0.803388 0 0 0.000558853
28 1 0.499986 0.728462 0.68089 0 0 -0.000267029
29 1 0.249986 0.130604 0.925953 0 0 -0.000555038
30 1 0.749986 0.130604 0.925953 0 0 -0.000555038
31 1 0.999986 0.630603 0.925953 0 0 -0.000570297
32 1 0.499986 0.630603 0.925953 0 0 -0.000570297
ITEM: TIMESTEP
9
ITEM: NUMBER OF ATOMS
32
ITEM: BOX BOUNDS xy xz yz pp pp pp
-2.4071335792541504e-03 6.3992393016815186e+00 0.0000000000000000e+00
-9.1621279716491699e-03 7.7414305806159973e+00 0.0000000000000000e+00
5.4966151714324951e-02 2.0670420289039612e+01 2.2118372917175293e+00
ITEM: ATOMS id type xs ys zs fx fy fz
1 1 0.999986 0.638912 0.0685532 0 0 -3.8147e-05
2 1 0.499986 0.638912 0.0685532 0 0 -3.8147e-05
3 1 0.249986 0.138912 0.0685531 0 0 -2.67029e-05
4 1 0.749986 0.138912 0.0685531 0 0 -2.67029e-05
5 1 0.999986 0.541062 0.313616 0 0 -7.62939e-06
6 1 0.249986 0.424069 0.19111 0 0 1.90735e-06
7 1 0.749986 0.424069 0.19111 0 0 1.90735e-06
8 1 0.499986 0.541062 0.313616 0 0 -7.62939e-06
9 1 0.999986 0.924069 0.19111 0 0 -7.62939e-06
10 1 0.249986 0.0410604 0.313617 0 0 -1.71661e-05
11 1 0.499986 0.924069 0.19111 0 0 -7.62939e-06
12 1 0.749986 0.0410604 0.313617 0 0 -1.71661e-05
13 1 0.999986 0.443266 0.558465 0 0 -2.86102e-05
14 1 0.499986 0.443266 0.558465 0 0 -2.86102e-05
15 1 0.249986 0.943267 0.558465 0 0 -3.05176e-05
16 1 0.749986 0.943267 0.558465 0 0 -3.05176e-05
17 1 0.249986 0.326263 0.436036 0 0 3.24249e-05
18 1 0.749986 0.326263 0.436036 0 0 3.24249e-05
19 1 0.999986 0.826264 0.436036 0 0 2.86102e-05
20 1 0.499986 0.826264 0.436036 0 0 2.86102e-05
21 1 0.999986 0.345451 0.803391 0 0 1.90735e-05
22 1 0.249986 0.228465 0.680885 0 0 -1.90735e-06
23 1 0.499986 0.345451 0.803391 0 0 1.90735e-05
24 1 0.749986 0.228465 0.680885 0 0 -1.90735e-06
25 1 0.999986 0.728464 0.680885 0 0 1.14441e-05
26 1 0.249986 0.845451 0.803391 0 0 1.52588e-05
27 1 0.749986 0.845451 0.803391 0 0 1.52588e-05
28 1 0.499986 0.728464 0.680885 0 0 1.14441e-05
29 1 0.249986 0.130606 0.925948 0 0 1.90735e-05
30 1 0.749986 0.130606 0.925948 0 0 1.90735e-05
31 1 0.999986 0.630605 0.925948 0 0 3.05176e-05
32 1 0.499986 0.630605 0.925948 0 0 3.05176e-05
ITEM: TIMESTEP
10
ITEM: NUMBER OF ATOMS
32
ITEM: BOX BOUNDS xy xz yz pp pp pp
-2.4071335792541504e-03 6.3992393016815186e+00 0.0000000000000000e+00
-9.1621279716491699e-03 7.7414305806159973e+00 0.0000000000000000e+00
5.4966151714324951e-02 2.0670420289039612e+01 2.2118372917175293e+00
ITEM: ATOMS id type xs ys zs fx fy fz
1 1 0.999986 0.638912 0.0685532 0 0 -3.8147e-05
2 1 0.499986 0.638912 0.0685532 0 0 -3.8147e-05
3 1 0.249986 0.138912 0.0685531 0 0 -2.67029e-05
4 1 0.749986 0.138912 0.0685531 0 0 -2.67029e-05
5 1 0.999986 0.541062 0.313616 0 0 -7.62939e-06
6 1 0.249986 0.424069 0.19111 0 0 1.90735e-06
7 1 0.749986 0.424069 0.19111 0 0 1.90735e-06
8 1 0.499986 0.541062 0.313616 0 0 -7.62939e-06
9 1 0.999986 0.924069 0.19111 0 0 -7.62939e-06
10 1 0.249986 0.0410604 0.313617 0 0 -1.71661e-05
11 1 0.499986 0.924069 0.19111 0 0 -7.62939e-06
12 1 0.749986 0.0410604 0.313617 0 0 -1.71661e-05
13 1 0.999986 0.443266 0.558465 0 0 -2.86102e-05
14 1 0.499986 0.443266 0.558465 0 0 -2.86102e-05
15 1 0.249986 0.943267 0.558465 0 0 -3.05176e-05
16 1 0.749986 0.943267 0.558465 0 0 -3.05176e-05
17 1 0.249986 0.326263 0.436036 0 0 3.24249e-05
18 1 0.749986 0.326263 0.436036 0 0 3.24249e-05
19 1 0.999986 0.826264 0.436036 0 0 2.86102e-05
20 1 0.499986 0.826264 0.436036 0 0 2.86102e-05
21 1 0.999986 0.345451 0.803391 0 0 1.90735e-05
22 1 0.249986 0.228465 0.680885 0 0 -1.90735e-06
23 1 0.499986 0.345451 0.803391 0 0 1.90735e-05
24 1 0.749986 0.228465 0.680885 0 0 -1.90735e-06
25 1 0.999986 0.728464 0.680885 0 0 1.14441e-05
26 1 0.249986 0.845451 0.803391 0 0 1.52588e-05
27 1 0.749986 0.845451 0.803391 0 0 1.52588e-05
28 1 0.499986 0.728464 0.680885 0 0 1.14441e-05
29 1 0.249986 0.130606 0.925948 0 0 1.90735e-05
30 1 0.749986 0.130606 0.925948 0 0 1.90735e-05
31 1 0.999986 0.630605 0.925948 0 0 3.05176e-05
32 1 0.499986 0.630605 0.925948 0 0 3.05176e-05
