ITEM: TIMESTEP
0
ITEM: NUMBER OF ATOMS
32
ITEM: BOX BOUNDS xy xz yz pp pp pp
-9.5987319946289062e-04 6.3977920413017273e+00 -0.0000000000000000e+00
-1.0525226593017578e-02 6.9136955142021179e+00 0.0000000000000000e+00
-5.8505058288574219e-02 2.0783891499042511e+01 1.3827391266822815e+00
ITEM: ATOMS id type xs ys zs fx fy fz
1 1 0.999986 0.651757 0.0597507 -1.43051e-06 0 0.899883
2 1 0.499986 0.651757 0.0597507 2.02656e-06 0 0.899883
3 1 0.249986 0.151757 0.0597507 2.38419e-07 0 0.899887
4 1 0.749986 0.151757 0.0597507 -5.96046e-07 0 0.899882
5 1 0.999986 0.589376 0.309751 0 0 0.00116003
6 1 0.249986 0.4539 0.184751 -1.43051e-06 0 -0.00287998
7 1 0.749986 0.4539 0.184751 5.96046e-07 0 -0.00288117
8 1 0.499986 0.589376 0.309751 1.07288e-06 0 0.00116062
9 1 0.999986 0.9539 0.184751 4.76837e-07 0 -0.00288069
10 1 0.249986 0.0893758 0.309751 -1.90735e-06 0 0.00115776
11 1 0.499986 0.9539 0.184751 2.38419e-07 0 -0.002882
12 1 0.749986 0.0893758 0.309751 1.66893e-06 0 0.00115848
13 1 0.999986 0.526994 0.559751 -2.38419e-06 0 6.1512e-05
14 1 0.499986 0.526994 0.559751 2.5034e-06 0 6.16312e-05
15 1 0.249986 0.0269945 0.559751 -7.15256e-07 0 6.18696e-05
16 1 0.749986 0.0269944 0.559751 8.34465e-07 0 6.24657e-05
17 1 0.249986 0.391519 0.434751 4.76837e-07 0 -6.1512e-05
18 1 0.749986 0.391519 0.434751 -2.38419e-06 0 -6.17504e-05
19 1 0.999986 0.891519 0.434751 9.53674e-07 0 -6.13928e-05
20 1 0.499986 0.891519 0.434751 2.38419e-07 0 -6.10352e-05
21 1 0.999986 0.464613 0.809751 1.19209e-07 0 0.00288033
22 1 0.249986 0.329137 0.684751 2.38419e-07 0 -0.00115883
23 1 0.499986 0.464613 0.809751 -5.96046e-07 0 0.00288093
24 1 0.749986 0.329137 0.684751 4.76837e-07 0 -0.00116098
25 1 0.999986 0.829137 0.684751 -7.15256e-07 0 -0.00115943
26 1 0.249986 0.964613 0.809751 1.19209e-07 0 0.00288153
27 1 0.749986 0.964613 0.809751 1.19209e-07 0 0.00288093
28 1 0.499986 0.829137 0.684751 3.57628e-07 0 -0.00116014
29 1 0.249986 0.266756 0.934751 -5.96046e-07 0 -0.899887
30 1 0.749986 0.266756 0.934751 2.38419e-07 0 -0.89988
31 1 0.999986 0.766756 0.934751 -8.34465e-07 0 -0.899883
32 1 0.499986 0.766756 0.934751 5.96046e-07 0 -0.899884
ITEM: TIMESTEP
1
ITEM: NUMBER OF ATOMS
32
ITEM: BOX BOUNDS xy xz yz pp pp pp
-9.5987319946289062e-04 6.3977920413017273e+00 -0.0000000000000000e+00
-1.0525226593017578e-02 6.9136955142021179e+00 0.0000000000000000e+00
-5.8505058288574219e-02 2.0783891499042511e+01 1.3827391266822815e+00
ITEM: ATOMS id type xs ys zs fx fy fz
1 1 0.999986 0.65056 0.0645486 -7.15256e-07 0 0.147411
2 1 0.499986 0.65056 0.0645486 7.15256e-07 0 0.14741
3 1 0.249986 0.15056 0.0645486 5.96046e-07 0 0.147411
4 1 0.749986 0.15056 0.0645486 -3.57628e-07 0 0.147411
5 1 0.999986 0.589374 0.309757 0 0 0.00789237
6 1 0.249986 0.453904 0.184735 -8.34465e-07 0 0.145058
7 1 0.749986 0.453904 0.184735 7.15256e-07 0 0.145057
8 1 0.499986 0.589374 0.309757 -1.19209e-07 0 0.00789297
9 1 0.999986 0.953904 0.184735 2.38419e-07 0 0.145057
10 1 0.249986 0.0893743 0.309757 -4.76837e-07 0 0.0078907
11 1 0.499986 0.953904 0.184735 2.38419e-07 0 0.145056
12 1 0.749986 0.0893743 0.309757 4.76837e-07 0 0.00789106
13 1 0.999986 0.526994 0.559751 -5.96046e-07 0 0.000345707
14 1 0.499986 0.526994 0.559751 8.34465e-07 0 0.000345945
15 1 0.249986 0.0269944 0.559751 -2.38419e-07 0 0.000345826
16 1 0.749986 0.0269944 0.559751 0 0 0.000346065
17 1 0.249986 0.391519 0.43475 7.15256e-07 0 -0.000345707
18 1 0.749986 0.391519 0.43475 -7.15256e-07 0 -0.000345588
19 1 0.999986 0.891519 0.43475 -1.19209e-07 0 -0.000345349
20 1 0.499986 0.891519 0.43475 0 0 -0.000345349
21 1 0.999986 0.464609 0.809766 1.19209e-07 0 -0.145059
22 1 0.249986 0.329139 0.684745 -4.76837e-07 0 -0.0078913
23 1 0.499986 0.464609 0.809766 -2.38419e-07 0 -0.145058
24 1 0.749986 0.329139 0.684745 3.57628e-07 0 -0.00789285
25 1 0.999986 0.829139 0.684745 -1.19209e-07 0 -0.00789177
26 1 0.249986 0.964609 0.809766 0 0 -0.145058
27 1 0.749986 0.964609 0.809766 -1.19209e-07 0 -0.145058
28 1 0.499986 0.829139 0.684745 3.57628e-07 0 -0.00789225
29 1 0.249986 0.267953 0.929953 -3.57628e-07 0 -0.14741
30 1 0.749986 0.267953 0.929953 4.76837e-07 0 -0.147409
31 1 0.999986 0.767953 0.929953 -1.19209e-07 0 -0.14741
32 1 0.499986 0.767953 0.929953 -2.38419e-07 0 -0.147411
ITEM: TIMESTEP
2
ITEM: NUMBER OF ATOMS
32
ITEM: BOX BOUNDS xy xz yz pp pp pp
-9.5987319946289062e-04 6.3977920413017273e+00 -0.0000000000000000e+00
-1.0525226593017578e-02 6.9136955142021179e+00 0.0000000000000000e+00
-5.8505058288574219e-02 2.0783891499042511e+01 1.3827391266822815e+00
ITEM: ATOMS id type xs ys zs fx fy fz
1 1 0.999986 0.649848 0.0674017 -4.76837e-07 0 -0.0927165
2 1 0.499986 0.649848 0.0674017 2.38419e-07 0 -0.0927157
3 1 0.249986 0.149848 0.0674017 -5.96046e-07 0 -0.0927159
4 1 0.749986 0.149848 0.0674017 3.57628e-07 0 -0.0927157
5 1 0.999986 0.589336 0.30991 0 0 0.0805024
6 1 0.249986 0.453203 0.187543 8.34465e-07 0 0.0671214
7 1 0.749986 0.453203 0.187543 -7.15256e-07 0 0.0671222
8 1 0.499986 0.589336 0.30991 0 0 0.0805011
9 1 0.999986 0.953203 0.187543 2.38419e-07 0 0.0671214
10 1 0.249986 0.0893362 0.30991 1.19209e-07 0 0.0805022
11 1 0.499986 0.953203 0.187543 2.38419e-07 0 0.0671223
12 1 0.749986 0.0893362 0.30991 -1.19209e-07 0 0.0805018
13 1 0.999986 0.526993 0.559758 3.57628e-07 0 -0.0074538
14 1 0.499986 0.526993 0.559758 -8.34465e-07 0 -0.00745332
15 1 0.249986 0.0269927 0.559758 4.76837e-07 0 -0.00745296
16 1 0.749986 0.0269927 0.559758 -2.38419e-07 0 -0.00745344
17 1 0.249986 0.39152 0.434744 -4.76837e-07 0 0.00745344
18 1 0.749986 0.39152 0.434744 3.57628e-07 0 0.00745356
19 1 0.999986 0.89152 0.434744 4.76837e-07 0 0.00745296
20 1 0.499986 0.89152 0.434744 -2.38419e-07 0 0.0074532
21 1 0.999986 0.46531 0.806958 -4.76837e-07 0 -0.067121
22 1 0.249986 0.329177 0.684592 5.96046e-07 0 -0.0805022
23 1 0.499986 0.46531 0.806958 0 0 -0.0671213
24 1 0.749986 0.329177 0.684592 -2.38419e-07 0 -0.0805016
25 1 0.999986 0.829177 0.684592 1.19209e-07 0 -0.080502
26 1 0.249986 0.96531 0.806959 0 0 -0.0671213
27 1 0.749986 0.96531 0.806959 0 0 -0.0671213
28 1 0.499986 0.829177 0.684592 -4.76837e-07 0 -0.0805019
29 1 0.249986 0.268665 0.9271 4.76837e-07 0 0.0927154
30 1 0.749986 0.268665 0.9271 -2.38419e-07 0 0.0927159
31 1 0.999986 0.768665 0.9271 0 0 0.0927153
32 1 0.499986 0.768665 0.9271 2.38419e-07 0 0.0927154
ITEM: TIMESTEP
3
ITEM: NUMBER OF ATOMS
32
ITEM: BOX BOUNDS xy xz yz pp pp pp
-9.5987319946289062e-04 6.3977920413017273e+00 -0.0000000000000000e+00
-1.0525226593017578e-02 6.9136955142021179e+00 0.0000000000000000e+00
-5.8505058288574219e-02 2.0783891499042511e+01 1.3827391266822815e+00
ITEM: ATOMS id type xs ys zs fx fy fz
1 1 0.999986 0.649903 0.0671826 8.34465e-07 0 0.00723493
2 1 0.499986 0.649902 0.0671826 -1.19209e-06 0 0.00723493
3 1 0.249986 0.149903 0.0671826 -1.19209e-07 0 0.00723445
4 1 0.749986 0.149903 0.0671826 3.57628e-07 0 0.00723541
5 1 0.999986 0.589 0.311256 -2.38419e-07 0 0.071841
6 1 0.249986 0.452629 0.189844 2.38419e-07 0 -0.048105
7 1 0.749986 0.452629 0.189844 -1.19209e-07 0 -0.0481039
8 1 0.499986 0.589 0.311256 1.19209e-07 0 0.0718412
9 1 0.999986 0.952629 0.189844 2.38419e-07 0 -0.0481035
10 1 0.249986 0.0890002 0.311256 4.76837e-07 0 0.071842
11 1 0.499986 0.952629 0.189844 0 0 -0.0481039
12 1 0.749986 0.0890002 0.311256 -5.96046e-07 0 0.0718417
13 1 0.999986 0.527022 0.559642 3.57628e-07 0 -0.0356588
14 1 0.499986 0.527021 0.559642 1.19209e-07 0 -0.0356592
15 1 0.249986 0.0270216 0.559642 0 0 -0.0356588
16 1 0.749986 0.0270215 0.559642 1.19209e-07 0 -0.0356593
17 1 0.249986 0.391491 0.434859 -5.96046e-07 0 0.0356592
18 1 0.749986 0.391492 0.434859 0 0 0.0356587
19 1 0.999986 0.891492 0.434859 0 0 0.0356591
20 1 0.499986 0.891491 0.434859 0 0 0.0356586
21 1 0.999986 0.465884 0.804657 -1.19209e-07 0 0.0481051
22 1 0.249986 0.329513 0.683245 0 0 -0.0718421
23 1 0.499986 0.465884 0.804657 -1.19209e-07 0 0.0481048
24 1 0.749986 0.329513 0.683245 -5.96046e-07 0 -0.0718411
25 1 0.999986 0.829513 0.683245 0 0 -0.0718415
26 1 0.249986 0.965884 0.804657 -1.19209e-07 0 0.0481045
27 1 0.749986 0.965884 0.804657 4.76837e-07 0 0.0481037
28 1 0.499986 0.829513 0.683245 2.38419e-07 0 -0.0718411
29 1 0.249986 0.26861 0.927319 0 0 -0.00723517
30 1 0.749986 0.26861 0.927319 -1.19209e-07 0 -0.00723553
31 1 0.999986 0.76861 0.927319 3.57628e-07 0 -0.00723553
32 1 0.499986 0.76861 0.927319 0 0 -0.00723481
ITEM: TIMESTEP
4
ITEM: NUMBER OF ATOMS
32
ITEM: BOX BOUNDS xy xz yz pp pp pp
-9.5987319946289062e-04 6.3977920413017273e+00 -0.0000000000000000e+00
-1.0525226593017578e-02 6.9136955142021179e+00 0.0000000000000000e+00
-5.8505058288574219e-02 2.0783891499042511e+01 1.3827391266822815e+00
ITEM: ATOMS id type xs ys zs fx fy fz
1 1 0.999986 0.649892 0.0672255 0 0 0.00615478
2 1 0.499986 0.649892 0.0672255 2.38419e-07 0 0.00615454
3 1 0.249986 0.149892 0.0672255 -1.19209e-07 0 0.0061543
4 1 0.749986 0.149892 0.0672255 -1.19209e-07 0 0.00615454
5 1 0.999986 0.588581 0.312934 3.57628e-07 0 -0.011964
6 1 0.249986 0.452625 0.189859 -1.19209e-07 0 0.00229478
7 1 0.749986 0.452625 0.189859 2.38419e-07 0 0.00229442
8 1 0.499986 0.588581 0.312934 -4.76837e-07 0 -0.0119641
9 1 0.999986 0.952625 0.189859 0 0 0.00229454
10 1 0.249986 0.0885814 0.312934 1.19209e-07 0 -0.011964
11 1 0.499986 0.952625 0.189859 -4.76837e-07 0 0.0022949
12 1 0.749986 0.0885814 0.312934 3.57628e-07 0 -0.0119638
13 1 0.999986 0.52718 0.559006 -2.38419e-07 0 -0.0269438
14 1 0.499986 0.52718 0.559006 2.38419e-07 0 -0.0269443
15 1 0.249986 0.0271803 0.559006 -2.38419e-07 0 -0.0269437
16 1 0.749986 0.0271803 0.559006 3.57628e-07 0 -0.026944
17 1 0.249986 0.391333 0.435496 0 0 0.0269436
18 1 0.749986 0.391333 0.435496 -1.19209e-07 0 0.026944
19 1 0.999986 0.891333 0.435496 -4.76837e-07 0 0.0269437
20 1 0.499986 0.891333 0.435496 5.96046e-07 0 0.0269438
21 1 0.999986 0.465888 0.804642 -2.38419e-07 0 -0.00229549
22 1 0.249986 0.329932 0.681567 2.38419e-07 0 0.0119646
23 1 0.499986 0.465888 0.804642 3.57628e-07 0 -0.00229526
24 1 0.749986 0.329932 0.681567 1.19209e-07 0 0.0119646
25 1 0.999986 0.829932 0.681567 -4.76837e-07 0 0.011964
26 1 0.249986 0.965888 0.804642 0 0 -0.00229526
27 1 0.749986 0.965888 0.804642 -2.38419e-07 0 -0.0022949
28 1 0.499986 0.829932 0.681567 2.38419e-07 0 0.0119643
29 1 0.249986 0.268621 0.927276 -1.19209e-07 0 -0.00615478
30 1 0.749986 0.268621 0.927276 -1.19209e-07 0 -0.00615418
31 1 0.999986 0.768621 0.927276 -2.38419e-07 0 -0.0061537
32 1 0.499986 0.768621 0.927276 3.57628e-07 0 -0.00615406
ITEM: TIMESTEP
5
ITEM: NUMBER OF ATOMS
32
ITEM: BOX BOUNDS xy xz yz pp pp pp
-9.5987319946289062e-04 6.3977920413017273e+00 -0.0000000000000000e+00
-1.0525226593017578e-02 6.9136955142021179e+00 0.0000000000000000e+00
-5.8505058288574219e-02 2.0783891499042511e+01 1.3827391266822815e+00
ITEM: ATOMS id type xs ys zs fx fy fz
1 1 0.999986 0.649876 0.0672876 1.19209e-07 0 0.000441432
2 1 0.499986 0.649876 0.0672876 -1.19209e-07 0 0.000441194
3 1 0.249986 0.149877 0.0672876 0 0 0.000441551
4 1 0.749986 0.149876 0.0672876 -3.57628e-07 0 0.000441074
5 1 0.999986 0.588586 0.312915 -3.57628e-07 0 -0.00198019
6 1 0.249986 0.452619 0.189883 -1.19209e-07 0 0.00271833
7 1 0.749986 0.452619 0.189883 2.38419e-07 0 0.00271749
8 1 0.499986 0.588586 0.312915 5.96046e-07 0 -0.00197971
9 1 0.999986 0.952619 0.189883 0 0 0.00271833
10 1 0.249986 0.0885861 0.312915 -2.38419e-07 0 -0.00197995
11 1 0.499986 0.952619 0.189883 3.57628e-07 0 0.00271785
12 1 0.749986 0.0885861 0.312915 0 0 -0.00197959
13 1 0.999986 0.527255 0.558708 1.19209e-07 0 -0.000410318
14 1 0.499986 0.527255 0.558708 -3.57628e-07 0 -0.000410438
15 1 0.249986 0.0272547 0.558708 0 0 -0.000411034
16 1 0.749986 0.0272546 0.558708 1.19209e-07 0 -0.000410438
17 1 0.249986 0.391258 0.435793 1.19209e-07 0 0.000410795
18 1 0.749986 0.391258 0.435793 -2.38419e-07 0 0.000410318
19 1 0.999986 0.891258 0.435793 3.57628e-07 0 0.000410557
20 1 0.499986 0.891258 0.435793 -3.57628e-07 0 0.000410676
21 1 0.999986 0.465894 0.804619 0 0 -0.00271821
22 1 0.249986 0.329927 0.681586 -4.76837e-07 0 0.00198007
23 1 0.499986 0.465893 0.804619 -1.19209e-07 0 -0.00271809
24 1 0.749986 0.329927 0.681586 5.96046e-07 0 0.00197983
25 1 0.999986 0.829927 0.681586 1.19209e-07 0 0.00197995
26 1 0.249986 0.965894 0.804619 3.57628e-07 0 -0.00271821
27 1 0.749986 0.965894 0.804619 0 0 -0.00271797
28 1 0.499986 0.829927 0.681586 -2.38419e-07 0 0.00197995
29 1 0.249986 0.268637 0.927214 0 0 -0.000440955
30 1 0.749986 0.268637 0.927214 0 0 -0.000441313
31 1 0.999986 0.768636 0.927214 -1.19209e-07 0 -0.000441432
32 1 0.499986 0.768636 0.927214 0 0 -0.000441551
ITEM: TIMESTEP
6
ITEM: NUMBER OF ATOMS
32
ITEM: BOX BOUNDS xy xz yz pp pp pp
-9.5987319946289062e-04 6.3977920413017273e+00 -0.0000000000000000e+00
-1.0525226593017578e-02 6.9136955142021179e+00 0.0000000000000000e+00
-5.8505058288574219e-02 2.0783891499042511e+01 1.3827391266822815e+00
ITEM: ATOMS id type xs ys zs fx fy fz
1 1 0.999986 0.649875 0.0672928 1.19209e-07 0 0.00084722
2 1 0.499986 0.649875 0.0672928 -1.19209e-07 0 0.00084722
3 1 0.249986 0.149875 0.0672928 1.19209e-07 0 0.000847936
4 1 0.749986 0.149875 0.0672928 -1.19209e-07 0 0.000847936
5 1 0.999986 0.588592 0.312892 5.96046e-07 0 0.00044775
6 1 0.249986 0.452611 0.189915 1.19209e-07 0 0.000287175
7 1 0.749986 0.452611 0.189915 -1.19209e-07 0 0.000286818
8 1 0.499986 0.588592 0.312892 -1.19209e-07 0 0.000447631
9 1 0.999986 0.952611 0.189915 0 0 0.000287175
10 1 0.249986 0.088592 0.312892 0 0 0.000447631
11 1 0.499986 0.952611 0.189915 -1.19209e-07 0 0.000287056
12 1 0.749986 0.0885919 0.312892 -2.38419e-07 0 0.000447512
13 1 0.999986 0.527256 0.558703 -2.38419e-07 0 0.00059545
14 1 0.499986 0.527256 0.558703 0 0 0.000595212
15 1 0.249986 0.0272559 0.558703 5.96046e-07 0 0.00059557
16 1 0.749986 0.0272558 0.558703 -1.19209e-07 0 0.000595212
17 1 0.249986 0.391257 0.435798 -3.57628e-07 0 -0.00059545
18 1 0.749986 0.391257 0.435798 1.19209e-07 0 -0.000594974
19 1 0.999986 0.891257 0.435798 -1.19209e-07 0 -0.00059545
20 1 0.499986 0.891257 0.435798 0 0 -0.000595212
21 1 0.999986 0.465902 0.804587 3.57628e-07 0 -0.000286698
22 1 0.249986 0.329921 0.681609 -2.38419e-07 0 -0.000447631
23 1 0.499986 0.465901 0.804587 -1.19209e-07 0 -0.000287056
24 1 0.749986 0.329921 0.681609 0 0 -0.000447869
25 1 0.999986 0.829921 0.681609 0 0 -0.000447631
26 1 0.249986 0.965902 0.804587 -2.38419e-07 0 -0.000286818
27 1 0.749986 0.965902 0.804587 1.19209e-07 0 -0.000287294
28 1 0.499986 0.829921 0.681609 2.38419e-07 0 -0.000447869
29 1 0.249986 0.268638 0.927209 -1.19209e-07 0 -0.000847101
30 1 0.749986 0.268638 0.927209 0 0 -0.000847578
31 1 0.999986 0.768638 0.927209 1.19209e-07 0 -0.000847936
32 1 0.499986 0.768638 0.927209 -1.19209e-07 0 -0.000847936
ITEM: TIMESTEP
7
ITEM: NUMBER OF ATOMS
32
ITEM: BOX BOUNDS xy xz yz pp pp pp
-9.5987319946289062e-04 6.3977920413017273e+00 -0.0000000000000000e+00
-1.0525226593017578e-02 6.9136955142021179e+00 0.0000000000000000e+00
-5.8505058288574219e-02 2.0783891499042511e+01 1.3827391266822815e+00
ITEM: ATOMS id type xs ys zs fx fy fz
1 1 0.999986 0.649872 0.067305 -3.57628e-07 0 -0.000146151
2 1 0.499986 0.649872 0.067305 4.76837e-07 0 -0.000146389
3 1 0.249986 0.149872 0.067305 0 0 -0.000145316
4 1 0.749986 0.149872 0.067305 -1.19209e-07 0 -0.00014627
5 1 0.999986 0.588591 0.312895 0 0 0.000316739
6 1 0.249986 0.452609 0.189923 1.19209e-07 0 0.000240922
7 1 0.749986 0.452609 0.189923 4.76837e-07 0 0.00024116
8 1 0.499986 0.588591 0.312895 -2.38419e-07 0 0.000316739
9 1 0.999986 0.952609 0.189923 -4.76837e-07 0 0.000240088
10 1 0.249986 0.0885912 0.312895 1.19209e-07 0 0.000316858
11 1 0.499986 0.952609 0.189923 -2.38419e-07 0 0.000240445
12 1 0.749986 0.0885912 0.312895 3.57628e-07 0 0.000316978
13 1 0.999986 0.527254 0.558711 1.19209e-07 0 -0.000152469
14 1 0.499986 0.527254 0.558711 -2.38419e-07 0 -0.000152349
15 1 0.249986 0.027254 0.558711 0 0 -0.000151992
16 1 0.749986 0.027254 0.558711 2.38419e-07 0 -0.00015223
17 1 0.249986 0.391259 0.435791 1.19209e-07 0 0.00015223
18 1 0.749986 0.391259 0.435791 -2.38419e-07 0 0.00015223
19 1 0.999986 0.891259 0.435791 0 0 0.00015223
20 1 0.499986 0.891259 0.435791 2.38419e-07 0 0.000151992
21 1 0.999986 0.465904 0.804579 -3.57628e-07 0 -0.000241399
22 1 0.249986 0.329922 0.681606 4.76837e-07 0 -0.000316501
23 1 0.499986 0.465904 0.804579 1.19209e-07 0 -0.00024128
24 1 0.749986 0.329922 0.681606 -4.76837e-07 0 -0.000316381
25 1 0.999986 0.829922 0.681606 -1.19209e-07 0 -0.00031662
26 1 0.249986 0.965904 0.804579 2.38419e-07 0 -0.00024116
27 1 0.749986 0.965904 0.804579 0 0 -0.000240564
28 1 0.499986 0.829922 0.681606 1.19209e-07 0 -0.000316381
29 1 0.249986 0.268641 0.927196 -1.19209e-07 0 0.000146508
30 1 0.749986 0.268641 0.927196 -2.38419e-07 0 0.000146389
31 1 0.999986 0.768641 0.927196 -1.19209e-07 0 0.000146031
32 1 0.499986 0.768641 0.927196 1.19209e-07 0 0.000145912
ITEM: TIMESTEP
8
ITEM: NUMBER OF ATOMS
32
ITEM: BOX BOUNDS xy xz yz pp pp pp
-9.5987319946289062e-04 6.3977920413017273e+00 -0.0000000000000000e+00
-1.0525226593017578e-02 6.9136955142021179e+00 0.0000000000000000e+00
-5.8505058288574219e-02 2.0783891499042511e+01 1.3827391266822815e+00
ITEM: ATOMS id type xs ys zs fx fy fz
1 1 0.999986 0.649872 0.0673047 4.76837e-07 0 0.000204921
2 1 0.499986 0.649872 0.0673047 -4.76837e-07 0 0.000205159
3 1 0.249986 0.149872 0.0673048 -4.76837e-07 0 0.000204086
4 1 0.749986 0.149872 0.0673048 3.57628e-07 0 0.00020504
5 1 0.999986 0.588589 0.312906 -1.19209e-07 0 2.34842e-05
6 1 0.249986 0.452607 0.189933 2.38419e-07 0 -7.35521e-05
7 1 0.749986 0.452607 0.189933 -3.57628e-07 0 -7.30753e-05
8 1 0.499986 0.588589 0.312906 2.38419e-07 0 2.36034e-05
9 1 0.999986 0.952607 0.189933 2.38419e-07 0 -7.20024e-05
10 1 0.249986 0.0885886 0.312906 -1.19209e-07 0 2.31266e-05
11 1 0.499986 0.952607 0.189933 0 0 -7.236e-05
12 1 0.749986 0.0885886 0.312906 0 0 2.28882e-05
13 1 0.999986 0.527255 0.558708 -2.38419e-07 0 -0.000267744
14 1 0.499986 0.527254 0.558708 4.76837e-07 0 -0.000267506
15 1 0.249986 0.0272546 0.558708 -3.57628e-07 0 -0.000268579
16 1 0.749986 0.0272545 0.558708 1.19209e-07 0 -0.000268102
17 1 0.249986 0.391258 0.435793 0 0 0.000268459
18 1 0.749986 0.391259 0.435793 3.57628e-07 0 0.000267506
19 1 0.999986 0.891259 0.435793 0 0 0.00026834
20 1 0.499986 0.891258 0.435793 -3.57628e-07 0 0.000268579
21 1 0.999986 0.465906 0.804569 4.76837e-07 0 7.42674e-05
22 1 0.249986 0.329924 0.681596 -7.15256e-07 0 -2.40803e-05
23 1 0.499986 0.465906 0.804569 -3.57628e-07 0 7.43866e-05
24 1 0.749986 0.329924 0.681596 7.15256e-07 0 -2.44379e-05
25 1 0.999986 0.829924 0.681596 3.57628e-07 0 -2.38419e-05
26 1 0.249986 0.965906 0.804569 -1.19209e-07 0 7.4029e-05
27 1 0.749986 0.965906 0.804569 -2.38419e-07 0 7.33137e-05
28 1 0.499986 0.829924 0.681596 -1.19209e-07 0 -2.41995e-05
29 1 0.249986 0.268641 0.927197 -2.38419e-07 0 -0.000205517
30 1 0.749986 0.268641 0.927197 3.57628e-07 0 -0.000205994
31 1 0.999986 0.768641 0.927197 -1.19209e-07 0 -0.000204921
32 1 0.499986 0.768641 0.927197 0 0 -0.000205278
ITEM: TIMESTEP
9
ITEM: NUMBER OF ATOMS
32
ITEM: BOX BOUNDS xy xz yz pp pp pp
-9.5987319946289062e-04 6.3977920413017273e+00 -0.0000000000000000e+00
-1.0525226593017578e-02 6.9136955142021179e+00 0.0000000000000000e+00
-5.8505058288574219e-02 2.0783891499042511e+01 1.3827391266822815e+00
ITEM: ATOMS id type xs ys zs fx fy fz
1 1 0.999986 0.649871 0.0673073 5.96046e-07 0 -3.21865e-06
2 1 0.499986 0.649871 0.0673073 -3.57628e-07 0 -3.09944e-06
3 1 0.249986 0.149872 0.0673073 0 0 -3.8147e-06
4 1 0.749986 0.149871 0.0673073 0 0 -3.21865e-06
5 1 0.999986 0.588588 0.312909 3.57628e-07 0 3.21865e-06
6 1 0.249986 0.452606 0.189934 -3.57628e-07 0 -2.14577e-06
7 1 0.749986 0.452606 0.189934 -9.53674e-07 0 -2.26498e-06
8 1 0.499986 0.588588 0.312909 3.57628e-07 0 3.09944e-06
9 1 0.999986 0.952606 0.189934 5.96046e-07 0 -1.19209e-06
10 1 0.249986 0.0885878 0.312909 -3.57628e-07 0 2.98023e-06
11 1 0.499986 0.952606 0.189934 5.96046e-07 0 -1.66893e-06
12 1 0.749986 0.0885878 0.312909 -3.57628e-07 0 3.09944e-06
13 1 0.999986 0.527256 0.558705 0 0 -1.19209e-06
14 1 0.499986 0.527255 0.558705 1.19209e-07 0 -1.19209e-06
15 1 0.249986 0.0272555 0.558705 -1.19209e-07 0 -1.19209e-06
16 1 0.749986 0.0272555 0.558705 0 0 -7.15256e-07
17 1 0.249986 0.391257 0.435797 3.57628e-07 0 8.34465e-07
18 1 0.749986 0.391258 0.435797 0 0 1.19209e-06
19 1 0.999986 0.891258 0.435797 0 0 1.07288e-06
20 1 0.499986 0.891258 0.435797 -2.38419e-07 0 1.19209e-06
21 1 0.999986 0.465906 0.804567 2.38419e-07 0 1.90735e-06
22 1 0.249986 0.329925 0.681593 -1.19209e-07 0 -3.21865e-06
23 1 0.499986 0.465906 0.804567 0 0 2.02656e-06
24 1 0.749986 0.329925 0.681593 4.76837e-07 0 -2.98023e-06
25 1 0.999986 0.829925 0.681593 0 0 -3.09944e-06
26 1 0.249986 0.965906 0.804567 -5.96046e-07 0 1.78814e-06
27 1 0.749986 0.965907 0.804567 2.38419e-07 0 9.53674e-07
28 1 0.499986 0.829925 0.681593 -4.76837e-07 0 -3.09944e-06
29 1 0.249986 0.268641 0.927194 0 0 3.69549e-06
30 1 0.749986 0.268641 0.927194 1.19209e-07 0 3.57628e-06
31 1 0.999986 0.768641 0.927194 -1.19209e-07 0 3.21865e-06
32 1 0.499986 0.768641 0.927194 0 0 3.45707e-06
ITEM: TIMESTEP
10
ITEM: NUMBER OF ATOMS
32
ITEM: BOX BOUNDS xy xz yz pp pp pp
-9.5987319946289062e-04 6.3977920413017273e+00 -0.0000000000000000e+00
-1.0525226593017578e-02 6.9136955142021179e+00 0.0000000000000000e+00
-5.8505058288574219e-02 2.0783891499042511e+01 1.3827391266822815e+00
ITEM: ATOMS id type xs ys zs fx fy fz
1 1 0.999986 0.649871 0.0673073 0 0 1.07288e-06
2 1 0.499986 0.649871 0.0673073 3.57628e-07 0 7.15256e-07
3 1 0.249986 0.149872 0.0673073 2.38419e-07 0 1.19209e-06
4 1 0.749986 0.149871 0.0673073 0 0 1.07288e-06
5 1 0.999986 0.588588 0.312909 -2.38419e-07 0 -3.57628e-07
6 1 0.249986 0.452606 0.189934 -3.57628e-07 0 0
7 1 0.749986 0.452606 0.189934 3.57628e-07 0 -4.76837e-07
8 1 0.499986 0.588588 0.312909 2.38419e-07 0 -3.57628e-07
9 1 0.999986 0.952606 0.189934 1.19209e-07 0 -1.19209e-07
10 1 0.249986 0.0885878 0.312909 -1.19209e-07 0 -2.38419e-07
11 1 0.499986 0.952606 0.189934 1.19209e-07 0 -1.19209e-07
12 1 0.749986 0.0885878 0.312909 2.38419e-07 0 1.19209e-07
13 1 0.999986 0.527256 0.558704 0 0 -1.19209e-07
14 1 0.499986 0.527255 0.558704 2.38419e-07 0 0
15 1 0.249986 0.0272556 0.558704 -2.38419e-07 0 0
16 1 0.749986 0.0272555 0.558704 0 0 -1.19209e-07
17 1 0.249986 0.391257 0.435797 -2.38419e-07 0 0
18 1 0.749986 0.391258 0.435797 1.19209e-07 0 -1.19209e-07
19 1 0.999986 0.891258 0.435797 0 0 0
20 1 0.499986 0.891257 0.435797 0 0 2.38419e-07
21 1 0.999986 0.465906 0.804567 2.38419e-07 0 7.15256e-07
22 1 0.249986 0.329925 0.681593 1.19209e-07 0 -2.38419e-07
23 1 0.499986 0.465906 0.804567 -1.19209e-07 0 8.34465e-07
24 1 0.749986 0.329925 0.681593 -3.57628e-07 0 -1.19209e-07
25 1 0.999986 0.829925 0.681593 0 0 -1.19209e-07
26 1 0.249986 0.965906 0.804567 2.38419e-07 0 4.76837e-07
27 1 0.749986 0.965907 0.804567 -3.57628e-07 0 7.15256e-07
28 1 0.499986 0.829925 0.681593 1.19209e-07 0 -3.57628e-07
29 1 0.249986 0.268641 0.927194 -1.19209e-07 0 -1.54972e-06
30 1 0.749986 0.268641 0.927194 -2.38419e-07 0 -1.07288e-06
31 1 0.999986 0.768641 0.927194 5.96046e-07 0 -9.53674e-07
32 1 0.499986 0.768641 0.927194 -9.53674e-07 0 -7.15256e-07
