LAMMPS (4 May 2022)
## variable
variable        temp            equal 400
variable        eql_step        equal 500000
variable        rd_seed         equal 1

variable        temp_damp       equal 0.2 # tau_NVT = timestep * 100
variable        t_step          equal 0.002
variable        rlx_step        equal 20000

variable        thermo_freq     equal 100
variable        dump_freq       equal 100

## units
dimension       3
boundary        p p p
units           metal
atom_style      atomic
neighbor        1.0 bin
neigh_modify    every 10 delay 0 check no

## data.lmp, potential
read_data       data.lmp
Reading data file ...
  orthogonal box = (0 0 0) to (26.16621 26.16621 25.2548)
  1 by 1 by 1 MPI processor grid
  reading atoms ...
  900 atoms
  read_data CPU = 0.003 seconds
pair_style      nvnmd model.pb
pair_coeff * *

## velocity, timestep
velocity        all create ${temp} ${rd_seed} loop geom
velocity        all create 400 ${rd_seed} loop geom
velocity        all create 400 1 loop geom
timestep        ${t_step}
timestep        0.002

## nvt-relax
fix             equil all nvt temp ${temp} ${temp} ${temp_damp}
fix             equil all nvt temp 400 ${temp} ${temp_damp}
fix             equil all nvt temp 400 400 ${temp_damp}
fix             equil all nvt temp 400 400 0.2
run             ${rlx_step}
run             20000
Generated 0 of 6 mixed pair_coeff terms from geometric mixing rule
Neighbor list info ...
  update every 10 steps, delay 0 steps, check no
  max neighbors/atom: 2000, page size: 100000
  master list distance cutoff = 8
  ghost atom cutoff = 8
  binsize = 4, bins = 7 7 7
  1 neighbor lists, perpetual/occasional/extra = 1 0 0
  (1) pair nvnmd, perpetual
      attributes: full, newton on
      pair build: full/bin/atomonly
      stencil: full/bin/3d
      bin: standard
Per MPI rank memory allocation (min/avg/max) = 3.057 | 3.057 | 3.057 Mbytes
   Step          Temp          E_pair         E_mol          TotEng         Press     
         0   400            201.17586      0              247.65781      16168.803    
     20000   411.0055       238.69921      0              286.46005      15675.897    
Loop time of 12.4887 on 1 procs for 20000 steps with 900 atoms

Performance: 276.731 ns/day, 0.087 hours/ns, 1601.451 timesteps/s
55.1% CPU use with 1 MPI tasks x no OpenMP threads

MPI task timing breakdown:
Section |  min time  |  avg time  |  max time  |%varavg| %total
---------------------------------------------------------------
Pair    | 7.9323     | 7.9323     | 7.9323     |   0.0 | 63.52
Neigh   | 4.2506     | 4.2506     | 4.2506     |   0.0 | 34.04
Comm    | 0.14541    | 0.14541    | 0.14541    |   0.0 |  1.16
Output  | 1.5832e-05 | 1.5832e-05 | 1.5832e-05 |   0.0 |  0.00
Modify  | 0.1343     | 0.1343     | 0.1343     |   0.0 |  1.08
Other   |            | 0.02603    |            |       |  0.21

Nlocal:            900 ave         900 max         900 min
Histogram: 1 0 0 0 0 0 0 0 0 0
Nghost:           2774 ave        2774 max        2774 min
Histogram: 1 0 0 0 0 0 0 0 0 0
Neighs:              0 ave           0 max           0 min
Histogram: 1 0 0 0 0 0 0 0 0 0
FullNghs:       100536 ave      100536 max      100536 min
Histogram: 1 0 0 0 0 0 0 0 0 0

Total # of neighbors = 100536
Ave neighs/atom = 111.70667
Neighbor list builds = 2000
Dangerous builds not checked
unfix           equil

## nvt-equal
reset_timestep  0
fix             equil all nvt temp ${temp} ${temp} ${temp_damp}
fix             equil all nvt temp 400 ${temp} ${temp_damp}
fix             equil all nvt temp 400 400 ${temp_damp}
fix             equil all nvt temp 400 400 0.2
fix             com all recenter INIT INIT INIT

## thermo_style
thermo_style    custom step time temp ke etotal press
thermo          ${thermo_freq}
thermo          100
thermo_modify   flush yes
dump            1 all custom ${dump_freq} dump.lammpstraj id type x y z
dump            1 all custom 100 dump.lammpstraj id type x y z
run             500000
Generated 0 of 6 mixed pair_coeff terms from geometric mixing rule
Per MPI rank memory allocation (min/avg/max) = 4.341 | 4.341 | 4.341 Mbytes
   Step          Time           Temp          KinEng         TotEng         Press     
         0   0              411.0055       47.76084       286.46005      15675.897    
       100   0.2            396.56716      46.083036      285.63029      14824.386    
       200   0.4            395.95677      46.012105      283.56243      14442.858    
       300   0.6            390.10398      45.331983      281.30219      12829.275    
       400   0.8            392.07682      45.561236      282.72529      14971.004    
       500   1              416.07301      48.34971       285.80133      15280.391    
       600   1.2            405.45057      47.115331      286.29615      15340.923    
       700   1.4            400.47675      46.537349      286.6473       15788.101    
       800   1.6            386.80714      44.948874      285.78643      15597.763    
       900   1.8            390.37489      45.363463      284.00568      15507.124    
      1000   2              393.04181      45.673372      282.58482      15703.241    
      1100   2.2            389.45425      45.25648       284.6242       15509.017    
      1200   2.4            410.94394      47.753687      287.43999      14517.736    
      1300   2.6            416.96879      48.453804      287.46493      15434.566    
      1400   2.8            400.31018      46.517992      285.56343      15329.036    
      1500   3              391.12374      45.450484      283.87049      14958.639    
      1600   3.2            391.16845      45.455679      283.77203      15231.75     
      1700   3.4            433.50092      50.374918      287.33976      16231.986    
      1800   3.6            418.09939      48.585185      288.80176      14300.856    
      1900   3.8            410.65146      47.7197        286.89199      15793.25     
      2000   4              383.94853      44.61669       284.66734      15956.655    
      2100   4.2            389.79762      45.296382      284.0373       13290.295    
      2200   4.4            404.56992      47.012995      285.09407      15523.943    
      2300   4.6            404.50731      47.00572       287.76012      15996.543    
      2400   4.8            423.38087      49.198919      289.76656      14316.156    
      2500   5              407.09206      47.30608       287.95011      15593.44     
      2600   5.2            395.56052      45.966058      286.44557      15424.894    
      2700   5.4            402.34372      46.7543        285.48435      15079.416    
      2800   5.6            384.8808       44.725023      284.1993       15105.326    
      2900   5.8            392.53194      45.614123      283.03963      14368.896    
      3000   6              400.83956      46.579509      282.88505      15575.412    
      3100   6.2            380.37605      44.201549      285.17462      14971.696    
      3200   6.4            387.88535      45.074167      287.26484      16855.772    
      3300   6.6            405.86172      47.163109      287.02374      13997.536    
      3400   6.8            394.40473      45.831751      284.8327       16752.168    
      3500   7              386.00705      44.8559        282.69416      13679.038    
      3600   7.2            389.39304      45.249367      283.27667      16160.051    
      3700   7.4            411.82396      47.855949      284.5519       15921.011    
      3800   7.6            397.0557       46.139806      285.31574      15954.195    
      3900   7.8            406.90478      47.284317      285.88243      15894.765    
      4000   8              415.8547       48.324342      286.96466      14597.768    
      4100   8.2            417.11752      48.471088      289.44586      16477.595    
      4200   8.4            409.26473      47.558555      288.79839      16210.736    
      4300   8.6            400.56621      46.547745      285.53884      16013.002    
      4400   8.8            394.9745       45.89796       284.38513      15453.852    
      4500   9              392.5669       45.618186      284.3578       16878.481    
      4600   9.2            407.38995      47.340696      285.82861      15546.224    
      4700   9.4            410.47214      47.698861      288.17392      14923.584    
      4800   9.6            419.32871      48.728039      288.55548      17475.564    
      4900   9.8            404.7487       47.03377       284.62953      14947.35     
      5000   10             386.94732      44.965163      283.14841      16442.719    
      5100   10.2           400.52034      46.542414      283.9598       16575.278    
      5200   10.4           415.19233      48.247371      286.29425      13437.777    
      5300   10.6           404.28619      46.980025      287.28996      16219.658    
      5400   10.8           412.50058      47.934576      286.16198      15114.672    
      5500   11             402.65412      46.79037       282.24905      16463.501    
      5600   11.2           380.83095      44.254412      281.91556      15810.131    
      5700   11.4           393.62889      45.741595      284.31966      15360.832    
      5800   11.6           393.65071      45.74413       286.20234      17925.677    
      5900   11.8           409.69255      47.60827       286.8333       13918.543    
      6000   12             420.03351      48.80994       285.65547      16161.387    
      6100   12.2           393.73413      45.753823      282.78819      14545.531    
      6200   12.4           393.8809       45.770878      282.91941      15420.282    
      6300   12.6           405.25073      47.092108      284.07854      14994.756    
      6400   12.8           386.66082      44.93187       284.81419      15169.434    
      6500   13             393.51553      45.728421      285.88323      14619.144    
      6600   13.2           412.28804      47.909878      286.09056      16049.99     
      6700   13.4           390.24155      45.347969      283.96316      16730.936    
      6800   13.6           383.09425      44.517418      281.91126      14850.952    
      6900   13.8           398.87484      46.351199      282.93276      16719.146    
      7000   14             402.53418      46.776432      285.71518      15825.143    
      7100   14.2           402.97091      46.827182      286.39475      14143.332    
      7200   14.4           399.02484      46.36863       285.97495      15445.471    
      7300   14.6           398.27897      46.281956      284.36082      15520.042    
      7400   14.8           388.07098      45.095738      282.11378      15021.345    
      7500   15             389.1414       45.220126      281.49025      15140.182    
      7600   15.2           402.71358      46.79728       284.86209      14684.979    
      7700   15.4           425.12947      49.402114      287.23641      16681.053    
      7800   15.6           412.24544      47.904928      287.24116      14382.401    
      7900   15.8           414.89405      48.212709      285.28244      14797.37     
      8000   16             390.67845      45.398738      283.25791      16838.575    
      8100   16.2           386.99765      44.971012      283.86233      13352.856    
      8200   16.4           397.94838      46.24354       285.35574      15089.528    
      8300   16.6           409.21922      47.553267      286.11263      14163.589    
      8400   16.8           408.60844      47.482291      286.02492      14422.973    
      8500   17             382.27342      44.422034      284.80967      15893.534    
      8600   17.2           377.66903      43.886981      282.74142      12836.619    
      8700   17.4           396.5576       46.081924      282.24894      14218.319    
      8800   17.6           407.15916      47.313878      285.11844      15276.236    
      8900   17.8           393.68185      45.747748      287.13804      13455.339    
      9000   18             409.47075      47.582495      287.32271      14209.567    
      9100   18.2           393.17217      45.68852       285.08651      16343.192    
      9200   18.4           391.79519      45.52851       283.08127      14677.359    
      9300   18.6           380.61805      44.229672      283.49524      15538.132    
      9400   18.8           393.14904      45.685833      284.63854      15765.255    
      9500   19             401.54319      46.661275      285.82157      15313.346    
      9600   19.2           389.76834      45.29298       286.56281      16858.167    
      9700   19.4           411.12103      47.774266      287.03745      15303.879    
      9800   19.6           404.16963      46.96648       284.87038      14727.23     
      9900   19.8           378.74534      44.012053      282.75735      17448.134    
     10000   20             397.70744      46.215542      284.33049      14771.921    
     10100   20.2           404.13609      46.962583      286.55529      15548.738    
     10200   20.4           412.58592      47.944493      287.14452      16333.464    
     10300   20.6           416.58378      48.409064      286.3588       15483.915    
     10400   20.8           383.1907       44.528625      282.99586      14932.051    
     10500   21             389.02606      45.206722      281.91104      15702.975    
     10600   21.2           381.49376      44.331433      283.73928      14482.004    
     10700   21.4           396.92683      46.124831      285.73547      14732.472    
     10800   21.6           391.7429       45.522433      286.57501      16947.243    
     10900   21.8           397.16738      46.152784      286.67236      16014.323    
     11000   22             401.08386      46.607898      285.52116      14676.606    
     11100   22.2           396.26925      46.048417      282.55666      17237.443    
     11200   22.4           383.60304      44.576542      282.04152      15361.264    
     11300   22.6           395.37335      45.944309      284.92553      16103.837    
     11400   22.8           401.96329      46.710092      286.29348      15364.73     
     11500   23             403.20344      46.854203      286.56476      15410.721    
     11600   23.2           406.20044      47.20247       286.40198      14711.44     
     11700   23.4           379.68634      44.121402      284.14896      16001.566    
     11800   23.6           399.35359      46.406832      282.45439      15699.131    
     11900   23.8           402.63513      46.788163      283.64855      13942.477    
     12000   24             400.965        46.594086      286.44295      16759.884    
     12100   24.2           427.71511      49.702579      286.82019      14016.323    
     12200   24.4           395.73386      45.986202      286.05146      15336.837    
     12300   24.6           396.01023      46.018317      284.50687      16015.91     
     12400   24.8           390.48211      45.375922      282.99231      14927.312    
     12500   25             408.98471      47.526015      284.27788      15156.778    
     12600   25.2           405.02856      47.066292      287.66         14710.616    
     12700   25.4           401.03231      46.601907      287.70374      15696.404    
     12800   25.6           411.29274      47.79422       285.99087      14023.01     
     12900   25.8           383.017        44.50844       283.51678      17285.248    
     13000   26             412.87517      47.978106      284.07386      15658.799    
     13100   26.2           404.61385      47.018099      285.28811      15155.377    
     13200   26.4           416.54672      48.404758      287.06928      15711.162    
     13300   26.6           406.05477      47.185542      286.93193      14035.088    
     13400   26.8           422.98878      49.153357      286.35765      17126.782    
     13500   27             388.36383      45.129769      286.00438      13820.788    
     13600   27.2           410.90563      47.749235      286.04731      17006.777    
     13700   27.4           423.96591      49.266903      286.57832      16487.972    
     13800   27.6           400.19461      46.504563      287.28565      16073.945    
     13900   27.8           419.86083      48.789874      287.6714       15722.754    
     14000   28             393.08962      45.678929      286.69015      14706.552    
     14100   28.2           392.24898      45.581242      284.45468      15253.438    
     14200   28.4           382.36965      44.433215      283.64942      16368.6      
     14300   28.6           392.67         45.630166      285.85582      14026.475    
     14400   28.8           407.6313       47.368743      288.4164       14502.286    
     14500   29             405.38028      47.107163      287.96481      15268.351    
     14600   29.2           402.72285      46.798357      286.71131      13948.103    
     14700   29.4           394.51002      45.843986      285.36349      15771.996    
     14800   29.6           386.83386      44.951978      284.51548      16925.898    
     14900   29.8           402.23731      46.741934      283.68616      14084.248    
     15000   30             392.86007      45.652254      284.12519      14767.352    
     15100   30.2           408.65067      47.487198      286.67284      15183.055    
     15200   30.4           405.85897      47.162789      287.65483      15801.496    
     15300   30.6           387.69957      45.052579      287.17557      16542.542    
     15400   30.8           399.41178      46.413594      284.51454      15937.422    
     15500   31             378.56945      43.991614      282.6275       14616.671    
     15600   31.2           393.20722      45.692594      284.30221      15316.466    
     15700   31.4           391.68822      45.516079      285.99785      14645.513    
     15800   31.6           408.24603      47.440177      286.5078       15980.02     
     15900   31.8           407.30779      47.331149      286.34524      16567.683    
     16000   32             385.7468       44.825656      284.02347      14838.059    
     16100   32.2           389.78196      45.294563      281.86354      16265.107    
     16200   32.4           381.15125      44.291632      283.1754       15651.087    
     16300   32.6           392.44413      45.603919      285.60602      14394.548    
     16400   32.8           399.08591      46.375726      286.21708      16102.191    
     16500   33             390.47845      45.375498      286.45987      15724.024    
     16600   33.2           406.59596      47.24843       286.69832      14790.211    
     16700   33.4           389.56314      45.269134      285.51424      14505.922    
     16800   33.6           390.63996      45.394265      283.30161      14545.72     
     16900   33.8           394.08983      45.795158      283.17233      13606.478    
     17000   34             397.2457       46.161886      286.47625      15651.274    
     17100   34.2           393.91265      45.774568      287.36124      14989.364    
     17200   34.4           406.90957      47.284873      286.22441      16141.489    
     17300   34.6           395.71101      45.983546      284.7186       15812.698    
     17400   34.8           397.24446      46.161741      284.22496      15466.19     
     17500   35             391.87765      45.538091      285.992        14565.678    
     17600   35.2           409.88798      47.630979      288.39612      15786.319    
     17700   35.4           411.43117      47.810305      288.3927       15012.103    
     17800   35.6           399.90311      46.470689      285.75811      14428.138    
     17900   35.8           382.03744      44.394611      284.27592      15129.286    
     18000   36             395.28767      45.934352      284.82557      15095.003    
     18100   36.2           396.38864      46.06229       286.00353      15521.935    
     18200   36.4           400.69557      46.562777      287.23482      15597.327    
     18300   36.6           399.21325      46.390525      289.10533      15000.753    
     18400   36.8           437.48657      50.838071      289.61126      15021.196    
     18500   37             386.62267      44.927437      286.3691       15100.672    
     18600   37.2           404.18621      46.968406      285.21621      15138.09     
     18700   37.4           381.87258      44.375454      284.8591       15461.866    
     18800   37.6           407.28359      47.328336      286.10885      16686.025    
     18900   37.8           425.10921      49.399761      288.80839      15881.776    
     19000   38             422.42897      49.088303      288.94856      15289.43     
     19100   38.2           406.84579      47.277463      285.28565      14962.06     
     19200   38.4           374.63297      43.534175      284.72177      15000.538    
     19300   38.6           399.01462      46.367442      286.00779      15194.305    
     19400   38.8           401.64948      46.673625      288.11632      15730.621    
     19500   39             414.82254      48.204399      288.72388      14711.521    
     19600   39.2           384.5772       44.689744      286.08614      16100.005    
     19700   39.4           393.95611      45.779618      284.06991      16022.71     
     19800   39.6           402.96502      46.826498      284.80108      14223.315    
     19900   39.8           410.49661      47.701706      286.23709      15548.305    
     20000   40             410.23588      47.671408      287.89714      16415.826    
     20100   40.2           411.37424      47.80369       288.68901      14144.293    
     20200   40.4           394.83106      45.881292      287.47156      17052.963    
     20300   40.6           386.95126      44.965621      284.65022      14626.861    
     20400   40.8           397.35195      46.174232      283.99952      15799.054    
     20500   41             401.47616      46.653486      285.37702      15402.551    
     20600   41.2           400.77984      46.57257       287.79135      16141.537    
     20700   41.4           420.01772      48.808104      288.92255      16227.635    
     20800   41.6           404.76409      47.035559      286.04381      15804.727    
     20900   41.8           385.03419      44.742848      283.29856      15300.816    
     21000   42             401.68955      46.678282      284.1737       15968.143    
     21100   42.2           384.27975      44.655179      286.13829      15049.877    
     21200   42.4           408.79513      47.503985      287.50567      14349.294    
     21300   42.6           421.0365       48.926492      287.23312      16869.434    
     21400   42.8           390.09892      45.331394      283.59143      13851.224    
     21500   43             394.14282      45.801315      283.07011      16547.504    
     21600   43.2           393.34283      45.708353      284.70143      14273.216    
     21700   43.4           399.32278      46.403251      286.41171      14151.129    
     21800   43.6           409.44764      47.579811      287.07051      16601.888    
     21900   43.8           405.591        47.131649      287.00274      15840.707    
     22000   44             408.29867      47.446294      286.60027      14919.853    
     22100   44.2           406.05412      47.185466      286.23339      16391.225    
     22200   44.4           396.12333      46.03146       285.98197      16544.101    
     22300   44.6           390.28953      45.353544      284.81667      14707.235    
     22400   44.8           388.28868      45.121036      283.46862      15553.759    
     22500   45             388.2851       45.12062       284.11149      13218.874    
     22600   45.2           414.39213      48.154384      286.71782      15363.988    
     22700   45.4           418.30012      48.608511      287.36934      16158.427    
     22800   45.6           408.17246      47.431628      286.00495      13605.562    
     22900   45.8           388.80491      45.181025      282.71004      14969.659    
     23000   46             391.92903      45.544062      282.36417      15283.645    
     23100   46.2           392.5144       45.612085      283.90728      15107.289    
     23200   46.4           407.03201      47.299102      286.0394       16224.547    
     23300   46.6           400.6676       46.559526      287.28612      15941.533    
     23400   46.8           423.62348      49.227111      286.81008      14801.7      
     23500   47             393.12107      45.682583      284.20677      14890.449    
     23600   47.2           389.52182      45.264333      281.70122      14655.388    
     23700   47.4           397.6744       46.211702      282.56888      14415.208    
     23800   47.6           388.37044      45.130537      284.37033      14964.847    
     23900   47.8           394.58887      45.853149      285.92864      16548.729    
     24000   48             415.41524      48.273274      286.49449      14295.927    
     24100   48.2           412.01589      47.878253      286.22911      17318.956    
     24200   48.4           395.07875      45.910075      284.07678      15726.011    
     24300   48.6           375.00774      43.577725      282.54077      16367.545    
     24400   48.8           401.36977      46.641122      283.45762      17414.888    
     24500   49             405.87594      47.164761      286.37302      16928.574    
     24600   49.2           409.39916      47.574176      286.81036      15133.009    
     24700   49.4           422.84022      49.136093      286.10384      14815.755    
     24800   49.6           402.07965      46.723613      284.48644      16361.659    
     24900   49.8           394.05104      45.79065       283.68372      14847.495    
     25000   50             400.30729      46.517657      286.39413      16628.952    
     25100   50.2           415.24272      48.253226      288.94444      15646.132    
     25200   50.4           406.54981      47.243067      287.64116      16378.674    
     25300   50.6           409.97962      47.641629      285.05384      16729.01     
     25400   50.8           398.71011      46.332057      283.83207      14849.169    
     25500   51             388.94043      45.196772      284.27931      15198.56     
     25600   51.2           408.80128      47.5047        286.72751      15388.16     
     25700   51.4           413.0349       47.996667      288.9159       16090.965    
     25800   51.6           410.35854      47.685661      287.41856      15371.267    
     25900   51.8           407.42208      47.34443       285.52485      14698.845    
     26000   52             396.81762      46.11214       284.67977      13917.034    
     26100   52.2           401.64218      46.672778      284.40539      13109.611    
     26200   52.4           396.96405      46.129156      286.80912      16340.38     
     26300   52.6           427.24158      49.647552      289.54351      15505.054    
     26400   52.8           416.56512      48.406896      287.97419      14467.797    
     26500   53             401.38676      46.643096      285.88362      13479.975    
     26600   53.2           385.50071      44.79706       285.18451      14166.201    
     26700   53.4           391.90249      45.540978      285.23302      15437.758    
     26800   53.6           392.54441      45.615572      286.81891      14803.017    
     26900   53.8           410.17406      47.664224      289.50077      14694.9      
     27000   54             423.43002      49.204631      288.69518      14312.829    
     27100   54.2           401.50141      46.656419      285.94861      15781.399    
     27200   54.4           394.09715      45.796009      284.84162      16252.449    
     27300   54.6           391.35505      45.477363      284.27196      14218.431    
     27400   54.8           383.1884       44.528358      284.36947      15713.88     
     27500   55             414.44485      48.16051       286.01404      14927.557    
     27600   55.2           422.0293       49.04186       288.16854      15636.884    
     27700   55.4           407.46668      47.349613      287.56285      15362.979    
     27800   55.6           402.22785      46.740835      284.63728      15172.691    
     27900   55.8           373.04564      43.34972       284.04337      15019.221    
     28000   56             403.32073      46.867833      285.06043      16578.287    
     28100   56.2           407.55367      47.359722      286.17435      16965.819    
     28200   56.4           434.27901      50.465336      287.5764       15895.894    
     28300   56.6           401.32923      46.636412      289.4845       16080.751    
     28400   56.8           421.51089      48.981619      288.69459      17017.167    
     28500   57             392.54299      45.615407      285.54399      16008.637    
     28600   57.2           388.09289      45.098284      284.48385      15484.849    
     28700   57.4           411.6051       47.830518      285.00514      16612.389    
     28800   57.6           396.46878      46.071603      286.4201       13772.666    
     28900   57.8           409.81044      47.621969      288.87028      18342.742    
     29000   58             409.46906      47.5823        288.72545      15673.983    
     29100   58.2           392.05624      45.558845      285.10338      14564.192    
     29200   58.4           406.40468      47.226203      284.33733      16409.745    
     29300   58.6           416.58723      48.409465      284.92752      14681.156    
     29400   58.8           397.30971      46.169323      286.02106      14545.269    
     29500   59             414.22509      48.134973      288.51559      15714.596    
     29600   59.2           401.78852      46.689782      288.90783      15916.207    
     29700   59.4           396.15578      46.035231      285.2374       14651.966    
     29800   59.6           391.25261      45.465458      283.78665      15942.023    
     29900   59.8           399.9456       46.475626      284.66297      14800.647    
     30000   60             394.41935      45.83345       286.38212      15525.366    
     30100   60.2           415.94501      48.334836      288.211        16597.694    
     30200   60.4           412.52153      47.937011      287.02809      16146.85     
     30300   60.6           408.50661      47.470457      283.32468      14683.283    
     30400   60.8           378.78385      44.016528      283.27126      15916.502    
     30500   61             395.24346      45.929215      285.21214      15089.49     
     30600   61.2           399.91953      46.472597      286.83771      16262.157    
     30700   61.4           407.54606      47.358837      287.56155      15325.837    
     30800   61.6           408.30505      47.447035      284.64175      15252.894    
     30900   61.8           385.53814      44.801409      282.30066      16463.686    
     31000   62             404.83752      47.044092      283.76063      15301.146    
     31100   62.2           407.15069      47.312894      286.16116      15648.761    
     31200   62.4           400.10992      46.494721      287.09102      16607.643    
     31300   62.6           402.74174      46.800552      286.6755       16416.731    
     31400   62.8           391.14323      45.452748      284.02979      15159.446    
     31500   63             381.82124      44.369487      282.09603      17449.144    
     31600   63.2           387.61019      45.042192      283.09929      15186.564    
     31700   63.4           401.84866      46.696771      284.75786      15528.584    
     31800   63.6           399.48362      46.421943      285.74287      15718.412    
     31900   63.8           399.47956      46.421471      286.64898      15642.894    
     32000   64             398.96806      46.362032      286.73993      15793.993    
     32100   64.2           407.51686      47.355444      284.8932       17535.037    
     32200   64.4           386.1956       44.877809      283.2043       15686.501    
     32300   64.6           383.71412      44.589449      283.86721      15693.003    
     32400   64.8           411.43867      47.811178      286.51356      15647.009    
     32500   65             394.73718      45.870382      287.75476      15269.145    
     32600   65.2           399.32508      46.403519      287.61696      14730.239    
     32700   65.4           407.91977      47.402264      286.59883      15806.415    
     32800   65.6           383.74645      44.593206      282.88811      14477.347    
     32900   65.8           380.73672      44.243461      282.71988      16517.265    
     33000   66             393.23321      45.695614      284.64361      14480.211    
     33100   66.2           394.30809      45.820521      286.11071      15188.644    
     33200   66.4           416.59829      48.41075       286.72515      16023.19     
     33300   66.6           413.39988      48.039079      286.32097      15583.525    
     33400   66.8           394.38244      45.82916       283.33891      15604.893    
     33500   67             386.25992      44.885284      282.16686      14796.342    
     33600   67.2           392.88268      45.654881      284.21344      13843.289    
     33700   67.4           407.20154      47.318802      285.90237      14977.292    
     33800   67.6           396.13334      46.032623      285.91678      16470.365    
     33900   67.8           392.36467      45.594686      285.40142      15392.482    
     34000   68             387.06535      44.978879      283.68513      15646.312    
     34100   68.2           391.16184      45.454911      281.4999       16059.481    
     34200   68.4           395.72389      45.985043      282.65222      15908.171    
     34300   68.6           394.27304      45.816448      285.93499      16015.733    
     34400   68.8           395.85282      46.000025      286.21522      16473.063    
     34500   69             405.66022      47.139693      284.98586      16179.048    
     34600   69.2           376.03194      43.696743      283.55878      16152.621    
     34700   69.4           386.1736       44.875253      282.23272      14193.669    
     34800   69.6           383.6217       44.57871       282.1803       16076.337    
     34900   69.8           400.49178      46.539095      285.22082      14397.753    
     35000   70             402.32626      46.752271      286.49083      15916.257    
     35100   70.2           410.25978      47.674185      285.89394      15405.962    
     35200   70.4           408.56135      47.476819      283.9037       13642.153    
     35300   70.6           389.95391      45.314544      281.62666      16033.068    
     35400   70.8           408.9739       47.524758      283.30673      15049.273    
     35500   71             409.22221      47.553613      285.91181      13451.146    
     35600   71.2           401.42864      46.647963      285.96677      14574.544    
     35700   71.4           390.98473      45.43433       285.64552      15840.679    
     35800   71.6           401.06635      46.605863      285.94197      15959.415    
     35900   71.8           406.79512      47.271575      285.96952      14683.255    
     36000   72             401.73051      46.683042      285.17065      14062.156    
     36100   72.2           383.98456      44.620876      283.34107      17155.983    
     36200   72.4           382.5076       44.449246      282.99866      15720.345    
     36300   72.6           409.5213       47.58837       285.69578      13892.976    
     36400   72.8           413.64576      48.067652      287.60778      16166.173    
     36500   73             401.32134      46.635494      286.84179      14838.989    
     36600   73.2           397.73102      46.218282      285.42448      15005.884    
     36700   73.4           402.68872      46.794391      284.50628      15633.264    
     36800   73.6           404.77275      47.036564      284.93187      17138.14     
     36900   73.8           418.74611      48.660337      288.11048      15973.719    
     37000   74             416.00228      48.341491      288.08829      17227.413    
     37100   74.2           404.59702      47.016145      285.66735      14665.879    
     37200   74.4           398.21052      46.274002      283.9644       15403.822    
     37300   74.6           391.99378      45.551586      283.92862      14159.312    
     37400   74.8           399.52636      46.426909      285.91139      14057.413    
     37500   75             401.7714       46.687793      288.93578      15789.657    
     37600   75.2           414.86691      48.209555      288.03661      15047.425    
     37700   75.4           402.87292      46.815796      286.41721      16677.997    
     37800   75.6           398.53236      46.311401      285.24343      15476.584    
     37900   75.8           392.75527      45.640075      284.67951      16442.53     
     38000   76             394.03518      45.788807      284.75762      14331.715    
     38100   76.2           400.77025      46.571455      286.00264      14711.732    
     38200   76.4           408.94497      47.521398      287.67505      15494.014    
     38300   76.6           407.953        47.406126      287.49617      15126.64     
     38400   76.8           390.17106      45.339777      285.3697       15223.263    
     38500   77             384.7605       44.711044      283.76544      16516.116    
     38600   77.2           380.82859      44.254137      284.62746      16433.156    
     38700   77.4           401.8182       46.693232      288.65952      16068.821    
     38800   77.6           415.48322      48.281174      288.32807      15759.133    
     38900   77.8           419.60111      48.759693      286.15117      14762.482    
     39000   78             404.12895      46.961752      284.7921       15247.774    
     39100   78.2           396.63255      46.090634      284.75431      15146.748    
     39200   78.4           413.40679      48.039883      287.30992      16487.387    
     39300   78.6           413.51811      48.052819      289.55851      16054.091    
     39400   78.8           419.91996      48.796744      288.34496      15660.086    
     39500   79             412.02437      47.879239      286.60846      14583.196    
     39600   79.2           401.35982      46.639966      286.21198      16371.618    
     39700   79.4           407.92879      47.403312      285.83815      15156.142    
     39800   79.6           396.66498      46.094402      285.53064      15745.111    
     39900   79.8           403.02212      46.833133      285.67742      15983.963    
     40000   80             384.94851      44.732892      285.97859      14437.602    
     40100   80.2           392.00732      45.55316       285.64624      15877.144    
     40200   80.4           401.23243      46.625162      284.81585      15295.219    
     40300   80.6           395.80156      45.994069      283.91741      15308.062    
     40400   80.8           387.5685       45.037347      283.52977      14507.082    
     40500   81             400.55119      46.546         284.7283       14675.643    
     40600   81.2           393.32956      45.70681       287.26107      15317.657    
     40700   81.4           414.50299      48.167266      288.0326       14627.349    
     40800   81.6           400.7491       46.568997      286.18597      14226.389    
     40900   81.8           383.42288      44.555605      283.78758      14227.757    
     41000   82             382.35198      44.431162      283.50332      14812.277    
     41100   82.2           387.02211      44.973854      284.13765      13803.528    
     41200   82.4           386.2216       44.880831      285.59944      14591.681    
     41300   82.6           408.64453      47.486485      287.19483      14329.543    
     41400   82.8           408.07178      47.419928      287.29406      15437.044    
     41500   83             393.52915      45.730003      284.41189      14201.993    
     41600   83.2           385.10279      44.75082       282.68573      14671.054    
     41700   83.4           403.66036      46.9073        284.00403      13553.224    
     41800   83.6           403.1008       46.842276      285.54167      14616.131    
     41900   83.8           396.07612      46.025974      285.80015      13722.191    
     42000   84             398.60306      46.319617      285.5897       16057.601    
     42100   84.2           404.61356      47.018066      285.22226      15100.222    
     42200   84.4           382.07784      44.399306      283.97777      16479.219    
     42300   84.6           378.79473      44.017793      281.48255      15798.074    
     42400   84.8           379.77465      44.131664      282.11725      15691.447    
     42500   85             395.22652      45.927247      285.15648      15858.568    
     42600   85.2           408.59801      47.481078      286.0225       14642.692    
     42700   85.4           388.71493      45.170568      285.6611       15872.82     
     42800   85.6           391.96124      45.547805      285.194        15085.204    
     42900   85.8           407.91337      47.40152       284.28023      15743.282    
     43000   86             390.47919      45.375584      283.02291      14507.81     
     43100   86.2           401.68525      46.677783      283.53654      15836.101    
     43200   86.4           406.90836      47.284733      286.43858      14965.506    
     43300   86.6           418.32797      48.611748      287.54544      16225.902    
     43400   86.8           399.52534      46.42679       286.42703      16407.357    
     43500   87             388.42402      45.136763      285.09202      15508.548    
     43600   87.2           406.23935      47.206992      284.93562      15860.093    
     43700   87.4           400.55356      46.546274      284.89067      15508.773    
     43800   87.6           407.87177      47.396686      285.25121      15152.107    
     43900   87.8           390.37357      45.36331       285.46274      16192.022    
     44000   88             416.77185      48.430918      287.27204      14439.661    
     44100   88.2           409.07226      47.536189      288.79166      16029.121    
     44200   88.4           393.24587      45.697086      288.95275      16769.877    
     44300   88.6           394.75978      45.873009      285.65897      14092.131    
     44400   88.8           398.80663      46.343272      284.4154       16671.576    
     44500   89             410.00258      47.644297      284.69712      13820.557    
     44600   89.2           393.60058      45.738304      286.54667      15445.409    
     44700   89.4           429.51491      49.911724      289.09954      15849.855    
     44800   89.6           402.91077      46.820193      288.03572      13508.278    
     44900   89.8           409.29048      47.561547      286.73212      14060.331    
     45000   90             396.17721      46.037721      285.81017      14949.589    
     45100   90.2           396.23334      46.044243      284.48407      15025.681    
     45200   90.4           381.66783      44.351661      283.45149      13878.314    
     45300   90.6           395.44137      45.952213      284.89295      15156.459    
     45400   90.8           420.45005      48.858343      287.86628      15055.64     
     45500   91             402.41         46.762002      287.79214      17661.437    
     45600   91.2           396.92693      46.124842      285.48231      14234.433    
     45700   91.4           386.25188      44.884349      283.97671      15099.765    
     45800   91.6           392.41948      45.601055      284.32827      14480.194    
     45900   91.8           401.98602      46.712733      285.20065      16113.778    
     46000   92             396.83916      46.114643      286.15556      14681.506    
     46100   92.2           403.10681      46.842975      286.21704      15559.536    
     46200   92.4           391.69634      45.517022      285.43327      14596.483    
     46300   92.6           403.42783      46.880279      284.04477      16924.322    
     46400   92.8           397.66255      46.210325      283.69812      15459.057    
     46500   93             397.51363      46.19302       285.36391      14605.853    
     46600   93.2           407.2575       47.325305      287.73132      15630.234    
     46700   93.4           405.9063       47.168289      287.80619      13605.852    
     46800   93.6           401.37707      46.64197       286.15953      16097.449    
     46900   93.8           380.85509      44.257216      283.72157      17359.823    
     47000   94             387.00499      44.971865      284.06908      14704.528    
     47100   94.2           391.65358      45.512054      285.13622      16441.56     
     47200   94.4           391.11302      45.449238      286.67383      15348.317    
     47300   94.6           416.43894      48.392234      288.18155      14971.804    
     47400   94.8           417.86285      48.557699      288.63519      15828.15     
     47500   95             403.83729      46.92786       285.33183      14234.717    
     47600   95.2           398.84368      46.347579      284.03351      14895.298    
     47700   95.4           400.23697      46.509485      284.79443      15208.125    
     47800   95.6           409.73365      47.613045      287.18184      14683.47     
     47900   95.8           418.30076      48.608586      288.84527      16580.461    
     48000   96             404.36775      46.989502      288.01136      14485.631    
     48100   96.2           401.85209      46.69717       287.20196      14664.649    
     48200   96.4           400.04569      46.487258      285.61255      14809.931    
     48300   96.6           393.06426      45.675981      284.234        15632.243    
     48400   96.8           399.5548       46.430214      283.44087      13289.197    
     48500   97             388.12147      45.101605      284.82204      16462.646    
     48600   97.2           420.03585      48.810211      287.28822      14826.307    
     48700   97.4           403.26654      46.861536      287.43708      17011.11     
     48800   97.6           401.60944      46.668973      285.79178      14180.661    
     48900   97.8           395.66827      45.97858       283.11984      15131.809    
     49000   98             390.71688      45.403205      282.9602       15229.879    
     49100   98.2           386.23741      44.882668      284.36011      15025.28     
     49200   98.4           392.34829      45.592783      285.17959      14413.828    
     49300   98.6           384.66586      44.700046      285.82493      15579.049    
     49400   98.8           404.22367      46.972759      287.22205      15731.886    
     49500   99             421.38921      48.967479      288.47772      14802.319    
     49600   99.2           420.69451      48.886751      289.25624      15733.633    
     49700   99.4           414.37299      48.15216       287.22067      15007.098    
     49800   99.6           396.247        46.045832      284.82246      16701.566    
     49900   99.8           386.42026      44.903916      284.02533      15507.039    
     50000   100            397.9349       46.241974      284.30077      15977.362    
     50100   100.2          400.74489      46.568507      286.84408      15628.237    
     50200   100.4          401.45978      46.651581      288.46553      15010.026    
     50300   100.6          410.62241      47.716324      287.19082      13967.58     
     50400   100.8          386.15338      44.872903      284.27865      15179.099    
     50500   101            389.92082      45.310699      284.03065      14823.644    
     50600   101.2          392.29313      45.586373      285.16016      16238.474    
     50700   101.4          407.27571      47.327421      287.19645      14571.924    
     50800   101.6          408.30015      47.446465      286.9973       16585.759    
     50900   101.8          407.98616      47.409979      283.97388      14279.158    
     51000   102            379.97493      44.154937      281.76994      16159.785    
     51100   102.2          387.34932      45.011878      283.26092      14330.261    
     51200   102.4          407.02062      47.297779      285.5625       15131.561    
     51300   102.6          409.08911      47.538147      286.78052      14372.303    
     51400   102.8          396.22328      46.043075      286.57678      13570.557    
     51500   103            386.25092      44.884238      284.1801       15038.113    
     51600   103.2          380.44184      44.209195      281.77742      12763.338    
     51700   103.4          390.46468      45.373897      283.11633      14088.72     
     51800   103.6          382.21131      44.414815      284.93525      15324.625    
     51900   103.8          396.04714      46.022607      285.91973      13030.098    
     52000   104            409.7503       47.614981      286.03744      16370.772    
     52100   104.2          390.76042      45.408264      285.88519      14345.582    
     52200   104.4          396.86683      46.117858      284.24053      15786.257    
     52300   104.6          391.00227      45.436368      282.67113      15137.586    
     52400   104.8          392.08232      45.561875      283.61978      14895.793    
     52500   105            397.34749      46.173714      286.34989      15065.612    
     52600   105.2          408.31569      47.448272      286.70446      15397.917    
     52700   105.4          406.13269      47.194596      285.67614      14619.469    
     52800   105.6          396.33346      46.055878      284.62954      15266.543    
     52900   105.8          390.64025      45.394299      284.23146      15605.214    
     53000   106            394.28619      45.817976      286.2896       17822.096    
     53100   106.2          400.17288      46.502038      287.86747      16306.893    
     53200   106.4          408.95299      47.522329      286.94291      17501.668    
     53300   106.6          393.5304       45.730149      284.6669       14682.15     
     53400   106.8          398.07114      46.257806      283.19565      14249.606    
     53500   107            401.16115      46.61688       283.51494      14460.201    
     53600   107.2          416.67466      48.419625      287.45721      16109.899    
     53700   107.4          431.73802      50.170061      288.29833      14188.888    
     53800   107.6          394.66651      45.862171      285.98011      15239.874    
     53900   107.8          396.12548      46.03171       284.27574      14541.411    
     54000   108            390.56131      45.385126      284.07896      13464.111    
     54100   108.2          393.97196      45.781461      285.19182      16231.894    
     54200   108.4          405.14575      47.079909      288.26836      15987.507    
     54300   108.6          423.49348      49.212005      288.27802      14198.175    
     54400   108.8          387.60626      45.041735      285.62641      16074.83     
     54500   109            399.95552      46.476779      284.97757      15907.869    
     54600   109.2          398.754        46.337157      284.5602       14874.586    
     54700   109.4          396.13837      46.033208      284.44507      15114.754    
     54800   109.6          397.30474      46.168746      284.97866      17131.87     
     54900   109.8          406.18617      47.200811      287.00559      15070.503    
     55000   110            414.48589      48.165279      288.22279      17455.099    
     55100   110.2          400.7569       46.569904      287.14468      14207.043    
     55200   110.4          392.77411      45.642265      283.88099      15996.6      
     55300   110.6          408.64084      47.486056      283.65785      13612.238    
     55400   110.8          400.39638      46.52801       284.86004      15141.386    
     55500   111            392.53732      45.614748      286.36308      16064.237    
     55600   111.2          411.26777      47.791317      289.20922      15601.556    
     55700   111.4          420.4592       48.859407      290.95835      16079.25     
     55800   111.6          403.70157      46.912089      286.71838      15860.094    
     55900   111.8          400.00719      46.482784      285.27756      15905.4      
     56000   112            400.41608      46.530298      284.47957      13847.539    
     56100   112.2          397.54307      46.19644       284.56313      16017.637    
     56200   112.4          400.57587      46.548867      285.15765      16334.328    
     56300   112.6          409.11062      47.540647      286.96645      15382.391    
     56400   112.8          404.65283      47.02263       288.33143      14889.575    
     56500   113            399.11158      46.378709      286.35391      15520.961    
     56600   113.2          392.23634      45.579773      283.38751      13822.285    
     56700   113.4          393.73128      45.753492      283.50211      16819.394    
     56800   113.6          394.49328      45.84204       285.26425      15022.645    
     56900   113.8          399.06837      46.373688      287.05986      15254.719    
     57000   114            423.28647      49.187949      287.60982      15850.341    
     57100   114.2          400.49938      46.539978      284.0144       14988.316    
     57200   114.4          393.15413      45.686425      282.42092      14817.867    
     57300   114.6          419.11275      48.702943      283.7675       16154.337    
     57400   114.8          397.65576      46.209536      286.06242      14225.049    
     57500   115            407.16929      47.315054      286.93247      15889.631    
     57600   115.2          402.24501      46.742829      286.39919      16135.576    
     57700   115.4          388.89308      45.19127       285.40198      15646.965    
     57800   115.6          396.14871      46.034409      285.16306      15050.542    
     57900   115.8          403.424        46.879834      285.32412      15623.18     
     58000   116            398.33146      46.288056      286.01669      15338.135    
     58100   116.2          402.47687      46.769772      287.01823      16653.885    
     58200   116.4          424.52126      49.331438      288.64462      16019.168    
     58300   116.6          427.23965      49.647328      289.1          16456.091    
     58400   116.8          388.42895      45.137335      286.47137      18961.392    
     58500   117            393.07505      45.677236      284.68496      14979.051    
     58600   117.2          397.58605      46.201435      284.52094      15638.098    
     58700   117.4          407.12139      47.309489      286.26803      16131.646    
     58800   117.6          399.76212      46.454305      289.12043      16692.711    
     58900   117.8          413.07072      48.000829      288.32824      13551.547    
     59000   118            406.86517      47.279715      286.33963      16420.244    
     59100   118.2          394.70828      45.867024      285.74469      15135.581    
     59200   118.4          398.59863      46.319102      285.98603      14696.284    
     59300   118.6          407.27082      47.326852      286.85329      16467.813    
     59400   118.8          416.46666      48.395454      289.28671      16203.791    
     59500   119            423.23196      49.181615      289.80484      15137.494    
     59600   119.2          402.03534      46.718464      286.91526      14454.835    
     59700   119.4          389.75082      45.290943      285.30196      16894.055    
     59800   119.6          396.50263      46.075537      285.39588      14924.646    
     59900   119.8          405.20074      47.086299      286.33415      15877.345    
     60000   120            411.83097      47.856765      289.23391      16910.613    
     60100   120.2          434.13189      50.44824       290.08903      14758.922    
     60200   120.4          399.64523      46.440723      286.99874      15886.959    
     60300   120.6          398.33842      46.288864      285.8021       15989.638    
     60400   120.8          378.12259      43.939687      285.35403      14294.608    
     60500   121            386.933        44.963499      285.14561      16839.293    
     60600   121.2          391.31262      45.472433      286.16186      15830.161    
     60700   121.4          423.24412      49.183028      288.34605      14161.541    
     60800   121.6          428.08754      49.745858      289.07463      15735.462    
     60900   121.8          404.83495      47.043793      286.59433      13948.255    
     61000   122            388.95747      45.198752      284.29301      15106.502    
     61100   122.2          382.68494      44.469854      284.49195      15385.297    
     61200   122.4          394.84975      45.883464      286.28586      14640.775    
     61300   122.6          407.73096      47.380324      288.18778      15533.592    
     61400   122.8          409.62813      47.600784      287.45239      15646.396    
     61500   123            405.95773      47.174266      286.51959      16129.161    
     61600   123.2          397.83095      46.229894      285.93958      17136.17     
     61700   123.4          387.83572      45.068399      285.5225       15677.426    
     61800   123.6          376.0987       43.7045        284.85027      14515.684    
     61900   123.8          399.0577       46.372448      285.3676       15220.334    
     62000   124            404.92716      47.054508      286.93149      15514.999    
     62100   124.2          419.93286      48.798244      288.83358      16181.657    
     62200   124.4          399.14872      46.383025      288.79201      14415.158    
     62300   124.6          400.4428       46.533404      285.27438      16516.689    
     62400   124.8          378.66885      44.003165      284.17843      14842.698    
     62500   125            395.70075      45.982354      284.76433      15719.601    
     62600   125.2          393.75997      45.756826      286.24928      14455.78     
     62700   125.4          421.8356       49.019351      288.97753      14961.222    
     62800   125.6          420.8102       48.900195      289.62492      14917.668    
     62900   125.8          399.78776      46.457285      285.31569      15483.244    
     63000   126            392.81758      45.647316      284.31209      14878.901    
     63100   126.2          382.27253      44.42193       284.67995      15122.805    
     63200   126.4          388.47085      45.142205      286.12708      15740.846    
     63300   126.6          415.58476      48.292974      288.03331      15077.156    
     63400   126.8          404.87241      47.048146      287.84599      16185.385    
     63500   127            403.3932       46.876255      284.16786      15144.927    
     63600   127.2          400.02299      46.484619      283.33617      15361.88     
     63700   127.4          401.41856      46.646792      284.53999      15305.675    
     63800   127.6          403.25402      46.860081      286.6212       14922.693    
     63900   127.8          415.90486      48.33017       287.48389      16562.883    
     64000   128            399.56393      46.431275      286.4001       14053.922    
     64100   128.2          379.94418      44.151364      281.98857      15783.085    
     64200   128.4          381.85972      44.373959      282.63133      14437.357    
     64300   128.6          389.57304      45.270284      285.36465      13893.198    
     64400   128.8          395.3715       45.944094      286.94172      16658.354    
     64500   129            422.37544      49.082084      286.83086      15327.784    
     64600   129.2          401.45273      46.650763      284.82329      16774.856    
     64700   129.4          381.47579      44.329345      282.06495      15741.111    
     64800   129.6          387.2059       44.995212      282.63216      14778.037    
     64900   129.8          392.54946      45.616159      284.03435      16988.102    
     65000   130            387.31384      45.007754      285.38177      15733.201    
     65100   130.2          415.50125      48.283269      286.30596      17786.213    
     65200   130.4          400.99258      46.59729       285.73036      15750.467    
     65300   130.6          387.85526      45.07067       282.67964      14024.988    
     65400   130.8          395.58378      45.968762      282.1504       16158.561    
     65500   131            406.52759      47.240486      284.44264      15090.892    
     65600   131.2          410.4176       47.692524      286.01955      14810.081    
     65700   131.4          390.96837      45.432429      285.9356       15968.136    
     65800   131.6          392.42506      45.601704      285.34635      15986.379    
     65900   131.8          408.80618      47.505269      283.50193      16022.327    
     66000   132            392.91082      45.658151      281.50401      15238.403    
     66100   132.2          389.31573      45.240384      283.18788      14928.969    
     66200   132.4          406.56419      47.24474       286.12204      15526.557    
     66300   132.6          399.622        46.438023      286.12548      15983.632    
     66400   132.8          397.77463      46.22335       285.04081      15596.395    
     66500   133            402.74691      46.801152      282.93265      15167.178    
     66600   133.2          379.63609      44.115563      281.65529      14906.911    
     66700   133.4          386.79914      44.947944      284.252        15624.089    
     66800   133.6          404.40142      46.993414      286.80531      15888.051    
     66900   133.8          399.53608      46.428039      286.59605      17196.018    
     67000   134            390.4775       45.375387      284.94662      15360.2      
     67100   134.2          396.81472      46.111803      282.99925      16223.489    
     67200   134.4          377.48148      43.865186      282.80663      16721.075    
     67300   134.6          402.49563      46.771952      286.54893      15987.295    
     67400   134.8          413.40771      48.039989      287.4918       15935.516    
     67500   135            412.8619       47.976564      286.35277      14612.818    
     67600   135.2          395.52737      45.962207      284.05479      15691.64     
     67700   135.4          399.39802      46.411995      283.6755       15795.151    
     67800   135.6          390.64656      45.395033      284.63796      14545.022    
     67900   135.8          414.37817      48.152761      287.75342      16324.374    
     68000   136            419.14081      48.706203      290.05943      16090.774    
     68100   136.2          409.66364      47.60491       288.11089      14301.795    
     68200   136.4          408.4084       47.459045      285.81841      16610.175    
     68300   136.6          404.63483      47.020538      284.58297      14114.665    
     68400   136.8          394.27724      45.816936      284.63316      14083.154    
     68500   137            407.15382      47.313256      286.78536      15146.405    
     68600   137.2          403.3762       46.874279      289.14421      15907.39     
     68700   137.4          416.90557      48.446458      288.4042       14900.691    
     68800   137.6          414.89727      48.213084      285.8962       16332.733    
     68900   137.8          394.29424      45.818911      285.3452       14810.428    
     69000   138            381.29999      44.308915      285.77441      16262.365    
     69100   138.2          405.01734      47.064987      287.09915      17465.945    
     69200   138.4          409.18851      47.549698      289.06475      15076.658    
     69300   138.6          391.49982      45.494186      289.20506      17335.505    
     69400   138.8          411.07633      47.769072      285.47156      16328.528    
     69500   139            399.22964      46.392429      284.11054      15982.839    
     69600   139.2          394.45905      45.838063      284.80811      16194.47     
     69700   139.4          402.46647      46.768564      286.77101      16356.638    
     69800   139.6          391.50056      45.494272      288.18803      15297.857    
     69900   139.8          422.64169      49.113023      288.56145      15039.208    
     70000   140            395.13204      45.916268      285.65303      15951.123    
     70100   140.2          395.91143      46.006836      283.94769      14638.71     
     70200   140.4          402.58271      46.782072      284.10309      16496.435    
     70300   140.6          402.89727      46.818625      286.16839      16171.686    
     70400   140.8          409.84112      47.625534      287.99821      15975.573    
     70500   141            420.39657      48.852129      288.53566      16536.336    
     70600   141.2          402.78417      46.805483      284.72128      15901.469    
     70700   141.4          381.65486      44.350154      282.91634      16258.528    
     70800   141.6          389.15014      45.221142      283.41461      13647.836    
     70900   141.8          394.79967      45.877645      285.88673      17252.844    
     71000   142            414.23061      48.135615      286.65136      14894.062    
     71100   142.2          396.24608      46.045725      284.9462       15293.644    
     71200   142.4          394.00593      45.785408      283.39445      17256.748    
     71300   142.6          405.1392       47.079148      282.97044      13624.873    
     71400   142.8          400.49546      46.539523      285.32025      16819.837    
     71500   143            418.96074      48.685279      287.51135      15133.731    
     71600   143.2          416.02013      48.343566      287.27884      16945.863    
     71700   143.4          389.75027      45.29088       285.06649      17204.898    
     71800   143.6          393.29911      45.703272      283.61906      14651.868    
     71900   143.8          405.48025      47.11878       282.94393      15157.841    
     72000   144            398.45316      46.302198      284.99985      17483.273    
     72100   144.2          408.97803      47.525239      287.38884      15269.086    
     72200   144.4          407.67033      47.373278      286.81653      15814.363    
     72300   144.6          381.16713      44.293477      284.55661      15519.781    
     72400   144.8          395.51991      45.96134       282.89889      14586.999    
     72500   145            390.35824      45.361529      283.30428      16339.659    
     72600   145.2          395.14468      45.917736      284.477        15844.826    
     72700   145.4          411.406        47.807381      285.61089      14449.75     
     72800   145.6          405.45265      47.115573      286.39504      15975.473    
     72900   145.8          404.29865      46.981472      287.12084      15880.555    
     73000   146            403.13865      46.846675      286.74356      15561.068    
     73100   146.2          388.24493      45.115952      284.32669      14534.957    
     73200   146.4          403.60955      46.901396      283.31591      15026.049    
     73300   146.6          389.19169      45.22597       283.79474      14744.097    
     73400   146.8          404.80592      47.04042       287.1338       15131.008    
     73500   147            409.19446      47.550389      287.58693      16525.371    
     73600   147.2          406.60776      47.249802      286.03955      15462.311    
     73700   147.4          401.91699      46.704712      284.72735      15145.404    
     73800   147.6          394.1695       45.804416      284.14477      16946.98     
     73900   147.8          397.90888      46.23895       284.35683      14433.024    
     74000   148            380.05838      44.164634      284.81266      16343.734    
     74100   148.2          412.71271      47.959227      285.50528      15812.818    
     74200   148.4          397.63851      46.207531      285.82799      15969.641    
     74300   148.6          408.2623       47.442068      286.03443      17474.532    
     74400   148.8          396.09147      46.027758      284.90776      15276.904    
     74500   149            403.65452      46.906621      283.48817      14775.484    
     74600   149.2          380.67004      44.235713      282.8412       15412.679    
     74700   149.4          392.54556      45.615706      284.55861      16368.988    
     74800   149.6          420.34194      48.84578       287.23328      15375.171    
     74900   149.8          399.67593      46.44429       287.32222      15789.8      
     75000   150            402.32482      46.752104      285.82769      17219.549    
     75100   150.2          393.13669      45.684398      284.84536      14616.292    
     75200   150.4          402.69083      46.794636      284.71507      17038.444    
     75300   150.6          371.38521      43.15677       284.93104      15403.451    
     75400   150.8          414.06548      48.116426      286.47362      15197.735    
     75500   151            431.1121       50.097326      289.39684      17421.932    
     75600   151.2          416.13445      48.35685       289.72457      13543.146    
     75700   151.4          397.27953      46.165816      286.1511       16584.168    
     75800   151.6          416.11263      48.354314      284.9274       15317.917    
     75900   151.8          389.77708      45.293996      284.4327       14960.975    
     76000   152            397.22341      46.159295      284.4622       16459.486    
     76100   152.2          400.22263      46.507819      285.69886      15329.091    
     76200   152.4          417.76412      48.546225      287.97025      16578.85     
     76300   152.6          426.46315      49.557095      288.38286      17403.892    
     76400   152.8          397.75692      46.221292      284.80623      15139.014    
     76500   153            393.45009      45.720817      284.00771      15051.306    
     76600   153.2          392.02928      45.555712      284.75619      16292.829    
     76700   153.4          409.3993       47.574192      286.20255      15359.914    
     76800   153.6          410.48027      47.699807      287.7601       16562.639    
     76900   153.8          408.87274      47.513004      287.51015      17244.926    
     77000   154            396.92072      46.124121      284.08702      14756.388    
     77100   154.2          393.91532      45.774879      282.78884      16872.416    
     77200   154.4          405.42183      47.111991      283.314        13790.174    
     77300   154.6          414.88471      48.211624      285.25126      13903.209    
     77400   154.8          423.49368      49.212029      287.53086      14940.913    
     77500   155            421.6509       48.997888      286.96211      15672.338    
     77600   155.2          387.9248       45.078751      282.77328      14858.811    
     77700   155.4          398.1297       46.26461       282.78295      15034.801    
     77800   155.6          389.61365      45.275004      283.803        15873.729    
     77900   155.8          406.66976      47.257007      285.64736      14769.741    
     78000   156            412.42578      47.925884      286.71291      14445.565    
     78100   156.2          405.93074      47.171129      284.4994       14972.377    
     78200   156.4          386.95273      44.965791      281.90715      15777.303    
     78300   156.6          380.76793      44.247088      282.45688      15536.879    
     78400   156.8          397.6261       46.20609       284.38759      16456.298    
     78500   157            415.99699      48.340877      285.55034      15177.281    
     78600   157.2          406.96997      47.291893      285.10432      16944.775    
     78700   157.4          416.71953      48.424839      284.52911      15387.803    
     78800   157.6          394.77636      45.874936      284.35785      15092.452    
     78900   157.8          397.30887      46.169225      285.17096      15795.022    
     79000   158            414.61309      48.18006       287.91973      15064.892    
     79100   158.2          414.58382      48.17666       287.98702      16549.18     
     79200   158.4          393.48965      45.725414      284.88211      14077.667    
     79300   158.6          383.28756      44.539881      283.74764      16550.046    
     79400   158.8          398.13905      46.265696      283.89129      15413.133    
     79500   159            401.44285      46.649614      284.77173      15286.521    
     79600   159.2          425.54705      49.45064       287.61082      14658.171    
     79700   159.4          424.70507      49.352797      288.09577      16784.51     
     79800   159.6          401.5999       46.667865      284.72149      15623.244    
     79900   159.8          400.23479      46.509232      283.99341      16602.075    
     80000   160            403.83046      46.927067      283.7454       14865.027    
     80100   160.2          409.07486      47.536491      284.29383      16632.663    
     80200   160.4          394.81549      45.879483      286.0868       15990.618    
     80300   160.6          405.10813      47.075538      288.09789      17460.403    
     80400   160.8          408.64705      47.486778      287.12835      15986.935    
     80500   161            397.77057      46.222878      283.33544      17115.695    
     80600   161.2          396.98835      46.13198       282.9689       15668.216    
     80700   161.4          393.50132      45.72677       284.2264       15973.954    
     80800   161.6          400.4975       46.539761      286.25084      15231.229    
     80900   161.8          402.18125      46.73542       287.08413      15668.909    
     81000   162            395.62818      45.973922      284.24682      15925.43     
     81100   162.2          388.19271      45.109884      282.08731      15050.455    
     81200   162.4          385.73594      44.824395      283.50909      15532.027    
     81300   162.6          399.981        46.47974       285.37402      16525.092    
     81400   162.8          417.28225      48.490229      286.01784      14112.322    
     81500   163            392.72808      45.636915      284.98371      17408.384    
     81600   163.2          384.71068      44.705255      281.35437      14862.314    
     81700   163.4          394.87016      45.885836      281.63295      16065.86     
     81800   163.6          393.28914      45.702113      283.97248      14824.789    
     81900   163.8          416.8784       48.4433        285.61018      15760.725    
     82000   164            398.06297      46.256855      285.75495      15430.189    
     82100   164.2          389.45235      45.25626       284.86765      18353.235    
     82200   164.4          395.41892      45.949604      282.8927       16039.893    
     82300   164.6          374.87674      43.562503      280.54747      15884.906    
     82400   164.8          382.38943      44.435514      281.94139      17466.791    
     82500   165            406.99306      47.294576      284.30773      16320.141    
     82600   165.2          394.32315      45.82227       284.60847      15440.123    
     82700   165.4          403.5807       46.898043      285.00765      16445.955    
     82800   165.6          398.92069      46.356527      285.3211       15534.586    
     82900   165.8          398.60535      46.319883      284.69375      12878.164    
     83000   166            388.27257      45.119164      283.26879      16232.858    
     83100   166.2          380.67516      44.236307      282.8735       13927.664    
     83200   166.4          414.63051      48.182085      285.24514      15489.304    
     83300   166.6          402.62203      46.786641      287.18914      15867.25     
     83400   166.8          421.20859      48.94649       286.72145      13732.75     
     83500   167            399.65443      46.441791      284.99267      15104.319    
     83600   167.2          395.13298      45.916377      284.4469       14844.87     
     83700   167.4          401.00784      46.599064      284.58818      15089.484    
     83800   167.6          402.96673      46.826697      284.72845      15471.055    
     83900   167.8          405.50518      47.121677      285.68896      16565.197    
     84000   168            410.63532      47.717824      288.01709      14013.921    
     84100   168.2          408.93213      47.519905      288.31034      16289.106    
     84200   168.4          404.76406      47.035555      285.16428      15659.313    
     84300   168.6          391.28093      45.46875       284.17442      14806.886    
     84400   168.8          401.72787      46.682735      284.55796      14861.273    
     84500   169            405.88419      47.165719      285.86849      15105.027    
     84600   169.2          410.68157      47.723199      288.25736      16574.366    
     84700   169.4          426.26786      49.534401      290.58219      14985.361    
     84800   169.6          414.97941      48.222628      288.76854      14827.954    
     84900   169.8          419.41535      48.738106      285.21867      16924.894    
     85000   170            398.64034      46.323949      284.22138      14082.369    
     85100   170.2          383.48357      44.562658      284.60299      16185.83     
     85200   170.4          394.26784      45.815843      285.83379      16178.657    
     85300   170.6          425.84328      49.485063      287.69694      16299.006    
     85400   170.8          407.44374      47.346947      287.28056      15378.001    
     85500   171            394.8084       45.878658      283.6931       15967.616    
     85600   171.2          394.95273      45.895431      282.84342      15924.031    
     85700   171.4          398.03986      46.254171      283.93644      15270.767    
     85800   171.6          396.48704      46.073725      286.16524      17714.282    
     85900   171.8          406.34748      47.219556      287.04513      15691.222    
     86000   172            410.50045      47.702152      285.85983      15380.254    
     86100   172.2          403.99468      46.94615       284.59161      16137.864    
     86200   172.4          400.35019      46.522642      284.75681      14586.995    
     86300   172.6          411.96291      47.872096      284.51803      15667.426    
     86400   172.8          381.84387      44.372117      284.22555      13698.021    
     86500   173            395.19209      45.923246      284.39738      14432.417    
     86600   173.2          391.68791      45.516043      285.49827      14837.051    
     86700   173.4          404.3144       46.983302      287.17565      14653.621    
     86800   173.6          412.06863      47.884382      288.00576      15940.147    
     86900   173.8          404.40162      46.993438      285.6699       14467.226    
     87000   174            399.94344      46.475376      283.32567      15826.376    
[...]
    478600   957.2          394.63468      45.858471      284.83013      15699.978    
    478700   957.4          390.33872      45.35926       284.07739      17531.199    
    478800   957.6          388.55679      45.152191      284.17946      15344.963    
    478900   957.8          402.58389      46.782209      285.14928      15864.837    
    479000   958            410.43717      47.694798      286.06418      16331.33     
    479100   958.2          399.15939      46.384266      285.93962      15336.715    
    479200   958.4          398.29288      46.283572      283.09759      15199.198    
    479300   958.6          384.82177      44.718164      281.82284      16688.251    
    479400   958.8          373.25575      43.374136      283.27944      15103.787    
    479500   959            405.93141      47.171206      285.84979      16166.811    
    479600   959.2          394.47287      45.839668      286.3863       17165.817    
    479700   959.4          392.70951      45.634758      285.79763      15507.888    
    479800   959.6          403.92111      46.937601      283.78398      14927.104    
    479900   959.8          382.10726      44.402725      281.69686      16067.956    
    480000   960            385.67475      44.817284      282.44159      15117.931    
    480100   960.2          389.25526      45.233357      283.64033      16496.473    
    480200   960.4          395.66482      45.978179      284.84069      16833.657    
    480300   960.6          412.62664      47.949226      286.33311      15158.619    
    480400   960.8          397.8433       46.231329      286.35801      16340.252    
    480500   961            402.93586      46.823109      283.78457      15065.509    
    480600   961.2          396.24308      46.045376      282.30193      15128.294    
    480700   961.4          397.78647      46.224726      283.11874      15534.862    
    480800   961.6          398.71289      46.33238       284.39737      15416.156    
    480900   961.8          410.42401      47.693269      285.0037       16240.657    
    481000   962            399.98705      46.480443      285.29951      16193.957    
    481100   962.2          403.34438      46.870582      285.07149      15922.348    
    481200   962.4          383.07865      44.515605      284.14492      15034.9      
    481300   962.6          397.2749       46.165278      282.8942       15287.971    
    481400   962.8          384.52687      44.683895      283.17854      14444.478    
    481500   963            401.98418      46.712519      285.92918      14920.187    
    481600   963.2          412.01493      47.878142      287.04828      16536.468    
    481700   963.4          418.0526       48.579748      285.89497      15931.366    
    481800   963.6          405.7176       47.146361      284.54199      14300.679    
    481900   963.8          394.30877      45.820599      284.36038      15195.919    
    482000   964            400.3428       46.521783      284.7895       15685.437    
    482100   964.2          394.69755      45.865778      284.98046      16531.128    
    482200   964.4          406.29612      47.213588      286.12349      17207.998    
    482300   964.6          414.12659      48.123527      287.71491      17360.572    
    482400   964.8          421.30173      48.957313      287.07644      15265.562    
    482500   965            409.98342      47.64207       284.00859      16316.136    
    482600   965.2          400.7266       46.566383      282.93651      17235.335    
    482700   965.4          395.53147      45.962683      283.66518      15762.688    
    482800   965.6          403.21057      46.855032      285.72975      16227.834    
    482900   965.8          412.87289      47.977841      287.69475      15881.152    
    483000   966            412.38553      47.921207      288.92947      15077.833    
    483100   966.2          428.47097      49.790414      287.96138      15677.877    
    483200   966.4          408.02692      47.414715      284.65347      15610.704    
    483300   966.6          386.55355      44.919405      282.84491      14569.674    
    483400   966.8          405.43271      47.113256      282.92335      14901.153    
    483500   967            399.27878      46.398138      284.791        15127.808    
    483600   967.2          406.24776      47.207968      286.92722      15243.851    
    483700   967.4          402.93615      46.823144      286.27089      15127.001    
    483800   967.6          393.58767      45.736804      284.01608      17070.933    
    483900   967.8          404.42035      46.995615      283.43104      14733.58     
    484000   968            395.98183      46.015018      283.51862      15978.19     
    484100   968.2          402.2614       46.744734      284.58591      16967.484    
    484200   968.4          408.61843      47.483452      285.95409      14673.114    
    484300   968.6          395.3248       45.938667      287.389        17550.58     
    484400   968.8          410.56619      47.709791      286.25147      16005.026    
    484500   969            401.13897      46.614302      283.19204      15427.198    
    484600   969.2          399.25888      46.395826      282.44373      15410.82     
    484700   969.4          408.55162      47.475688      283.36836      16207.368    
    484800   969.6          406.79229      47.271245      286.27303      17121.758    
    484900   969.8          420.92438      48.913463      287.31316      15008.908    
    485000   970            405.08418      47.072755      286.04901      16237.442    
    485100   970.2          399.05135      46.37171       284.6941       16928.928    
    485200   970.4          403.74897      46.917596      283.68057      16322.102    
    485300   970.6          398.19309      46.271976      282.65384      16337.655    
    485400   970.8          377.73276      43.894386      280.39345      16336.075    
    485500   971            388.16535      45.106704      280.13437      16180.255    
    485600   971.2          392.50247      45.610699      283.33973      15116.777    
    485700   971.4          392.67387      45.630616      284.75007      17343.547    
    485800   971.6          409.60375      47.597951      285.1597       14515.259    
    485900   971.8          390.39052      45.36528       284.71568      16903.852    
    486000   972            402.76959      46.803788      282.42277      16755.98     
    486100   972.2          365.32126      42.45211       280.75801      15307.161    
    486200   972.4          400.70894      46.564331      282.82144      16652.971    
    486300   972.6          401.13534      46.61388       284.87435      15225.127    
    486400   972.8          398.02695      46.25267       284.84709      15041.526    
    486500   973            403.22455      46.856657      284.02189      17075.345    
    486600   973.2          382.6559       44.466479      282.41633      15244.452    
    486700   973.4          390.32609      45.357792      281.55351      15217.722    
    486800   973.6          415.18782      48.246847      283.34733      16480.35     
    486900   973.8          392.82871      45.64861       285.92575      15144.909    
    487000   974            386.06266      44.862361      286.30074      16846.704    
    487100   974.2          408.54381      47.47478       285.14469      15137.435    
    487200   974.4          391.4803       45.491917      282.15753      16073.255    
    487300   974.6          378.21965      43.950965      281.21213      14843.215    
    487400   974.8          380.35187      44.19874       282.72746      16699.059    
    487500   975            394.66999      45.862575      283.97369      15686.84     
    487600   975.2          395.4627       45.954692      285.23804      15817.739    
    487700   975.4          404.66918      47.02453       285.57189      15798.883    
    487800   975.6          402.27534      46.746354      284.52312      14514.868    
    487900   975.8          407.53442      47.357484      281.93413      15657.835    
    488000   976            394.763        45.873383      281.7348       14147.616    
    488100   976.2          399.18056      46.386725      284.30722      15122.362    
    488200   976.4          394.70139      45.866223      286.06571      16288.364    
    488300   976.6          397.75144      46.220655      285.87709      15182.124    
    488400   976.8          401.52589      46.659264      284.34596      14870.323    
    488500   977            397.43048      46.183358      282.61474      16415.544    
    488600   977.2          378.6232       43.997859      280.41511      15595.435    
    488700   977.4          374.05276      43.466752      279.32976      15276.95     
    488800   977.6          400.45903      46.53529       282.84895      16050.904    
    488900   977.8          397.09302      46.144142      284.66235      16315.737    
    489000   978            400.8451       46.580153      286.27082      15072.128    
    489100   978.2          410.42685      47.693599      286.88379      15763.898    
    489200   978.4          408.20418      47.435313      285.02109      15915.561    
    489300   978.6          389.14326      45.220342      282.33014      15090.94     
    489400   978.8          401.34594      46.638353      282.80679      14767.621    
    489500   979            391.53419      45.49818       284.49958      16737.677    
    489600   979.2          417.63265      48.530948      285.75195      14611.225    
    489700   979.4          401.26284      46.628696      285.78348      15511.126    
    489800   979.6          403.0328       46.834374      285.42769      17149.2      
    489900   979.8          400.80853      46.575904      284.25057      14237.633    
    490000   980            386.31687      44.891902      281.02965      15856.148    
    490100   980.2          394.32508      45.822495      279.6468       15793.038    
    490200   980.4          398.769        46.3389        281.56724      14912.705    
    490300   980.6          402.23169      46.741282      283.86549      18120.419    
    490400   980.8          403.78555      46.921847      285.04363      14668.053    
    490500   981            403.14844      46.847812      285.78474      15794.851    
    490600   981.2          416.07569      48.350021      286.21419      15791.125    
    490700   981.4          424.0355       49.27499       284.45418      15355.787    
    490800   981.6          414.81552      48.203583      282.45876      17036.331    
    490900   981.8          390.21451      45.344827      282.49953      15378.821    
    491000   982            397.58159      46.200917      285.43158      16427.671    
    491100   982.2          408.0793       47.420803      286.64294      16389.07     
    491200   982.4          406.50948      47.238381      285.95051      14314.802    
    491300   982.6          403.70035      46.911947      284.86411      17698.739    
    491400   982.8          406.8023       47.272409      283.89221      16285.79     
    491500   983            385.94277      44.84843       281.02261      15356.073    
    491600   983.2          383.64763      44.581723      281.33254      17156.154    
    491700   983.4          397.85477      46.232662      284.21515      16108.043    
    491800   983.6          396.12815      46.03202       285.63336      14729.559    
    491900   983.8          396.79435      46.109436      286.08019      18660.774    
    492000   984            399.27653      46.397877      285.10697      14344.839    
    492100   984.2          380.82609      44.253846      282.52375      15648.857    
    492200   984.4          396.35942      46.058895      281.65753      15165.703    
    492300   984.6          383.95475      44.617411      284.88169      15765.405    
    492400   984.8          402.44018      46.765509      286.33027      16117.112    
    492500   985            406.04107      47.18395       286.42047      14177.493    
    492600   985.2          392.56148      45.617556      285.99667      16310.215    
    492700   985.4          386.7274       44.939607      284.34412      14483.205    
    492800   985.6          397.59781      46.202802      283.05037      15433.084    
    492900   985.8          385.17396      44.75909       284.07268      15040.084    
    493000   986            394.01783      45.78679       287.48177      15461.429    
    493100   986.2          405.15194      47.080628      287.77141      14919.095    
    493200   986.4          396.25634      46.046916      285.99105      15457.419    
    493300   986.6          391.80397      45.52953       283.88718      15429.854    
    493400   986.8          403.19309      46.853001      284.03482      13878.546    
    493500   987            380.68101      44.236988      284.84965      13819.424    
    493600   987.2          409.80054      47.620818      285.93636      14050.193    
    493700   987.4          397.74725      46.220167      286.34599      14766.183    
    493800   987.6          401.61434      46.669542      285.92625      15427.448    
    493900   987.8          398.33623      46.28861       282.73652      14192.844    
    494000   988            371.24035      43.139936      282.03533      15475.202    
    494100   988.2          410.65497      47.720107      284.40412      15378.703    
    494200   988.4          402.05854      46.721161      286.18134      15290.577    
    494300   988.6          385.8988       44.84332       286.02711      14851.263    
    494400   988.8          409.37207      47.571028      284.82169      15476.017    
    494500   989            390.5727       45.38645       283.26001      15939.549    
    494600   989.2          369.13338      42.895097      280.74291      14879.708    
    494700   989.4          380.75121      44.245145      279.55284      14231.633    
    494800   989.6          389.69793      45.284798      282.64869      15429.409    
    494900   989.8          385.31071      44.774981      284.56174      15677.654    
    495000   990            404.3442       46.986765      285.64274      16387.456    
    495100   990.2          395.88064      46.003258      286.61205      16182.209    
    495200   990.4          414.07149      48.117124      287.15137      14881.901    
    495300   990.6          414.28935      48.14244       285.66778      16142.942    
    495400   990.8          389.34066      45.243281      283.18622      14331.493    
    495500   991            394.07288      45.793188      283.12913      15117.236    
    495600   991.2          410.25722      47.673887      285.61936      13867.789    
    495700   991.4          413.28982      48.02629       286.89166      14836.214    
    495800   991.6          405.05913      47.069843      286.46458      13759.114    
    495900   991.8          403.49392      46.887959      285.39061      15037.525    
    496000   992            405.68357      47.142406      283.97773      16411.346    
    496100   992.2          387.22647      44.997602      282.40692      14831.121    
    496200   992.4          385.56143      44.804116      280.29864      15471.065    
    496300   992.6          379.36529      44.084094      281.59964      15027.203    
    496400   992.8          405.15568      47.081063      284.58106      16492.5      
    496500   993            401.64656      46.673286      285.78714      15844.443    
    496600   993.2          405.4009       47.109559      286.2802       16280.734    
    496700   993.4          413.63278      48.066143      285.15235      16076.554    
    496800   993.6          370.11194      43.00881       282.41276      14818.319    
    496900   993.8          383.30936      44.542415      282.4154       15386.714    
    497000   994            411.04704      47.765668      284.72949      15983.993    
    497100   994.2          392.12312      45.566616      285.65311      15153.861    
    497200   994.4          408.03084      47.415171      285.70054      16236.146    
    497300   994.6          401.06011      46.605138      285.21546      14476.089    
    497400   994.8          378.81049      44.019624      284.03172      16464.877    
    497500   995            408.5314       47.473339      283.23586      13976.728    
    497600   995.2          391.35536      45.477399      283.60476      15236.835    
    497700   995.4          420.85887      48.90585       286.12621      17465.152    
    497800   995.6          408.7737       47.501494      287.41427      12561.043    
    497900   995.8          422.76654      49.127531      287.00094      17628.616    
    498000   996            383.58331      44.574249      283.5175       14962.391    
    498100   996.2          401.5944       46.667225      282.36792      14377.515    
    498200   996.4          394.77382      45.874641      284.09736      15853.016    
    498300   996.6          398.59857      46.319095      286.08888      13708.472    
    498400   996.8          400.05637      46.488498      286.46389      14233.168    
    498500   997            396.45061      46.069491      285.72512      15997.61     
    498600   997.2          394.44273      45.836166      283.82979      15604.966    
    498700   997.4          378.06652      43.933171      280.81004      14086.39     
    498800   997.6          388.87899      45.189633      281.75655      14147.193    
    498900   997.8          389.28848      45.237218      283.39288      14141.238    
    499000   998            412.05683      47.88301       284.79892      16346.933    
    499100   998.2          388.79927      45.180368      286.20872      13620.283    
    499200   998.4          408.20082      47.434924      287.56738      15112.595    
    499300   998.6          398.82648      46.34558       287.43379      16088.464    
    499400   998.8          407.44847      47.347497      284.29109      14480.726    
    499500   999            391.48667      45.492658      282.93619      13980.136    
    499600   999.2          396.86959      46.118179      284.32706      16091.436    
    499700   999.4          418.19777      48.596618      286.5566       14932.785    
    499800   999.6          411.9779       47.873839      286.87824      15439.886    
    499900   999.8          404.62503      47.019399      286.14697      15863.609    
    500000   1000           398.84347      46.347554      285.29914      16427.36     
Loop time of 328.65 on 1 procs for 500000 steps with 900 atoms

Performance: 262.894 ns/day, 0.091 hours/ns, 1521.377 timesteps/s
54.4% CPU use with 1 MPI tasks x no OpenMP threads

MPI task timing breakdown:
Section |  min time  |  avg time  |  max time  |%varavg| %total
---------------------------------------------------------------
Pair    | 209.54     | 209.54     | 209.54     |   0.0 | 63.76
Neigh   | 106.85     | 106.85     | 106.85     |   0.0 | 32.51
Comm    | 3.8922     | 3.8922     | 3.8922     |   0.0 |  1.18
Output  | 2.1678     | 2.1678     | 2.1678     |   0.0 |  0.66
Modify  | 5.5056     | 5.5056     | 5.5056     |   0.0 |  1.68
Other   |            | 0.6881     |            |       |  0.21

Nlocal:            900 ave         900 max         900 min
Histogram: 1 0 0 0 0 0 0 0 0 0
Nghost:           2780 ave        2780 max        2780 min
Histogram: 1 0 0 0 0 0 0 0 0 0
Neighs:              0 ave           0 max           0 min
Histogram: 1 0 0 0 0 0 0 0 0 0
FullNghs:       100452 ave      100452 max      100452 min
Histogram: 1 0 0 0 0 0 0 0 0 0

Total # of neighbors = 100452
Ave neighs/atom = 111.61333
Neighbor list builds = 50000
Dangerous builds not checked

Total wall time: 0:05:48
