ITEM: TIMESTEP
0
ITEM: NUMBER OF ATOMS
32
ITEM: BOX BOUNDS xy xz yz pp pp pp
-9.5987319946289062e-04 6.3977920413017273e+00 -0.0000000000000000e+00
-1.0525226593017578e-02 9.8174476027488708e+00 0.0000000000000000e+00
-5.8505058288574219e-02 2.0783891499042511e+01 4.2864912152290344e+00
ITEM: ATOMS id type xs ys zs fx fy fz
1 1 0.999986 0.620447 0.0597507 -1.90735e-06 0 0.0703644
2 1 0.499986 0.620447 0.0597507 2.26498e-06 0 0.0703645
3 1 0.249986 0.120448 0.0597507 -1.19209e-07 0 0.0703669
4 1 0.749986 0.120447 0.0597507 -9.53674e-07 0 0.0703664
5 1 0.999986 0.427066 0.309751 0 0 8.49962e-05
6 1 0.249986 0.35709 0.184751 -1.54972e-06 0 -0.00133634
7 1 0.749986 0.35709 0.184751 5.96046e-07 0 -0.00133705
8 1 0.499986 0.427066 0.309751 1.07288e-06 0 8.57115e-05
9 1 0.999986 0.85709 0.184751 4.76837e-07 0 -0.00133622
10 1 0.249986 0.927066 0.309751 -2.02656e-06 0 8.29697e-05
11 1 0.499986 0.85709 0.184751 4.76837e-07 0 -0.00133753
12 1 0.749986 0.927066 0.309751 1.54972e-06 0 8.35657e-05
13 1 0.999986 0.233683 0.559751 -2.38419e-06 0 5.98431e-05
14 1 0.499986 0.233683 0.559751 2.5034e-06 0 5.99623e-05
15 1 0.249986 0.733684 0.559751 -7.15256e-07 0 6.02007e-05
16 1 0.749986 0.733683 0.559751 8.34465e-07 0 6.07967e-05
17 1 0.249986 0.163708 0.434751 4.76837e-07 0 -5.98431e-05
18 1 0.749986 0.163708 0.434751 -2.38419e-06 0 -6.00815e-05
19 1 0.999986 0.663708 0.434751 9.53674e-07 0 -5.97239e-05
20 1 0.499986 0.663708 0.434751 2.38419e-07 0 -5.93662e-05
21 1 0.999986 0.0403013 0.809751 4.76837e-07 0 0.00133634
22 1 0.249986 0.970326 0.684751 2.38419e-07 0 -8.38041e-05
23 1 0.499986 0.0403013 0.809751 -1.07288e-06 0 0.00133669
24 1 0.749986 0.970326 0.684751 4.76837e-07 0 -8.59499e-05
25 1 0.999986 0.470326 0.684751 -5.96046e-07 0 -8.44002e-05
26 1 0.249986 0.540301 0.809751 -1.19209e-07 0 0.00133693
27 1 0.749986 0.540301 0.809751 3.57628e-07 0 0.00133634
28 1 0.499986 0.470326 0.684751 2.38419e-07 0 -8.49962e-05
29 1 0.249986 0.776944 0.934751 -7.15256e-07 0 -0.0703661
30 1 0.749986 0.776944 0.934751 4.76837e-07 0 -0.0703623
31 1 0.999986 0.276944 0.934751 -3.57628e-07 0 -0.0703659
32 1 0.499986 0.276944 0.934751 1.19209e-06 0 -0.0703667
ITEM: TIMESTEP
1
ITEM: NUMBER OF ATOMS
32
ITEM: BOX BOUNDS xy xz yz pp pp pp
-9.5987319946289062e-04 6.3977920413017273e+00 -0.0000000000000000e+00
-1.0525226593017578e-02 9.8174476027488708e+00 0.0000000000000000e+00
-5.8505058288574219e-02 2.0783891499042511e+01 4.2864912152290344e+00
ITEM: ATOMS id type xs ys zs fx fy fz
1 1 0.999986 0.619796 0.0605927 -2.38419e-07 0 -0.0042516
2 1 0.499986 0.619796 0.0605927 -5.96046e-07 0 -0.0042516
3 1 0.249986 0.119796 0.0605927 -1.19209e-07 0 -0.00425196
4 1 0.749986 0.119796 0.0605927 2.38419e-07 0 -0.00425208
5 1 0.999986 0.427065 0.309752 0 0 0.000741601
6 1 0.249986 0.357102 0.184735 1.19209e-07 0 0.0210402
7 1 0.749986 0.357102 0.184735 1.19209e-07 0 0.02104
8 1 0.499986 0.427065 0.309752 -3.57628e-07 0 0.000741124
9 1 0.999986 0.857102 0.184735 3.57628e-07 0 0.0210397
10 1 0.249986 0.927065 0.309752 2.38419e-07 0 0.000740528
11 1 0.499986 0.857102 0.184735 -2.38419e-07 0 0.0210396
12 1 0.749986 0.927065 0.309752 0 0 0.00074029
13 1 0.999986 0.233683 0.559751 2.38419e-07 0 8.49962e-05
14 1 0.499986 0.233683 0.559751 -7.15256e-07 0 8.55923e-05
15 1 0.249986 0.733683 0.559751 5.96046e-07 0 8.58307e-05
16 1 0.749986 0.733683 0.559751 -5.96046e-07 0 8.52346e-05
17 1 0.249986 0.163708 0.43475 -1.19209e-07 0 -8.52346e-05
18 1 0.749986 0.163709 0.43475 0 0 -8.52346e-05
19 1 0.999986 0.663709 0.43475 -1.19209e-07 0 -8.53539e-05
20 1 0.499986 0.663709 0.43475 5.96046e-07 0 -8.52346e-05
21 1 0.999986 0.040289 0.809767 -3.57628e-07 0 -0.0210403
22 1 0.249986 0.970327 0.68475 0 0 -0.000741005
23 1 0.499986 0.0402889 0.809767 2.38419e-07 0 -0.0210398
24 1 0.749986 0.970327 0.68475 0 0 -0.000740886
25 1 0.999986 0.470327 0.68475 2.38419e-07 0 -0.000741124
26 1 0.249986 0.540289 0.809767 2.38419e-07 0 -0.02104
27 1 0.749986 0.540289 0.809767 -2.38419e-07 0 -0.02104
28 1 0.499986 0.470327 0.68475 0 0 -0.000741124
29 1 0.249986 0.777595 0.933909 2.38419e-07 0 0.00425172
30 1 0.749986 0.777595 0.933909 2.38419e-07 0 0.00425184
31 1 0.999986 0.277595 0.933909 0 0 0.00425208
32 1 0.499986 0.277595 0.933909 0 0 0.0042522
ITEM: TIMESTEP
2
ITEM: NUMBER OF ATOMS
32
ITEM: BOX BOUNDS xy xz yz pp pp pp
-9.5987319946289062e-04 6.3977920413017273e+00 -0.0000000000000000e+00
-1.0525226593017578e-02 9.8174476027488708e+00 0.0000000000000000e+00
-5.8505058288574219e-02 2.0783891499042511e+01 4.2864912152290344e+00
ITEM: ATOMS id type xs ys zs fx fy fz
1 1 0.999986 0.619684 0.0607377 7.15256e-07 0 -0.00528979
2 1 0.499986 0.619684 0.0607377 -4.76837e-07 0 -0.00529003
3 1 0.249986 0.119684 0.0607377 2.38419e-07 0 -0.00529039
4 1 0.749986 0.119684 0.0607377 -2.38419e-07 0 -0.00529003
5 1 0.999986 0.427053 0.309767 -2.38419e-07 0 0.011182
6 1 0.249986 0.356766 0.185169 2.38419e-07 0 0.00143361
7 1 0.749986 0.356766 0.185169 -1.19209e-07 0 0.00143397
8 1 0.499986 0.427053 0.309767 -1.19209e-07 0 0.0111817
9 1 0.999986 0.856766 0.185169 -3.57628e-07 0 0.00143373
10 1 0.249986 0.927053 0.309767 1.07288e-06 0 0.0111823
11 1 0.499986 0.856766 0.185169 3.57628e-07 0 0.00143397
12 1 0.749986 0.927053 0.309767 -7.15256e-07 0 0.0111822
13 1 0.999986 0.233681 0.559753 4.76837e-07 0 -0.000992298
14 1 0.499986 0.233681 0.559753 -1.19209e-07 0 -0.000992775
15 1 0.249986 0.733681 0.559753 -4.76837e-07 0 -0.000992775
16 1 0.749986 0.733681 0.559753 4.76837e-07 0 -0.000992656
17 1 0.249986 0.16371 0.434748 2.38419e-07 0 0.000992298
18 1 0.749986 0.16371 0.434748 9.53674e-07 0 0.000992537
19 1 0.999986 0.66371 0.434748 -2.38419e-07 0 0.000992537
20 1 0.499986 0.66371 0.434748 -1.3113e-06 0 0.000992298
21 1 0.999986 0.040625 0.809332 -1.19209e-07 0 -0.00143349
22 1 0.249986 0.970339 0.684734 -3.57628e-07 0 -0.0111821
23 1 0.499986 0.0406249 0.809332 0 0 -0.00143349
24 1 0.749986 0.970339 0.684734 0 0 -0.0111821
25 1 0.999986 0.470339 0.684734 -2.38419e-07 0 -0.011182
26 1 0.249986 0.540625 0.809332 -1.19209e-07 0 -0.00143349
27 1 0.749986 0.540625 0.809332 2.38419e-07 0 -0.00143385
28 1 0.499986 0.470339 0.684734 4.76837e-07 0 -0.0111816
29 1 0.249986 0.777707 0.933764 0 0 0.00529015
30 1 0.749986 0.777707 0.933764 0 0 0.0052892
31 1 0.999986 0.277707 0.933764 0 0 0.00529015
32 1 0.499986 0.277707 0.933764 -2.38419e-07 0 0.00529015
ITEM: TIMESTEP
3
ITEM: NUMBER OF ATOMS
32
ITEM: BOX BOUNDS xy xz yz pp pp pp
-9.5987319946289062e-04 6.3977920413017273e+00 -0.0000000000000000e+00
-1.0525226593017578e-02 9.8174476027488708e+00 0.0000000000000000e+00
-5.8505058288574219e-02 2.0783891499042511e+01 4.2864912152290344e+00
ITEM: ATOMS id type xs ys zs fx fy fz
1 1 0.999986 0.619747 0.0606561 -2.38419e-07 0 0.00502205
2 1 0.499986 0.619747 0.0606561 3.57628e-07 0 0.00502217
3 1 0.249986 0.119747 0.0606561 -2.38419e-07 0 0.00502324
4 1 0.749986 0.119747 0.0606561 3.57628e-07 0 0.005023
5 1 0.999986 0.426867 0.310007 4.76837e-07 0 0.00178444
6 1 0.249986 0.356673 0.18529 0 0 -0.00104952
7 1 0.749986 0.356673 0.18529 3.57628e-07 0 -0.00104964
8 1 0.499986 0.426867 0.310007 -2.38419e-07 0 0.00178468
9 1 0.999986 0.856672 0.18529 -1.19209e-07 0 -0.00104916
10 1 0.249986 0.926867 0.310007 -8.34465e-07 0 0.00178456
11 1 0.499986 0.856672 0.18529 1.19209e-07 0 -0.00104964
12 1 0.749986 0.926867 0.310007 3.57628e-07 0 0.0017848
13 1 0.999986 0.233697 0.559733 0 0 -0.00537658
14 1 0.499986 0.233697 0.559733 -2.38419e-07 0 -0.00537634
15 1 0.249986 0.733697 0.559733 9.53674e-07 0 -0.00537646
16 1 0.749986 0.733697 0.559733 -3.57628e-07 0 -0.00537658
17 1 0.249986 0.163694 0.434769 0 0 0.00537705
18 1 0.749986 0.163694 0.434769 -9.53674e-07 0 0.00537634
19 1 0.999986 0.663694 0.434769 0 0 0.00537634
20 1 0.499986 0.663694 0.434769 5.96046e-07 0 0.00537694
21 1 0.999986 0.0407188 0.809211 0 0 0.0010494
22 1 0.249986 0.970524 0.684494 4.76837e-07 0 -0.0017848
23 1 0.499986 0.0407187 0.809211 0 0 0.00104928
24 1 0.749986 0.970524 0.684494 0 0 -0.0017848
25 1 0.999986 0.470524 0.684494 2.38419e-07 0 -0.00178468
26 1 0.249986 0.540719 0.809211 1.19209e-07 0 0.00104928
27 1 0.749986 0.540719 0.809211 0 0 0.00104928
28 1 0.499986 0.470524 0.684494 -4.76837e-07 0 -0.00178468
29 1 0.249986 0.777644 0.933845 -4.76837e-07 0 -0.00502241
30 1 0.749986 0.777644 0.933845 -3.57628e-07 0 -0.00502193
31 1 0.999986 0.277644 0.933845 0 0 -0.00502288
32 1 0.499986 0.277644 0.933845 1.19209e-07 0 -0.00502276
ITEM: TIMESTEP
4
ITEM: NUMBER OF ATOMS
32
ITEM: BOX BOUNDS xy xz yz pp pp pp
-9.5987319946289062e-04 6.3977920413017273e+00 -0.0000000000000000e+00
-1.0525226593017578e-02 9.8174476027488708e+00 0.0000000000000000e+00
-5.8505058288574219e-02 2.0783891499042511e+01 4.2864912152290344e+00
ITEM: ATOMS id type xs ys zs fx fy fz
1 1 0.999986 0.619701 0.0607161 -3.57628e-07 0 0.000626326
2 1 0.499986 0.619701 0.0607161 2.38419e-07 0 0.000626206
3 1 0.249986 0.119701 0.0607161 0 0 0.00062561
4 1 0.749986 0.119701 0.0607161 1.19209e-07 0 0.000625849
5 1 0.999986 0.426785 0.310114 1.19209e-07 0 -0.000931621
6 1 0.249986 0.356657 0.185311 2.38419e-07 0 0.00222445
7 1 0.749986 0.356657 0.185311 -4.76837e-07 0 0.00222445
8 1 0.499986 0.426785 0.310114 4.76837e-07 0 -0.000931382
9 1 0.999986 0.856657 0.185311 4.76837e-07 0 0.00222468
10 1 0.249986 0.926785 0.310114 -4.76837e-07 0 -0.000931501
11 1 0.499986 0.856657 0.185311 -3.57628e-07 0 0.00222492
12 1 0.749986 0.926785 0.310114 1.19209e-07 0 -0.000931621
13 1 0.999986 0.233773 0.559634 -2.38419e-07 0 -0.00019753
14 1 0.499986 0.233773 0.559634 4.76837e-07 0 -0.000197649
15 1 0.249986 0.733773 0.559634 -4.76837e-07 0 -0.000197411
16 1 0.749986 0.733773 0.559634 2.38419e-07 0 -0.000197291
17 1 0.249986 0.163618 0.434867 -2.38419e-07 0 0.000197291
18 1 0.749986 0.163618 0.434867 1.19209e-07 0 0.000197411
19 1 0.999986 0.663618 0.434867 -2.38419e-07 0 0.00019753
20 1 0.499986 0.663618 0.434867 4.76837e-07 0 0.000197172
21 1 0.999986 0.0407346 0.809191 1.19209e-07 0 -0.00222492
22 1 0.249986 0.970607 0.684388 3.57628e-07 0 0.000932097
23 1 0.499986 0.0407346 0.809191 0 0 -0.00222504
24 1 0.749986 0.970607 0.684388 -3.57628e-07 0 0.000931859
25 1 0.999986 0.470607 0.684388 3.57628e-07 0 0.000931859
26 1 0.249986 0.540735 0.809191 -1.19209e-07 0 -0.00222516
27 1 0.749986 0.540735 0.809191 0 0 -0.00222445
28 1 0.499986 0.470607 0.684388 -3.57628e-07 0 0.000931621
29 1 0.249986 0.777691 0.933785 1.19209e-07 0 -0.000626445
30 1 0.749986 0.777691 0.933785 0 0 -0.000626326
31 1 0.999986 0.277691 0.933785 -1.19209e-07 0 -0.000625491
32 1 0.499986 0.277691 0.933785 -2.38419e-07 0 -0.000625491
ITEM: TIMESTEP
5
ITEM: NUMBER OF ATOMS
32
ITEM: BOX BOUNDS xy xz yz pp pp pp
-9.5987319946289062e-04 6.3977920413017273e+00 -0.0000000000000000e+00
-1.0525226593017578e-02 9.8174476027488708e+00 0.0000000000000000e+00
-5.8505058288574219e-02 2.0783891499042511e+01 4.2864912152290344e+00
ITEM: ATOMS id type xs ys zs fx fy fz
1 1 0.999986 0.619687 0.0607333 1.19209e-07 0 0.000211358
2 1 0.499986 0.619687 0.0607333 -1.19209e-07 0 0.000211477
3 1 0.249986 0.119688 0.0607333 0 0 0.000212073
4 1 0.749986 0.119687 0.0607333 -2.38419e-07 0 0.000211596
5 1 0.999986 0.426789 0.310109 1.19209e-07 0 0.000747919
6 1 0.249986 0.356625 0.185352 1.19209e-07 0 0.000332832
7 1 0.749986 0.356625 0.185352 1.19209e-07 0 0.000333071
8 1 0.499986 0.426789 0.310109 -2.38419e-07 0 0.000748038
9 1 0.999986 0.856625 0.185352 2.38419e-07 0 0.000332355
10 1 0.249986 0.926789 0.310109 2.38419e-07 0 0.000748396
11 1 0.499986 0.856625 0.185352 -2.38419e-07 0 0.000332594
12 1 0.749986 0.926789 0.310109 -3.57628e-07 0 0.000748515
13 1 0.999986 0.233784 0.559621 0 0 0.000974536
14 1 0.499986 0.233784 0.559621 -1.19209e-07 0 0.000974536
15 1 0.249986 0.733784 0.559621 0 0 0.000974417
16 1 0.749986 0.733784 0.559621 -1.19209e-07 0 0.000974655
17 1 0.249986 0.163607 0.434881 -1.19209e-07 0 -0.000974536
18 1 0.749986 0.163607 0.434881 0 0 -0.000974417
19 1 0.999986 0.663607 0.434881 3.57628e-07 0 -0.000974178
20 1 0.499986 0.663607 0.434881 -1.19209e-07 0 -0.000974417
21 1 0.999986 0.0407662 0.80915 0 0 -0.000332713
22 1 0.249986 0.970603 0.684393 -3.57628e-07 0 -0.000748873
23 1 0.499986 0.0407662 0.80915 1.19209e-07 0 -0.000332355
24 1 0.749986 0.970603 0.684393 3.57628e-07 0 -0.000748634
25 1 0.999986 0.470603 0.684393 -1.19209e-07 0 -0.000748992
26 1 0.249986 0.540766 0.80915 0 0 -0.000332117
27 1 0.749986 0.540766 0.80915 -1.19209e-07 0 -0.000332355
28 1 0.499986 0.470603 0.684393 3.57628e-07 0 -0.000748634
29 1 0.249986 0.777704 0.933768 -1.19209e-07 0 -0.000211477
30 1 0.749986 0.777704 0.933768 2.38419e-07 0 -0.000211358
31 1 0.999986 0.277704 0.933768 -1.19209e-07 0 -0.000211835
32 1 0.499986 0.277704 0.933768 1.19209e-07 0 -0.000211477
ITEM: TIMESTEP
6
ITEM: NUMBER OF ATOMS
32
ITEM: BOX BOUNDS xy xz yz pp pp pp
-9.5987319946289062e-04 6.3977920413017273e+00 -0.0000000000000000e+00
-1.0525226593017578e-02 9.8174476027488708e+00 0.0000000000000000e+00
-5.8505058288574219e-02 2.0783891499042511e+01 4.2864912152290344e+00
ITEM: ATOMS id type xs ys zs fx fy fz
1 1 0.999986 0.619682 0.0607406 1.19209e-07 0 -1.0252e-05
2 1 0.499986 0.619682 0.0607406 -1.19209e-07 0 -1.00136e-05
3 1 0.249986 0.119682 0.0607406 2.38419e-07 0 -1.01328e-05
4 1 0.749986 0.119682 0.0607406 1.19209e-07 0 -1.04904e-05
5 1 0.999986 0.426781 0.310119 0 0 0.000301242
6 1 0.249986 0.356614 0.185366 -5.96046e-07 0 -3.17097e-05
7 1 0.749986 0.356614 0.185366 2.38419e-07 0 -3.17097e-05
8 1 0.499986 0.426781 0.310119 0 0 0.000301242
9 1 0.999986 0.856614 0.185366 -8.34465e-07 0 -3.19481e-05
10 1 0.249986 0.926781 0.310119 1.19209e-07 0 0.000301003
11 1 0.499986 0.856614 0.185366 4.76837e-07 0 -3.21865e-05
12 1 0.749986 0.926781 0.310119 3.57628e-07 0 0.000301242
13 1 0.999986 0.233775 0.559632 3.57628e-07 0 -0.000216365
14 1 0.499986 0.233775 0.559632 -1.19209e-07 0 -0.000216603
15 1 0.249986 0.733775 0.559632 1.19209e-07 0 -0.000216246
16 1 0.749986 0.733775 0.559632 -2.38419e-07 0 -0.000216842
17 1 0.249986 0.163616 0.434869 0 0 0.000216246
18 1 0.749986 0.163616 0.434869 0 0 0.000216722
19 1 0.999986 0.663616 0.434869 0 0 0.000216603
20 1 0.499986 0.663616 0.434869 -1.19209e-07 0 0.000216484
21 1 0.999986 0.0407776 0.809135 -1.19209e-07 0 3.18289e-05
22 1 0.249986 0.970611 0.684383 -3.57628e-07 0 -0.000301123
23 1 0.499986 0.0407776 0.809135 -1.19209e-07 0 3.17097e-05
24 1 0.749986 0.970611 0.684383 0 0 -0.000301123
25 1 0.999986 0.470611 0.684383 0 0 -0.000300646
26 1 0.249986 0.540778 0.809135 1.19209e-07 0 3.18289e-05
27 1 0.749986 0.540778 0.809135 0 0 3.18289e-05
28 1 0.499986 0.470611 0.684383 2.38419e-07 0 -0.000301242
29 1 0.249986 0.77771 0.933761 4.76837e-07 0 9.89437e-06
30 1 0.749986 0.77771 0.933761 -1.19209e-07 0 1.03712e-05
31 1 0.999986 0.277709 0.933761 1.19209e-07 0 1.03712e-05
32 1 0.499986 0.277709 0.933761 -3.57628e-07 0 1.00136e-05
ITEM: TIMESTEP
7
ITEM: NUMBER OF ATOMS
32
ITEM: BOX BOUNDS xy xz yz pp pp pp
-9.5987319946289062e-04 6.3977920413017273e+00 -0.0000000000000000e+00
-1.0525226593017578e-02 9.8174476027488708e+00 0.0000000000000000e+00
-5.8505058288574219e-02 2.0783891499042511e+01 4.2864912152290344e+00
ITEM: ATOMS id type xs ys zs fx fy fz
1 1 0.999986 0.619681 0.0607413 2.38419e-07 0 -3.00407e-05
2 1 0.499986 0.619681 0.0607413 0 0 -3.00407e-05
3 1 0.249986 0.119681 0.0607414 -3.57628e-07 0 -3.11136e-05
4 1 0.749986 0.119681 0.0607414 -3.57628e-07 0 -3.03984e-05
5 1 0.999986 0.426773 0.310128 -1.19209e-07 0 -7.28369e-05
6 1 0.249986 0.356613 0.185368 9.53674e-07 0 0.000166178
7 1 0.749986 0.356613 0.185368 -4.76837e-07 0 0.000165582
8 1 0.499986 0.426773 0.310128 1.19209e-07 0 -7.28369e-05
9 1 0.999986 0.856613 0.185368 9.53674e-07 0 0.000165582
10 1 0.249986 0.926774 0.310128 -2.38419e-07 0 -7.28369e-05
11 1 0.499986 0.856613 0.185368 -8.34465e-07 0 0.000166178
12 1 0.749986 0.926773 0.310128 -2.38419e-07 0 -7.24792e-05
13 1 0.999986 0.233778 0.559628 -4.76837e-07 0 -0.00012362
14 1 0.499986 0.233778 0.559628 0 0 -0.000122905
15 1 0.249986 0.733778 0.559628 -2.38419e-07 0 -0.00012362
16 1 0.749986 0.733778 0.559628 2.38419e-07 0 -0.000122905
17 1 0.249986 0.163613 0.434873 2.38419e-07 0 0.00012362
18 1 0.749986 0.163613 0.434873 -2.38419e-07 0 0.000122905
19 1 0.999986 0.663613 0.434873 1.19209e-07 0 0.000122905
20 1 0.499986 0.663613 0.434873 3.57628e-07 0 0.000123143
21 1 0.999986 0.0407786 0.809134 3.57628e-07 0 -0.00016582
22 1 0.249986 0.970618 0.684373 5.96046e-07 0 7.29561e-05
23 1 0.499986 0.0407785 0.809134 -1.19209e-07 0 -0.000166297
24 1 0.749986 0.970618 0.684373 -1.19209e-07 0 7.28369e-05
25 1 0.999986 0.470618 0.684373 1.19209e-07 0 7.25985e-05
26 1 0.249986 0.540779 0.809134 -1.19209e-07 0 -0.00016582
27 1 0.749986 0.540779 0.809134 -1.19209e-07 0 -0.000165343
28 1 0.499986 0.470618 0.684373 -4.76837e-07 0 7.27177e-05
29 1 0.249986 0.77771 0.93376 -2.38419e-07 0 3.06368e-05
30 1 0.749986 0.77771 0.93376 2.38419e-07 0 3.016e-05
31 1 0.999986 0.27771 0.93376 -5.96046e-07 0 3.03984e-05
32 1 0.499986 0.27771 0.93376 8.34465e-07 0 3.05176e-05
ITEM: TIMESTEP
8
ITEM: NUMBER OF ATOMS
32
ITEM: BOX BOUNDS xy xz yz pp pp pp
-9.5987319946289062e-04 6.3977920413017273e+00 -0.0000000000000000e+00
-1.0525226593017578e-02 9.8174476027488708e+00 0.0000000000000000e+00
-5.8505058288574219e-02 2.0783891499042511e+01 4.2864912152290344e+00
ITEM: ATOMS id type xs ys zs fx fy fz
1 1 0.999986 0.619681 0.0607411 -1.19209e-07 0 5.54323e-05
2 1 0.499986 0.619681 0.0607411 2.38419e-07 0 5.54323e-05
3 1 0.249986 0.119682 0.0607411 1.19209e-07 0 5.60284e-05
4 1 0.749986 0.119681 0.0607411 -2.38419e-07 0 5.59092e-05
5 1 0.999986 0.426773 0.310129 -1.19209e-07 0 9.77516e-06
6 1 0.249986 0.356611 0.18537 -1.19209e-07 0 4.82798e-05
7 1 0.749986 0.356611 0.18537 3.57628e-07 0 4.8399e-05
8 1 0.499986 0.426773 0.310129 -2.38419e-07 0 9.65595e-06
9 1 0.999986 0.856611 0.18537 1.19209e-07 0 4.8399e-05
10 1 0.249986 0.926773 0.310129 0 0 9.41753e-06
11 1 0.499986 0.856611 0.18537 -4.76837e-07 0 4.8399e-05
12 1 0.749986 0.926773 0.310129 2.38419e-07 0 9.17912e-06
13 1 0.999986 0.23378 0.559626 -2.38419e-07 0 4.56572e-05
14 1 0.499986 0.23378 0.559626 0 0 4.55379e-05
15 1 0.249986 0.73378 0.559626 0 0 4.60148e-05
16 1 0.749986 0.73378 0.559626 3.57628e-07 0 4.55379e-05
17 1 0.249986 0.163611 0.434876 -4.76837e-07 0 -4.58956e-05
18 1 0.749986 0.163611 0.434876 3.57628e-07 0 -4.56572e-05
19 1 0.999986 0.663611 0.434876 2.38419e-07 0 -4.57764e-05
20 1 0.499986 0.663611 0.434876 1.19209e-07 0 -4.56572e-05
21 1 0.999986 0.0407805 0.809131 -3.57628e-07 0 -4.81606e-05
22 1 0.249986 0.970619 0.684372 1.19209e-07 0 -9.41753e-06
23 1 0.499986 0.0407804 0.809131 2.38419e-07 0 -4.81606e-05
24 1 0.749986 0.970618 0.684372 0 0 -9.29832e-06
25 1 0.999986 0.470619 0.684372 -4.76837e-07 0 -1.00136e-05
26 1 0.249986 0.54078 0.809131 2.38419e-07 0 -4.82798e-05
27 1 0.749986 0.540781 0.809131 0 0 -4.86374e-05
28 1 0.499986 0.470618 0.684372 1.19209e-07 0 -9.05991e-06
29 1 0.249986 0.77771 0.93376 -2.38419e-07 0 -5.50747e-05
30 1 0.749986 0.77771 0.93376 2.38419e-07 0 -5.57899e-05
31 1 0.999986 0.27771 0.93376 5.96046e-07 0 -5.61476e-05
32 1 0.499986 0.27771 0.93376 -5.96046e-07 0 -5.60284e-05
ITEM: TIMESTEP
9
ITEM: NUMBER OF ATOMS
32
ITEM: BOX BOUNDS xy xz yz pp pp pp
-9.5987319946289062e-04 6.3977920413017273e+00 -0.0000000000000000e+00
-1.0525226593017578e-02 9.8174476027488708e+00 0.0000000000000000e+00
-5.8505058288574219e-02 2.0783891499042511e+01 4.2864912152290344e+00
ITEM: ATOMS id type xs ys zs fx fy fz
1 1 0.999986 0.61968 0.0607423 -3.57628e-07 0 4.76837e-07
2 1 0.499986 0.61968 0.0607423 2.38419e-07 0 2.38419e-07
3 1 0.249986 0.119681 0.0607423 -1.19209e-07 0 4.76837e-07
4 1 0.749986 0.11968 0.0607423 2.38419e-07 0 3.57628e-07
5 1 0.999986 0.426773 0.310129 0 0 2.37226e-05
6 1 0.249986 0.356609 0.185372 -1.19209e-07 0 -6.91414e-06
7 1 0.749986 0.35661 0.185372 -2.38419e-07 0 -6.55651e-06
8 1 0.499986 0.426773 0.310129 -1.19209e-07 0 2.37226e-05
9 1 0.999986 0.856609 0.185372 -4.76837e-07 0 -5.48363e-06
10 1 0.249986 0.926773 0.310129 -2.38419e-07 0 2.40803e-05
11 1 0.499986 0.856609 0.185372 9.53674e-07 0 -5.96046e-06
12 1 0.749986 0.926773 0.310129 2.38419e-07 0 2.36034e-05
13 1 0.999986 0.23378 0.559626 7.15256e-07 0 1.43051e-06
14 1 0.499986 0.23378 0.559626 -1.19209e-07 0 1.3113e-06
15 1 0.249986 0.73378 0.559626 3.57628e-07 0 7.15256e-07
16 1 0.749986 0.73378 0.559626 -7.15256e-07 0 1.43051e-06
17 1 0.249986 0.163612 0.434875 1.19209e-07 0 -8.34465e-07
18 1 0.749986 0.163612 0.434875 0 0 -1.54972e-06
19 1 0.999986 0.663612 0.434875 4.76837e-07 0 -1.19209e-06
20 1 0.499986 0.663612 0.434875 -5.96046e-07 0 -1.07288e-06
21 1 0.999986 0.0407818 0.80913 2.38419e-07 0 5.72205e-06
22 1 0.249986 0.970619 0.684372 -1.19209e-07 0 -2.36034e-05
23 1 0.499986 0.0407818 0.80913 -1.19209e-07 0 6.91414e-06
24 1 0.749986 0.970619 0.684372 -2.38419e-07 0 -2.39611e-05
25 1 0.999986 0.470619 0.684372 1.19209e-07 0 -2.36034e-05
26 1 0.249986 0.540782 0.80913 -1.19209e-07 0 5.72205e-06
27 1 0.749986 0.540782 0.80913 1.19209e-07 0 6.19888e-06
28 1 0.499986 0.470619 0.684372 -1.19209e-07 0 -2.43187e-05
29 1 0.249986 0.777711 0.933759 1.19209e-07 0 -4.76837e-07
30 1 0.749986 0.777711 0.933759 -4.76837e-07 0 0
31 1 0.999986 0.277711 0.933759 -2.38419e-07 0 -1.19209e-07
32 1 0.499986 0.277711 0.933759 5.96046e-07 0 -4.76837e-07
ITEM: TIMESTEP
10
ITEM: NUMBER OF ATOMS
32
ITEM: BOX BOUNDS xy xz yz pp pp pp
-9.5987319946289062e-04 6.3977920413017273e+00 -0.0000000000000000e+00
-1.0525226593017578e-02 9.8174476027488708e+00 0.0000000000000000e+00
-5.8505058288574219e-02 2.0783891499042511e+01 4.2864912152290344e+00
ITEM: ATOMS id type xs ys zs fx fy fz
1 1 0.999986 0.61968 0.0607423 0 0 -5.48363e-06
2 1 0.499986 0.61968 0.0607423 -1.19209e-07 0 -5.24521e-06
3 1 0.249986 0.119681 0.0607424 -1.19209e-07 0 -5.48363e-06
4 1 0.749986 0.11968 0.0607424 0 0 -5.24521e-06
5 1 0.999986 0.426772 0.31013 0 0 2.5034e-06
6 1 0.249986 0.356609 0.185372 1.19209e-07 0 6.07967e-06
7 1 0.749986 0.35661 0.185372 1.19209e-07 0 5.84126e-06
8 1 0.499986 0.426772 0.31013 1.19209e-07 0 1.66893e-06
9 1 0.999986 0.856609 0.185372 2.38419e-07 0 5.36442e-06
10 1 0.249986 0.926772 0.31013 5.96046e-07 0 2.38419e-06
11 1 0.499986 0.856609 0.185372 -2.38419e-07 0 5.48363e-06
12 1 0.749986 0.926772 0.31013 -7.15256e-07 0 2.86102e-06
13 1 0.999986 0.23378 0.559626 -3.57628e-07 0 -1.13249e-05
14 1 0.499986 0.23378 0.559626 2.38419e-07 0 -1.14441e-05
15 1 0.249986 0.73378 0.559626 -3.57628e-07 0 -1.10865e-05
16 1 0.749986 0.73378 0.559626 4.76837e-07 0 -1.14441e-05
17 1 0.249986 0.163612 0.434875 3.57628e-07 0 1.14441e-05
18 1 0.749986 0.163612 0.434875 -3.57628e-07 0 1.14441e-05
19 1 0.999986 0.663612 0.434875 -7.15256e-07 0 1.14441e-05
20 1 0.499986 0.663612 0.434875 7.15256e-07 0 1.13249e-05
21 1 0.999986 0.0407818 0.80913 -3.57628e-07 0 -5.48363e-06
22 1 0.249986 0.970619 0.684372 -1.19209e-07 0 -2.86102e-06
23 1 0.499986 0.0407818 0.80913 0 0 -5.96046e-06
24 1 0.749986 0.970619 0.684372 2.38419e-07 0 -1.66893e-06
25 1 0.999986 0.470619 0.684372 0 0 -2.6226e-06
26 1 0.249986 0.540782 0.80913 -1.19209e-07 0 -5.36442e-06
27 1 0.749986 0.540782 0.80913 3.57628e-07 0 -5.72205e-06
28 1 0.499986 0.470619 0.684372 0 0 -2.6226e-06
29 1 0.249986 0.777711 0.933759 0 0 5.48363e-06
30 1 0.749986 0.777711 0.933759 -1.19209e-07 0 5.126e-06
31 1 0.999986 0.277711 0.933759 1.19209e-07 0 4.88758e-06
32 1 0.499986 0.277711 0.933759 0 0 5.72205e-06
ITEM: TIMESTEP
11
ITEM: NUMBER OF ATOMS
32
ITEM: BOX BOUNDS xy xz yz pp pp pp
-9.5987319946289062e-04 6.3977920413017273e+00 -0.0000000000000000e+00
-1.0525226593017578e-02 9.8174476027488708e+00 0.0000000000000000e+00
-5.8505058288574219e-02 2.0783891499042511e+01 4.2864912152290344e+00
ITEM: ATOMS id type xs ys zs fx fy fz
1 1 0.999986 0.61968 0.0607423 3.57628e-07 0 4.29153e-06
2 1 0.499986 0.61968 0.0607423 -4.76837e-07 0 4.17233e-06
3 1 0.249986 0.119681 0.0607423 0 0 3.93391e-06
4 1 0.749986 0.11968 0.0607423 3.57628e-07 0 4.17233e-06
5 1 0.999986 0.426772 0.31013 2.38419e-07 0 -5.96046e-07
6 1 0.249986 0.356609 0.185372 1.19209e-07 0 3.21865e-06
7 1 0.749986 0.356609 0.185372 -1.19209e-07 0 3.21865e-06
8 1 0.499986 0.426772 0.31013 2.38419e-07 0 0
9 1 0.999986 0.856609 0.185372 7.15256e-07 0 2.98023e-06
10 1 0.249986 0.926772 0.31013 -7.15256e-07 0 -7.15256e-07
11 1 0.499986 0.856609 0.185372 -5.96046e-07 0 2.98023e-06
12 1 0.749986 0.926772 0.31013 5.96046e-07 0 -8.34465e-07
13 1 0.999986 0.23378 0.559626 -7.15256e-07 0 -7.15256e-07
14 1 0.499986 0.23378 0.559626 2.38419e-07 0 -3.57628e-07
15 1 0.249986 0.73378 0.559626 0 0 -1.07288e-06
16 1 0.749986 0.73378 0.559626 3.57628e-07 0 -4.76837e-07
17 1 0.249986 0.163611 0.434875 -2.38419e-07 0 3.57628e-07
18 1 0.749986 0.163612 0.434875 1.19209e-07 0 8.34465e-07
19 1 0.999986 0.663612 0.434875 1.19209e-07 0 5.96046e-07
20 1 0.499986 0.663612 0.434875 -4.76837e-07 0 4.76837e-07
21 1 0.999986 0.0407819 0.809129 2.38419e-07 0 -3.09944e-06
22 1 0.249986 0.970619 0.684371 2.38419e-07 0 1.19209e-06
23 1 0.499986 0.0407819 0.809129 -1.19209e-07 0 -3.33786e-06
24 1 0.749986 0.970619 0.684371 0 0 -3.57628e-07
25 1 0.999986 0.470619 0.684371 -2.38419e-07 0 9.53674e-07
26 1 0.249986 0.540782 0.809129 3.57628e-07 0 -3.33786e-06
27 1 0.749986 0.540782 0.809129 -5.96046e-07 0 -3.45707e-06
28 1 0.499986 0.470619 0.684371 2.38419e-07 0 1.43051e-06
29 1 0.249986 0.777711 0.933759 -4.76837e-07 0 -4.52995e-06
30 1 0.749986 0.777711 0.933759 5.96046e-07 0 -4.17233e-06
31 1 0.999986 0.277711 0.933759 0 0 -3.69549e-06
32 1 0.499986 0.277711 0.933759 -3.57628e-07 0 -4.05312e-06
ITEM: TIMESTEP
12
ITEM: NUMBER OF ATOMS
32
ITEM: BOX BOUNDS xy xz yz pp pp pp
-9.5987319946289062e-04 6.3977920413017273e+00 -0.0000000000000000e+00
-1.0525226593017578e-02 9.8174476027488708e+00 0.0000000000000000e+00
-5.8505058288574219e-02 2.0783891499042511e+01 4.2864912152290344e+00
ITEM: ATOMS id type xs ys zs fx fy fz
1 1 0.999986 0.61968 0.0607423 -4.76837e-07 0 0
2 1 0.499986 0.61968 0.0607423 2.38419e-07 0 1.19209e-07
3 1 0.249986 0.119681 0.0607423 2.38419e-07 0 2.38419e-07
4 1 0.749986 0.11968 0.0607424 -5.96046e-07 0 0
5 1 0.999986 0.426772 0.31013 -2.38419e-07 0 1.3113e-06
6 1 0.249986 0.356609 0.185372 -4.76837e-07 0 1.07288e-06
7 1 0.749986 0.356609 0.185372 5.96046e-07 0 1.07288e-06
8 1 0.499986 0.426772 0.31013 -1.19209e-07 0 1.78814e-06
9 1 0.999986 0.856609 0.185372 -7.15256e-07 0 9.53674e-07
10 1 0.249986 0.926772 0.31013 4.76837e-07 0 1.54972e-06
11 1 0.499986 0.856609 0.185372 9.53674e-07 0 1.19209e-06
12 1 0.749986 0.926772 0.31013 -3.57628e-07 0 1.3113e-06
13 1 0.999986 0.23378 0.559626 1.3113e-06 0 2.14577e-06
14 1 0.499986 0.23378 0.559626 -1.19209e-07 0 1.78814e-06
15 1 0.249986 0.73378 0.559626 -1.19209e-07 0 2.38419e-06
16 1 0.749986 0.73378 0.559626 -7.15256e-07 0 2.26498e-06
17 1 0.249986 0.163611 0.434875 2.38419e-07 0 -1.66893e-06
18 1 0.749986 0.163612 0.434875 -2.38419e-07 0 -2.26498e-06
19 1 0.999986 0.663612 0.434875 -4.76837e-07 0 -2.5034e-06
20 1 0.499986 0.663612 0.434875 4.76837e-07 0 -1.78814e-06
21 1 0.999986 0.040782 0.809129 1.19209e-07 0 -9.53674e-07
22 1 0.249986 0.970619 0.684371 -4.76837e-07 0 -1.90735e-06
23 1 0.499986 0.0407819 0.809129 -1.19209e-07 0 -7.15256e-07
24 1 0.749986 0.970619 0.684371 -4.76837e-07 0 -1.19209e-06
25 1 0.999986 0.470619 0.684371 1.3113e-06 0 -1.54972e-06
26 1 0.249986 0.540782 0.809129 -4.76837e-07 0 -7.15256e-07
27 1 0.749986 0.540782 0.809129 2.38419e-07 0 -3.57628e-07
28 1 0.499986 0.470619 0.684371 -2.38419e-07 0 -2.02656e-06
29 1 0.249986 0.777711 0.933759 2.38419e-07 0 -4.76837e-07
30 1 0.749986 0.777711 0.933759 -3.57628e-07 0 0
31 1 0.999986 0.277711 0.933759 -1.19209e-07 0 -7.15256e-07
32 1 0.499986 0.277711 0.933759 4.76837e-07 0 -3.57628e-07
