LAMMPS (23 Jun 2022 - Update 1)
OMP_NUM_THREADS environment is not set. Defaulting to 1 thread. (src/comm.cpp:98)
  using 1 OpenMP thread(s) per MPI task
Loaded 1 plugins from /software/deepmd-kit/2.1.5/gpu/lib/deepmd_lmp
Loaded 0 plugins from 
Reading data file ...
  orthogonal box = (0 0 0) to (26.16621 26.16621 25.2548)
  1 by 1 by 1 MPI processor grid
  reading atoms ...
  900 atoms
  read_data CPU = 0.004 seconds
Summary of lammps deepmd module ...
  >>> Info of deepmd-kit:
  installed to:       /software/deepmd-kit/2.1.5/gpu
  source:             v2.1.5
  source branch:       HEAD
  source commit:      6e3d4a62
  source commit at:   2022-09-23 16:10:28 +0800
  surpport model ver.:1.1 
  build float prec:   double
  build variant:      cuda
  build with tf inc:  /software/deepmd-kit/2.1.5/gpu/include;/software/deepmd-kit/2.1.5/gpu/include
  build with tf lib:  /software/deepmd-kit/2.1.5/gpu/lib/libtensorflow_cc.so;/software/deepmd-kit/2.1.5/gpu/lib/libtensorflow_framework.so
  set tf intra_op_parallelism_threads: 0
  set tf inter_op_parallelism_threads: 0
  >>> Info of lammps module:
  use deepmd-kit at:  /software/deepmd-kit/2.1.5/gpuDeePMD-kit WARNING: Environmental variable TF_INTRA_OP_PARALLELISM_THREADS is not set. Tune TF_INTRA_OP_PARALLELISM_THREADS for the best performance.
DeePMD-kit WARNING: Environmental variable TF_INTER_OP_PARALLELISM_THREADS is not set. Tune TF_INTER_OP_PARALLELISM_THREADS for the best performance.
DeePMD-kit WARNING: Environmental variable OMP_NUM_THREADS is not set. Tune OMP_NUM_THREADS for the best performance.
2023-03-06 09:18:42.074631: I tensorflow/core/platform/cpu_feature_guard.cc:193] This TensorFlow binary is optimized with oneAPI Deep Neural Network Library (oneDNN) to use the following CPU instructions in performance-critical operations:  SSE4.1 SSE4.2 AVX
To enable them in other operations, rebuild TensorFlow with the appropriate compiler flags.
2023-03-06 09:18:42.688352: I tensorflow/core/common_runtime/gpu/gpu_device.cc:1532] Created device /job:localhost/replica:0/task:0/device:GPU:0 with 10058 MB memory:  -> device: 0, name: GeForce GTX 1080 Ti, pci bus id: 0000:04:00.0, compute capability: 6.1
2023-03-06 09:18:42.688666: I tensorflow/core/common_runtime/process_util.cc:146] Creating new thread pool with default inter op setting: 2. Tune using inter_op_parallelism_threads for best performance.
2023-03-06 09:18:42.734772: I tensorflow/compiler/mlir/mlir_graph_optimization_pass.cc:354] MLIR V1 optimization pass is not enabled
  >>> Info of model(s):
  using   1 model(s): model.pb 
  rcut in model:      6
  ntypes in model:    4

CITE-CITE-CITE-CITE-CITE-CITE-CITE-CITE-CITE-CITE-CITE-CITE-CITE

Your simulation uses code contributions which should be cited:
- USER-DEEPMD package:
The log file lists these citations in BibTeX format.

CITE-CITE-CITE-CITE-CITE-CITE-CITE-CITE-CITE-CITE-CITE-CITE-CITE

Generated 0 of 6 mixed pair_coeff terms from geometric mixing rule
Neighbor list info ...
  update every 10 steps, delay 0 steps, check no
  max neighbors/atom: 2000, page size: 100000
  master list distance cutoff = 7
  ghost atom cutoff = 7
  binsize = 3.5, bins = 8 8 8
  1 neighbor lists, perpetual/occasional/extra = 1 0 0
  (1) pair deepmd, perpetual
      attributes: full, newton on
      pair build: full/bin/atomonly
      stencil: full/bin/3d
      bin: standard
Setting up Verlet run ...
  Unit style    : metal
  Current step  : 0
  Time step     : 0.002
Per MPI rank memory allocation (min/avg/max) = 2.658 | 2.658 | 2.658 Mbytes
   Step          Temp          E_pair         E_mol          TotEng         Press     
         0   400           -3888.4767      0             -3841.9947      14656.634    
      2000   407.62066     -3847.4969      0             -3800.1294      14043.237    
Loop time of 109.471 on 1 procs for 2000 steps with 900 atoms

Performance: 3.157 ns/day, 7.602 hours/ns, 18.270 timesteps/s
58.0% CPU use with 1 MPI tasks x 1 OpenMP threads

MPI task timing breakdown:
Section |  min time  |  avg time  |  max time  |%varavg| %total
---------------------------------------------------------------
Pair    | 108.47     | 108.47     | 108.47     |   0.0 | 99.09
Neigh   | 0.89712    | 0.89712    | 0.89712    |   0.0 |  0.82
Comm    | 0.040249   | 0.040249   | 0.040249   |   0.0 |  0.04
Output  | 0.00031051 | 0.00031051 | 0.00031051 |   0.0 |  0.00
Modify  | 0.045503   | 0.045503   | 0.045503   |   0.0 |  0.04
Other   |            | 0.01484    |            |       |  0.01

Nlocal:            900 ave         900 max         900 min
Histogram: 1 0 0 0 0 0 0 0 0 0
Nghost:           2464 ave        2464 max        2464 min
Histogram: 1 0 0 0 0 0 0 0 0 0
Neighs:              0 ave           0 max           0 min
Histogram: 1 0 0 0 0 0 0 0 0 0
FullNghs:        66338 ave       66338 max       66338 min
Histogram: 1 0 0 0 0 0 0 0 0 0

Total # of neighbors = 66338
Ave neighs/atom = 73.708889
Neighbor list builds = 200
Dangerous builds not checked
Generated 0 of 6 mixed pair_coeff terms from geometric mixing rule
Setting up Verlet run ...
  Unit style    : metal
  Current step  : 0
  Time step     : 0.002
Per MPI rank memory allocation (min/avg/max) = 3.942 | 3.942 | 3.942 Mbytes
   Step          Time           Temp          KinEng         TotEng         Press     
         0   0              407.62066      47.367506     -3800.1294      14043.237    
       100   0.2            389.6496       45.279181     -3801.4918      15043.286    
       200   0.4            387.79181      45.063297     -3804.1317      16504.534    
       300   0.6            400.92905      46.589908     -3804.521       14115.627    
       400   0.8            397.71239      46.216117     -3803.8598      14166.806    
       500   1              395.06758      45.908777     -3803.1633      16256.526    
       600   1.2            405.38412      47.107609     -3802.2441      15603.402    
       700   1.4            406.87511      47.28087      -3799.7231      14825.094    
       800   1.6            422.10435      49.050581     -3800.1963      16374.259    
       900   1.8            408.19126      47.433812     -3803.4438      14230.183    
      1000   2              379.65931      44.118261     -3804.4745      15482.362    
      1100   2.2            384.99224      44.737974     -3805.0455      16343.644    
      1200   2.4            393.62924      45.741635     -3805.2526      11647.019    
      1300   2.6            394.43401      45.835153     -3804.0376      18120.489    
      1400   2.8            417.05429      48.46374      -3802.0791      15296.189    
      1500   3              404.30276      46.981949     -3801.8042      14170.049    
      1600   3.2            408.06583      47.419237     -3804.7287      15752.074    
      1700   3.4            384.84584      44.720961     -3806.4098      14892.215    
      1800   3.6            394.38086      45.828977     -3805.3436      14800.725    
      1900   3.8            409.57392      47.594485     -3803.6989      16805.955    
      2000   4              394.22749      45.811154     -3803.6396      15349.387    
      2100   4.2            397.74372      46.219758     -3803.9973      15143.003    
      2200   4.4            405.49992      47.121066     -3804.2729      16647.605    
      2300   4.6            392.13679      45.568205     -3804.6614      16180.68     
      2400   4.8            391.81612      45.530942     -3804.7553      15418.039    
      2500   5              401.25402      46.627672     -3803.9729      16127.863    
      2600   5.2            405.13044      47.07813      -3801.8506      16157.119    
      2700   5.4            417.40577      48.504584     -3801.049       16288.864    
      2800   5.6            416.16249      48.360109     -3803.721       14557.248    
      2900   5.8            382.72631      44.474661     -3805.2657      16615.085    
      3000   6              390.61036      45.390826     -3804.7804      15215.715    
      3100   6.2            395.65592      45.977145     -3803.8682      14726.983    
      3200   6.4            415.37083      48.268113     -3802.1175      16051.817    
      3300   6.6            424.27691      49.303043     -3799.1978      14357.7      
      3400   6.8            424.99626      49.386635     -3800.7326      15181.518    
      3500   7              417.69926      48.538688     -3803.2925      13998.294    
      3600   7.2            392.74997      45.639459     -3804.4943      15637.229    
      3700   7.4            388.38817      45.132597     -3805.2966      13444.388    
      3800   7.6            383.41285      44.554441     -3805.2231      15283.721    
      3900   7.8            399.95119      46.476276     -3803.7007      15805.187    
      4000   8              415.84185      48.322848     -3801.4405      13369.279    
      4100   8.2            407.89788      47.399721     -3801.966       16827.771    
      4200   8.4            396.36292      46.059301     -3805.3528      14708.989    
      4300   8.6            395.12506      45.915456     -3805.8051      13592.348    
      4400   8.8            390.40746      45.367249     -3804.9488      15284.372    
      4500   9              415.33472      48.263917     -3803.0324      13797.529    
      4600   9.2            425.41172      49.434914     -3801.4227      13483.888    
      4700   9.4            410.48601      47.700474     -3802.1397      13697.668    
      4800   9.6            389.89288      45.307451     -3805.5711      13904.414    
      4900   9.8            408.37602      47.455283     -3806.6294      14519.589    
      5000   10             390.74557      45.406539     -3806.1362      14019.708    
      5100   10.2           399.22637      46.392049     -3803.0891      15145.298    
      5200   10.4           406.02409      47.181976     -3802.7588      15479.866    
      5300   10.6           395.08695      45.911028     -3803.3193      13903.453    
      5400   10.8           400.55473      46.54641      -3805.2086      14238.459    
      5500   11             384.04102      44.627437     -3807.3115      13415.045    
      5600   11.2           381.11023      44.286865     -3809.6265      13671.932    
      5700   11.4           378.72036      44.00915      -3809.6815      13705.24     
      5800   11.6           391.92889      45.544046     -3806.1259      13621.685    
      5900   11.8           394.077        45.793667     -3804.1622      14085.022    
      6000   12             418.61684      48.645315     -3802.831       13542.483    
      6100   12.2           413.71685      48.075912     -3802.4138      15171.573    
      6200   12.4           393.44251      45.719936     -3804.2166      13470.061    
      6300   12.6           387.92848      45.079179     -3806.6116      13774.551    
      6400   12.8           397.95811      46.24467      -3806.4426      14137.422    
      6500   13             410.31047      47.680075     -3804.212       15582.328    
      6600   13.2           414.14346      48.125487     -3801.8285      15165.712    
      6700   13.4           403.29145      46.86443      -3802.568       13243.394    
      6800   13.6           403.24343      46.858851     -3804.0632      14994.679    
      6900   13.8           368.11141      42.776338     -3805.864       16085.586    
      7000   14             407.90451      47.400491     -3805.4438      12574.731    
      7100   14.2           403.72894      46.915269     -3802.278       13909.787    
      7200   14.4           416.22508      48.367381     -3801.1146      13777.705    
      7300   14.6           421.38734      48.967261     -3802.3782      15279.602    
      7400   14.8           391.84838      45.53469      -3804.2124      14766.55     
      7500   15             392.39557      45.598276     -3804.7018      15036.469    
      7600   15.2           390.42301      45.369056     -3804.2826      15479.714    
      7700   15.4           399.76673      46.454842     -3802.7801      15006.637    
      7800   15.6           429.87334      49.953375     -3800.3716      15805.607    
      7900   15.8           404.09724      46.958068     -3801.3677      15582.195    
      8000   16             400.74155      46.56812      -3804.1403      15592.25     
      8100   16.2           395.13493      45.916604     -3804.7712      15203.094    
      8200   16.4           399.59596      46.434997     -3804.6829      15181.03     
      8300   16.6           403.11586      46.844026     -3803.6043      14161.509    
      8400   16.8           407.83131      47.391985     -3800.3334      14396.988    
      8500   17             408.68283      47.490935     -3799.8602      14461.334    
      8600   17.2           414.75169      48.196167     -3801.8766      13974.087    
      8700   17.4           402.7264       46.79877      -3803.2984      15720.772    
      8800   17.6           395.49461      45.958399     -3803.9776      13943.312    
      8900   17.8           401.29005      46.631858     -3803.9899      13618.477    
      9000   18             404.653        47.02265      -3802.7138      15815.367    
      9100   18.2           407.61623      47.366991     -3800.2409      15370.055    
      9200   18.4           417.78891      48.549107     -3800.5875      14904.049    
      9300   18.6           384.19391      44.645204     -3804.0427      14755.753    
      9400   18.8           392.94844      45.662523     -3804.6884      13980.222    
      9500   19             410.26158      47.674394     -3804.2803      16056.527    
      9600   19.2           405.81905      47.158151     -3803.5556      13788.218    
      9700   19.4           405.63723      47.137022     -3802.193       16241.376    
      9800   19.6           405.05591      47.069469     -3801.2753      15078.12     
      9900   19.8           393.11884      45.682323     -3802.895       14747.282    
     10000   20             399.49593      46.423373     -3805.401       13870.751    
     10100   20.2           383.21354      44.531279     -3805.5831      14768.727    
     10200   20.4           396.4671       46.071408     -3804.2303      14506.901    
     10300   20.6           393.50314      45.726981     -3801.3829      12097.155    
     10400   20.8           403.07537      46.839322     -3801.0788      16881.895    
     10500   21             392.80092      45.64538      -3802.4244      13273.273    
     10600   21.2           397.92968      46.241366     -3804.3348      14823.968    
     10700   21.4           387.85008      45.070068     -3805.2753      14439.794    
     10800   21.6           390.75998      45.408212     -3804.7282      15159.072    
     10900   21.8           411.3329       47.798886     -3801.34        14591.152    
     11000   22             404.73223      47.031857     -3801.2868      15232.52     
     11100   22.2           391.77015      45.5256       -3803.5574      13953.927    
     11200   22.4           411.53541      47.822419     -3804.5209      13940.921    
     11300   22.6           404.81178      47.041101     -3804.3611      15185.337    
     11400   22.8           393.31049      45.704594     -3803.9993      14573.235    
     11500   23             400.41769      46.530486     -3803.5465      13968.452    
     11600   23.2           406.80657      47.272905     -3801.6381      14769.348    
     11700   23.4           428.63091      49.808999     -3799.8476      14767.966    
     11800   23.6           401.75523      46.685915     -3801.7187      14135.038    
     11900   23.8           400.69409      46.562605     -3804.4451      15988.585    
     12000   24             389.62662      45.27651      -3805.1738      14772.515    
     12100   24.2           388.1502       45.104944     -3804.6467      15668.084    
     12200   24.4           405.68385      47.142439     -3802.4081      15646.918    
     12300   24.6           417.28219      48.490223     -3800.134       13854.183    
     12400   24.8           402.08489      46.724223     -3801.8544      15481.731    
     12500   25             392.72017      45.635997     -3803.8187      13707.172    
     12600   25.2           411.04118      47.764986     -3804.1528      13935.55     
     12700   25.4           422.40667      49.085712     -3804.0567      14069.666    
     12800   25.6           397.87459      46.234966     -3804.2865      14082.081    
     12900   25.8           406.42453      47.22851      -3804.2322      14376.032    
     13000   26             405.19937      47.08614      -3803.2993      15293.827    
     13100   26.2           387.99366      45.086753     -3802.8429      14465.864    
     13200   26.4           402.67206      46.792455     -3803.7814      15100.702    
     13300   26.6           388.3542       45.12865      -3805.9262      14762.724    
     13400   26.8           381.18743      44.295836     -3806.6751      12248.366    
     13500   27             416.63238      48.414711     -3804.0442      16272.196    
     13600   27.2           416.31426      48.377745     -3801.8736      15174.125    
     13700   27.4           399.61806      46.437565     -3802.5292      14526.612    
     13800   27.6           400.9374       46.590879     -3804.3982      15362.138    
     13900   27.8           395.95709      46.012142     -3805.5302      14392.883    
     14000   28             392.53045      45.61395      -3805.3474      15656.022    
     14100   28.2           397.86789      46.234186     -3804.4171      15074.124    
     14200   28.4           390.39906      45.366272     -3803.6756      14028.186    
     14300   28.6           410.22054      47.669625     -3802.7761      13057.277    
     14400   28.8           403.06743      46.838398     -3801.6771      15248.361    
     14500   29             417.33391      48.496233     -3801.4445      13008.626    
     14600   29.2           398.03989      46.254174     -3803.9215      13609.635    
     14700   29.4           384.89209      44.726336     -3805.9211      14032.537    
     14800   29.6           388.8177       45.18251      -3805.7291      13087.33     
     14900   29.8           390.23679      45.347416     -3803.2615      16309.548    
     15000   30             407.21203      47.320022     -3801.8163      15523.665    
     15100   30.2           398.30269      46.284712     -3802.592       14496.615    
     15200   30.4           394.03953      45.789313     -3803.7647      15124.084    
     15300   30.6           400.10779      46.494474     -3805.0724      14523.202    
     15400   30.8           382.8013       44.483376     -3806.7568      14983.466    
     15500   31             381.73572      44.35955      -3808.0814      13368.334    
     15600   31.2           387.9609       45.082946     -3805.8332      14132.306    
     15700   31.4           408.06005      47.418565     -3803.3477      16041.849    
     15800   31.6           402.57677      46.781381     -3802.4477      13786.736    
     15900   31.8           403.25021      46.859639     -3801.8582      14744.983    
     16000   32             396.87822      46.119182     -3804.2061      16005.21     
     16100   32.2           379.06939      44.049709     -3806.0019      12558.835    
     16200   32.4           393.8222       45.764058     -3805.0372      14089.924    
     16300   32.6           397.12809      46.148219     -3803.7619      17069.484    
     16400   32.8           404.30635      46.982367     -3803.5698      14289.69     
     16500   33             396.96068      46.128765     -3803.5154      15185.76     
     16600   33.2           401.86264      46.698396     -3804.3155      15770.893    
     16700   33.4           400.91797      46.58862      -3806.1989      12024.753    
     16800   33.6           390.43991      45.371019     -3808.0873      16461.271    
     16900   33.8           372.02118      43.230672     -3809.8879      13966.379    
     17000   34             388.53942      45.150173     -3807.4977      12514.967    
     17100   34.2           404.68087      47.025888     -3804.8842      14718.766    
     17200   34.4           410.17395      47.66421      -3803.1593      13782.964    
     17300   34.6           395.63089      45.974236     -3802.4524      14359.466    
     17400   34.8           414.68308      48.188194     -3802.6401      13957.676    
     17500   35             399.0934       46.376597     -3804.4124      12228.966    
     17600   35.2           387.2318       44.998222     -3806.8333      15932.371    
     17700   35.4           374.66195      43.537544     -3806.4452      15192.883    
     17800   35.6           407.77673      47.385642     -3803.9876      14743.837    
     17900   35.8           410.75153      47.731328     -3803.2506      14804.822    
     18000   36             405.25618      47.092742     -3803.429       15229.425    
     18100   36.2           395.90677      46.006295     -3804.3488      16225.769    
     18200   36.4           397.93658      46.242169     -3805.7822      15185.614    
     18300   36.6           396.23868      46.044865     -3807.3465      14284.905    
     18400   36.8           380.53544      44.220071     -3808.326       14350.007    
     18500   37             386.71292      44.937925     -3805.6329      14352.729    
     18600   37.2           402.8791       46.816513     -3803.3242      14381.594    
     18700   37.4           408.55521      47.476105     -3802.9152      15262.259    
     18800   37.6           392.40347      45.599194     -3803.9285      14534.696    
     18900   37.8           384.61512      44.69415      -3806.1252      14368.89     
     19000   38             382.78564      44.481556     -3808.0203      13719.785    
     19100   38.2           391.06217      45.443328     -3807.1588      13884.504    
     19200   38.4           400.22151      46.507689     -3803.5194      14279.44     
     19300   38.6           410.64162      47.718556     -3802.7026      14802.171    
     19400   38.8           399.04054      46.370454     -3803.5449      14981.054    
     19500   39             382.78523      44.481508     -3804.8803      14704.148    
     19600   39.2           392.78994      45.644104     -3806.65        14789.146    
     19700   39.4           396.08076      46.026513     -3806.7246      12892.215    
     19800   39.6           395.91682      46.007463     -3803.3341      15478.12     
     19900   39.8           407.8129       47.389845     -3802.252       16625.738    
     20000   40             412.25989      47.906607     -3803.3409      14594.265    
     20100   40.2           395.87592      46.00271      -3805.3024      13908.232    
     20200   40.4           385.80695      44.832647     -3806.0237      13809.389    
     20300   40.6           403.81484      46.925252     -3802.4813      16150.642    
     20400   40.8           421.28142      48.954953     -3801.0298      13105.796    
     20500   41             401.86675      46.698874     -3803.2647      15731.275    
     20600   41.2           396.55557      46.081688     -3805.089       14446.815    
     20700   41.4           392.39431      45.59813      -3805.7268      15469.988    
     20800   41.6           403.51733      46.890679     -3805.0032      14502.846    
     20900   41.8           415.11954      48.238912     -3801.8591      13755.586    
     21000   42             406.76628      47.268222     -3801.4294      16139.8      
     21100   42.2           405.38697      47.107941     -3803.5495      14717.833    
     21200   42.4           404.33232      46.985385     -3804.8104      15376.348    
     21300   42.6           402.44975      46.766621     -3804.8863      14433.896    
     21400   42.8           400.00816      46.482896     -3804.0837      15630.554    
     21500   43             402.71917      46.797929     -3802.2859      14908.336    
     21600   43.2           421.83048      49.018756     -3799.6831      16373.171    
     21700   43.4           424.29093      49.304672     -3800.5207      14383.876    
     21800   43.6           388.35169      45.128358     -3804.2317      14595.157    
     21900   43.8           400.42135      46.530911     -3804.6181      14278.945    
     22000   44             403.56748      46.896506     -3803.9602      14143.642    
     22100   44.2           412.48486      47.93275      -3802.5382      13791.302    
     22200   44.4           407.37184      47.338591     -3800.7393      16255.58     
     22300   44.6           414.4731       48.163793     -3801.0146      14617.633    
     22400   44.8           398.62352      46.321995     -3804.6512      14038.894    
     22500   45             399.72786      46.450324     -3805.3607      13833.014    
     22600   45.2           398.485        46.305898     -3805.211       14593.443    
     22700   45.4           403.85661      46.930105     -3803.0013      14330.854    
     22800   45.6           424.24202      49.298989     -3801.2148      15029.694    
     22900   45.8           392.98661      45.666958     -3802.7354      13294.955    
     23000   46             403.39531      46.876499     -3804.1647      15179.643    
     23100   46.2           404.97023      47.059514     -3804.5606      13874.918    
     23200   46.4           393.71335      45.751408     -3804.8812      14872.008    
     23300   46.6           395.39091      45.946349     -3804.5564      15911.057    
     23400   46.8           414.09734      48.120128     -3803.0553      13860.908    
     23500   47             407.34641      47.335637     -3801.9623      15513.571    
     23600   47.2           400.44216      46.533329     -3803.0644      14777.262    
     23700   47.4           393.0586       45.675324     -3806.0072      13322.641    
     23800   47.6           395.00445      45.901441     -3806.2862      15534.158    
     23900   47.8           396.01468      46.018834     -3804.6394      15933.124    
     24000   48             398.32111      46.286853     -3803.1605      14584.537    
     24100   48.2           407.76009      47.383709     -3803.1061      15260.617    
     24200   48.4           392.1509       45.569845     -3803.6384      15656.481    
     24300   48.6           403.10986      46.843329     -3804.6503      15317.102    
     24400   48.8           392.18184      45.57344      -3807.4727      13587.681    
     24500   49             383.24403      44.534823     -3808.2975      14738.51     
     24600   49.2           395.03063      45.904483     -3805.1217      13412.119    
     24700   49.4           396.58911      46.085586     -3803.8241      15097.57     
     24800   49.6           410.77664      47.734246     -3803.689       15181.933    
     24900   49.8           398.82457      46.345358     -3804.1636      15209.348    
     25000   50             400.02566      46.48493      -3804.308       15591.253    
     25100   50.2           404.78644      47.038156     -3803.8401      13880.724    
     25200   50.4           403.70439      46.912417     -3803.3334      15969.554    
     25300   50.6           405.14548      47.079878     -3803.4539      13114.78     
     25400   50.8           405.43802      47.113873     -3804.4498      14889.622    
     25500   51             386.83275      44.95185      -3806.5011      14464.895    
     25600   51.2           395.66194      45.977845     -3806.7665      14747.863    
     25700   51.4           398.87383      46.351082     -3803.5751      15094.072    
     25800   51.6           404.81752      47.041768     -3802.3032      14788.553    
     25900   51.8           410.10183      47.655831     -3803.0461      14765.595    
     26000   52             398.44221      46.300925     -3804.8972      14904.232    
     26100   52.2           402.76479      46.803231     -3805.7628      13514.83     
     26200   52.4           404.17886      46.967551     -3804.9967      14426.162    
     26300   52.6           411.96966      47.87288      -3801.6311      15282.481    
     26400   52.8           410.92913      47.751966     -3801.1849      15177.365    
     26500   53             407.58373      47.363215     -3803.6061      15378.048    
     26600   53.2           392.42842      45.602093     -3805.5587      15432.841    
     26700   53.4           383.53944      44.56915      -3805.7028      14801.846    
     26800   53.6           403.2919       46.864483     -3804.953       14184.041    
     26900   53.8           398.10144      46.261326     -3802.3805      15898.297    
     27000   54             418.57222      48.640131     -3800.1         13404.849    
     27100   54.2           413.82893      48.088937     -3801.8381      15616.974    
     27200   54.4           392.35774      45.593881     -3803.9598      15372.269    
     27300   54.6           393.00456      45.669043     -3805.0198      14588.113    
     27400   54.8           413.21841      48.017991     -3805.2853      15276.343    
     27500   55             386.32997      44.893424     -3805.3583      14709.52     
     27600   55.2           399.18769      46.387554     -3804.391       13870.09     
     27700   55.4           403.41394      46.878665     -3803.2006      15334.394    
     27800   55.6           401.89464      46.702114     -3803.2911      15234.71     
     27900   55.8           398.75455      46.337221     -3805.7014      14940.618    
     28000   56             395.11778      45.914611     -3807.6129      15061.752    
     28100   56.2           389.32899      45.241925     -3807.1814      16313.433    
     28200   56.4           384.93385      44.731188     -3805.5321      12849.75     
     28300   56.6           398.97973      46.363388     -3804.8807      14948.131    
     28400   56.8           385.90995      44.844616     -3805.0572      14078.234    
     28500   57             398.11432      46.262822     -3804.9843      14704.203    
     28600   57.2           408.67918      47.490511     -3805.249       14245.865    
     28700   57.4           392.56125      45.617529     -3805.9474      14395.459    
     28800   57.6           391.88876      45.539383     -3806.6937      13290.572    
     28900   57.8           387.90513      45.076465     -3806.5238      14999.951    
     29000   58             392.06444      45.559797     -3804.5155      14684.92     
     29100   58.2           419.58176      48.757444     -3802.6762      13734.999    
     29200   58.4           417.0208       48.459847     -3803.3225      14127.012    
     29300   58.6           394.66118      45.861552     -3807.1402      13369.597    
     29400   58.8           384.13527      44.63839      -3807.535       14071.306    
     29500   59             397.75878      46.221508     -3805.9129      15335.262    
     29600   59.2           403.47218      46.885432     -3803.9645      13942.277    
     29700   59.4           383.71066      44.589047     -3803.5246      15301.523    
     29800   59.6           408.21317      47.436359     -3804.1962      15020.585    
     29900   59.8           394.60089      45.854546     -3804.8244      14043.744    
     30000   60             396.20514      46.040967     -3805.1087      14339.279    
     30100   60.2           405.46925      47.117501     -3805.3038      14624.756    
     30200   60.4           405.29192      47.096895     -3805.0166      13774.647    
     30300   60.6           421.31336      48.958664     -3802.7544      15792.484    
     30400   60.8           416.02314      48.343915     -3801.31        15450.153    
     30500   61             405.30708      47.098656     -3802.7301      14225.851    
     30600   61.2           391.18712      45.457849     -3805.7727      15085        
     30700   61.4           398.87585      46.351317     -3805.9892      14543.212    
     30800   61.6           389.77203      45.293409     -3805.0268      14457.522    
     30900   61.8           400.83722      46.579237     -3802.9465      15632.555    
     31000   62             429.62687      49.924735     -3802.4905      14318.06     
     31100   62.2           386.70145      44.936592     -3806.2267      13964.997    
     31200   62.4           387.38384      45.015889     -3807.7763      16568.878    
     31300   62.6           397.28492      46.166442     -3806.3592      14591.826    
     31400   62.8           411.74733      47.847045     -3804.0317      15554.996    
     31500   63             410.01235      47.645432     -3803.591       15054.17     
     31600   63.2           410.9277       47.7518       -3804.6075      13627.294    
     31700   63.4           393.64075      45.742972     -3807.738       14192.624    
     31800   63.6           382.6195       44.462249     -3807.9708      16362.453    
     31900   63.8           394.72429      45.868885     -3806.1624      13799.985    
     32000   64             391.39733      45.482276     -3805.111       14313.579    
     32100   64.2           391.2904       45.469851     -3804.4232      15822.447    
     32200   64.4           403.26241      46.861056     -3803.5609      12121.713    
     32300   64.6           405.21741      47.088237     -3802.6065      14518.434    
     32400   64.8           407.57764      47.362507     -3802.3101      16083.522    
     32500   65             392.89488      45.656299     -3804.5594      12768.387    
     32600   65.2           384.06759      44.630524     -3806.2931      14593.561    
     32700   65.4           379.3421       44.081399     -3806.041       15323.045    
     32800   65.6           405.06848      47.07093      -3802.7004      14485.586    
     32900   65.8           415.10633      48.237377     -3801.4747      14113.699    
     33000   66             396.13501      46.032817     -3802.7761      15434.04     
     33100   66.2           400.00353      46.482358     -3804.8888      14287.58     
     33200   66.4           391.88265      45.538673     -3805.6844      14497.643    
     33300   66.6           399.63453      46.439478     -3804.9729      15041.853    
     33400   66.8           388.00207      45.087731     -3803.8366      13238.572    
     33500   67             406.47922      47.234865     -3801.7778      16208.812    
     33600   67.2           427.30077      49.65443      -3797.8883      14696.646    
     33700   67.4           407.80213      47.388594     -3800.0356      15128.139    
     33800   67.6           404.51554      47.006676     -3803.0803      14874.35     
     33900   67.8           390.66014      45.396611     -3804.5926      14663.723    
     34000   68             398.55764      46.314339     -3805.0013      16225.25     
     34100   68.2           400.17146      46.501873     -3804.1991      14057.252    
     34200   68.4           405.28203      47.095746     -3801.6934      16687.382    
     34300   68.6           418.98289      48.687853     -3800.9301      15414.091    
     34400   68.8           411.00196      47.76043      -3804.2086      15472.935    
     34500   69             384.51206      44.682174     -3805.5519      16676.397    
     34600   69.2           404.96391      47.058778     -3804.8735      14047.663    
     34700   69.4           400.81245      46.576359     -3803.4713      14012.884    
     34800   69.6           412.599        47.946013     -3802.2883      16358.793    
     34900   69.8           404.00986      46.947913     -3800.5771      13713.829    
     35000   70             410.37006      47.686999     -3800.5132      14667.157    
     35100   70.2           393.36884      45.711375     -3803.6738      14469.586    
     35200   70.4           398.64308      46.324268     -3805.3341      14942.992    
     35300   70.6           392.0216       45.554819     -3805.0796      17202.429    
     35400   70.8           395.73253      45.986047     -3803.2501      13991.139    
     35500   71             432.98685      50.31518      -3800.7269      15199.876    
     35600   71.2           406.49907      47.237172     -3801.5359      15463.717    
     35700   71.4           409.88867      47.63106      -3802.8953      13995.192    
     35800   71.6           394.73872      45.870561     -3803.69        15311.969    
     35900   71.8           394.97456      45.897968     -3804.3293      15310.359    
     36000   72             388.33664      45.126609     -3806.1287      12944.672    
     36100   72.2           384.69832      44.703819     -3808.0745      13569.164    
     36200   72.4           393.55173      45.732628     -3807.2673      15977.206    
     36300   72.6           399.64006      46.440122     -3803.8298      15023.641    
     36400   72.8           406.16247      47.198057     -3803.2889      15215.29     
     36500   73             403.17085      46.850417     -3803.9302      16435.885    
     36600   73.2           389.78057      45.294401     -3805.8711      14644.864    
     36700   73.4           382.60641      44.460728     -3808.0671      13759.713    
     36800   73.6           381.44823      44.326142     -3807.0739      13536.699    
     36900   73.8           390.0639       45.327325     -3804.8897      15188.027    
     37000   74             397.08802      46.143562     -3804.4132      14529        
     37100   74.2           393.31958      45.705651     -3803.8603      15534.736    
     37200   74.4           387.07676      44.980205     -3803.129       13665.355    
     37300   74.6           407.36329      47.337599     -3804.1371      14336.093    
     37400   74.8           398.86411      46.349952     -3806.8434      14098.997    
     37500   75             387.78726      45.062768     -3807.2832      13992.527    
     37600   75.2           394.23437      45.811954     -3805.6334      13924.794    
     37700   75.4           406.69882      47.260383     -3802.6658      14641.029    
     37800   75.6           398.55338      46.313844     -3802.9422      14701.435    
     37900   75.8           406.42954      47.229092     -3804.0823      15557.237    
     38000   76             387.55446      45.035716     -3805.8362      14262.399    
     38100   76.2           397.58565      46.201389     -3807.0931      13694.234    
     38200   76.4           413.43302      48.04293      -3804.9072      15638.342    
     38300   76.6           416.98578      48.455778     -3802.0812      14009.184    
     38400   76.8           407.47269      47.350311     -3802.5705      17125.348    
     38500   77             392.21678      45.5775       -3804.7519      13497.013    
     38600   77.2           378.60249      43.995453     -3805.9663      15587.922    
     38700   77.4           395.44403      45.952522     -3805.376       15522.222    
     38800   77.6           390.1185       45.33367      -3804.8375      14850.836    
     38900   77.8           400.17174      46.501905     -3804.1436      16053.555    
     39000   78             407.26177      47.325801     -3803.8706      14159.139    
     39100   78.2           406.73754      47.264883     -3803.439       14129.448    
     39200   78.4           397.60609      46.203764     -3803.4509      14058.367    
     39300   78.6           413.09416      48.003553     -3803.9672      15323.693    
     39400   78.8           390.36378      45.362172     -3804.9024      12673.994    
     39500   79             399.87399      46.467305     -3805.8686      14210.189    
     39600   79.2           376.39371      43.738782     -3806.7699      14951.077    
     39700   79.4           403.6912       46.910883     -3805.551       13431.006    
     39800   79.6           411.58991      47.828752     -3802.6908      15251.962    
     39900   79.8           397.9894       46.248307     -3802.2122      14309.57     
     40000   80             393.95791      45.779828     -3803.4095      14647.519    
     40100   80.2           387.53657      45.033636     -3806.0885      15459.605    
     40200   80.4           391.24713      45.464823     -3808.022       14350.026    
     40300   80.6           400.20333      46.505577     -3805.0715      13826.588    
     40400   80.8           416.09983      48.352827     -3802.2049      16266.117    
     40500   81             400.58757      46.550227     -3802.8073      12674.188    
     40600   81.2           399.55872      46.430669     -3804.3152      14504.31     
     40700   81.4           391.70523      45.518056     -3805.8433      14122.458    
     40800   81.6           381.71703      44.357378     -3805.9639      13862.137    
     40900   81.8           409.49286      47.585065     -3803.32        14218.274    
     41000   82             401.55539      46.662692     -3801.5754      14230.252    
     41100   82.2           395.40896      45.948447     -3802.2849      14458.987    
     41200   82.4           394.25983      45.814913     -3804.3509      12862.58     
     41300   82.6           380.55023      44.22179      -3805.6883      15836.477    
     41400   82.8           390.27573      45.35194      -3805.2971      13490.387    
     41500   83             410.3481       47.684448     -3804.3008      13894.43     
     41600   83.2           396.54727      46.080724     -3803.1349      15235.51     
     41700   83.4           402.26036      46.744613     -3802.4586      13744.847    
     41800   83.6           394.8637       45.885085     -3802.439       14669.608    
     41900   83.8           402.0056       46.715008     -3804.6165      14414.822    
     42000   84             382.09482      44.401279     -3806.4437      12486.283    
     42100   84.2           386.7845       44.946243     -3805.8782      14359.871    
     42200   84.4           404.09522      46.957832     -3802.6978      14963.217    
     42300   84.6           421.04917      48.927964     -3801.9343      14006.708    
     42400   84.8           399.17755      46.386375     -3803.1263      15948.687    
     42500   85             387.45851      45.024566     -3804.5525      14722.432    
     42600   85.2           402.58073      46.781842     -3805.1359      14801.033    
     42700   85.4           398.57807      46.316712     -3805.596       15057.551    
     42800   85.6           404.47343      47.001783     -3804.5987      14518.933    
     42900   85.8           414.24056      48.136771     -3802.8129      14042.088    
     43000   86             397.36863      46.17617      -3801.9574      14989.208    
     43100   86.2           395.38139      45.945243     -3802.5451      13622.011    
     43200   86.4           393.94577      45.778417     -3805.4728      13381.051    
     43300   86.6           390.26859      45.351111     -3806.0381      14667.089    
     43400   86.8           399.89347      46.469569     -3804.6196      14361.617    
     43500   87             419.37204      48.733074     -3802.1886      15433.307    
     43600   87.2           400.19025      46.504056     -3802.0281      14628.742    
     43700   87.4           402.25424      46.743901     -3802.9987      14312.32     
     43800   87.6           396.82753      46.113291     -3804.4232      13564.524    
     43900   87.8           381.14323      44.2907       -3805.5084      14407.737    
     44000   88             397.94286      46.242899     -3805.2275      12974.212    
     44100   88.2           414.04737      48.114321     -3802.6008      13963.412    
     44200   88.4           414.37188      48.152031     -3801.0726      16033.653    
     44300   88.6           412.19733      47.899338     -3802.2557      12799.444    
     44400   88.8           395.56838      45.966972     -3804.7869      12014.222    
     44500   89             396.53367      46.079144     -3805.1878      15209.721    
     44600   89.2           395.78107      45.991687     -3804.7655      14029.444    
     44700   89.4           387.68591      45.050991     -3804.0394      12487.753    
     44800   89.6           394.64853      45.860082     -3803.4258      16085.821    
     44900   89.8           390.84208      45.417753     -3802.4441      13657.907    
     45000   90             409.03669      47.532056     -3800.9004      15245.478    
     45100   90.2           402.79758      46.80704      -3801.5715      15163.387    
     45200   90.4           391.14134      45.452528     -3804.2548      12909.034    
     45300   90.6           382.81486      44.484951     -3805.0516      13651.36     
     45400   90.8           403.47145      46.885348     -3804.4408      14487.023    
     45500   91             395.75633      45.988813     -3801.3938      14232.918    
     45600   91.2           415.65379      48.300995     -3799.6365      13554.922    
     45700   91.4           415.2677       48.256129     -3801.5583      16020.282    
     45800   91.6           399.9651       46.477893     -3803.2342      13428.356    
     45900   91.8           403.68607      46.910287     -3804.3518      15552.665    
     46000   92             390.11603      45.333383     -3805.2637      13473.014    
     46100   92.2           388.6875       45.167381     -3806.3196      15300.253    
     46200   92.4           389.47278      45.258633     -3807.6335      14722.9      
     46300   92.6           391.94896      45.546378     -3806.4346      13458.524    
     46400   92.8           407.61408      47.366741     -3803.5078      16265.524    
     46500   93             405.58595      47.131063     -3802.8486      13742.295    
     46600   93.2           413.05489      47.99899      -3803.224       14685.662    
     46700   93.4           374.33665      43.499742     -3806.0237      15578.244    
     46800   93.6           403.12194      46.844732     -3807.1422      13881.165    
     46900   93.8           384.29266      44.656679     -3805.9232      17129.766    
     47000   94             397.26452      46.164072     -3804.72        13931.713    
     47100   94.2           387.82357      45.066988     -3803.8317      14686.251    
     47200   94.4           409.76773      47.617006     -3802.5814      15835.053    
     47300   94.6           392.35473      45.593531     -3802.1081      14493.295    
     47400   94.8           408.80752      47.505425     -3802.8496      16075.759    
     47500   95             394.65089      45.860356     -3805.9185      14891.592    
     47600   95.2           390.63788      45.394025     -3806.4749      15253.793    
     47700   95.4           399.81177      46.460075     -3804.5023      15416.149    
     47800   95.6           394.64866      45.860096     -3802.8412      14838.579    
     47900   95.8           398.5791       46.316833     -3802.8925      14545.372    
     48000   96             400.6922       46.562385     -3803.2316      16085.682    
     48100   96.2           400.249        46.510884     -3803.0818      15268.465    
     48200   96.4           409.27045      47.55922      -3801.4815      14497.728    
     48300   96.6           394.80276      45.878003     -3800.6697      15930.591    
     48400   96.8           396.35422      46.058291     -3802.6008      15248.561    
     48500   97             407.75199      47.382767     -3804.749       14272.562    
     48600   97.2           391.5374       45.498553     -3805.5753      14233.503    
     48700   97.4           392.38439      45.596977     -3804.8557      15832.375    
     48800   97.6           405.75303      47.150479     -3803.4182      14780.331    
     48900   97.8           417.25818      48.487432     -3801.9463      16430.586    
     49000   98             419.948        48.800003     -3797.5959      15447.335    
     49100   98.2           420.95093      48.916548     -3798.5483      16722.272    
     49200   98.4           409.58156      47.595372     -3801.6446      14385.001    
     49300   98.6           405.3293       47.101238     -3803.4456      14546.871    
     49400   98.8           388.71379      45.170436     -3804.1672      16006.877    
     49500   99             395.68262      45.980248     -3804.3356      14456.974    
     49600   99.2           409.09981      47.539391     -3804.3722      14618.679    
     49700   99.4           393.73202      45.753578     -3804.1684      15392.519    
     49800   99.6           397.08887      46.143661     -3804.0674      14703.817    
     49900   99.8           396.97168      46.130042     -3803.9986      13616.235    
     50000   100            387.37222      45.014539     -3803.884       14546.342    
     50100   100.2          398.419        46.298229     -3803.6549      13669.007    
     50200   100.4          397.0637       46.140736     -3803.7766      14187.479    
     50300   100.6          396.92608      46.124743     -3804.5813      15741.821    
     50400   100.8          385.94723      44.848948     -3805.8938      14792.292    
     50500   101            381.43792      44.324944     -3806.5472      17042.591    
     50600   101.2          403.64828      46.905896     -3804.5661      15013.527    
     50700   101.4          410.9897       47.759005     -3802.2793      14342.519    
     50800   101.6          408.29173      47.445488     -3802.2755      15812.181    
     50900   101.8          391.89462      45.540063     -3804.4447      13723.786    
     51000   102            400.02897      46.485314     -3806.3758      14212.385    
     51100   102.2          393.57255      45.735047     -3806.1555      12912.339    
     51200   102.4          388.17153      45.107422     -3805.4189      13784.409    
     51300   102.6          424.99471      49.386456     -3803.6785      14400.081    
     51400   102.8          413.28077      48.025238     -3802.2372      14048.902    
     51500   103            417.80742      48.551257     -3802.0909      14895.056    
     51600   103.2          398.83508      46.346578     -3805.3456      15616.969    
     51700   103.4          392.6537       45.628272     -3806.7333      13795.29     
     51800   103.6          385.45389      44.791619     -3805.8785      15376.772    
     51900   103.8          410.05889      47.65084      -3803.3732      15766.786    
     52000   104            408.26897      47.442842     -3802.3672      13299.388    
     52100   104.2          404.41916      46.995477     -3803.0534      16062.201    
     52200   104.4          409.28163      47.560519     -3803.8237      13876.004    
     52300   104.6          410.54865      47.707753     -3804.3155      14817.26     
     52400   104.8          384.75289      44.71016      -3805.2113      15956.963    
     52500   105            397.66942      46.211124     -3806.2919      13872.592    
     52600   105.2          387.04767      44.976824     -3807.6235      14067.341    
     52700   105.4          393.08466      45.678352     -3805.9761      14491.613    
     52800   105.6          418.65221      48.649426     -3803.4201      13296.508    
     52900   105.8          413.17838      48.01334      -3802.975       13726.998    
     53000   106            399.6266       46.438557     -3804.3263      14639.878    
     53100   106.2          382.28024      44.422826     -3806.9271      15886.591    
     53200   106.4          384.87432      44.72427      -3808.4311      14142.497    
     53300   106.6          407.07543      47.304147     -3804.7331      15499.589    
     53400   106.8          406.61167      47.250257     -3802.628       13187.303    
     53500   107            390.40879      45.367402     -3802.8118      15471.104    
     53600   107.2          399.48786      46.422435     -3804.9147      14221.411    
     53700   107.4          383.32018      44.543671     -3806.5553      13044.463    
     53800   107.6          392.20862      45.576552     -3806.0763      15550.147    
     53900   107.8          424.78785      49.362417     -3803.1872      14017.374    
     54000   108            396.27042      46.048553     -3801.7676      13844.051    
     54100   108.2          410.23627      47.671452     -3802.7525      15482.2      
     54200   108.4          400.67817      46.560755     -3804.2212      13016.634    
     54300   108.6          414.94581      48.218724     -3805.5273      14965.597    
     54400   108.8          385.71189      44.8216       -3805.9152      13400.724    
     54500   109            395.72883      45.985617     -3803.1776      14345.798    
     54600   109.2          412.67948      47.955366     -3800.9223      14942.194    
     54700   109.4          404.84522      47.044986     -3802.7242      12646.29     
     54800   109.6          417.82912      48.553778     -3805.0271      14800.346    
     54900   109.8          391.97124      45.548967     -3805.8752      14484.04     
     55000   110            403.33761      46.869794     -3805.2058      15774.042    
     55100   110.2          394.65341      45.860649     -3803.108       16426.628    
     55200   110.4          413.19613      48.015402     -3800.4555      15846.382    
     55300   110.6          423.56457      49.220266     -3802.0436      15855.181    
     55400   110.8          400.70595      46.563984     -3804.0193      15379.321    
     55500   111            405.76589      47.151973     -3804.7974      15073.132    
     55600   111.2          393.18074      45.689517     -3804.8286      13556.391    
     55700   111.4          395.65581      45.977132     -3805.3357      14358.866    
     55800   111.6          383.1585       44.524884     -3806.3619      14710.293    
     55900   111.8          387.89775      45.075608     -3806.9638      14159.928    
     56000   112            399.98767      46.480515     -3805.5872      13115.034    
     56100   112.2          417.28163      48.490158     -3802.7256      14196.403    
     56200   112.4          416.67127      48.419231     -3803.0809      12672.172    
     56300   112.6          384.9081       44.728196     -3804.7457      14161.504    
     56400   112.8          411.1383       47.776273     -3806.1328      13880.048    
     56500   113            393.34474      45.708574     -3805.9877      13525.591    
     56600   113.2          398.82798      46.345754     -3805.2871      13031.195    
     56700   113.4          406.37359      47.222591     -3804.709       15599.564    
     56800   113.6          392.0173       45.55432      -3804.1155      14281.14     
     56900   113.8          402.96991      46.827066     -3803.8451      13592.275    
     57000   114            403.84841      46.929152     -3804.4708      16803.906    
     57100   114.2          406.26         47.209391     -3806.6539      12872.849    
     57200   114.4          378.91042      44.031237     -3807.5804      14023.85     
     57300   114.6          399.10869      46.378374     -3805.2513      15499.11     
     57400   114.8          392.01972      45.554601     -3803.2885      14674.377    
     57500   115            398.01731      46.25155      -3803.8809      14697.554    
     57600   115.2          404.75829      47.034885     -3804.971       14762.36     
     57700   115.4          390.4411       45.371157     -3806.3859      16758.426    
     57800   115.6          386.38786      44.900151     -3807.0331      12903.68     
     57900   115.8          396.32115      46.054448     -3805.8903      14574.386    
     58000   116            409.36379      47.570066     -3803.3626      15312.53     
     58100   116.2          413.36285      48.034776     -3802.3137      14191.997    
     58200   116.4          402.3184       46.751357     -3803.3738      14943.492    
     58300   116.6          395.79833      45.993694     -3806.2788      13881.335    
     58400   116.8          392.87704      45.654225     -3807.046       14303.052    
     58500   117            390.68214      45.399167     -3806.049       13716.009    
     58600   117.2          393.56325      45.733966     -3804.7652      14240.698    
     58700   117.4          393.26581      45.699402     -3804.3005      14219.959    
     58800   117.6          406.17481      47.199491     -3804.3709      13558.241    
     58900   117.8          395.13294      45.916372     -3805.1947      14134.266    
     59000   118            378.73365      44.010695     -3808.1509      14437.214    
     59100   118.2          374.22953      43.487294     -3808.6546      12737.505    
     59200   118.4          397.43197      46.18353      -3805.8925      13507.04     
     59300   118.6          406.47623      47.234518     -3804.455       14852.992    
     59400   118.8          400.29993      46.516801     -3804.1355      13646.817    
     59500   119            409.51527      47.587668     -3803.5047      15039.671    
     59600   119.2          399.12881      46.380712     -3803.0296      14832.783    
     59700   119.4          406.0842       47.188962     -3803.314       14778.53     
     59800   119.6          400.59239      46.550787     -3804.6521      15369.244    
     59900   119.8          391.30241      45.471246     -3806.5325      14215.745    
     60000   120            390.8265       45.415942     -3807.582       14827.475    
     60100   120.2          385.59348      44.807841     -3805.5701      14364.024    
     60200   120.4          395.75816      45.989026     -3802.8035      15124.416    
     60300   120.6          405.44378      47.114542     -3802.9085      13984.41     
     60400   120.8          400.05437      46.488266     -3804.1105      14777.078    
     60500   121            392.71746      45.635681     -3806.3097      13645.715    
     60600   121.2          380.88528      44.260725     -3807.8579      13833.82     
     60700   121.4          400.86593      46.582574     -3804.9081      14721.359    
     60800   121.6          406.3862       47.224056     -3802.9762      14366.626    
     60900   121.8          403.51398      46.89029      -3803.1103      13429.415    
     61000   122            398.3969       46.295661     -3804.8346      14676.296    
     61100   122.2          392.56335      45.617773     -3806.5399      14011.266    
     61200   122.4          386.27416      44.886939     -3805.7745      15375.518    
     61300   122.6          418.54992      48.637539     -3802.3629      12809.499    
     61400   122.8          405.37498      47.106547     -3802.2917      15651.115    
     61500   123            401.45307      46.650801     -3803.839       15112.639    
     61600   123.2          403.11327      46.843725     -3805.5773      13581.564    
     61700   123.4          399.1772       46.386335     -3806.314       16503.328    
     61800   123.6          406.34509      47.219279     -3804.5601      14750.12     
     61900   123.8          416.6065       48.411704     -3801.2599      16369.684    
     62000   124            410.24502      47.672469     -3802.2453      15916.483    
     62100   124.2          404.61935      47.018739     -3804.519       16820.249    
     62200   124.4          390.95646      45.431044     -3805.8588      14959.542    
     62300   124.6          395.32977      45.939244     -3805.7021      16579.149    
     62400   124.8          402.37169      46.75755      -3802.804       15832.78     
     62500   125            412.05365      47.88264      -3800.5346      15744.715    
     62600   125.2          395.34113      45.940564     -3801.7701      16483.424    
     62700   125.4          421.18844      48.944148     -3803.4341      14398.528    
     62800   125.6          394.68458      45.864271     -3804.9516      15631.003    
     62900   125.8          401.77322      46.688005     -3804.8994      15258.945    
     63000   126            407.14775      47.312551     -3804.3217      15540.269    
     63100   126.2          392.91105      45.658178     -3803.3592      16081.643    
     63200   126.4          421.22927      48.948893     -3799.2747      15721.312    
     63300   126.6          423.3732       49.198028     -3799.3463      13868.112    
     63400   126.8          401.31268      46.634488     -3802.193       15248.666    
     63500   127            400.09713      46.493235     -3803.7211      14977.838    
     63600   127.2          396.8117       46.111452     -3805.0252      14357.364    
     63700   127.4          400.99612      46.597702     -3805.3681      15240.158    
     63800   127.6          388.57886      45.154756     -3804.4679      15518.978    
     63900   127.8          414.31638      48.145582     -3801.7862      14481.341    
     64000   128            415.0322       48.228763     -3801.3349      17360.724    
     64100   128.2          399.0254       46.368694     -3803.8001      13194.081    
     64200   128.4          399.90048      46.470383     -3805.1052      14719.638    
     64300   128.6          402.14032      46.730663     -3805.0166      13573.904    
     64400   128.8          388.54352      45.150649     -3804.1786      14416.324    
     64500   129            405.60315      47.133062     -3802.5687      14856.483    
     64600   129.2          422.61593      49.110029     -3801.894       13090.336    
     64700   129.4          392.9662       45.664586     -3805.0542      15694.965    
     64800   129.6          393.29299      45.702561     -3807.5366      13573.373    
     64900   129.8          399.10969      46.378489     -3805.6381      14907.014    
     65000   130            400.79001      46.573751     -3803.3295      14152.954    
     65100   130.2          403.19812      46.853585     -3802.3113      15033.774    
     65200   130.4          409.33363      47.566562     -3802.7604      17207.602    
     65300   130.6          374.52295      43.52139      -3805.5593      14337.092    
     65400   130.8          390.60804      45.390557     -3806.9076      16233.829    
     65500   131            409.91622      47.634261     -3805.5394      15747.627    
     65600   131.2          388.2944       45.121701     -3803.842       14525.233    
     65700   131.4          409.51024      47.587084     -3803.707       15676.64     
     65800   131.6          400.36253      46.524075     -3803.9281      16776.641    
     65900   131.8          401.97888      46.711903     -3803.8604      14582.219    
     66000   132            407.97215      47.40835      -3803.2606      13946.323    
     66100   132.2          400.51033      46.541251     -3802.7687      13706.172    
     66200   132.4          410.2469       47.672688     -3802.8776      15397.747    
     66300   132.6          381.87077      44.375243     -3805.0235      15351.195    
     66400   132.8          390.14491      45.336739     -3806.1393      14017.889    
     66500   133            383.08285      44.516093     -3805.3142      15877.033    
     66600   133.2          407.95657      47.40654      -3801.8256      13657.108    
     66700   133.4          429.68233      49.931179     -3801.5482      15963.519    
     66800   133.6          406.73093      47.264115     -3803.3315      16434.712    
     66900   133.8          401.87395      46.69971      -3805.3518      15140.222    
     67000   134            397.25689      46.163185     -3805.5502      16303.558    
     67100   134.2          395.70343      45.982665     -3805.2036      14553.284    
     67200   134.4          407.29346      47.329483     -3804.1836      15635.398    
     67300   134.6          410.03212      47.647729     -3802.9637      16039.183    
     67400   134.8          434.27038      50.464333     -3799.2831      15841.84     
     67500   135            410.92521      47.751511     -3799.4573      15880.949    
     67600   135.2          420.25648      48.83585      -3802.2533      15325.323    
     67700   135.4          411.72203      47.844105     -3803.8935      15279.852    
     67800   135.6          400.36785      46.524695     -3805.079       14044.232    
     67900   135.8          383.35711      44.547963     -3805.6409      14088.851    
     68000   136            393.97321      45.781606     -3805.3173      15142.197    
     68100   136.2          428.82177      49.831178     -3802.4168      15405.533    
     68200   136.4          407.72587      47.379732     -3801.5093      15227.98     
     68300   136.6          410.31371      47.680452     -3803.008       14673.131    
     68400   136.8          398.15168      46.267164     -3805.6379      14607.868    
     68500   137            397.05272      46.13946      -3805.766       14925.143    
     68600   137.2          397.74331      46.21971      -3804.768       14986.497    
     68700   137.4          395.22434      45.926993     -3803.3652      15658.91     
     68800   137.6          404.82218      47.042309     -3801.925       15339.214    
     68900   137.8          416.28906      48.374816     -3798.9702      14761.552    
     69000   138            418.06688      48.581408     -3798.7205      15907.825    
     69100   138.2          408.5945       47.48067      -3802.1034      13734.444    
     69200   138.4          400.50373      46.540484     -3803.7369      15243.199    
     69300   138.6          405.92676      47.170667     -3805.1102      14305.073    
     69400   138.8          399.8574       46.465378     -3805.4193      14050.088    
     69500   139            387.25593      45.001025     -3804.6899      15177.949    
     69600   139.2          420.36852      48.84887      -3801.7775      15426.734    
     69700   139.4          422.04475      49.043655     -3801.1186      15822.201    
     69800   139.6          400.53493      46.54411      -3803.5658      14530.279    
     69900   139.8          405.052        47.069016     -3804.915       15658.162    
     70000   140            396.94584      46.12704      -3804.8116      15762.843    
     70100   140.2          408.71801      47.495024     -3804.092       12858.14     
     70200   140.4          415.10812      48.237586     -3802.3701      15900.142    
     70300   140.6          396.66076      46.093912     -3800.6531      14102.952    
     70400   140.8          397.69286      46.213847     -3802.627       15289.605    
     70500   141            396.70063      46.098545     -3805.2808      15438.211    
     70600   141.2          390.34907      45.360463     -3805.6601      13722.426    
     70700   141.4          406.30018      47.21406      -3804.9748      13755.628    
     70800   141.6          417.55319      48.521715     -3802.1902      15163.717    
     70900   141.8          422.3226       49.075943     -3801.3769      14937.375    
     71000   142            393.10653      45.680894     -3803.3977      15979.865    
     71100   142.2          414.5813       48.176367     -3804.117       16171.18     
     71200   142.4          394.25811      45.814713     -3805.0868      14505.48     
     71300   142.6          388.18128      45.108555     -3805.8582      14118.799    
     71400   142.8          388.73281      45.172645     -3806.0028      16731.685    
     71500   143            390.72525      45.404177     -3803.9103      13124.612    
     71600   143.2          414.07145      48.117119     -3801.898       15695.908    
     71700   143.4          408.57839      47.478799     -3802.3632      14881.185    
     71800   143.6          403.17006      46.850324     -3805.3366      14233.635    
     71900   143.8          398.5675       46.315485     -3805.8108      13361.701    
     72000   144            398.42306      46.2987       -3805.178       16364.437    
     72100   144.2          399.81489      46.460438     -3804.1047      13484.496    
     72200   144.4          400.56385      46.54747      -3802.4993      16473.112    
     72300   144.6          417.74075      48.54351      -3800.3473      17266.532    
     72400   144.8          411.09477      47.771214     -3802.1382      13175.334    
     72500   145            392.78474      45.6435       -3804.8754      17030.778    
     72600   145.2          398.23728      46.277111     -3805.2211      13422.965    
     72700   145.4          414.0172       48.110815     -3804.5748      15895.932    
     72800   145.6          399.63016      46.43897      -3802.9818      15944.647    
     72900   145.8          421.26531      48.95308      -3800.6702      14791.691    
     73000   146            423.04125      49.159453     -3801.6386      15354.777    
     73100   146.2          391.14729      45.45322      -3805.169       15309.35     
     73200   146.4          389.93818      45.312716     -3805.651       15118.845    
     73300   146.6          411.77958      47.850793     -3804.269       14456.577    
     73400   146.8          406.51533      47.239061     -3802.5859      14653.566    
     73500   147            407.37602      47.339077     -3802.049       15230.377    
     73600   147.2          410.72009      47.727675     -3804.8174      13043.098    
     73700   147.4          388.18133      45.108561     -3806.8594      15022.354    
     73800   147.6          399.73319      46.450944     -3805.6735      12410.956    
     73900   147.8          400.43592      46.532604     -3803.6043      13970.252    
     74000   148            407.69496      47.37614      -3802.8944      14666.412    
     74100   148.2          413.28434      48.025654     -3803.5738      12761.284    
     74200   148.4          402.55881      46.779294     -3804.0472      15102.131    
     74300   148.6          405.23801      47.09063      -3803.8231      14500.068    
     74400   148.8          400.63629      46.555888     -3803.3989      15397.765    
     74500   149            412.6877       47.956321     -3801.3997      16014.015    
     74600   149.2          418.85278      48.672733     -3801.2966      13812.397    
     74700   149.4          413.4933       48.049936     -3803.982       16152.391    
     74800   149.6          385.14016      44.755162     -3805.4338      13346.203    
     74900   149.8          398.05783      46.256259     -3804.7683      15062.919    
     75000   150            406.48919      47.236024     -3803.5547      13916.125    
     75100   150.2          413.3028       48.027798     -3800.1781      13657.847    
     75200   150.4          414.49669      48.166534     -3800.6259      14405.367    
     75300   150.6          394.60996      45.855599     -3802.5681      14349.377    
     75400   150.8          414.86993      48.209907     -3804.1619      13051.763    
     75500   151            400.86443      46.582399     -3805.2674      13791.638    
     75600   151.2          387.00593      44.971973     -3805.6372      13090.711    
     75700   151.4          400.24934      46.510922     -3803.8951      14902.232    
     75800   151.6          416.91967      48.448096     -3801.3394      13657.808    
     75900   151.8          409.74853      47.614775     -3801.3909      14062.27     
     76000   152            402.25631      46.744143     -3803.91        15113.496    
     76100   152.2          392.69         45.632491     -3805.2634      12725.143    
     76200   152.4          411.9646       47.872293     -3805.0229      12851.345    
     76300   152.6          401.66373      46.675282     -3804.3767      15704.193    
     76400   152.8          391.86604      45.536743     -3802.2974      13973.905    
     76500   153            403.71227      46.913332     -3801.0108      13982.736    
     76600   153.2          400.27102      46.513442     -3804.3372      16177.191    
     76700   153.4          399.3604       46.407624     -3806.5316      14543.506    
     76800   153.6          401.23013      46.624895     -3805.9276      15419.184    
     76900   153.8          400.50142      46.540215     -3803.7736      14999.415    
     77000   154            404.15079      46.964291     -3802.0677      13380.726    
     77100   154.2          403.04802      46.836143     -3802.3475      15170.535    
     77200   154.4          377.86038      43.909216     -3804.5315      15179.074    
     77300   154.6          383.41415      44.554592     -3805.3758      13023.17     
     77400   154.8          392.45626      45.605329     -3805.0017      14249.797    
     77500   155            394.7283       45.869351     -3804.0153      13353.945    
     77600   155.2          402.99707      46.830223     -3802.3291      14578.76     
     77700   155.4          410.81343      47.738522     -3801.2702      14026.7      
     77800   155.6          412.75578      47.964232     -3801.6515      14733.546    
     77900   155.8          396.58407      46.085        -3805.0064      14908.382    
     78000   156            409.5409       47.590647     -3806.1632      14796.557    
     78100   156.2          399.25745      46.395661     -3805.7125      14924.463    
     78200   156.4          406.53935      47.241852     -3803.5559      15842.853    
     78300   156.6          395.18755      45.922718     -3801.528       14519.848    
     78400   156.8          422.98298      49.152682     -3801.3665      15724.566    
     78500   157            383.13827      44.522532     -3805.5702      16288.962    
     78600   157.2          391.9826       45.550287     -3806.1411      11681.631    
     78700   157.4          401.5009       46.656361     -3804.6263      15011.543    
     78800   157.6          417.85172      48.556405     -3802.6695      14814.262    
     78900   157.8          400.7487       46.56895      -3802.866       13813.941    
     79000   158            389.25263      45.233051     -3806.2359      15016.092    
     79100   158.2          382.59218      44.459075     -3807.8224      14526.205    
     79200   158.4          393.88527      45.771387     -3806.4002      14281.199    
     79300   158.6          404.20389      46.970461     -3804.368       15449.26     
     79400   158.8          389.34611      45.243914     -3803.8507      15166.136    
     79500   159            403.58189      46.898181     -3803.8917      15902.185    
     79600   159.2          389.68341      45.28311      -3806.2849      14173.446    
     79700   159.4          381.0977       44.285409     -3809.0881      14405.373    
     79800   159.6          375.42598      43.626328     -3807.9124      14496.552    
     79900   159.8          399.82122      46.461173     -3805.5287      14555.548    
     80000   160            394.14123      45.80113      -3804.1943      15324.824    
     80100   160.2          402.94898      46.824634     -3803.6954      15643.084    
     80200   160.4          420.46432      48.860001     -3804.3042      14557.726    
     80300   160.6          389.76094      45.29212      -3807.1455      14684.352    
     80400   160.8          394.64301      45.85944      -3807.9849      15311.967    
     80500   161            403.98794      46.945366     -3805.9225      13118.166    
     80600   161.2          413.33705      48.031779     -3804.0807      14798.035    
     80700   161.4          396.88696      46.120197     -3804.4399      14709.31     
     80800   161.6          389.40474      45.250727     -3805.5561      15328.728    
     80900   161.8          397.61821      46.205172     -3806.1374      15704.149    
     81000   162            400.39459      46.527802     -3806.1505      14675.574    
     81100   162.2          408.16802      47.431112     -3804.4513      15031.147    
     81200   162.4          413.5964       48.061916     -3802.5353      14313.337    
     81300   162.6          400.1014       46.493732     -3802.6492      13646.674    
     81400   162.8          388.54887      45.151272     -3805.2194      13126.77     
     81500   163            390.97664      45.433389     -3807.0328      13923.07     
     81600   163.2          392.33773      45.591555     -3806.2069      13873.429    
     81700   163.4          401.46012      46.651621     -3804.7615      16346.814    
     81800   163.6          421.91493      49.028569     -3804.272       14397.732    
     81900   163.8          395.00716      45.901755     -3804.4975      17289.111    
     82000   164            406.56476      47.244805     -3804.7804      15367.976    
     82100   164.2          376.6887       43.773061     -3806.9436      13812.267    
     82200   164.4          395.22938      45.927579     -3808.527       15705.199    
     82300   164.6          393.84211      45.766371     -3806.6009      15575.786    
     82400   164.8          408.84784      47.51011      -3804.1327      14960.857    
     82500   165            423.14083      49.171025     -3803.9698      16581.392    
     82600   165.2          415.48784      48.281711     -3804.5509      14122.445    
     82700   165.4          411.99356      47.875659     -3806.5226      15079.682    
     82800   165.6          388.34437      45.127507     -3808.5627      14544.217    
     82900   165.8          392.095        45.563348     -3807.1576      13433.802    
     83000   166            392.47659      45.607691     -3804.8128      16740.921    
     83100   166.2          398.53055      46.311191     -3804.2188      13813.616    
     83200   166.4          423.66542      49.231985     -3803.9965      16043.632    
     83300   166.6          396.25885      46.047209     -3805.326       12937.634    
     83400   166.8          389.77997      45.294331     -3806.9797      12988.442    
     83500   167            377.18835      43.831123     -3807.7258      15268.166    
     83600   167.2          397.49068      46.190353     -3805.2976      13455.167    
     83700   167.4          407.55847      47.360279     -3803.0919      14805.106    
     83800   167.6          407.47486      47.350563     -3803.368       15355.067    
     83900   167.8          391.82862      45.532394     -3805.6215      15680.048    
     84000   168            400.71491      46.565024     -3806.9456      13344.093    
     84100   168.2          390.57386      45.386585     -3806.432       15417.287    
     84200   168.4          400.47366      46.53699      -3805.588       13697.973    
     84300   168.6          406.6298       47.252363     -3805.1486      15389.557    
     84400   168.8          402.3029       46.749557     -3804.1304      14863.29     
     84500   169            413.60096      48.062446     -3802.3618      15644.523    
     84600   169.2          423.55315      49.218939     -3800.5272      14280.2      
     84700   169.4          400.54087      46.544799     -3802.5168      14092.305    
     84800   169.6          402.25392      46.743865     -3805.3195      14246.434    
     84900   169.8          401.26721      46.629204     -3805.9683      14804.742    
     85000   170            391.09493      45.447135     -3805.1832      15411.137    
     85100   170.2          396.08393      46.026882     -3802.8282      15223.996    
     85200   170.4          423.02126      49.157131     -3801.7591      15529.659    
     85300   170.6          409.7747       47.617816     -3804.8122      15790.404    
     85400   170.8          400.1224       46.496171     -3806.9239      14275.392    
     85500   171            389.96897      45.316293     -3806.3925      15187.937    
     85600   171.2          389.29699      45.238206     -3803.8688      15336.056    
     85700   171.4          408.86142      47.511688     -3802.5461      15254.108    
[...]
    478600   957.2          413.05476      47.998975     -3802.5277      16021.99     
    478700   957.4          393.59389      45.737527     -3805.1143      14046.063    
    478800   957.6          385.43345      44.789244     -3805.1069      13508.682    
    478900   957.8          401.26592      46.629054     -3804.4265      14836.591    
    479000   958            399.99411      46.481263     -3803.1225      14927.548    
    479100   958.2          417.30463      48.49283      -3801.1839      13789.347    
    479200   958.4          427.43718      49.670283     -3801.2379      16593.658    
    479300   958.6          405.99049      47.178072     -3804.9367      13335.396    
    479400   958.8          391.95652      45.547256     -3805.9648      15026.773    
    479500   959            389.75479      45.291405     -3805.8912      15147.58     
    479600   959.2          404.17002      46.966525     -3803.9179      14523.454    
    479700   959.4          406.35733      47.220701     -3801.8274      15987.208    
    479800   959.6          408.88333      47.514234     -3802.3043      15343.334    
    479900   959.8          385.27379      44.770691     -3806.4616      14886.567    
    480000   960            398.7864       46.340922     -3806.8231      15061.481    
    480100   960.2          394.59772      45.854177     -3805.4513      14209.792    
    480200   960.4          389.93313      45.312129     -3803.1347      15426.206    
    480300   960.6          397.46298      46.187134     -3802.5767      14753.539    
    480400   960.8          405.93401      47.171509     -3803.6346      15423.383    
    480500   961            390.02259      45.322524     -3806.659       14598.559    
    480600   961.2          389.01693      45.205662     -3808.4541      13735.463    
    480700   961.4          388.72979      45.172295     -3807.2082      15424.131    
    480800   961.6          398.22023      46.27513      -3804.9643      14603.235    
    480900   961.8          396.87159      46.118412     -3803.0928      15746.178    
    481000   962            414.20008      48.132067     -3802.7765      13989.903    
    481100   962.2          395.79613      45.993438     -3804.7398      16951.124    
    481200   962.4          399.96542      46.47793      -3807.3662      12978.877    
    481300   962.6          377.21935      43.834726     -3806.8374      14806.384    
    481400   962.8          411.54162      47.823141     -3805.4368      14416.304    
    481500   963            391.22325      45.462046     -3804.6503      14242.47     
    481600   963.2          393.71335      45.751409     -3803.7321      14878.029    
    481700   963.4          415.89379      48.328883     -3801.8919      13950.311    
    481800   963.6          420.24769      48.834828     -3800.0368      15409.086    
    481900   963.8          400.60218      46.551925     -3800.9797      14821.351    
    482000   964            403.2645       46.861299     -3804.3872      13817.372    
    482100   964.2          392.37707      45.596126     -3805.1585      13828.445    
    482200   964.4          393.9528       45.779234     -3805.0709      15371.472    
    482300   964.6          410.11167      47.656974     -3803.2837      14903.076    
    482400   964.8          420.89665      48.91024      -3801.1465      13701.214    
    482500   965            412.02863      47.879733     -3801.9901      16645.53     
    482600   965.2          388.02043      45.089864     -3805.6589      11441.298    
    482700   965.4          388.90515      45.192673     -3805.9914      16786.165    
    482800   965.6          387.64505      45.046242     -3804.676       16107.733    
    482900   965.8          414.62232      48.181134     -3802.4193      15239.973    
    483000   966            418.29568      48.607995     -3802.8131      15101.495    
    483100   966.2          415.81438      48.319656     -3805.0014      13553.081    
    483200   966.4          381.38403      44.318682     -3807.9702      14306.944    
    483300   966.6          390.3319       45.358468     -3807.6153      13792.314    
    483400   966.8          387.81337      45.065802     -3805.5292      14883.926    
    483500   967            409.09257      47.538549     -3803.2172      15921.827    
    483600   967.2          418.01142      48.574963     -3802.4879      14400.171    
    483700   967.4          413.0077       47.993506     -3803.5775      15193.957    
    483800   967.6          393.81789      45.763557     -3806.385       14821.662    
    483900   967.8          386.32401      44.892732     -3806.6388      15130.13     
    484000   968            390.58311      45.387659     -3805.3417      13656.267    
    484100   968.2          396.41874      46.065789     -3804.3282      15430.398    
    484200   968.4          403.17083      46.850414     -3804.1669      13493.88     
    484300   968.6          394.16753      45.804187     -3804.2048      15851.387    
    484400   968.8          408.43522      47.462162     -3805.0672      15031.555    
    484500   969            400.05946      46.488858     -3806.8438      13684.712    
    484600   969.2          398.73919      46.335436     -3806.7961      13249.879    
    484700   969.4          399.6899       46.445913     -3803.7552      14271.747    
    484800   969.6          392.38935      45.597553     -3802.8925      13344.193    
    484900   969.8          402.03338      46.718237     -3802.9833      16451.558    
    485000   970            385.24612      44.767476     -3804.5632      15243.059    
    485100   970.2          375.49591      43.634453     -3807.4421      12066.347    
    485200   970.4          387.85167      45.070253     -3807.2921      15545.462    
    485300   970.6          397.57582      46.200246     -3805.1492      15144.143    
    485400   970.8          389.82422      45.299473     -3804.4775      14922.081    
    485500   971            403.59409      46.899598     -3803.9438      14842.71     
    485600   971.2          426.38826      49.548392     -3802.811       15618.607    
    485700   971.4          401.39155      46.643653     -3802.1566      14380.266    
    485800   971.6          400.21736      46.507207     -3803.3449      13815.409    
    485900   971.8          390.17548      45.340291     -3806.1623      14951.434    
    486000   972            393.66098      45.745323     -3806.3296      14588.603    
    486100   972.2          411.46348      47.81406      -3804.2409      14856.254    
    486200   972.4          412.71414      47.959393     -3802.8459      15695.229    
    486300   972.6          407.59716      47.364775     -3803.3347      15048.815    
    486400   972.8          397.10302      46.145305     -3803.9592      14754.831    
    486500   973            394.44458      45.836381     -3804.6598      14702.273    
    486600   973.2          399.26113      46.396088     -3806.1927      14626.216    
    486700   973.4          381.04947      44.279805     -3808.7537      14717.018    
    486800   973.6          381.42348      44.323266     -3808.2013      14577.405    
    486900   973.8          389.6335       45.27731      -3804.8339      14835.841    
    487000   974            393.98885      45.783423     -3804.1764      13824.445    
    487100   974.2          405.36817      47.105756     -3803.4005      14224.691    
    487200   974.4          413.88662      48.095641     -3803.357       13576.07     
    487300   974.6          392.23422      45.579527     -3805.2377      15065.742    
    487400   974.8          407.98269      47.409576     -3807.171       15678.159    
    487500   975            395.04876      45.90659      -3807.1479      14031.144    
    487600   975.2          399.20861      46.389985     -3803.383       15354.6      
    487700   975.4          419.98237      48.803997     -3802.5097      13368.634    
    487800   975.6          407.89436      47.399311     -3803.6979      14165.561    
    487900   975.8          393.41379      45.716599     -3805.3075      15495.181    
    488000   976            389.82364      45.299406     -3806.7583      13855.517    
    488100   976.2          369.4495       42.931831     -3808.3585      14558.016    
    488200   976.4          388.18292      45.108745     -3807.3519      14099.069    
    488300   976.6          402.53559      46.776596     -3804.1736      14873.698    
    488400   976.8          392.65665      45.628615     -3803.0139      14084.777    
    488500   977            404.26298      46.977327     -3802.7482      15977.523    
    488600   977.2          397.35998      46.175165     -3804.4539      15085.329    
    488700   977.4          390.29147      45.353769     -3807.2439      14783.468    
    488800   977.6          372.42547      43.277653     -3806.8102      15205.441    
    488900   977.8          382.17149      44.410188     -3805.3545      14693.037    
    489000   978            414.84099      48.206544     -3803.7364      15391.541    
    489100   978.2          400.66682      46.559436     -3803.7678      14648.496    
    489200   978.4          408.63065      47.484872     -3803.8468      14661.468    
    489300   978.6          372.43649      43.278934     -3804.3787      12238.22     
    489400   978.8          401.2512       46.627344     -3806.7776      15441.193    
    489500   979            381.19717      44.296968     -3807.978       12948.107    
    489600   979.2          382.75897      44.478456     -3806.0935      14884.33     
    489700   979.4          386.22428      44.881142     -3803.4856      12680.348    
    489800   979.6          413.36766      48.035336     -3803.2076      14297.141    
    489900   979.8          411.19404      47.78275      -3804.0828      13548.668    
    490000   980            401.6589       46.67472      -3805.3516      14613.761    
    490100   980.2          374.72645      43.545039     -3806.9011      15334.621    
    490200   980.4          377.24854      43.838118     -3807.2521      15317.358    
    490300   980.6          404.83867      47.044225     -3804.5917      14050.874    
    490400   980.8          419.9345       48.798434     -3802.7187      14996.353    
    490500   981            414.47965      48.164555     -3802.6651      15965.148    
    490600   981.2          391.44083      45.487331     -3804.3515      13718.45     
    490700   981.4          386.38072      44.899322     -3807.3131      13539.093    
    490800   981.6          389.01406      45.205328     -3807.1979      15440.981    
    490900   981.8          401.36205      46.640225     -3805.9033      13617.615    
    491000   982            391.66051      45.512858     -3803.9918      16500.222    
    491100   982.2          405.81135      47.157256     -3802.6718      13983.496    
    491200   982.4          391.77087      45.525683     -3802.4981      14855.083    
    491300   982.6          399.92803      46.473585     -3804.7856      16398.441    
    491400   982.8          385.44543      44.790636     -3807.3681      14843.509    
    491500   983            391.04936      45.44184      -3806.3861      14552.077    
    491600   983.2          405.15816      47.081352     -3804.1787      13581.447    
    491700   983.4          400.38437      46.526614     -3803.22        15914.362    
    491800   983.6          402.81211      46.808729     -3803.3195      15263.092    
    491900   983.8          387.99731      45.087177     -3804.1345      15306.238    
    492000   984            389.93869      45.312775     -3806.6861      15677.6      
    492100   984.2          370.43204      43.046007     -3808.6999      15730.524    
    492200   984.4          394.83405      45.881639     -3806.6402      15500.794    
    492300   984.6          409.54506      47.59113      -3804.7781      15268.425    
    492400   984.8          413.57784      48.05976      -3803.4219      14392.016    
    492500   985            397.67932      46.212274     -3802.5663      14722.235    
    492600   985.2          404.38644      46.991674     -3802.766       14080.207    
    492700   985.4          387.18964      44.993322     -3805.234       14557.125    
    492800   985.6          369.60969      42.950446     -3806.6359      14852.556    
    492900   985.8          403.38696      46.87553      -3804.9829      15285.454    
    493000   986            412.27286      47.908114     -3802.6351      15294.949    
    493100   986.2          402.12286      46.728634     -3802.6902      14841.063    
    493200   986.4          407.45106      47.347798     -3803.3061      16070.819    
    493300   986.6          398.56375      46.315048     -3804.1225      12970.056    
    493400   986.8          395.43297      45.951236     -3806.0004      14793.391    
    493500   987            387.85122      45.070201     -3808.14        13799.883    
    493600   987.2          400.25079      46.511091     -3806.2488      12931.442    
    493700   987.4          416.98816      48.456055     -3803.7822      16009.744    
    493800   987.6          417.56787      48.523421     -3803.3369      13587.624    
    493900   987.8          404.42417      46.996058     -3803.3912      14335.274    
    494000   988            404.6838       47.026228     -3804.3616      15987.428    
    494100   988.2          375.4152       43.625074     -3806.295       13013.729    
    494200   988.4          376.81979      43.788295     -3806.6756      14707.552    
    494300   988.6          411.45802      47.813426     -3803.7943      14396.264    
    494400   988.8          419.61275      48.761045     -3802.1588      12981.913    
    494500   989            407.88721      47.39848      -3802.6873      15956.261    
    494600   989.2          405.72553      47.147282     -3804.1511      14554.025    
    494700   989.4          381.58836      44.342426     -3806.6098      13627.755    
    494800   989.6          384.16018      44.641283     -3808.0927      13455.827    
    494900   989.8          394.9506       45.895183     -3808.0764      15430.878    
    495000   990            402.76573      46.803339     -3804.7277      14065.708    
    495100   990.2          407.91124      47.401273     -3802.842       14833.112    
    495200   990.4          405.68453      47.142518     -3801.9255      16097.048    
    495300   990.6          407.59419      47.364431     -3803.2049      13336.473    
    495400   990.8          398.99512      46.365177     -3805.8796      15677.393    
    495500   991            394.38561      45.829529     -3806.3685      13778.928    
    495600   991.2          396.42824      46.066893     -3805.3567      14976.485    
    495700   991.4          378.72002      44.00911      -3804.447       14803.756    
    495800   991.6          401.3533       46.639208     -3804.0812      14771.963    
    495900   991.8          389.69721      45.284713     -3803.9481      15103.923    
    496000   992            406.74051      47.265229     -3803.4637      15622.25     
    496100   992.2          401.09428      46.609109     -3802.8283      14519.184    
    496200   992.4          406.42763      47.22887      -3802.9477      14009.935    
    496300   992.6          402.97271      46.827392     -3804.6267      17197.43     
    496400   992.8          384.36927      44.665582     -3806.491       14108.114    
    496500   993            389.30264      45.238863     -3806.4912      14287.081    
    496600   993.2          398.48674      46.3061       -3802.6975      16139.901    
    496700   993.4          395.58804      45.969257     -3801.8068      14890.113    
    496800   993.6          403.35478      46.87179      -3802.8031      14992.888    
    496900   993.8          394.31325      45.82112      -3804.7758      15056.812    
    497000   994            397.37236      46.176604     -3805.8963      12877.09     
    497100   994.2          386.43848      44.906033     -3806.0682      13603.77     
    497200   994.4          408.72671      47.496035     -3803.3816      14153.864    
    497300   994.6          412.73051      47.961296     -3801.686       14833.795    
    497400   994.8          394.51563      45.844637     -3802.6375      15581.891    
    497500   995            404.81539      47.04152      -3804.852       14876.428    
    497600   995.2          387.72301      45.055302     -3806.2674      14686.928    
    497700   995.4          379.02851      44.044959     -3805.7114      14569.629    
    497800   995.6          407.43157      47.345533     -3803.0155      14695.298    
    497900   995.8          422.48206      49.094473     -3801.4483      15040.05     
    498000   996            384.73677      44.708287     -3802.6023      13827.997    
    498100   996.2          394.46454      45.838701     -3804.1716      14499.17     
    498200   996.4          383.69028      44.586679     -3805.9758      15715.058    
    498300   996.6          385.12974      44.753952     -3806.1423      13332.107    
    498400   996.8          401.15966      46.616706     -3803.7021      15377.287    
    498500   997            406.58444      47.247092     -3801.9917      15783.925    
    498600   997.2          399.74239      46.452013     -3802.4044      12833.9      
    498700   997.4          398.73339      46.334762     -3803.7739      14209.994    
    498800   997.6          395.70561      45.982919     -3804.5192      13275.835    
    498900   997.8          410.02843      47.647301     -3804.4632      14015.905    
    499000   998            400.20367      46.505616     -3804.3832      13198.09     
    499100   998.2          404.45049      46.999117     -3804.021       15355.4      
    499200   998.4          395.97539      46.014269     -3803.4671      14373.743    
    499300   998.6          403.58863      46.898965     -3802.5342      14658.812    
    499400   998.8          412.26045      47.906672     -3802.2957      16046.981    
    499500   999            398.75446      46.33721      -3804.3694      13289.136    
    499600   999.2          394.83982      45.88231      -3806.3216      13649.129    
    499700   999.4          375.21936      43.602318     -3806.0484      14342.343    
    499800   999.6          409.66996      47.605644     -3804.0126      13009.795    
    499900   999.8          421.98566      49.036789     -3801.1771      14406.807    
    500000   1000           424.21306      49.295624     -3798.2843      15666.96     
Loop time of 29233.6 on 1 procs for 500000 steps with 900 atoms

Performance: 2.956 ns/day, 8.120 hours/ns, 17.104 timesteps/s
59.3% CPU use with 1 MPI tasks x 1 OpenMP threads

MPI task timing breakdown:
Section |  min time  |  avg time  |  max time  |%varavg| %total
---------------------------------------------------------------
Pair    | 28953      | 28953      | 28953      |   0.0 | 99.04
Neigh   | 235.77     | 235.77     | 235.77     |   0.0 |  0.81
Comm    | 10.665     | 10.665     | 10.665     |   0.0 |  0.04
Output  | 10.747     | 10.747     | 10.747     |   0.0 |  0.04
Modify  | 19.092     | 19.092     | 19.092     |   0.0 |  0.07
Other   |            | 3.898      |            |       |  0.01

Nlocal:            900 ave         900 max         900 min
Histogram: 1 0 0 0 0 0 0 0 0 0
Nghost:           2483 ave        2483 max        2483 min
Histogram: 1 0 0 0 0 0 0 0 0 0
Neighs:              0 ave           0 max           0 min
Histogram: 1 0 0 0 0 0 0 0 0 0
FullNghs:        66488 ave       66488 max       66488 min
Histogram: 1 0 0 0 0 0 0 0 0 0

Total # of neighbors = 66488
Ave neighs/atom = 73.875556
Neighbor list builds = 50000
Dangerous builds not checked
Total wall time: 8:09:05
