ITEM: TIMESTEP
0
ITEM: NUMBER OF ATOMS
48
ITEM: BOX BOUNDS xy xz yz pp pp pp
-1.6120931506156921e+00 8.6067802309989929e+00 2.5094206929206848e+00
-9.4973444938659668e-03 9.3236122131347656e+00 -1.6000560522079468e+00
-2.8691649436950684e-02 1.9545819282531738e+01 7.1304261684417725e-02
ITEM: ATOMS id type xs ys zs fx fy fz
1 1 0.929986 0.16703 0.0320218 0 0 0.000457764
2 1 0.472071 0.0738739 0.0528103 0 0 0.0301571
3 1 0.195772 0.125314 0.657023 0 0 2.67029e-05
4 1 0.244014 0.948847 0.927808 0 0 -0.000453949
5 1 0.990977 0.157156 0.802805 0 0 -0.000442505
6 1 0.701929 0.0420026 0.90702 0 0 -0.0301495
7 1 0.448887 0.250315 0.78202 0 0 -0.000713348
8 1 0.689332 0.208712 0.407029 0 0 0.000419617
9 1 0.737867 0.0321465 0.677802 0 0 -0.000324249
10 1 0.484669 0.240498 0.552801 0 0 -0.00041008
11 1 0.725113 0.198895 0.17781 0 0 0.000703812
12 1 0.436134 0.0837297 0.282028 0 0 0.000320435
13 1 0.183023 0.292053 0.157025 0 0 0.000440598
14 1 0.231429 0.115534 0.427803 0 0 -0.00025177
15 1 0.929986 0.500363 0.0320219 0 0 0.000452042
16 1 0.472071 0.407207 0.0528103 0 0 0.0301571
17 1 0.195772 0.458648 0.657023 0 0 3.05176e-05
18 1 0.244014 0.28218 0.927808 0 0 -0.000455856
19 1 0.990977 0.49049 0.802805 0 0 -0.00043869
20 1 0.701929 0.375336 0.90702 0 0 -0.0301514
21 1 0.448887 0.583648 0.78202 0 0 -0.000713348
22 1 0.942572 0.333676 0.532027 0 0 0.000247955
23 1 0.689332 0.542046 0.407029 0 0 0.000413895
24 1 0.737867 0.36548 0.677802 0 0 -0.00031662
25 1 0.484668 0.573831 0.552801 0 0 -0.000415802
26 1 0.978228 0.323895 0.302807 0 0 -2.67029e-05
27 1 0.725113 0.532228 0.17781 0 0 0.000713348
28 1 0.436134 0.417063 0.282028 0 0 0.000326157
29 1 0.183023 0.625387 0.157025 0 0 0.000432968
30 1 0.231429 0.448867 0.427803 0 0 -0.00025177
31 1 0.929986 0.833696 0.0320219 0 0 0.000452042
32 1 0.472071 0.740541 0.0528104 0 0 0.0301514
33 1 0.195772 0.791981 0.657023 0 0 2.67029e-05
34 1 0.244014 0.615514 0.927808 0 0 -0.000455856
35 1 0.990977 0.823823 0.802805 0 0 -0.000431061
36 1 0.701929 0.708669 0.90702 0 0 -0.0301533
37 1 0.448887 0.916981 0.78202 0 0 -0.000711441
38 1 0.942572 0.667009 0.532027 0 0 0.000246048
39 1 0.689332 0.875379 0.407029 0 0 0.000413895
40 1 0.737866 0.698813 0.677802 0 0 -0.000324249
41 1 0.484668 0.907164 0.552801 0 0 -0.00041008
42 1 0.978228 0.657228 0.302807 0 0 -2.67029e-05
43 1 0.725113 0.865562 0.17781 0 0 0.000711441
44 1 0.436134 0.750396 0.282028 0 0 0.000322342
45 1 0.183023 0.95872 0.157026 0 0 0.000431061
46 1 0.231429 0.782201 0.427803 0 0 -0.000246048
47 1 0.942572 0.000342385 0.532027 0 0 0.000246048
48 1 0.978228 0.990562 0.302807 0 0 -2.67029e-05
ITEM: TIMESTEP
1
ITEM: NUMBER OF ATOMS
48
ITEM: BOX BOUNDS xy xz yz pp pp pp
-1.6120931506156921e+00 8.6067802309989929e+00 2.5094206929206848e+00
-9.4973444938659668e-03 9.3236122131347656e+00 -1.6000560522079468e+00
-2.8691649436950684e-02 1.9545819282531738e+01 7.1304261684417725e-02
ITEM: ATOMS id type xs ys zs fx fy fz
1 1 0.929989 0.167029 0.0320308 0 0 -0.00904083
2 1 0.472228 0.0738694 0.0534029 0 0 -0.000494003
3 1 0.195773 0.125314 0.657023 0 0 -0.00071907
4 1 0.244012 0.948847 0.927799 0 0 0.00904083
5 1 0.990975 0.157157 0.802796 0 0 -0.00501823
6 1 0.701772 0.0420071 0.906427 0 0 0.000494003
7 1 0.448884 0.250315 0.782006 0 0 -0.00761414
8 1 0.689334 0.208712 0.407037 0 0 -0.000104904
9 1 0.737865 0.0321465 0.677796 0 0 -0.000356674
10 1 0.484666 0.240498 0.552793 0 0 0.000104904
11 1 0.725117 0.198895 0.177824 0 0 0.00761604
12 1 0.436136 0.0837296 0.282035 0 0 0.000362396
13 1 0.183026 0.292053 0.157034 0 0 0.00501442
14 1 0.231428 0.115534 0.427798 0 0 -0.000135422
15 1 0.929989 0.500363 0.0320308 0 0 -0.00904274
16 1 0.472228 0.407203 0.053403 0 0 -0.000497818
17 1 0.195773 0.458648 0.657023 0 0 -0.000717163
18 1 0.244011 0.28218 0.927799 0 0 0.00904274
19 1 0.990975 0.49049 0.802796 0 0 -0.0050106
20 1 0.701772 0.37534 0.906427 0 0 0.000495911
21 1 0.448884 0.583648 0.782006 0 0 -0.00761604
22 1 0.942573 0.333676 0.532032 0 0 0.000141144
23 1 0.689334 0.542045 0.407037 0 0 -0.000102997
24 1 0.737865 0.36548 0.677796 0 0 -0.000364304
25 1 0.484666 0.573831 0.552793 0 0 0.000101089
26 1 0.978228 0.323895 0.302807 0 0 0.000715256
27 1 0.725117 0.532228 0.177824 0 0 0.00761223
28 1 0.436136 0.417063 0.282035 0 0 0.000354767
29 1 0.183025 0.625386 0.157034 0 0 0.00502205
30 1 0.231427 0.448867 0.427798 0 0 -0.000137329
31 1 0.929989 0.833696 0.0320308 0 0 -0.00904465
32 1 0.472228 0.740536 0.0534029 0 0 -0.000495911
33 1 0.195772 0.791981 0.657023 0 0 -0.000709534
34 1 0.244011 0.615514 0.927799 0 0 0.00904846
35 1 0.990975 0.823823 0.802796 0 0 -0.00502205
36 1 0.701772 0.708674 0.906427 0 0 0.000497818
37 1 0.448884 0.916982 0.782006 0 0 -0.00761604
38 1 0.942573 0.667009 0.532032 0 0 0.000139236
39 1 0.689334 0.875379 0.407037 0 0 -0.000102997
40 1 0.737865 0.698813 0.677795 0 0 -0.000358582
41 1 0.484666 0.907164 0.552793 0 0 0.000102997
42 1 0.978228 0.657228 0.302807 0 0 0.000720978
43 1 0.725117 0.865561 0.177824 0 0 0.00760651
44 1 0.436136 0.750396 0.282035 0 0 0.000356674
45 1 0.183026 0.95872 0.157034 0 0 0.00501633
46 1 0.231427 0.782201 0.427798 0 0 -0.000144958
47 1 0.942573 0.000342348 0.532032 0 0 0.000143051
48 1 0.978228 0.990562 0.302807 0 0 0.000717163
ITEM: TIMESTEP
2
ITEM: NUMBER OF ATOMS
48
ITEM: BOX BOUNDS xy xz yz pp pp pp
-1.6120931506156921e+00 8.6067802309989929e+00 2.5094206929206848e+00
-9.4973444938659668e-03 9.3236122131347656e+00 -1.6000560522079468e+00
-2.8691649436950684e-02 1.9545819282531738e+01 7.1304261684417725e-02
ITEM: ATOMS id type xs ys zs fx fy fz
1 1 0.929942 0.167031 0.0318569 0 0 0.000753403
2 1 0.472256 0.0738686 0.0535074 0 0 -0.00047493
3 1 0.195769 0.125315 0.65701 0 0 -0.00275803
4 1 0.244058 0.948846 0.927973 0 0 -0.000753403
5 1 0.990949 0.157157 0.802697 0 0 0.000421524
6 1 0.701744 0.0420079 0.906323 0 0 0.000473022
7 1 0.448844 0.250316 0.781855 0 0 -0.0010128
8 1 0.689334 0.208712 0.407037 0 0 0.000267029
9 1 0.737863 0.0321466 0.677787 0 0 -0.00225258
10 1 0.484667 0.240498 0.552793 0 0 -0.000270844
11 1 0.725157 0.198894 0.177975 0 0 0.00102234
12 1 0.436138 0.0837296 0.282043 0 0 0.00224495
13 1 0.183052 0.292052 0.157133 0 0 -0.000419617
14 1 0.231427 0.115534 0.427795 0 0 0.000522614
15 1 0.929943 0.500364 0.0318568 0 0 0.000753403
16 1 0.472256 0.407202 0.0535074 0 0 -0.000473022
17 1 0.195769 0.458648 0.65701 0 0 -0.00275803
18 1 0.244058 0.282179 0.927973 0 0 -0.000761032
19 1 0.990949 0.490491 0.802697 0 0 0.000417709
20 1 0.701744 0.375341 0.906323 0 0 0.000471115
21 1 0.448844 0.58365 0.781855 0 0 -0.00101089
22 1 0.942574 0.333676 0.532036 0 0 -0.000520706
23 1 0.689334 0.542045 0.407037 0 0 0.000267029
24 1 0.737863 0.36548 0.677787 0 0 -0.00224876
25 1 0.484666 0.573831 0.552793 0 0 -0.000265121
26 1 0.978232 0.323895 0.302821 0 0 0.00275993
27 1 0.725157 0.532227 0.177975 0 0 0.00101662
28 1 0.436138 0.417063 0.282043 0 0 0.00225067
29 1 0.183052 0.625386 0.157133 0 0 -0.000419617
30 1 0.231426 0.448868 0.427795 0 0 0.000522614
31 1 0.929943 0.833697 0.0318568 0 0 0.00075531
32 1 0.472256 0.740535 0.0535073 0 0 -0.000473022
33 1 0.195769 0.791981 0.65701 0 0 -0.00276947
34 1 0.244058 0.615512 0.927973 0 0 -0.000759125
35 1 0.990949 0.823824 0.802697 0 0 0.000417709
36 1 0.701744 0.708675 0.906323 0 0 0.000473022
37 1 0.448844 0.916983 0.781855 0 0 -0.00101662
38 1 0.942574 0.667009 0.532035 0 0 -0.000516891
39 1 0.689334 0.875379 0.407037 0 0 0.000267029
40 1 0.737862 0.698813 0.677787 0 0 -0.00224686
41 1 0.484666 0.907164 0.552793 0 0 -0.000267029
42 1 0.978232 0.657228 0.302821 0 0 0.00275803
43 1 0.725157 0.86556 0.177975 0 0 0.00101662
44 1 0.436138 0.750396 0.282043 0 0 0.00225067
45 1 0.183052 0.958719 0.157133 0 0 -0.000417709
46 1 0.231426 0.782201 0.427795 0 0 0.000528336
47 1 0.942574 0.00034232 0.532036 0 0 -0.000522614
48 1 0.978232 0.990562 0.302821 0 0 0.00275803
ITEM: TIMESTEP
3
ITEM: NUMBER OF ATOMS
48
ITEM: BOX BOUNDS xy xz yz pp pp pp
-1.6120931506156921e+00 8.6067802309989929e+00 2.5094206929206848e+00
-9.4973444938659668e-03 9.3236122131347656e+00 -1.6000560522079468e+00
-2.8691649436950684e-02 1.9545819282531738e+01 7.1304261684417725e-02
ITEM: ATOMS id type xs ys zs fx fy fz
1 1 0.929943 0.167031 0.031858 0 0 0.00128174
2 1 0.472255 0.0738686 0.053506 0 0 0.000299454
3 1 0.195745 0.125315 0.656919 0 0 0.000341415
4 1 0.244057 0.948846 0.927972 0 0 -0.00128365
5 1 0.990949 0.157157 0.802697 0 0 -0.0013485
6 1 0.701745 0.0420079 0.906324 0 0 -0.000305176
7 1 0.44883 0.250317 0.781803 0 0 -0.000389099
8 1 0.689336 0.208712 0.407046 0 0 0.00120354
9 1 0.737843 0.0321472 0.677714 0 0 0.000312805
10 1 0.484664 0.240498 0.552785 0 0 -0.00119972
11 1 0.725171 0.198893 0.178028 0 0 0.00038147
12 1 0.436157 0.083729 0.282116 0 0 -0.000305176
13 1 0.183052 0.292052 0.157133 0 0 0.00134659
14 1 0.231431 0.115534 0.427811 0 0 0.00133324
15 1 0.929943 0.500364 0.0318579 0 0 0.00129128
16 1 0.472256 0.407202 0.053506 0 0 0.000297546
17 1 0.195745 0.458649 0.656919 0 0 0.000343323
18 1 0.244057 0.282179 0.927972 0 0 -0.0012722
19 1 0.990949 0.490491 0.802697 0 0 -0.00135231
20 1 0.701745 0.375341 0.906324 0 0 -0.000289917
21 1 0.44883 0.58365 0.781803 0 0 -0.000391006
22 1 0.94257 0.333676 0.532019 0 0 -0.00133896
23 1 0.689337 0.542045 0.407046 0 0 0.00120163
24 1 0.737843 0.36548 0.677714 0 0 0.00030899
25 1 0.484664 0.573831 0.552785 0 0 -0.00120163
26 1 0.978256 0.323894 0.302911 0 0 -0.000337601
27 1 0.725171 0.532226 0.178027 0 0 0.00038147
28 1 0.436157 0.417062 0.282116 0 0 -0.000305176
29 1 0.183052 0.625386 0.157133 0 0 0.00134659
30 1 0.231431 0.448867 0.427811 0 0 0.00133896
31 1 0.929943 0.833697 0.031858 0 0 0.00128365
32 1 0.472256 0.740535 0.053506 0 0 0.000301361
33 1 0.195745 0.791982 0.656919 0 0 0.000350952
34 1 0.244057 0.615512 0.927972 0 0 -0.00128174
35 1 0.990949 0.823824 0.802697 0 0 -0.0013485
36 1 0.701745 0.708675 0.906324 0 0 -0.00030899
37 1 0.44883 0.916983 0.781803 0 0 -0.000385284
38 1 0.94257 0.667009 0.532019 0 0 -0.00134659
39 1 0.689336 0.875379 0.407046 0 0 0.00119972
40 1 0.737843 0.698814 0.677714 0 0 0.000303268
41 1 0.484664 0.907164 0.552785 0 0 -0.00120163
42 1 0.978256 0.657228 0.302911 0 0 -0.000341415
43 1 0.725171 0.86556 0.178027 0 0 0.000389099
44 1 0.436158 0.750396 0.282117 0 0 -0.000305176
45 1 0.183052 0.958719 0.157133 0 0 0.00135231
46 1 0.231431 0.782201 0.427811 0 0 0.00132942
47 1 0.94257 0.000342446 0.532019 0 0 -0.00134087
48 1 0.978256 0.990561 0.302911 0 0 -0.000339508
ITEM: TIMESTEP
4
ITEM: NUMBER OF ATOMS
48
ITEM: BOX BOUNDS xy xz yz pp pp pp
-1.6120931506156921e+00 8.6067802309989929e+00 2.5094206929206848e+00
-9.4973444938659668e-03 9.3236122131347656e+00 -1.6000560522079468e+00
-2.8691649436950684e-02 1.9545819282531738e+01 7.1304261684417725e-02
ITEM: ATOMS id type xs ys zs fx fy fz
1 1 0.929951 0.167031 0.0318889 0 0 0.000234604
2 1 0.472257 0.0738685 0.0535126 0 0 8.39233e-05
3 1 0.195739 0.125315 0.656895 0 0 -5.72205e-06
4 1 0.244049 0.948846 0.927941 0 0 -0.000240326
5 1 0.99094 0.157158 0.802665 0 0 -0.000852585
6 1 0.701743 0.042008 0.906317 0 0 -8.2016e-05
7 1 0.448822 0.250317 0.781775 0 0 2.47955e-05
8 1 0.689345 0.208712 0.407077 0 0 -0.000528336
9 1 0.737838 0.0321473 0.677695 0 0 -0.000226974
10 1 0.484656 0.240498 0.552753 0 0 0.000534058
11 1 0.725178 0.198893 0.178055 0 0 -2.28882e-05
12 1 0.436162 0.0837289 0.282135 0 0 0.000228882
13 1 0.18306 0.292052 0.157165 0 0 0.000860214
14 1 0.231441 0.115534 0.427849 0 0 -0.000589371
15 1 0.929951 0.500364 0.0318891 0 0 0.000236511
16 1 0.472257 0.407202 0.0535126 0 0 8.39233e-05
17 1 0.195739 0.458649 0.656895 0 0 -5.72205e-06
18 1 0.244049 0.282179 0.927941 0 0 -0.000240326
19 1 0.99094 0.490491 0.802665 0 0 -0.0008564
20 1 0.701743 0.375341 0.906318 0 0 -9.53674e-05
21 1 0.448822 0.58365 0.781775 0 0 2.09808e-05
22 1 0.94256 0.333676 0.531982 0 0 0.000585556
23 1 0.689345 0.542045 0.407077 0 0 -0.000528336
24 1 0.737838 0.365481 0.677695 0 0 -0.000226974
25 1 0.484656 0.573831 0.552753 0 0 0.000526428
26 1 0.978262 0.323894 0.302935 0 0 -1.90735e-06
27 1 0.725178 0.532226 0.178055 0 0 -1.33514e-05
28 1 0.436162 0.417062 0.282135 0 0 0.000225067
29 1 0.18306 0.625385 0.157165 0 0 0.000864029
30 1 0.231441 0.448867 0.427849 0 0 -0.000589371
31 1 0.929951 0.833697 0.031889 0 0 0.000236511
32 1 0.472257 0.740535 0.0535127 0 0 8.2016e-05
33 1 0.195738 0.791982 0.656895 0 0 3.8147e-06
34 1 0.244049 0.615513 0.927941 0 0 -0.000236511
35 1 0.99094 0.823824 0.802665 0 0 -0.000858307
36 1 0.701743 0.708675 0.906317 0 0 -8.01086e-05
37 1 0.448822 0.916983 0.781775 0 0 2.47955e-05
38 1 0.94256 0.667009 0.531982 0 0 0.000597
39 1 0.689345 0.875378 0.407077 0 0 -0.000524521
40 1 0.737838 0.698814 0.677695 0 0 -0.000221252
41 1 0.484655 0.907164 0.552753 0 0 0.000530243
42 1 0.978262 0.657227 0.302935 0 0 0
43 1 0.725178 0.86556 0.178055 0 0 -2.09808e-05
44 1 0.436162 0.750396 0.282135 0 0 0.000217438
45 1 0.18306 0.958719 0.157165 0 0 0.000858307
46 1 0.231441 0.7822 0.427849 0 0 -0.000600815
47 1 0.94256 0.000342736 0.531982 0 0 0.000593185
48 1 0.978262 0.990561 0.302935 0 0 -3.8147e-06
ITEM: TIMESTEP
5
ITEM: NUMBER OF ATOMS
48
ITEM: BOX BOUNDS xy xz yz pp pp pp
-1.6120931506156921e+00 8.6067802309989929e+00 2.5094206929206848e+00
-9.4973444938659668e-03 9.3236122131347656e+00 -1.6000560522079468e+00
-2.8691649436950684e-02 1.9545819282531738e+01 7.1304261684417725e-02
ITEM: ATOMS id type xs ys zs fx fy fz
1 1 0.929954 0.16703 0.0319007 0 0 -4.00543e-05
2 1 0.472258 0.0738685 0.0535159 0 0 1.33514e-05
3 1 0.195737 0.125315 0.65689 0 0 4.76837e-05
4 1 0.244046 0.948846 0.927929 0 0 4.19617e-05
5 1 0.990933 0.157158 0.802639 0 0 -1.90735e-06
6 1 0.701742 0.042008 0.906314 0 0 -1.14441e-05
7 1 0.448821 0.250317 0.78177 0 0 -4.19617e-05
8 1 0.689343 0.208712 0.407071 0 0 2.67029e-05
9 1 0.737836 0.0321474 0.677686 0 0 -8.01086e-05
10 1 0.484657 0.240498 0.552759 0 0 -4.00543e-05
11 1 0.725179 0.198893 0.17806 0 0 3.05176e-05
12 1 0.436165 0.0837288 0.282144 0 0 8.39233e-05
13 1 0.183067 0.292052 0.157191 0 0 1.90735e-06
14 1 0.231439 0.115534 0.427843 0 0 -3.24249e-05
15 1 0.929954 0.500364 0.031901 0 0 -4.57764e-05
16 1 0.472258 0.407202 0.0535159 0 0 1.52588e-05
17 1 0.195737 0.458649 0.65689 0 0 4.57764e-05
18 1 0.244046 0.282179 0.927929 0 0 4.3869e-05
19 1 0.990933 0.490491 0.802639 0 0 0
20 1 0.701742 0.375341 0.906314 0 0 -7.62939e-06
21 1 0.448821 0.58365 0.78177 0 0 -4.57764e-05
22 1 0.942562 0.333676 0.531988 0 0 4.3869e-05
23 1 0.689343 0.542045 0.407071 0 0 3.24249e-05
24 1 0.737836 0.365481 0.677686 0 0 -7.62939e-05
25 1 0.484657 0.573831 0.552759 0 0 -3.05176e-05
26 1 0.978263 0.323894 0.30294 0 0 -4.19617e-05
27 1 0.725179 0.532226 0.17806 0 0 3.24249e-05
28 1 0.436165 0.417062 0.282144 0 0 7.62939e-05
29 1 0.183067 0.625385 0.157191 0 0 -5.72205e-06
30 1 0.231439 0.448867 0.427843 0 0 -4.00543e-05
31 1 0.929954 0.833697 0.0319008 0 0 -4.19617e-05
32 1 0.472258 0.740535 0.0535159 0 0 1.33514e-05
33 1 0.195737 0.791982 0.65689 0 0 3.8147e-05
34 1 0.244046 0.615513 0.927929 0 0 4.3869e-05
35 1 0.990933 0.823824 0.802639 0 0 7.62939e-06
36 1 0.701742 0.708675 0.906314 0 0 -9.53674e-06
37 1 0.448821 0.916983 0.78177 0 0 -4.19617e-05
38 1 0.942561 0.667009 0.531988 0 0 3.43323e-05
39 1 0.689343 0.875378 0.407071 0 0 3.05176e-05
40 1 0.737836 0.698814 0.677686 0 0 -8.01086e-05
41 1 0.484657 0.907164 0.552759 0 0 -3.8147e-05
42 1 0.978263 0.657227 0.30294 0 0 -3.43323e-05
43 1 0.72518 0.86556 0.17806 0 0 3.43323e-05
44 1 0.436165 0.750396 0.282144 0 0 8.01086e-05
45 1 0.183067 0.958719 0.157191 0 0 -9.53674e-06
46 1 0.231439 0.7822 0.427842 0 0 -2.67029e-05
47 1 0.942561 0.000342689 0.531988 0 0 4.19617e-05
48 1 0.978263 0.990561 0.30294 0 0 -3.62396e-05
ITEM: TIMESTEP
6
ITEM: NUMBER OF ATOMS
48
ITEM: BOX BOUNDS xy xz yz pp pp pp
-1.6120931506156921e+00 8.6067802309989929e+00 2.5094206929206848e+00
-9.4973444938659668e-03 9.3236122131347656e+00 -1.6000560522079468e+00
-2.8691649436950684e-02 1.9545819282531738e+01 7.1304261684417725e-02
ITEM: ATOMS id type xs ys zs fx fy fz
1 1 0.929954 0.16703 0.0319007 0 0 -4.00543e-05
2 1 0.472258 0.0738685 0.0535159 0 0 1.33514e-05
3 1 0.195737 0.125315 0.65689 0 0 4.76837e-05
4 1 0.244046 0.948846 0.927929 0 0 4.19617e-05
5 1 0.990933 0.157158 0.802639 0 0 -1.90735e-06
6 1 0.701742 0.042008 0.906314 0 0 -1.14441e-05
7 1 0.448821 0.250317 0.78177 0 0 -4.19617e-05
8 1 0.689343 0.208712 0.407071 0 0 2.67029e-05
9 1 0.737836 0.0321474 0.677686 0 0 -8.01086e-05
10 1 0.484657 0.240498 0.552759 0 0 -4.00543e-05
11 1 0.725179 0.198893 0.17806 0 0 3.05176e-05
12 1 0.436165 0.0837288 0.282144 0 0 8.39233e-05
13 1 0.183067 0.292052 0.157191 0 0 1.90735e-06
14 1 0.231439 0.115534 0.427843 0 0 -3.24249e-05
15 1 0.929954 0.500364 0.031901 0 0 -4.57764e-05
16 1 0.472258 0.407202 0.0535159 0 0 1.52588e-05
17 1 0.195737 0.458649 0.65689 0 0 4.57764e-05
18 1 0.244046 0.282179 0.927929 0 0 4.3869e-05
19 1 0.990933 0.490491 0.802639 0 0 0
20 1 0.701742 0.375341 0.906314 0 0 -7.62939e-06
21 1 0.448821 0.58365 0.78177 0 0 -4.57764e-05
22 1 0.942562 0.333676 0.531988 0 0 4.3869e-05
23 1 0.689343 0.542045 0.407071 0 0 3.24249e-05
24 1 0.737836 0.365481 0.677686 0 0 -7.62939e-05
25 1 0.484657 0.573831 0.552759 0 0 -3.05176e-05
26 1 0.978263 0.323894 0.30294 0 0 -4.19617e-05
27 1 0.725179 0.532226 0.17806 0 0 3.24249e-05
28 1 0.436165 0.417062 0.282144 0 0 7.62939e-05
29 1 0.183067 0.625385 0.157191 0 0 -5.72205e-06
30 1 0.231439 0.448867 0.427843 0 0 -4.00543e-05
31 1 0.929954 0.833697 0.0319008 0 0 -4.19617e-05
32 1 0.472258 0.740535 0.0535159 0 0 1.33514e-05
33 1 0.195737 0.791982 0.65689 0 0 3.8147e-05
34 1 0.244046 0.615513 0.927929 0 0 4.3869e-05
35 1 0.990933 0.823824 0.802639 0 0 7.62939e-06
36 1 0.701742 0.708675 0.906314 0 0 -9.53674e-06
37 1 0.448821 0.916983 0.78177 0 0 -4.19617e-05
38 1 0.942561 0.667009 0.531988 0 0 3.43323e-05
39 1 0.689343 0.875378 0.407071 0 0 3.05176e-05
40 1 0.737836 0.698814 0.677686 0 0 -8.01086e-05
41 1 0.484657 0.907164 0.552759 0 0 -3.8147e-05
42 1 0.978263 0.657227 0.30294 0 0 -3.43323e-05
43 1 0.72518 0.86556 0.17806 0 0 3.43323e-05
44 1 0.436165 0.750396 0.282144 0 0 8.01086e-05
45 1 0.183067 0.958719 0.157191 0 0 -9.53674e-06
46 1 0.231439 0.7822 0.427842 0 0 -2.67029e-05
47 1 0.942561 0.000342689 0.531988 0 0 4.19617e-05
48 1 0.978263 0.990561 0.30294 0 0 -3.62396e-05
