ITEM: TIMESTEP
0
ITEM: NUMBER OF ATOMS
32
ITEM: BOX BOUNDS xy xz yz pp pp pp
-9.5987319946289062e-04 6.3977920413017273e+00 -0.0000000000000000e+00
-1.0525226593017578e-02 9.1260780096054077e+00 0.0000000000000000e+00
-5.8505058288574219e-02 2.0783891499042511e+01 3.5951216220855713e+00
ITEM: ATOMS id type xs ys zs fx fy fz
1 1 0.999986 0.627902 0.0597507 -1.54972e-06 0 0.00826573
2 1 0.499986 0.627902 0.0597507 1.90735e-06 0 0.0082655
3 1 0.249986 0.127902 0.0597507 1.19209e-07 0 0.00826776
4 1 0.749986 0.127902 0.0597507 -9.53674e-07 0 0.00826669
5 1 0.999986 0.465711 0.309751 0 0 -0.000197649
6 1 0.249986 0.38014 0.184751 -1.19209e-06 0 0.00474954
7 1 0.749986 0.38014 0.184751 4.76837e-07 0 0.00474846
8 1 0.499986 0.465711 0.309751 1.07288e-06 0 -0.000196934
9 1 0.999986 0.88014 0.184751 4.76837e-07 0 0.00474882
10 1 0.249986 0.965711 0.309751 -2.02656e-06 0 -0.000199676
11 1 0.499986 0.88014 0.184751 3.57628e-07 0 0.00474751
12 1 0.749986 0.965711 0.309751 1.54972e-06 0 -0.00019908
13 1 0.999986 0.303519 0.559751 -2.38419e-06 0 6.31809e-05
14 1 0.499986 0.303519 0.559751 2.5034e-06 0 6.33001e-05
15 1 0.249986 0.803519 0.559751 -7.15256e-07 0 6.35386e-05
16 1 0.749986 0.803519 0.559751 8.34465e-07 0 6.41346e-05
17 1 0.249986 0.217949 0.434751 4.76837e-07 0 -6.31809e-05
18 1 0.749986 0.217949 0.434751 -2.38419e-06 0 -6.34193e-05
19 1 0.999986 0.717949 0.434751 9.53674e-07 0 -6.30617e-05
20 1 0.499986 0.717949 0.434751 2.38419e-07 0 -6.27041e-05
21 1 0.999986 0.141328 0.809751 0 0 -0.0047493
22 1 0.249986 0.0557572 0.684751 2.38419e-07 0 0.000198722
23 1 0.499986 0.141328 0.809751 -7.15256e-07 0 -0.0047487
24 1 0.749986 0.0557571 0.684751 4.76837e-07 0 0.000196695
25 1 0.999986 0.555757 0.684751 -7.15256e-07 0 0.000198126
26 1 0.249986 0.641328 0.809751 0 0 -0.00474858
27 1 0.749986 0.641328 0.809751 3.57628e-07 0 -0.00474882
28 1 0.499986 0.555757 0.684751 3.57628e-07 0 0.000197411
29 1 0.249986 0.893566 0.934751 -7.15256e-07 0 -0.00826669
30 1 0.749986 0.893566 0.934751 5.96046e-07 0 -0.00826383
31 1 0.999986 0.393566 0.934751 -7.15256e-07 0 -0.00826633
32 1 0.499986 0.393566 0.934751 1.07288e-06 0 -0.00826716
ITEM: TIMESTEP
1
ITEM: NUMBER OF ATOMS
32
ITEM: BOX BOUNDS xy xz yz pp pp pp
-9.5987319946289062e-04 6.3977920413017273e+00 -0.0000000000000000e+00
-1.0525226593017578e-02 9.1260780096054077e+00 0.0000000000000000e+00
-5.8505058288574219e-02 2.0783891499042511e+01 3.5951216220855713e+00
ITEM: ATOMS id type xs ys zs fx fy fz
1 1 0.999986 0.627803 0.0599035 2.38419e-07 0 -0.00196099
2 1 0.499986 0.627803 0.0599035 -9.53674e-07 0 -0.00196075
3 1 0.249986 0.127803 0.0599035 -2.38419e-07 0 -0.00196171
4 1 0.749986 0.127803 0.0599035 8.34465e-07 0 -0.0019604
5 1 0.999986 0.465713 0.309747 0 0 0.00240314
6 1 0.249986 0.380083 0.184838 7.15256e-07 0 0.00337255
7 1 0.749986 0.380083 0.184838 -2.38419e-07 0 0.00337327
8 1 0.499986 0.465713 0.309747 -5.96046e-07 0 0.00240219
9 1 0.999986 0.880083 0.184838 2.38419e-07 0 0.00337255
10 1 0.249986 0.965713 0.309747 1.54972e-06 0 0.00240254
11 1 0.499986 0.880083 0.184838 -2.38419e-07 0 0.00337327
12 1 0.749986 0.965713 0.309747 -9.53674e-07 0 0.00240231
13 1 0.999986 0.303519 0.559752 1.78814e-06 0 -3.31402e-05
14 1 0.499986 0.303519 0.559752 -2.02656e-06 0 -3.3021e-05
15 1 0.249986 0.803519 0.559752 9.53674e-07 0 -3.24249e-05
16 1 0.749986 0.803519 0.559752 -8.34465e-07 0 -3.31402e-05
17 1 0.249986 0.217949 0.43475 -2.38419e-07 0 3.29018e-05
18 1 0.749986 0.217949 0.43475 9.53674e-07 0 3.25441e-05
19 1 0.999986 0.717949 0.43475 -8.34465e-07 0 3.29018e-05
20 1 0.499986 0.717949 0.43475 3.57628e-07 0 3.27826e-05
21 1 0.999986 0.141385 0.809663 -4.76837e-07 0 -0.00337303
22 1 0.249986 0.0557548 0.684754 -3.57628e-07 0 -0.00240278
23 1 0.499986 0.141385 0.809663 3.57628e-07 0 -0.00337279
24 1 0.749986 0.0557547 0.684754 0 0 -0.00240207
25 1 0.999986 0.555755 0.684754 1.19209e-07 0 -0.00240219
26 1 0.249986 0.641385 0.809663 2.38419e-07 0 -0.00337279
27 1 0.749986 0.641385 0.809663 -3.57628e-07 0 -0.00337315
28 1 0.499986 0.555755 0.684754 0 0 -0.00240231
29 1 0.249986 0.893665 0.934598 0 0 0.00196099
30 1 0.749986 0.893665 0.934598 0 0 0.0019604
31 1 0.999986 0.393665 0.934598 4.76837e-07 0 0.00196123
32 1 0.499986 0.393665 0.934598 -4.76837e-07 0 0.00196111
ITEM: TIMESTEP
2
ITEM: NUMBER OF ATOMS
32
ITEM: BOX BOUNDS xy xz yz pp pp pp
-9.5987319946289062e-04 6.3977920413017273e+00 -0.0000000000000000e+00
-1.0525226593017578e-02 9.1260780096054077e+00 0.0000000000000000e+00
-5.8505058288574219e-02 2.0783891499042511e+01 3.5951216220855713e+00
ITEM: ATOMS id type xs ys zs fx fy fz
1 1 0.999986 0.627803 0.0599037 2.38419e-07 0 0.000602961
2 1 0.499986 0.627803 0.0599037 -1.19209e-07 0 0.000603318
3 1 0.249986 0.127803 0.0599037 1.19209e-07 0 0.000602722
4 1 0.749986 0.127803 0.0599037 -5.96046e-07 0 0.000602365
5 1 0.999986 0.465676 0.309804 -1.19209e-07 0 0.00215507
6 1 0.249986 0.380012 0.184948 -2.38419e-07 0 -0.00113881
7 1 0.749986 0.380012 0.184948 4.76837e-07 0 -0.00113893
8 1 0.499986 0.465676 0.309804 -2.38419e-07 0 0.00215566
9 1 0.999986 0.880012 0.184948 -1.19209e-07 0 -0.00113785
10 1 0.249986 0.965676 0.309804 1.19209e-07 0 0.00215638
11 1 0.499986 0.880012 0.184948 1.19209e-07 0 -0.00113809
12 1 0.749986 0.965676 0.309804 2.38419e-07 0 0.00215614
13 1 0.999986 0.303519 0.559751 -5.96046e-07 0 -0.0015223
14 1 0.499986 0.303519 0.559751 9.53674e-07 0 -0.0015223
15 1 0.249986 0.803519 0.559751 -7.15256e-07 0 -0.00152254
16 1 0.749986 0.803519 0.559751 4.76837e-07 0 -0.00152254
17 1 0.249986 0.217949 0.43475 0 0 0.00152218
18 1 0.749986 0.217949 0.43475 1.19209e-07 0 0.00152302
19 1 0.999986 0.717949 0.43475 3.57628e-07 0 0.00152242
20 1 0.499986 0.717949 0.43475 -4.76837e-07 0 0.00152183
21 1 0.999986 0.141456 0.809554 4.76837e-07 0 0.00113869
22 1 0.249986 0.0557919 0.684697 -1.19209e-07 0 -0.0021553
23 1 0.499986 0.141456 0.809554 -1.19209e-07 0 0.00113869
24 1 0.749986 0.0557918 0.684697 -7.15256e-07 0 -0.00215602
25 1 0.999986 0.555792 0.684697 9.53674e-07 0 -0.00215662
26 1 0.249986 0.641456 0.809554 -4.76837e-07 0 0.00113821
27 1 0.749986 0.641456 0.809554 2.38419e-07 0 0.00113881
28 1 0.499986 0.555792 0.684697 -4.76837e-07 0 -0.0021553
29 1 0.249986 0.893665 0.934598 3.57628e-07 0 -0.00060308
30 1 0.749986 0.893665 0.934598 0 0 -0.000603318
31 1 0.999986 0.393665 0.934598 1.19209e-07 0 -0.000602961
32 1 0.499986 0.393665 0.934598 -2.38419e-07 0 -0.000602484
ITEM: TIMESTEP
3
ITEM: NUMBER OF ATOMS
32
ITEM: BOX BOUNDS xy xz yz pp pp pp
-9.5987319946289062e-04 6.3977920413017273e+00 -0.0000000000000000e+00
-1.0525226593017578e-02 9.1260780096054077e+00 0.0000000000000000e+00
-5.8505058288574219e-02 2.0783891499042511e+01 3.5951216220855713e+00
ITEM: ATOMS id type xs ys zs fx fy fz
1 1 0.999986 0.627794 0.0599171 2.38419e-07 0 -3.88622e-05
2 1 0.499986 0.627794 0.0599171 1.19209e-07 0 -3.92199e-05
3 1 0.249986 0.127794 0.0599171 -1.19209e-07 0 -3.83854e-05
4 1 0.749986 0.127794 0.0599171 -1.19209e-07 0 -3.89814e-05
5 1 0.999986 0.465632 0.309873 4.76837e-07 0 -0.000290751
6 1 0.249986 0.380002 0.184963 0 0 0.000154972
7 1 0.749986 0.380003 0.184963 1.19209e-07 0 0.000155091
8 1 0.499986 0.465632 0.309873 -1.19209e-07 0 -0.000291228
9 1 0.999986 0.880002 0.184963 -3.57628e-07 0 0.000154614
10 1 0.249986 0.965632 0.309873 -7.15256e-07 0 -0.00029099
11 1 0.499986 0.880002 0.184963 1.19209e-07 0 0.000154614
12 1 0.749986 0.965632 0.309873 3.57628e-07 0 -0.00029099
13 1 0.999986 0.303541 0.559718 -2.38419e-07 0 -0.000540018
14 1 0.499986 0.303541 0.559718 3.57628e-07 0 -0.000540257
15 1 0.249986 0.803541 0.559718 0 0 -0.000540495
16 1 0.749986 0.803541 0.559718 0 0 -0.000540614
17 1 0.249986 0.217927 0.434784 2.38419e-07 0 0.000540614
18 1 0.749986 0.217927 0.434784 -1.19209e-07 0 0.000540376
19 1 0.999986 0.717927 0.434784 2.38419e-07 0 0.000540018
20 1 0.499986 0.717927 0.434784 -3.57628e-07 0 0.000540853
21 1 0.999986 0.141465 0.809539 -2.38419e-07 0 -0.000154614
22 1 0.249986 0.0558364 0.684629 2.38419e-07 0 0.000290513
23 1 0.499986 0.141465 0.809539 1.19209e-07 0 -0.000155449
24 1 0.749986 0.0558363 0.684629 2.38419e-07 0 0.000291348
25 1 0.999986 0.555836 0.684629 -7.15256e-07 0 0.000291109
26 1 0.249986 0.641465 0.809539 0 0 -0.000154614
27 1 0.749986 0.641466 0.809539 1.19209e-07 0 -0.000154972
28 1 0.499986 0.555836 0.684629 3.57628e-07 0 0.000290751
29 1 0.249986 0.893674 0.934584 3.57628e-07 0 3.92199e-05
30 1 0.749986 0.893674 0.934584 -2.38419e-07 0 3.89814e-05
31 1 0.999986 0.393674 0.934584 -7.15256e-07 0 3.83854e-05
32 1 0.499986 0.393674 0.934584 3.57628e-07 0 3.89814e-05
ITEM: TIMESTEP
4
ITEM: NUMBER OF ATOMS
32
ITEM: BOX BOUNDS xy xz yz pp pp pp
-9.5987319946289062e-04 6.3977920413017273e+00 -0.0000000000000000e+00
-1.0525226593017578e-02 9.1260780096054077e+00 0.0000000000000000e+00
-5.8505058288574219e-02 2.0783891499042511e+01 3.5951216220855713e+00
ITEM: ATOMS id type xs ys zs fx fy fz
1 1 0.999986 0.627794 0.059917 0 0 1.21593e-05
2 1 0.499986 0.627794 0.059917 2.38419e-07 0 1.20401e-05
3 1 0.249986 0.127794 0.059917 -2.38419e-07 0 1.20401e-05
4 1 0.749986 0.127794 0.059917 1.19209e-07 0 1.19209e-05
5 1 0.999986 0.465633 0.309871 3.57628e-07 0 -2.5034e-06
6 1 0.249986 0.380001 0.184965 -1.19209e-07 0 1.52588e-05
7 1 0.749986 0.380001 0.184965 -1.19209e-07 0 1.45435e-05
8 1 0.499986 0.465633 0.309871 5.96046e-07 0 -2.14577e-06
9 1 0.999986 0.880001 0.184965 0 0 1.46627e-05
10 1 0.249986 0.965633 0.309871 -8.34465e-07 0 -2.6226e-06
11 1 0.499986 0.880001 0.184965 1.19209e-07 0 1.46627e-05
12 1 0.749986 0.965633 0.309871 -1.19209e-07 0 -2.26498e-06
13 1 0.999986 0.303545 0.559711 -1.19209e-07 0 4.88758e-06
14 1 0.499986 0.303545 0.559711 2.38419e-07 0 5.36442e-06
15 1 0.249986 0.803545 0.559711 -2.38419e-07 0 4.64916e-06
16 1 0.749986 0.803545 0.559711 -1.19209e-07 0 5.24521e-06
17 1 0.249986 0.217923 0.43479 1.19209e-07 0 -4.76837e-06
18 1 0.749986 0.217923 0.43479 1.19209e-07 0 -5.126e-06
19 1 0.999986 0.717923 0.43479 -3.57628e-07 0 -5.00679e-06
20 1 0.499986 0.717923 0.43479 2.38419e-07 0 -5.00679e-06
21 1 0.999986 0.141467 0.809537 0 0 -1.45435e-05
22 1 0.249986 0.0558354 0.68463 1.19209e-07 0 2.26498e-06
23 1 0.499986 0.141467 0.809537 -1.19209e-07 0 -1.4782e-05
24 1 0.749986 0.0558353 0.68463 1.19209e-07 0 2.5034e-06
25 1 0.999986 0.555835 0.68463 -4.76837e-07 0 2.5034e-06
26 1 0.249986 0.641467 0.809537 1.19209e-07 0 -1.50204e-05
27 1 0.749986 0.641467 0.809537 0 0 -1.51396e-05
28 1 0.499986 0.555835 0.68463 4.76837e-07 0 2.02656e-06
29 1 0.249986 0.893674 0.934584 -1.19209e-07 0 -1.21593e-05
30 1 0.749986 0.893674 0.934584 2.38419e-07 0 -1.20401e-05
31 1 0.999986 0.393674 0.934584 1.19209e-07 0 -1.18017e-05
32 1 0.499986 0.393674 0.934584 -3.57628e-07 0 -1.18017e-05
ITEM: TIMESTEP
5
ITEM: NUMBER OF ATOMS
32
ITEM: BOX BOUNDS xy xz yz pp pp pp
-9.5987319946289062e-04 6.3977920413017273e+00 -0.0000000000000000e+00
-1.0525226593017578e-02 9.1260780096054077e+00 0.0000000000000000e+00
-5.8505058288574219e-02 2.0783891499042511e+01 3.5951216220855713e+00
ITEM: ATOMS id type xs ys zs fx fy fz
1 1 0.999986 0.627794 0.0599172 1.19209e-07 0 -4.76837e-07
2 1 0.499986 0.627794 0.0599172 -4.76837e-07 0 -3.57628e-07
3 1 0.249986 0.127794 0.0599172 3.57628e-07 0 -2.38419e-07
4 1 0.749986 0.127794 0.0599172 0 0 -4.76837e-07
5 1 0.999986 0.465633 0.309871 -2.38419e-07 0 6.19888e-06
6 1 0.249986 0.380001 0.184965 0 0 1.54972e-06
7 1 0.749986 0.380001 0.184965 -1.19209e-07 0 2.02656e-06
8 1 0.499986 0.465633 0.309871 -2.38419e-07 0 5.96046e-06
9 1 0.999986 0.880001 0.184965 0 0 2.6226e-06
10 1 0.249986 0.965633 0.309871 4.76837e-07 0 6.55651e-06
11 1 0.499986 0.880001 0.184965 -1.19209e-07 0 1.90735e-06
12 1 0.749986 0.965633 0.309871 0 0 6.19888e-06
13 1 0.999986 0.303545 0.559711 2.38419e-07 0 -5.96046e-07
14 1 0.499986 0.303545 0.559711 -7.15256e-07 0 -1.07288e-06
15 1 0.249986 0.803545 0.559711 5.96046e-07 0 -8.34465e-07
16 1 0.749986 0.803545 0.559711 2.38419e-07 0 -1.54972e-06
17 1 0.249986 0.217923 0.43479 -1.19209e-07 0 1.07288e-06
18 1 0.749986 0.217923 0.43479 -4.76837e-07 0 9.53674e-07
19 1 0.999986 0.717923 0.43479 5.96046e-07 0 8.34465e-07
20 1 0.499986 0.717923 0.43479 -3.57628e-07 0 1.07288e-06
21 1 0.999986 0.141467 0.809537 -1.19209e-07 0 -2.14577e-06
22 1 0.249986 0.0558353 0.68463 2.38419e-07 0 -6.67572e-06
23 1 0.499986 0.141467 0.809537 1.19209e-07 0 -1.78814e-06
24 1 0.749986 0.0558353 0.68463 1.19209e-07 0 -6.4373e-06
25 1 0.999986 0.555835 0.68463 5.96046e-07 0 -6.31809e-06
26 1 0.249986 0.641467 0.809537 0 0 -1.54972e-06
27 1 0.749986 0.641467 0.809537 0 0 -9.53674e-07
28 1 0.499986 0.555835 0.68463 -7.15256e-07 0 -6.4373e-06
29 1 0.249986 0.893674 0.934584 3.57628e-07 0 5.96046e-07
30 1 0.749986 0.893674 0.934584 -5.96046e-07 0 3.57628e-07
31 1 0.999986 0.393674 0.934584 -4.76837e-07 0 0
32 1 0.499986 0.393674 0.934584 7.15256e-07 0 0
ITEM: TIMESTEP
6
ITEM: NUMBER OF ATOMS
32
ITEM: BOX BOUNDS xy xz yz pp pp pp
-9.5987319946289062e-04 6.3977920413017273e+00 -0.0000000000000000e+00
-1.0525226593017578e-02 9.1260780096054077e+00 0.0000000000000000e+00
-5.8505058288574219e-02 2.0783891499042511e+01 3.5951216220855713e+00
ITEM: ATOMS id type xs ys zs fx fy fz
1 1 0.999986 0.627794 0.0599173 -1.19209e-07 0 -2.38419e-07
2 1 0.499986 0.627794 0.0599173 3.57628e-07 0 -1.19209e-07
3 1 0.249986 0.127794 0.0599173 -2.38419e-07 0 -2.38419e-07
4 1 0.749986 0.127794 0.0599173 2.38419e-07 0 3.57628e-07
5 1 0.999986 0.465633 0.309871 2.38419e-07 0 -1.43051e-06
6 1 0.249986 0.380001 0.184965 0 0 1.66893e-06
7 1 0.749986 0.380001 0.184965 1.19209e-07 0 1.3113e-06
8 1 0.499986 0.465633 0.309871 -1.19209e-07 0 -1.78814e-06
9 1 0.999986 0.880001 0.184965 -3.57628e-07 0 2.38419e-07
10 1 0.249986 0.965633 0.309871 -1.19209e-07 0 -1.19209e-06
11 1 0.499986 0.880001 0.184965 -1.19209e-07 0 1.3113e-06
12 1 0.749986 0.965633 0.309871 1.19209e-07 0 -4.76837e-07
13 1 0.999986 0.303545 0.559711 -4.76837e-07 0 -5.60284e-06
14 1 0.499986 0.303545 0.559711 8.34465e-07 0 -5.36442e-06
15 1 0.249986 0.803545 0.559711 -3.57628e-07 0 -5.60284e-06
16 1 0.749986 0.803545 0.559711 0 0 -4.52995e-06
17 1 0.249986 0.217923 0.43479 -4.76837e-07 0 4.88758e-06
18 1 0.749986 0.217923 0.43479 8.34465e-07 0 5.24521e-06
19 1 0.999986 0.717923 0.43479 -5.96046e-07 0 5.00679e-06
20 1 0.499986 0.717923 0.43479 3.57628e-07 0 5.00679e-06
21 1 0.999986 0.141467 0.809536 4.76837e-07 0 -1.78814e-06
22 1 0.249986 0.0558355 0.68463 -2.38419e-07 0 2.5034e-06
23 1 0.499986 0.141467 0.809536 -3.57628e-07 0 -1.78814e-06
24 1 0.749986 0.0558354 0.68463 -5.96046e-07 0 1.78814e-06
25 1 0.999986 0.555835 0.68463 -8.34465e-07 0 1.54972e-06
26 1 0.249986 0.641467 0.809536 1.19209e-07 0 -1.54972e-06
27 1 0.749986 0.641467 0.809536 0 0 -3.33786e-06
28 1 0.499986 0.555835 0.68463 1.54972e-06 0 2.38419e-06
29 1 0.249986 0.893674 0.934584 -1.07288e-06 0 1.19209e-07
30 1 0.749986 0.893674 0.934584 8.34465e-07 0 3.57628e-07
31 1 0.999986 0.393674 0.934584 1.07288e-06 0 7.15256e-07
32 1 0.499986 0.393674 0.934584 -1.07288e-06 0 5.96046e-07
ITEM: TIMESTEP
7
ITEM: NUMBER OF ATOMS
32
ITEM: BOX BOUNDS xy xz yz pp pp pp
-9.5987319946289062e-04 6.3977920413017273e+00 -0.0000000000000000e+00
-1.0525226593017578e-02 9.1260780096054077e+00 0.0000000000000000e+00
-5.8505058288574219e-02 2.0783891499042511e+01 3.5951216220855713e+00
ITEM: ATOMS id type xs ys zs fx fy fz
1 1 0.999986 0.627794 0.0599173 -2.38419e-07 0 5.96046e-07
2 1 0.499986 0.627794 0.0599173 5.96046e-07 0 2.38419e-07
3 1 0.249986 0.127794 0.0599173 -1.19209e-07 0 5.96046e-07
4 1 0.749986 0.127794 0.0599173 -1.19209e-07 0 9.53674e-07
5 1 0.999986 0.465632 0.309871 2.38419e-07 0 0
6 1 0.249986 0.380001 0.184965 -2.38419e-07 0 1.19209e-07
7 1 0.749986 0.380001 0.184965 0 0 -1.19209e-07
8 1 0.499986 0.465633 0.309871 0 0 3.57628e-07
9 1 0.999986 0.880001 0.184965 0 0 -4.76837e-07
10 1 0.249986 0.965633 0.309871 -3.57628e-07 0 -1.07288e-06
11 1 0.499986 0.880001 0.184965 1.19209e-07 0 0
12 1 0.749986 0.965633 0.309871 0 0 -1.07288e-06
13 1 0.999986 0.303545 0.559711 -4.76837e-07 0 -5.96046e-07
14 1 0.499986 0.303545 0.559711 7.15256e-07 0 2.38419e-07
15 1 0.249986 0.803545 0.559711 -5.96046e-07 0 2.38419e-07
16 1 0.749986 0.803545 0.559711 0 0 3.57628e-07
17 1 0.249986 0.217923 0.43479 2.38419e-07 0 -2.38419e-07
18 1 0.749986 0.217923 0.43479 1.19209e-07 0 -1.19209e-07
19 1 0.999986 0.717923 0.43479 -2.38419e-07 0 4.76837e-07
20 1 0.499986 0.717923 0.43479 2.38419e-07 0 -1.19209e-07
21 1 0.999986 0.141467 0.809536 -1.19209e-07 0 2.38419e-07
22 1 0.249986 0.0558355 0.68463 -3.57628e-07 0 7.15256e-07
23 1 0.499986 0.141467 0.809536 -2.38419e-07 0 2.38419e-07
24 1 0.749986 0.0558355 0.68463 2.38419e-07 0 5.96046e-07
25 1 0.999986 0.555835 0.68463 -1.19209e-07 0 3.57628e-07
26 1 0.249986 0.641467 0.809536 1.19209e-07 0 -1.19209e-07
27 1 0.749986 0.641467 0.809536 -1.19209e-07 0 -3.57628e-07
28 1 0.499986 0.555835 0.68463 4.76837e-07 0 5.96046e-07
29 1 0.249986 0.893674 0.934584 -1.19209e-07 0 -7.15256e-07
30 1 0.749986 0.893674 0.934584 3.57628e-07 0 -3.57628e-07
31 1 0.999986 0.393674 0.934584 3.57628e-07 0 -7.15256e-07
32 1 0.499986 0.393674 0.934584 -3.57628e-07 0 -8.34465e-07
