ITEM: TIMESTEP
0
ITEM: NUMBER OF ATOMS
32
ITEM: BOX BOUNDS xy xz yz pp pp pp
-2.1013021469116211e-03 9.5949754714965820e+00 3.1983251571655273e+00
-4.1524946689605713e-02 2.2124402940273285e+01 -0.0000000000000000e+00
-1.4066457748413086e-02 5.1965324282646179e+00 0.0000000000000000e+00
ITEM: ATOMS id type xs ys zs fx fy fz
1 1 0.850959 0.336621 0.593597 0 -1.78814e-06 -1.19209e-07
2 1 0.350959 0.336621 0.593597 0 -1.07288e-06 -4.76837e-07
3 1 0.121785 0.294954 0.093597 0 3.45707e-06 5.96046e-07
4 1 0.621785 0.294954 0.0935971 0 2.38419e-06 2.38419e-07
5 1 0.0384794 0.461621 0.593597 0 5.96046e-07 3.57628e-07
6 1 0.538479 0.461621 0.593597 0 1.19209e-07 1.19209e-07
7 1 0.809306 0.419954 0.0935971 0 -3.09944e-06 -4.76837e-07
8 1 0.309306 0.419954 0.0935971 0 -3.33786e-06 0
9 1 0.726 0.586621 0.593597 0 -1.66893e-06 -3.57628e-07
10 1 0.226 0.586621 0.593597 0 -1.90735e-06 -7.15256e-07
11 1 0.91352 0.711621 0.593597 0 -3.45707e-06 -1.3113e-06
12 1 0.41352 0.711621 0.593597 0 -3.33786e-06 -1.19209e-06
13 1 0.684347 0.669954 0.093597 0 -4.17233e-06 1.3113e-06
14 1 0.996826 0.544954 0.0935971 0 1.07288e-06 1.19209e-07
15 1 0.496826 0.544954 0.0935971 0 1.43051e-06 -1.19209e-07
16 1 0.184347 0.669954 0.093597 0 -3.8147e-06 1.43051e-06
17 1 0.601041 0.83662 0.593597 0 3.93391e-06 -1.19209e-07
18 1 0.101041 0.83662 0.593597 0 3.09944e-06 -3.57628e-07
19 1 0.788562 0.96162 0.593597 0 1.3113e-06 -2.38419e-07
20 1 0.288562 0.96162 0.593597 0 5.96046e-07 -2.38419e-07
21 1 0.871868 0.794954 0.093597 0 3.45707e-06 5.96046e-07
22 1 0.371868 0.794954 0.0935971 0 3.57628e-06 2.38419e-07
23 1 0.559388 0.919954 0.0935971 0 1.43051e-06 -3.57628e-07
24 1 0.0593881 0.919954 0.093597 0 1.43051e-06 5.96046e-07
25 1 0.975918 0.0866205 0.593597 0 2.38419e-06 -7.15256e-07
26 1 0.475918 0.0866205 0.593597 0 2.5034e-06 -4.76837e-07
27 1 0.246744 0.0449538 0.093597 0 -2.38419e-06 1.07288e-06
28 1 0.746744 0.0449538 0.093597 0 -1.90735e-06 4.76837e-07
29 1 0.163438 0.211621 0.593597 0 -1.78814e-06 -4.76837e-07
30 1 0.663438 0.211621 0.593597 0 -2.6226e-06 -2.38419e-07
31 1 0.934265 0.169954 0.093597 0 1.66893e-06 7.15256e-07
32 1 0.434265 0.169954 0.0935971 0 1.90735e-06 1.19209e-07
ITEM: TIMESTEP
1
ITEM: NUMBER OF ATOMS
32
ITEM: BOX BOUNDS xy xz yz pp pp pp
-2.1013021469116211e-03 9.5949754714965820e+00 3.1983251571655273e+00
-4.1524946689605713e-02 2.2124402940273285e+01 -0.0000000000000000e+00
-1.4066457748413086e-02 5.1965324282646179e+00 0.0000000000000000e+00
ITEM: ATOMS id type xs ys zs fx fy fz
1 1 0.850959 0.336621 0.593597 0 -1.07288e-06 0
2 1 0.350959 0.336621 0.593597 0 -4.76837e-07 -1.19209e-07
3 1 0.121785 0.294954 0.0935971 0 4.76837e-07 1.19209e-07
4 1 0.621785 0.294954 0.0935971 0 5.96046e-07 4.76837e-07
5 1 0.0384794 0.461621 0.593597 0 -5.96046e-07 0
6 1 0.538479 0.461621 0.593597 0 -4.76837e-07 -2.38419e-07
7 1 0.809306 0.419954 0.0935971 0 -3.57628e-07 -1.19209e-07
8 1 0.309306 0.419954 0.0935971 0 -2.38419e-07 -2.38419e-07
9 1 0.726 0.586621 0.593597 0 -1.90735e-06 2.38419e-07
10 1 0.226 0.586621 0.593597 0 -1.90735e-06 1.19209e-07
11 1 0.91352 0.711621 0.593597 0 -8.34465e-07 2.38419e-07
12 1 0.41352 0.711621 0.593597 0 -5.96046e-07 4.76837e-07
13 1 0.684347 0.669954 0.0935971 0 1.19209e-06 -7.15256e-07
14 1 0.996826 0.544954 0.0935971 0 -8.34465e-07 0
15 1 0.496826 0.544954 0.0935971 0 -1.3113e-06 0
16 1 0.184347 0.669954 0.0935971 0 9.53674e-07 -2.38419e-07
17 1 0.601041 0.836621 0.593597 0 -8.34465e-07 4.76837e-07
18 1 0.101041 0.836621 0.593597 0 -9.53674e-07 1.19209e-07
19 1 0.788562 0.96162 0.593597 0 1.54972e-06 0
20 1 0.288562 0.96162 0.593597 0 1.66893e-06 2.38419e-07
21 1 0.871868 0.794954 0.0935971 0 2.38419e-07 -4.76837e-07
22 1 0.371868 0.794954 0.0935971 0 2.38419e-07 -2.38419e-07
23 1 0.559388 0.919954 0.0935971 0 1.07288e-06 0
24 1 0.0593881 0.919954 0.093597 0 9.53674e-07 -1.19209e-07
25 1 0.975918 0.0866205 0.593597 0 3.57628e-07 1.19209e-07
26 1 0.475918 0.0866205 0.593597 0 5.96046e-07 -1.19209e-07
27 1 0.246744 0.0449538 0.093597 0 7.15256e-07 1.19209e-07
28 1 0.746744 0.0449538 0.0935971 0 8.34465e-07 -1.19209e-07
29 1 0.163438 0.211621 0.593597 0 -1.19209e-07 0
30 1 0.663438 0.211621 0.593597 0 -3.57628e-07 0
31 1 0.934265 0.169954 0.0935971 0 7.15256e-07 0
32 1 0.434265 0.169954 0.0935971 0 7.15256e-07 0
