ITEM: TIMESTEP
0
ITEM: NUMBER OF ATOMS
32
ITEM: BOX BOUNDS xy xz yz pp pp pp
-2.1013021469116211e-03 9.1152266860008240e+00 2.7185763716697693e+00
-4.1524946689605713e-02 2.2124402940273285e+01 -0.0000000000000000e+00
-1.4066457748413086e-02 5.1965324282646179e+00 0.0000000000000000e+00
ITEM: ATOMS id type xs ys zs fx fy fz
1 1 0.876197 0.336621 0.593597 0 0.000341058 -1.19209e-07
2 1 0.376197 0.336621 0.593597 0 0.000341773 -4.76837e-07
3 1 0.1439 0.294954 0.093597 0 0.000584006 7.15256e-07
4 1 0.6439 0.294954 0.0935971 0 0.000583172 2.38419e-07
5 1 0.0730896 0.461621 0.593597 0 -7.86781e-06 3.57628e-07
6 1 0.57309 0.461621 0.593597 0 -8.34465e-06 1.19209e-07
7 1 0.840792 0.419954 0.0935971 0 -1.88351e-05 -5.96046e-07
8 1 0.340792 0.419954 0.0935971 0 -1.90735e-05 0
9 1 0.769982 0.586621 0.593597 0 1.40667e-05 -3.57628e-07
10 1 0.269982 0.586621 0.593597 0 1.38283e-05 -7.15256e-07
11 1 0.966874 0.711621 0.593597 0 -0.000584245 -1.3113e-06
12 1 0.466874 0.711621 0.593597 0 -0.000584006 -1.19209e-06
13 1 0.734577 0.669954 0.093597 0 -0.000346661 1.3113e-06
14 1 0.0376845 0.544954 0.0935971 0 9.53674e-06 1.19209e-07
15 1 0.537685 0.544954 0.0935971 0 9.89437e-06 -1.19209e-07
16 1 0.234577 0.669954 0.093597 0 -0.000346303 1.43051e-06
17 1 0.663767 0.83662 0.593597 0 0.0045718 1.19209e-07
18 1 0.163767 0.83662 0.593597 0 0.00457108 -2.38419e-07
19 1 0.860659 0.96162 0.593597 0 -0.0725995 -3.57628e-07
20 1 0.360659 0.96162 0.593597 0 -0.0726 -3.57628e-07
21 1 0.93147 0.794954 0.093597 0 0.00137401 3.57628e-07
22 1 0.43147 0.794954 0.0935971 0 0.00137413 2.38419e-07
23 1 0.628362 0.919954 0.0935971 0 -0.123064 -2.38419e-07
24 1 0.128362 0.919954 0.093597 0 -0.123065 7.15256e-07
25 1 0.982412 0.0866205 0.593597 0 0.123068 -8.34465e-07
26 1 0.482412 0.0866205 0.593597 0 0.123069 -5.96046e-07
27 1 0.250115 0.0449538 0.093597 0 0.0725977 1.07288e-06
28 1 0.750115 0.0449538 0.093597 0 0.0725975 4.76837e-07
29 1 0.179305 0.211621 0.593597 0 -0.00137222 -4.76837e-07
30 1 0.679305 0.211621 0.593597 0 -0.00137329 -4.76837e-07
31 1 0.947007 0.169954 0.093597 0 -0.0045656 8.34465e-07
32 1 0.447007 0.169954 0.0935971 0 -0.00456572 3.57628e-07
ITEM: TIMESTEP
1
ITEM: NUMBER OF ATOMS
32
ITEM: BOX BOUNDS xy xz yz pp pp pp
-2.1013021469116211e-03 9.1152266860008240e+00 2.7185763716697693e+00
-4.1524946689605713e-02 2.2124402940273285e+01 -0.0000000000000000e+00
-1.4066457748413086e-02 5.1965324282646179e+00 0.0000000000000000e+00
ITEM: ATOMS id type xs ys zs fx fy fz
1 1 0.876195 0.336625 0.593597 0 0.000917435 -2.38419e-07
2 1 0.376195 0.336625 0.593597 0 0.000917673 0
3 1 0.143897 0.294961 0.0935971 0 0.00402224 2.38419e-07
4 1 0.643897 0.294961 0.0935971 0 0.00402176 3.57628e-07
5 1 0.0730896 0.46162 0.593597 0 0.000118494 1.19209e-07
6 1 0.57309 0.46162 0.593597 0 0.000118017 -1.19209e-07
7 1 0.840792 0.419954 0.0935971 0 -0.000360727 -2.38419e-07
8 1 0.340792 0.419954 0.0935971 0 -0.000360847 -1.19209e-07
9 1 0.769982 0.586621 0.593597 0 0.000357985 0
10 1 0.269982 0.586621 0.593597 0 0.000358105 1.19209e-07
11 1 0.966877 0.711614 0.593597 0 -0.00402117 -1.19209e-07
12 1 0.466877 0.711614 0.593597 0 -0.00402105 0
13 1 0.734579 0.66995 0.0935971 0 -0.000918865 0
14 1 0.0376845 0.544954 0.0935971 0 -0.000120044 -2.38419e-07
15 1 0.537685 0.544954 0.0935971 0 -0.000120282 1.19209e-07
16 1 0.234579 0.66995 0.0935971 0 -0.000918508 0
17 1 0.663743 0.836676 0.593597 0 -0.0283595 1.19209e-07
18 1 0.163743 0.836676 0.593597 0 -0.02836 2.38419e-07
19 1 0.861033 0.960741 0.593597 0 0.0269409 0
20 1 0.361033 0.960741 0.593597 0 0.0269405 3.57628e-07
21 1 0.931462 0.79497 0.0935971 0 -0.031836 0
22 1 0.431462 0.79497 0.0935971 0 -0.0318354 -2.38419e-07
23 1 0.628996 0.918462 0.0935971 0 -0.00506902 -3.57628e-07
24 1 0.128996 0.918462 0.093597 0 -0.00506914 1.19209e-07
25 1 0.981779 0.0881118 0.593597 0 0.00507092 1.19209e-07
26 1 0.481779 0.0881118 0.593597 0 0.00507104 1.19209e-07
27 1 0.249741 0.0458336 0.093597 0 -0.0269389 0
28 1 0.749741 0.0458335 0.093597 0 -0.0269382 -1.19209e-07
29 1 0.179312 0.211604 0.593597 0 0.031836 0
30 1 0.679312 0.211604 0.593597 0 0.0318354 -3.57628e-07
31 1 0.947031 0.169898 0.0935971 0 0.0283605 2.38419e-07
32 1 0.447031 0.169898 0.0935971 0 0.0283607 -1.19209e-07
ITEM: TIMESTEP
2
ITEM: NUMBER OF ATOMS
32
ITEM: BOX BOUNDS xy xz yz pp pp pp
-2.1013021469116211e-03 9.1152266860008240e+00 2.7185763716697693e+00
-4.1524946689605713e-02 2.2124402940273285e+01 -0.0000000000000000e+00
-1.4066457748413086e-02 5.1965324282646179e+00 0.0000000000000000e+00
ITEM: ATOMS id type xs ys zs fx fy fz
1 1 0.876185 0.336648 0.593597 0 0.0165722 3.57628e-07
2 1 0.376185 0.336648 0.593597 0 0.0165727 2.38419e-07
3 1 0.143854 0.29506 0.0935971 0 0.0193818 -2.38419e-07
4 1 0.643855 0.29506 0.0935971 0 0.019382 -4.76837e-07
5 1 0.0730884 0.461623 0.593597 0 0.00118697 -2.38419e-07
6 1 0.573088 0.461623 0.593597 0 0.00118744 0
7 1 0.840796 0.419945 0.0935971 0 0.00470328 2.38419e-07
8 1 0.340796 0.419945 0.0935971 0 0.00470376 0
9 1 0.769978 0.586629 0.593597 0 -0.00470281 0
10 1 0.269978 0.586629 0.593597 0 -0.00470257 1.19209e-07
11 1 0.96692 0.711514 0.593597 0 -0.0193837 5.96046e-07
12 1 0.46692 0.711514 0.593597 0 -0.0193837 3.57628e-07
13 1 0.734589 0.669926 0.0935971 0 -0.016572 -5.96046e-07
14 1 0.0376857 0.544951 0.0935971 0 -0.00118947 2.38419e-07
15 1 0.537686 0.544951 0.0935971 0 -0.00118959 -3.57628e-07
16 1 0.234589 0.669926 0.0935971 0 -0.0165721 -5.96046e-07
17 1 0.664023 0.836017 0.593597 0 0.00421655 -3.57628e-07
18 1 0.164023 0.836017 0.593597 0 0.00421691 0
19 1 0.860907 0.961039 0.593597 0 0.00926495 0
20 1 0.360907 0.961039 0.593597 0 0.00926578 0
21 1 0.931784 0.794213 0.0935971 0 -0.00595784 0
22 1 0.431784 0.794213 0.0935971 0 -0.00595808 2.38419e-07
23 1 0.629298 0.91775 0.093597 0 0.00978124 4.76837e-07
24 1 0.129298 0.91775 0.0935971 0 0.00978112 -2.38419e-07
25 1 0.981476 0.0888242 0.593597 0 -0.00978136 2.38419e-07
26 1 0.481476 0.0888242 0.593597 0 -0.00978208 2.38419e-07
27 1 0.249868 0.0455356 0.0935971 0 -0.0092628 0
28 1 0.749868 0.0455357 0.093597 0 -0.00926197 0
29 1 0.17899 0.212361 0.593597 0 0.0059576 5.96046e-07
30 1 0.67899 0.212361 0.593597 0 0.00595856 5.96046e-07
31 1 0.946751 0.170557 0.0935971 0 -0.00421619 -8.34465e-07
32 1 0.446751 0.170557 0.0935971 0 -0.00421667 -5.96046e-07
ITEM: TIMESTEP
3
ITEM: NUMBER OF ATOMS
32
ITEM: BOX BOUNDS xy xz yz pp pp pp
-2.1013021469116211e-03 9.1152266860008240e+00 2.7185763716697693e+00
-4.1524946689605713e-02 2.2124402940273285e+01 -0.0000000000000000e+00
-1.4066457748413086e-02 5.1965324282646179e+00 0.0000000000000000e+00
ITEM: ATOMS id type xs ys zs fx fy fz
1 1 0.876038 0.336996 0.593597 0 0.00437188 0
2 1 0.376038 0.336996 0.593597 0 0.0043714 0
3 1 0.143676 0.295479 0.0935971 0 0.000902176 0
4 1 0.643676 0.295479 0.0935971 0 0.000902653 0
5 1 0.0730778 0.461648 0.593597 0 0.00420737 -1.19209e-07
6 1 0.573078 0.461648 0.593597 0 0.00420749 -3.57628e-07
7 1 0.840755 0.420041 0.0935971 0 0.0107331 2.38419e-07
8 1 0.340755 0.420041 0.0935971 0 0.010733 0
9 1 0.770019 0.586534 0.593597 0 -0.0107338 0
10 1 0.270019 0.586534 0.593597 0 -0.0107342 -1.19209e-07
11 1 0.967098 0.711095 0.593597 0 -0.000901461 -2.38419e-07
12 1 0.467098 0.711095 0.593597 0 -0.000901461 -1.19209e-07
13 1 0.734736 0.669579 0.0935971 0 -0.00437188 0
14 1 0.0376964 0.544926 0.0935971 0 -0.00420833 0
15 1 0.537696 0.544926 0.0935971 0 -0.00420833 3.57628e-07
16 1 0.234736 0.669579 0.0935971 0 -0.00437236 1.19209e-07
17 1 0.664037 0.835984 0.593597 0 0.00180411 2.38419e-07
18 1 0.164037 0.835984 0.593597 0 0.00180435 0
19 1 0.860802 0.961285 0.593597 0 -0.00988436 3.57628e-07
20 1 0.360802 0.961285 0.593597 0 -0.00988483 0
21 1 0.931895 0.793952 0.0935971 0 -7.08103e-05 -1.19209e-07
22 1 0.431895 0.793952 0.0935971 0 -7.11679e-05 1.19209e-07
23 1 0.629267 0.917823 0.0935971 0 -0.00733507 -2.38419e-07
24 1 0.129267 0.917823 0.0935971 0 -0.00733542 1.19209e-07
25 1 0.981507 0.0887517 0.593597 0 0.00733662 -2.38419e-07
26 1 0.481507 0.0887517 0.593597 0 0.00733697 -2.38419e-07
27 1 0.249972 0.0452896 0.0935971 0 0.00988531 0
28 1 0.749972 0.0452897 0.093597 0 0.00988412 -1.19209e-07
29 1 0.178879 0.212623 0.593597 0 7.05719e-05 -5.96046e-07
30 1 0.678879 0.212623 0.593597 0 7.05719e-05 -1.19209e-07
31 1 0.946737 0.17059 0.093597 0 -0.00180411 4.76837e-07
32 1 0.446737 0.17059 0.093597 0 -0.00180411 5.96046e-07
ITEM: TIMESTEP
4
ITEM: NUMBER OF ATOMS
32
ITEM: BOX BOUNDS xy xz yz pp pp pp
-2.1013021469116211e-03 9.1152266860008240e+00 2.7185763716697693e+00
-4.1524946689605713e-02 2.2124402940273285e+01 -0.0000000000000000e+00
-1.4066457748413086e-02 5.1965324282646179e+00 0.0000000000000000e+00
ITEM: ATOMS id type xs ys zs fx fy fz
1 1 0.875961 0.337176 0.593597 0 -0.000809789 -2.38419e-07
2 1 0.375961 0.337176 0.593597 0 -0.000810146 -1.19209e-07
3 1 0.143617 0.29562 0.0935971 0 -0.00147092 -1.19209e-07
4 1 0.643617 0.29562 0.0935971 0 -0.0014708 5.96046e-07
5 1 0.073043 0.46173 0.593597 0 -0.00171983 4.76837e-07
6 1 0.573043 0.46173 0.593597 0 -0.00172007 3.57628e-07
7 1 0.840663 0.420259 0.0935971 0 0.00112832 -3.57628e-07
8 1 0.340663 0.420259 0.0935971 0 0.00112796 -2.38419e-07
9 1 0.770112 0.586316 0.593597 0 -0.00112891 1.19209e-07
10 1 0.270112 0.586316 0.593597 0 -0.00112903 0
11 1 0.967158 0.710954 0.593597 0 0.0014708 -3.57628e-07
12 1 0.467158 0.710954 0.593597 0 0.00147104 -2.38419e-07
13 1 0.734813 0.669398 0.0935971 0 0.000808954 1.19209e-07
14 1 0.0377311 0.544844 0.0935971 0 0.00172043 -2.38419e-07
15 1 0.537731 0.544844 0.0935971 0 0.00172067 -1.19209e-07
16 1 0.234813 0.669398 0.0935971 0 0.000808954 3.57628e-07
17 1 0.664028 0.836007 0.593597 0 -0.00554419 1.19209e-07
18 1 0.164028 0.836007 0.593597 0 -0.00554442 0
19 1 0.860845 0.961184 0.593597 0 -0.000547647 -2.38419e-07
20 1 0.360845 0.961183 0.593597 0 -0.000548244 -1.19209e-07
21 1 0.931929 0.793873 0.0935971 0 -0.00336659 1.19209e-07
22 1 0.431929 0.793873 0.0935971 0 -0.00336647 -1.19209e-07
23 1 0.629313 0.917715 0.0935971 0 -0.000469208 1.19209e-07
24 1 0.129313 0.917715 0.0935971 0 -0.000468969 0
25 1 0.981461 0.0888597 0.593597 0 0.000469446 0
26 1 0.481461 0.0888597 0.593597 0 0.000469327 -1.19209e-07
27 1 0.249929 0.0453909 0.0935971 0 0.000548244 0
28 1 0.749929 0.0453909 0.093597 0 0.000547886 3.57628e-07
29 1 0.178845 0.212702 0.593597 0 0.00336707 -1.19209e-07
30 1 0.678845 0.212702 0.593597 0 0.00336671 -2.38419e-07
31 1 0.946746 0.170568 0.0935971 0 0.00554466 1.19209e-07
32 1 0.446746 0.170568 0.0935971 0 0.00554478 1.19209e-07
ITEM: TIMESTEP
5
ITEM: NUMBER OF ATOMS
32
ITEM: BOX BOUNDS xy xz yz pp pp pp
-2.1013021469116211e-03 9.1152266860008240e+00 2.7185763716697693e+00
-4.1524946689605713e-02 2.2124402940273285e+01 -0.0000000000000000e+00
-1.4066457748413086e-02 5.1965324282646179e+00 0.0000000000000000e+00
ITEM: ATOMS id type xs ys zs fx fy fz
1 1 0.875954 0.337194 0.593597 0 0.000162482 2.38419e-07
2 1 0.375954 0.337194 0.593597 0 0.000162363 -1.19209e-07
3 1 0.143618 0.295617 0.0935971 0 0.00293553 1.19209e-07
4 1 0.643618 0.295617 0.0935971 0 0.00293517 -3.57628e-07
5 1 0.0730511 0.461711 0.593597 0 -0.00122023 -4.76837e-07
6 1 0.573051 0.461711 0.593597 0 -0.00122023 -2.38419e-07
7 1 0.840636 0.420322 0.0935971 0 -0.00178421 3.57628e-07
8 1 0.340636 0.420322 0.0935971 0 -0.00178385 4.76837e-07
9 1 0.770138 0.586253 0.593597 0 0.00178432 0
10 1 0.270138 0.586253 0.593597 0 0.00178432 0
11 1 0.967156 0.710957 0.593597 0 -0.00293481 2.38419e-07
12 1 0.467156 0.710957 0.593597 0 -0.00293577 2.38419e-07
13 1 0.734821 0.669381 0.0935971 0 -0.000162482 -1.19209e-07
14 1 0.037723 0.544863 0.0935971 0 0.00121951 0
15 1 0.537723 0.544863 0.0935971 0 0.00121975 0
16 1 0.234821 0.669381 0.0935971 0 -0.000162363 -4.76837e-07
17 1 0.664073 0.8359 0.593597 0 -0.000775218 0
18 1 0.164073 0.8359 0.593597 0 -0.000775456 -1.19209e-07
19 1 0.860858 0.961154 0.593597 0 8.80957e-05 2.38419e-07
20 1 0.360858 0.961154 0.593597 0 8.88109e-05 1.19209e-07
21 1 0.931964 0.793791 0.0935971 0 8.03471e-05 1.19209e-07
22 1 0.431964 0.793791 0.0935971 0 8.02279e-05 1.19209e-07
23 1 0.629326 0.917685 0.0935971 0 -0.000753641 -2.38419e-07
24 1 0.129326 0.917685 0.0935971 0 -0.000753284 0
25 1 0.981449 0.088889 0.593597 0 0.00075376 0
26 1 0.481448 0.088889 0.593597 0 0.000753522 1.19209e-07
27 1 0.249917 0.0454205 0.0935971 0 -8.90493e-05 0
28 1 0.749917 0.0454205 0.0935971 0 -8.83341e-05 -3.57628e-07
29 1 0.178811 0.212783 0.593597 0 -8.09431e-05 -1.19209e-07
30 1 0.678811 0.212783 0.593597 0 -8.02279e-05 1.19209e-07
31 1 0.946701 0.170674 0.0935971 0 0.000776052 0
32 1 0.446701 0.170674 0.0935971 0 0.000775814 1.19209e-07
ITEM: TIMESTEP
6
ITEM: NUMBER OF ATOMS
32
ITEM: BOX BOUNDS xy xz yz pp pp pp
-2.1013021469116211e-03 9.1152266860008240e+00 2.7185763716697693e+00
-4.1524946689605713e-02 2.2124402940273285e+01 -0.0000000000000000e+00
-1.4066457748413086e-02 5.1965324282646179e+00 0.0000000000000000e+00
ITEM: ATOMS id type xs ys zs fx fy fz
1 1 0.87595 0.337201 0.593597 0 -0.000260472 0
2 1 0.37595 0.337201 0.593597 0 -0.000260353 1.19209e-07
3 1 0.143596 0.295668 0.0935971 0 0.000815153 -2.38419e-07
4 1 0.643596 0.295668 0.0935971 0 0.000815272 -2.38419e-07
5 1 0.0730623 0.461685 0.593597 0 0.000928998 0
6 1 0.573062 0.461685 0.593597 0 0.000928998 1.19209e-07
7 1 0.840642 0.420306 0.0935971 0 0.000746846 -1.19209e-07
8 1 0.340642 0.420306 0.0935971 0 0.000746727 -1.19209e-07
9 1 0.770132 0.586268 0.593597 0 -0.000746608 -2.38419e-07
10 1 0.270132 0.586268 0.593597 0 -0.00074625 -2.38419e-07
11 1 0.967178 0.710906 0.593597 0 -0.00081563 1.19209e-07
12 1 0.467178 0.710906 0.593597 0 -0.000815153 -3.57628e-07
13 1 0.734824 0.669373 0.0935971 0 0.000260711 2.38419e-07
14 1 0.0377118 0.54489 0.0935971 0 -0.000929236 2.38419e-07
15 1 0.537712 0.54489 0.0935971 0 -0.000929475 0
16 1 0.234824 0.669373 0.0935971 0 0.000260592 2.38419e-07
17 1 0.66409 0.835859 0.593597 0 0.000141025 2.38419e-07
18 1 0.16409 0.835859 0.593597 0 0.000141025 0
19 1 0.86086 0.961148 0.593597 0 0.00010705 -1.19209e-07
20 1 0.36086 0.961148 0.593597 0 0.000106692 0
21 1 0.931972 0.793771 0.0935971 0 0.000140429 -2.38419e-07
22 1 0.431972 0.793771 0.0935971 0 0.000140548 -2.38419e-07
23 1 0.629335 0.917665 0.0935971 0 -0.00026834 1.19209e-07
24 1 0.129335 0.917665 0.0935971 0 -0.000268698 2.38419e-07
25 1 0.98144 0.0889098 0.593597 0 0.000268102 3.57628e-07
26 1 0.48144 0.0889098 0.593597 0 0.000268459 2.38419e-07
27 1 0.249914 0.0454266 0.0935971 0 -0.000106335 -1.19209e-07
28 1 0.749914 0.0454266 0.093597 0 -0.000106335 0
29 1 0.178802 0.212803 0.593597 0 -0.000140548 4.76837e-07
30 1 0.678802 0.212803 0.593597 0 -0.000141025 3.57628e-07
31 1 0.946684 0.170715 0.0935971 0 -0.000141144 -4.76837e-07
32 1 0.446684 0.170715 0.0935971 0 -0.000141025 -3.57628e-07
ITEM: TIMESTEP
7
ITEM: NUMBER OF ATOMS
32
ITEM: BOX BOUNDS xy xz yz pp pp pp
-2.1013021469116211e-03 9.1152266860008240e+00 2.7185763716697693e+00
-4.1524946689605713e-02 2.2124402940273285e+01 -0.0000000000000000e+00
-1.4066457748413086e-02 5.1965324282646179e+00 0.0000000000000000e+00
ITEM: ATOMS id type xs ys zs fx fy fz
1 1 0.875952 0.337198 0.593597 0 0.000279903 -1.19209e-07
2 1 0.375952 0.337198 0.593597 0 0.000280142 -2.38419e-07
3 1 0.143587 0.295689 0.0935971 0 -8.16584e-05 1.19209e-07
4 1 0.643587 0.295689 0.0935971 0 -8.2016e-05 3.57628e-07
5 1 0.0730574 0.461696 0.593597 0 -7.85589e-05 0
6 1 0.573057 0.461696 0.593597 0 -7.83205e-05 -2.38419e-07
7 1 0.840638 0.420317 0.0935971 0 0.000357389 0
8 1 0.340638 0.420317 0.0935971 0 0.000357389 0
9 1 0.770136 0.586258 0.593597 0 -0.000357628 2.38419e-07
10 1 0.270136 0.586258 0.593597 0 -0.000357628 0
11 1 0.967187 0.710885 0.593597 0 8.2016e-05 -1.19209e-07
12 1 0.467187 0.710885 0.593597 0 8.21352e-05 2.38419e-07
13 1 0.734822 0.669377 0.0935971 0 -0.00028038 -1.19209e-07
14 1 0.0377168 0.544878 0.0935971 0 7.87973e-05 2.38419e-07
15 1 0.537717 0.544878 0.0935971 0 7.86781e-05 -2.38419e-07
16 1 0.234822 0.669377 0.0935971 0 -0.000280261 0
17 1 0.664092 0.835856 0.593597 0 -0.000115037 -2.38419e-07
18 1 0.164092 0.835856 0.593597 0 -0.000114679 2.38419e-07
19 1 0.86086 0.961149 0.593597 0 0.000106692 -1.19209e-07
20 1 0.36086 0.961149 0.593597 0 0.000106931 0
21 1 0.931972 0.793771 0.0935971 0 -0.000173569 2.38419e-07
22 1 0.431972 0.793771 0.0935971 0 -0.000173569 -1.19209e-07
23 1 0.629338 0.917657 0.0935971 0 9.38177e-05 2.38419e-07
24 1 0.129338 0.917657 0.0935971 0 9.36985e-05 -4.76837e-07
25 1 0.981436 0.0889174 0.593597 0 -9.39369e-05 -3.57628e-07
26 1 0.481436 0.0889174 0.593597 0 -9.40561e-05 -3.57628e-07
27 1 0.249914 0.0454257 0.0935971 0 -0.000106335 3.57628e-07
28 1 0.749914 0.0454257 0.093597 0 -0.000106573 3.57628e-07
29 1 0.178802 0.212804 0.593597 0 0.00017333 -1.19209e-07
30 1 0.678802 0.212804 0.593597 0 0.000173688 -4.76837e-07
31 1 0.946682 0.170719 0.093597 0 0.000114441 4.76837e-07
32 1 0.446682 0.170719 0.0935971 0 0.000115156 2.38419e-07
ITEM: TIMESTEP
8
ITEM: NUMBER OF ATOMS
32
ITEM: BOX BOUNDS xy xz yz pp pp pp
-2.1013021469116211e-03 9.1152266860008240e+00 2.7185763716697693e+00
-4.1524946689605713e-02 2.2124402940273285e+01 -0.0000000000000000e+00
-1.4066457748413086e-02 5.1965324282646179e+00 0.0000000000000000e+00
ITEM: ATOMS id type xs ys zs fx fy fz
1 1 0.87595 0.337203 0.593597 0 0.000136733 0
2 1 0.37595 0.337203 0.593597 0 0.000136375 2.38419e-07
3 1 0.143587 0.295691 0.0935971 0 0.000108123 0
4 1 0.643587 0.295691 0.0935971 0 0.000108719 -4.76837e-07
5 1 0.0730573 0.461696 0.593597 0 -0.000151634 1.19209e-07
6 1 0.573057 0.461696 0.593597 0 -0.000151992 0
7 1 0.840634 0.420326 0.0935971 0 -7.84397e-05 1.19209e-07
8 1 0.340634 0.420326 0.0935971 0 -7.85589e-05 -1.19209e-07
9 1 0.77014 0.586249 0.593597 0 7.86781e-05 -1.19209e-07
10 1 0.27014 0.586249 0.593597 0 7.86781e-05 2.38419e-07
11 1 0.967188 0.710884 0.593597 0 -0.000108719 3.57628e-07
12 1 0.467188 0.710884 0.593597 0 -0.0001086 -1.19209e-07
13 1 0.734825 0.669371 0.0935971 0 -0.000136852 0
14 1 0.0377168 0.544878 0.0935971 0 0.000151277 -5.96046e-07
15 1 0.537717 0.544878 0.0935971 0 0.000151753 3.57628e-07
16 1 0.234825 0.669371 0.0935971 0 -0.000136495 -2.38419e-07
17 1 0.664093 0.835853 0.593597 0 3.89814e-05 0
18 1 0.164093 0.835853 0.593597 0 3.8743e-05 -4.76837e-07
19 1 0.860859 0.961151 0.593597 0 -0.000121117 4.76837e-07
20 1 0.360859 0.961151 0.593597 0 -0.000121117 2.38419e-07
21 1 0.931974 0.793767 0.0935971 0 -8.80957e-05 -1.19209e-07
22 1 0.431974 0.793767 0.0935971 0 -8.83341e-05 3.57628e-07
23 1 0.629337 0.917658 0.0935971 0 -0.00011766 -4.76837e-07
24 1 0.129337 0.917658 0.093597 0 -0.000117064 4.76837e-07
25 1 0.981437 0.0889166 0.593597 0 0.00011766 4.76837e-07
26 1 0.481437 0.0889166 0.593597 0 0.000117779 2.38419e-07
27 1 0.249915 0.0454234 0.0935971 0 0.000120401 -5.96046e-07
28 1 0.749915 0.0454234 0.0935971 0 0.000120997 -3.57628e-07
29 1 0.1788 0.212807 0.593597 0 8.86917e-05 -1.19209e-07
30 1 0.6788 0.212807 0.593597 0 8.80957e-05 5.96046e-07
31 1 0.946681 0.170722 0.0935971 0 -3.80278e-05 -2.38419e-07
32 1 0.446681 0.170722 0.0935971 0 -3.89814e-05 -2.38419e-07
ITEM: TIMESTEP
9
ITEM: NUMBER OF ATOMS
32
ITEM: BOX BOUNDS xy xz yz pp pp pp
-2.1013021469116211e-03 9.1152266860008240e+00 2.7185763716697693e+00
-4.1524946689605713e-02 2.2124402940273285e+01 -0.0000000000000000e+00
-1.4066457748413086e-02 5.1965324282646179e+00 0.0000000000000000e+00
ITEM: ATOMS id type xs ys zs fx fy fz
1 1 0.875948 0.337207 0.593597 0 -5.45979e-05 1.19209e-07
2 1 0.375948 0.337207 0.593597 0 -5.45979e-05 2.38419e-07
3 1 0.143586 0.295693 0.0935971 0 4.72069e-05 -2.38419e-07
4 1 0.643586 0.295693 0.0935971 0 4.64916e-05 0
5 1 0.0730584 0.461694 0.593597 0 6.17504e-05 0
6 1 0.573058 0.461694 0.593597 0 6.17504e-05 3.57628e-07
7 1 0.840634 0.420327 0.0935971 0 -2.11e-05 -3.57628e-07
8 1 0.340634 0.420327 0.0935971 0 -2.07424e-05 -2.38419e-07
9 1 0.77014 0.586248 0.593597 0 2.08616e-05 -1.19209e-07
10 1 0.270141 0.586248 0.593597 0 2.07424e-05 -1.19209e-07
11 1 0.967189 0.710881 0.593597 0 -4.673e-05 -1.19209e-07
12 1 0.467189 0.710881 0.593597 0 -4.69685e-05 0
13 1 0.734826 0.669368 0.0935971 0 5.50747e-05 2.38419e-07
14 1 0.0377158 0.54488 0.0935971 0 -6.16312e-05 0
15 1 0.537716 0.54488 0.0935971 0 -6.2108e-05 0
16 1 0.234826 0.669368 0.0935971 0 5.47171e-05 1.19209e-07
17 1 0.664093 0.835852 0.593597 0 -4.79221e-05 0
18 1 0.164093 0.835852 0.593597 0 -4.80413e-05 1.19209e-07
19 1 0.860859 0.96115 0.593597 0 2.6226e-06 -1.19209e-07
20 1 0.360859 0.96115 0.593597 0 2.38419e-06 -2.38419e-07
21 1 0.931975 0.793765 0.0935971 0 -7.73668e-05 -1.19209e-07
22 1 0.431975 0.793765 0.0935971 0 -7.71284e-05 -1.19209e-07
23 1 0.629338 0.917656 0.0935971 0 -4.48227e-05 4.76837e-07
24 1 0.129338 0.917656 0.0935971 0 -4.54187e-05 0
25 1 0.981436 0.0889184 0.593597 0 4.54187e-05 -3.57628e-07
26 1 0.481436 0.0889184 0.593597 0 4.50611e-05 0
27 1 0.249915 0.0454247 0.0935971 0 -2.14577e-06 2.38419e-07
28 1 0.749915 0.0454248 0.0935971 0 -2.6226e-06 1.19209e-07
29 1 0.178799 0.21281 0.593597 0 7.71284e-05 1.19209e-07
30 1 0.678799 0.21281 0.593597 0 7.7486e-05 -2.38419e-07
31 1 0.946681 0.170722 0.0935971 0 4.76837e-05 2.38419e-07
32 1 0.446681 0.170722 0.0935971 0 4.75645e-05 0
ITEM: TIMESTEP
10
ITEM: NUMBER OF ATOMS
32
ITEM: BOX BOUNDS xy xz yz pp pp pp
-2.1013021469116211e-03 9.1152266860008240e+00 2.7185763716697693e+00
-4.1524946689605713e-02 2.2124402940273285e+01 -0.0000000000000000e+00
-1.4066457748413086e-02 5.1965324282646179e+00 0.0000000000000000e+00
ITEM: ATOMS id type xs ys zs fx fy fz
1 1 0.875948 0.337207 0.593597 0 2.45571e-05 -3.57628e-07
2 1 0.375948 0.337207 0.593597 0 2.49147e-05 -5.96046e-07
3 1 0.143585 0.295695 0.0935971 0 -4.52995e-06 4.76837e-07
4 1 0.643585 0.295695 0.0935971 0 -3.8147e-06 2.38419e-07
5 1 0.0730581 0.461695 0.593597 0 1.52588e-05 -4.76837e-07
6 1 0.573058 0.461695 0.593597 0 1.54972e-05 -4.76837e-07
7 1 0.840634 0.420327 0.0935971 0 1.49012e-05 4.76837e-07
8 1 0.340634 0.420327 0.0935971 0 1.49012e-05 7.15256e-07
9 1 0.77014 0.586248 0.593597 0 -1.4782e-05 0
10 1 0.27014 0.586248 0.593597 0 -1.49012e-05 0
11 1 0.967189 0.71088 0.593597 0 4.76837e-06 -1.19209e-07
12 1 0.467189 0.71088 0.593597 0 4.52995e-06 1.19209e-07
13 1 0.734826 0.669368 0.0935971 0 -2.5034e-05 -1.19209e-07
14 1 0.0377161 0.54488 0.0935971 0 -1.57356e-05 1.19209e-07
15 1 0.537716 0.54488 0.0935971 0 -1.54972e-05 0
16 1 0.234826 0.669368 0.0935971 0 -2.5034e-05 0
17 1 0.664094 0.835851 0.593597 0 -4.29153e-05 1.19209e-07
18 1 0.164094 0.835851 0.593597 0 -4.25577e-05 1.19209e-07
19 1 0.86086 0.961149 0.593597 0 3.05176e-05 1.19209e-07
20 1 0.36086 0.961149 0.593597 0 3.12328e-05 1.19209e-07
21 1 0.931976 0.793762 0.0935971 0 2.16961e-05 1.19209e-07
22 1 0.431976 0.793762 0.0935971 0 2.19345e-05 -1.19209e-07
23 1 0.629339 0.917654 0.0935971 0 -1.37091e-05 0
24 1 0.129339 0.917654 0.0935971 0 -1.32322e-05 -1.19209e-07
25 1 0.981435 0.0889199 0.593597 0 1.32322e-05 7.15256e-07
26 1 0.481435 0.0889199 0.593597 0 1.38283e-05 -1.19209e-07
27 1 0.249915 0.0454251 0.0935971 0 -3.11136e-05 -2.38419e-07
28 1 0.749915 0.0454251 0.0935971 0 -3.11136e-05 -2.38419e-07
29 1 0.178798 0.212812 0.593597 0 -2.14577e-05 -1.19209e-07
30 1 0.678798 0.212812 0.593597 0 -2.20537e-05 1.19209e-07
31 1 0.94668 0.170723 0.0935971 0 4.26769e-05 -3.57628e-07
32 1 0.44668 0.170723 0.0935971 0 4.30346e-05 -1.19209e-07
ITEM: TIMESTEP
11
ITEM: NUMBER OF ATOMS
32
ITEM: BOX BOUNDS xy xz yz pp pp pp
-2.1013021469116211e-03 9.1152266860008240e+00 2.7185763716697693e+00
-4.1524946689605713e-02 2.2124402940273285e+01 -0.0000000000000000e+00
-1.4066457748413086e-02 5.1965324282646179e+00 0.0000000000000000e+00
ITEM: ATOMS id type xs ys zs fx fy fz
1 1 0.875948 0.337207 0.593597 0 1.56164e-05 2.38419e-07
2 1 0.375948 0.337207 0.593597 0 1.56164e-05 3.57628e-07
3 1 0.143585 0.295695 0.0935971 0 8.10623e-06 -2.38419e-07
4 1 0.643585 0.295695 0.0935971 0 8.58307e-06 -1.19209e-07
5 1 0.0730579 0.461695 0.593597 0 -7.27177e-06 1.19209e-07
6 1 0.573058 0.461695 0.593597 0 -7.15256e-06 0
7 1 0.840634 0.420327 0.0935971 0 4.41074e-06 -2.38419e-07
8 1 0.340634 0.420327 0.0935971 0 4.29153e-06 -1.19209e-07
9 1 0.77014 0.586248 0.593597 0 -4.17233e-06 0
10 1 0.270141 0.586247 0.593597 0 -4.64916e-06 2.38419e-07
11 1 0.967189 0.710879 0.593597 0 -9.05991e-06 0
12 1 0.467189 0.710879 0.593597 0 -8.82149e-06 0
13 1 0.734826 0.669367 0.0935971 0 -1.52588e-05 0
14 1 0.0377162 0.544879 0.0935971 0 7.98702e-06 0
15 1 0.537716 0.544879 0.0935971 0 7.51019e-06 -2.38419e-07
16 1 0.234826 0.669367 0.0935971 0 -1.5378e-05 0
17 1 0.664094 0.83585 0.593597 0 5.48363e-06 1.19209e-07
18 1 0.164094 0.83585 0.593597 0 5.60284e-06 -3.57628e-07
19 1 0.860859 0.96115 0.593597 0 -5.36442e-06 -2.38419e-07
20 1 0.360859 0.96115 0.593597 0 -5.24521e-06 1.19209e-07
21 1 0.931976 0.793762 0.0935971 0 1.66893e-06 0
22 1 0.431976 0.793762 0.0935971 0 1.43051e-06 1.19209e-07
23 1 0.629339 0.917654 0.0935971 0 -4.52995e-06 -4.76837e-07
24 1 0.129339 0.917654 0.0935971 0 -4.41074e-06 5.96046e-07
25 1 0.981435 0.0889204 0.593597 0 3.57628e-06 -5.96046e-07
26 1 0.481435 0.0889204 0.593597 0 3.93391e-06 0
27 1 0.249915 0.0454246 0.093597 0 5.24521e-06 2.38419e-07
28 1 0.749915 0.0454246 0.0935971 0 5.84126e-06 3.57628e-07
29 1 0.178798 0.212812 0.593597 0 -1.66893e-06 1.19209e-07
30 1 0.678798 0.212812 0.593597 0 -1.54972e-06 -1.19209e-07
31 1 0.94668 0.170724 0.0935971 0 -5.24521e-06 1.19209e-07
32 1 0.44668 0.170724 0.0935971 0 -5.126e-06 0
ITEM: TIMESTEP
12
ITEM: NUMBER OF ATOMS
32
ITEM: BOX BOUNDS xy xz yz pp pp pp
-2.1013021469116211e-03 9.1152266860008240e+00 2.7185763716697693e+00
-4.1524946689605713e-02 2.2124402940273285e+01 -0.0000000000000000e+00
-1.4066457748413086e-02 5.1965324282646179e+00 0.0000000000000000e+00
ITEM: ATOMS id type xs ys zs fx fy fz
1 1 0.875948 0.337207 0.593597 0 -4.76837e-07 0
2 1 0.375948 0.337207 0.593597 0 -7.15256e-07 -1.19209e-07
3 1 0.143585 0.295695 0.0935971 0 2.26498e-06 -2.38419e-07
4 1 0.643585 0.295695 0.0935971 0 1.90735e-06 0
5 1 0.073058 0.461695 0.593597 0 9.53674e-07 1.19209e-07
6 1 0.573058 0.461695 0.593597 0 1.07288e-06 1.19209e-07
7 1 0.840634 0.420327 0.0935971 0 5.72205e-06 -1.19209e-07
8 1 0.340634 0.420327 0.0935971 0 5.36442e-06 -1.19209e-07
9 1 0.770141 0.586247 0.593597 0 -5.48363e-06 1.19209e-07
10 1 0.270141 0.586247 0.593597 0 -5.48363e-06 -2.38419e-07
11 1 0.967189 0.710879 0.593597 0 -1.78814e-06 -2.38419e-07
12 1 0.467189 0.710879 0.593597 0 -1.78814e-06 -1.19209e-07
13 1 0.734826 0.669367 0.0935971 0 4.76837e-07 0
14 1 0.0377162 0.544879 0.0935971 0 -1.07288e-06 0
15 1 0.537716 0.544879 0.0935971 0 -7.15256e-07 1.19209e-07
16 1 0.234826 0.669367 0.0935971 0 1.19209e-07 2.38419e-07
17 1 0.664094 0.83585 0.593597 0 3.57628e-07 0
18 1 0.164094 0.83585 0.593597 0 2.38419e-07 3.57628e-07
19 1 0.860859 0.96115 0.593597 0 -1.19209e-07 1.19209e-07
20 1 0.360859 0.96115 0.593597 0 -1.19209e-07 0
21 1 0.931976 0.793762 0.0935971 0 -9.41753e-06 0
22 1 0.431976 0.793762 0.0935971 0 -9.17912e-06 1.19209e-07
23 1 0.629339 0.917654 0.0935971 0 3.93391e-06 0
24 1 0.129339 0.917654 0.0935971 0 3.69549e-06 -3.57628e-07
25 1 0.981435 0.0889205 0.593597 0 -3.33786e-06 1.19209e-07
26 1 0.481435 0.0889205 0.593597 0 -3.45707e-06 2.38419e-07
27 1 0.249915 0.0454247 0.0935971 0 0 -1.19209e-07
28 1 0.749915 0.0454247 0.0935971 0 -2.38419e-07 -1.19209e-07
29 1 0.178798 0.212812 0.593597 0 8.9407e-06 1.19209e-07
30 1 0.678798 0.212812 0.593597 0 9.53674e-06 3.57628e-07
31 1 0.94668 0.170724 0.0935971 0 -7.15256e-07 -3.57628e-07
32 1 0.44668 0.170724 0.0935971 0 -4.76837e-07 0
ITEM: TIMESTEP
13
ITEM: NUMBER OF ATOMS
32
ITEM: BOX BOUNDS xy xz yz pp pp pp
-2.1013021469116211e-03 9.1152266860008240e+00 2.7185763716697693e+00
-4.1524946689605713e-02 2.2124402940273285e+01 -0.0000000000000000e+00
-1.4066457748413086e-02 5.1965324282646179e+00 0.0000000000000000e+00
ITEM: ATOMS id type xs ys zs fx fy fz
1 1 0.875948 0.337207 0.593597 0 -2.26498e-06 -2.38419e-07
2 1 0.375948 0.337207 0.593597 0 -2.02656e-06 -1.19209e-07
3 1 0.143585 0.295695 0.0935971 0 1.90735e-06 3.57628e-07
4 1 0.643585 0.295695 0.0935971 0 2.14577e-06 1.19209e-07
5 1 0.073058 0.461695 0.593597 0 9.53674e-07 -1.19209e-07
6 1 0.573058 0.461695 0.593597 0 4.76837e-07 0
7 1 0.840634 0.420327 0.0935971 0 0 3.57628e-07
8 1 0.340633 0.420327 0.0935971 0 1.19209e-07 -1.19209e-07
9 1 0.770141 0.586247 0.593597 0 0 -1.19209e-07
10 1 0.270141 0.586247 0.593597 0 5.96046e-07 1.19209e-07
11 1 0.967189 0.710879 0.593597 0 -2.38419e-06 3.57628e-07
12 1 0.467189 0.710879 0.593597 0 -2.02656e-06 0
13 1 0.734826 0.669367 0.0935971 0 2.26498e-06 0
14 1 0.0377162 0.544879 0.0935971 0 -1.90735e-06 0
15 1 0.537716 0.544879 0.0935971 0 -1.54972e-06 1.19209e-07
16 1 0.234826 0.669367 0.0935971 0 2.98023e-06 -3.57628e-07
17 1 0.664094 0.83585 0.593597 0 -3.33786e-06 -2.38419e-07
18 1 0.164094 0.83585 0.593597 0 -3.33786e-06 2.38419e-07
19 1 0.860859 0.96115 0.593597 0 1.19209e-07 1.19209e-07
20 1 0.360859 0.96115 0.593597 0 -4.76837e-07 0
21 1 0.931976 0.793762 0.0935971 0 0 -1.19209e-07
22 1 0.431976 0.793762 0.0935971 0 -2.38419e-07 -1.19209e-07
23 1 0.629339 0.917654 0.0935971 0 -2.6226e-06 3.57628e-07
24 1 0.129339 0.917654 0.0935971 0 -2.6226e-06 -3.57628e-07
25 1 0.981435 0.0889205 0.593597 0 2.5034e-06 0
26 1 0.481435 0.0889205 0.593597 0 2.5034e-06 -1.19209e-07
27 1 0.249915 0.0454247 0.0935971 0 3.57628e-07 0
28 1 0.749915 0.0454247 0.0935971 0 3.57628e-07 -1.19209e-07
29 1 0.178798 0.212813 0.593597 0 8.34465e-07 -4.76837e-07
30 1 0.678798 0.212813 0.593597 0 0 -5.96046e-07
31 1 0.94668 0.170724 0.093597 0 3.45707e-06 5.96046e-07
32 1 0.44668 0.170724 0.0935971 0 3.21865e-06 4.76837e-07
ITEM: TIMESTEP
14
ITEM: NUMBER OF ATOMS
32
ITEM: BOX BOUNDS xy xz yz pp pp pp
-2.1013021469116211e-03 9.1152266860008240e+00 2.7185763716697693e+00
-4.1524946689605713e-02 2.2124402940273285e+01 -0.0000000000000000e+00