ITEM: TIMESTEP
0
ITEM: NUMBER OF ATOMS
32
ITEM: BOX BOUNDS xy xz yz pp pp pp
-4.7826766967773438e-03 7.1192564964294434e+00 7.1992480754852295e-01
-3.7661075592041016e-02 2.2120539069175720e+01 0.0000000000000000e+00
-1.1393904685974121e-02 5.1938598752021790e+00 0.0000000000000000e+00
ITEM: ATOMS id type xs ys zs fx fy fz
1 1 0.981381 0.336542 0.593597 0 0.000814438 5.72205e-06
2 1 0.481381 0.336542 0.593597 0 0.000810623 5.72205e-06
3 1 0.236048 0.295033 0.0935973 0 -0.00125885 -5.72205e-06
4 1 0.736048 0.295033 0.0935973 0 -0.00126076 -3.8147e-06
5 1 0.217329 0.461543 0.593597 0 0.000955582 0
6 1 0.717329 0.461543 0.593597 0 0.000959396 5.72205e-06
7 1 0.971995 0.420037 0.0935973 0 -0.00118065 -7.62939e-06
8 1 0.471995 0.420037 0.0935973 0 -0.00118065 -3.8147e-06
9 1 0.953277 0.586543 0.593597 0 0.00111961 0
10 1 0.453277 0.586543 0.593597 0 0.00111771 0
11 1 0.189226 0.711539 0.593597 0 0.00134087 7.62939e-06
12 1 0.689226 0.711539 0.593597 0 0.00133896 3.8147e-06
13 1 0.94389 0.670042 0.0935972 0 -0.00105286 -3.8147e-06
14 1 0.207942 0.545043 0.0935972 0 -0.0010643 0
15 1 0.707942 0.545043 0.0935972 0 -0.00106049 0
16 1 0.443891 0.670042 0.0935972 0 -0.00105858 -7.62939e-06
17 1 0.925174 0.836533 0.593597 0 0.0112228 1.90735e-06
18 1 0.425174 0.836533 0.593597 0 0.0112209 0
19 1 0.161122 0.961533 0.593597 0 -0.151041 1.90735e-06
20 1 0.661122 0.961533 0.593597 0 -0.151043 1.90735e-06
21 1 0.179839 0.795035 0.0935971 0 0.000686646 -1.90735e-06
22 1 0.679839 0.795035 0.0935971 0 0.000684738 0
23 1 0.915787 0.920032 0.0935971 0 -0.269136 -3.8147e-06
24 1 0.415788 0.920032 0.0935971 0 -0.269136 0
25 1 0.00948539 0.0865377 0.593597 0 0.268978 0
26 1 0.509486 0.0865377 0.593597 0 0.26898 0
27 1 0.264152 0.045031 0.093597 0 0.151291 0
28 1 0.764152 0.045031 0.093597 0 0.151295 0
29 1 0.245433 0.211541 0.593597 0 -0.000686646 1.90735e-06
30 1 0.745433 0.211541 0.593597 0 -0.000680923 1.90735e-06
31 1 9.93899e-05 0.170031 0.093597 0 -0.0109863 0
32 1 0.5001 0.170031 0.093597 0 -0.0109882 0
ITEM: TIMESTEP
1
ITEM: NUMBER OF ATOMS
32
ITEM: BOX BOUNDS xy xz yz pp pp pp
-4.7826766967773438e-03 7.1192564964294434e+00 7.1992480754852295e-01
-3.7661075592041016e-02 2.2120539069175720e+01 0.0000000000000000e+00
-1.1393904685974121e-02 5.1938598752021790e+00 0.0000000000000000e+00
ITEM: ATOMS id type xs ys zs fx fy fz
1 1 0.98138 0.336551 0.593597 0 0.000387192 -7.62939e-06
2 1 0.48138 0.336551 0.593597 0 0.000385284 0
3 1 0.236049 0.295019 0.093597 0 -0.000213623 3.8147e-06
4 1 0.736049 0.295019 0.0935971 0 -0.000213623 3.8147e-06
5 1 0.217328 0.461553 0.593597 0 0.00106239 0
6 1 0.717328 0.461553 0.593597 0 0.00107002 -1.90735e-06
7 1 0.971996 0.420025 0.0935969 0 -0.00147438 1.90735e-06
8 1 0.471997 0.420025 0.0935971 0 -0.00147247 0
9 1 0.953275 0.586555 0.593597 0 0.00142288 0
10 1 0.453276 0.586555 0.593597 0 0.00141335 0
11 1 0.189224 0.711554 0.593597 0 0.000303268 -7.62939e-06
12 1 0.689224 0.711554 0.593597 0 0.000305176 -5.72205e-06
13 1 0.943891 0.670031 0.093597 0 -0.000495911 1.90735e-06
14 1 0.207944 0.545031 0.0935972 0 -0.00121498 0
15 1 0.707944 0.545031 0.0935972 0 -0.00121498 0
16 1 0.443892 0.670031 0.0935968 0 -0.000495911 7.62939e-06
17 1 0.92516 0.836654 0.593597 0 -0.0535698 -1.90735e-06
18 1 0.425161 0.836654 0.593597 0 -0.053566 0
19 1 0.161305 0.959908 0.593597 0 0.0500946 -1.90735e-06
20 1 0.661305 0.959908 0.593597 0 0.0500946 -1.90735e-06
21 1 0.179839 0.795042 0.093597 0 -0.0630188 1.90735e-06
22 1 0.679839 0.795042 0.0935971 0 -0.0630188 1.90735e-06
23 1 0.916113 0.917137 0.0935969 0 -0.0179939 3.8147e-06
24 1 0.416113 0.917137 0.0935971 0 -0.0179958 0
25 1 0.00916019 0.0894305 0.593597 0 0.0181236 1.90735e-06
26 1 0.509161 0.0894305 0.593597 0 0.0181255 0
27 1 0.263969 0.0466581 0.093597 0 -0.0500488 1.90735e-06
28 1 0.763969 0.0466582 0.093597 0 -0.0500488 0
29 1 0.245434 0.211534 0.593597 0 0.0629044 0
30 1 0.745434 0.211534 0.593597 0 0.0628967 0
31 1 0.000112672 0.169913 0.093597 0 0.0537319 -1.90735e-06
32 1 0.500113 0.169913 0.093597 0 0.0537357 0
ITEM: TIMESTEP
2
ITEM: NUMBER OF ATOMS
32
ITEM: BOX BOUNDS xy xz yz pp pp pp
-4.7826766967773438e-03 7.1192564964294434e+00 7.1992480754852295e-01
-3.7661075592041016e-02 2.2120539069175720e+01 0.0000000000000000e+00
-1.1393904685974121e-02 5.1938598752021790e+00 0.0000000000000000e+00
ITEM: ATOMS id type xs ys zs fx fy fz
1 1 0.981379 0.336563 0.593597 0 0.0303345 7.62939e-06
2 1 0.481379 0.336563 0.593597 0 0.0303383 1.90735e-06
3 1 0.23605 0.29501 0.0935973 0 0.0368862 -5.72205e-06
4 1 0.73605 0.29501 0.0935975 0 0.0368824 -3.8147e-06
5 1 0.217325 0.461582 0.593597 0 0.00038147 3.8147e-06
6 1 0.717325 0.461582 0.593597 0 0.000375748 -1.90735e-06
7 1 0.972001 0.419985 0.093597 0 0.000991821 -1.90735e-06
8 1 0.472001 0.419985 0.0935971 0 0.000986099 -1.90735e-06
9 1 0.953271 0.586594 0.593597 0 -0.00102615 -1.90735e-06
10 1 0.453271 0.586594 0.593597 0 -0.00101089 5.72205e-06
11 1 0.189223 0.711565 0.593597 0 -0.0369129 1.33514e-05
12 1 0.689223 0.711565 0.593597 0 -0.0369225 1.52588e-05
13 1 0.943893 0.670015 0.0935972 0 -0.0304585 -7.62939e-06
14 1 0.207948 0.544998 0.0935972 0 -0.00043869 -1.90735e-06
15 1 0.707948 0.544998 0.0935972 0 -0.000436783 0
16 1 0.443894 0.670015 0.0935975 0 -0.0304527 -1.14441e-05
17 1 0.925303 0.835381 0.593597 0 0.0129433 5.72205e-06
18 1 0.425304 0.835381 0.593597 0 0.0129395 3.8147e-06
19 1 0.161224 0.960629 0.593597 0 0.00939178 1.90735e-06
20 1 0.661224 0.960628 0.593597 0 0.00939369 1.90735e-06
21 1 0.180012 0.793504 0.0935972 0 -0.0113163 -9.53674e-06
22 1 0.680012 0.793503 0.0935973 0 -0.0113125 -5.72205e-06
23 1 0.916263 0.915799 0.0935973 0 0.0057106 -5.72205e-06
24 1 0.416264 0.915799 0.0935971 0 0.00572014 -3.8147e-06
25 1 0.00900943 0.0907716 0.593597 0 -0.00571442 -1.90735e-06
26 1 0.50901 0.0907717 0.593597 0 -0.00570869 1.90735e-06
27 1 0.26405 0.0459397 0.0935972 0 -0.00925446 -1.90735e-06
28 1 0.76405 0.0459397 0.093597 0 -0.00925827 0
29 1 0.245262 0.213069 0.593597 0 0.0113983 -1.90735e-06
30 1 0.745262 0.213069 0.593597 0 0.0114098 0
31 1 -3.08766e-05 0.17119 0.0935968 0 -0.012928 3.8147e-06
32 1 0.499969 0.17119 0.093597 0 -0.0129318 1.90735e-06
ITEM: TIMESTEP
3
ITEM: NUMBER OF ATOMS
32
ITEM: BOX BOUNDS xy xz yz pp pp pp
-4.7826766967773438e-03 7.1192564964294434e+00 7.1992480754852295e-01
-3.7661075592041016e-02 2.2120539069175720e+01 0.0000000000000000e+00
-1.1393904685974121e-02 5.1938598752021790e+00 0.0000000000000000e+00
ITEM: ATOMS id type xs ys zs fx fy fz
1 1 0.981293 0.337328 0.593597 0 0.00653076 -3.8147e-06
2 1 0.481293 0.337328 0.593598 0 0.00653076 -1.14441e-05
3 1 0.235946 0.295934 0.0935968 0 -0.00270653 7.62939e-06
4 1 0.735946 0.295933 0.0935971 0 -0.00268936 3.8147e-06
5 1 0.217323 0.461599 0.593597 0 0.0127087 -7.62939e-06
6 1 0.717323 0.461599 0.593597 0 0.012701 -1.90735e-06
7 1 0.971999 0.42 0.0935969 0 0.0243187 1.90735e-06
8 1 0.471999 0.42 0.0935968 0 0.0243263 7.62939e-06
9 1 0.953273 0.586578 0.593597 0 -0.0244007 -1.90735e-06
10 1 0.453273 0.586578 0.593598 0 -0.0244007 -1.33514e-05
11 1 0.189327 0.710642 0.593598 0 0.00268936 -1.71661e-05
12 1 0.689327 0.710641 0.593598 0 0.00270271 -1.71661e-05
13 1 0.94398 0.669247 0.0935964 0 -0.00646591 1.71661e-05
14 1 0.20795 0.544979 0.093597 0 -0.0127563 3.8147e-06
15 1 0.70795 0.544979 0.0935972 0 -0.0127678 1.90735e-06
16 1 0.44398 0.669247 0.0935965 0 -0.00646973 1.71661e-05
17 1 0.925302 0.835394 0.593597 0 -0.00110245 -1.33514e-05
18 1 0.425302 0.835394 0.593597 0 -0.00109673 -1.33514e-05
19 1 0.161178 0.961041 0.593597 0 -0.0130901 -3.8147e-06
20 1 0.661178 0.961041 0.593597 0 -0.0130882 -5.72205e-06
21 1 0.180086 0.792842 0.0935962 0 -0.00185585 2.28882e-05
22 1 0.680086 0.792842 0.0935967 0 -0.00186348 5.72205e-06
23 1 0.916284 0.915613 0.0935967 0 -0.00662422 3.8147e-06
24 1 0.416284 0.915614 0.0935967 0 -0.00663567 1.33514e-05
25 1 0.00898853 0.0909576 0.593597 0 0.00676155 -1.90735e-06
26 1 0.508989 0.0909578 0.593597 0 0.00675011 -3.8147e-06
27 1 0.264096 0.0455308 0.093597 0 0.0130901 5.72205e-06
28 1 0.764096 0.0455308 0.093597 0 0.0130863 3.8147e-06
29 1 0.245187 0.213732 0.593597 0 0.00181007 0
30 1 0.745187 0.213733 0.593597 0 0.00180054 0
31 1 -2.96463e-05 0.171179 0.0935972 0 0.00110626 0
32 1 0.499971 0.171179 0.0935972 0 0.00110054 0
ITEM: TIMESTEP
4
ITEM: NUMBER OF ATOMS
32
ITEM: BOX BOUNDS xy xz yz pp pp pp
-4.7826766967773438e-03 7.1192564964294434e+00 7.1992480754852295e-01
-3.7661075592041016e-02 2.2120539069175720e+01 0.0000000000000000e+00
-1.1393904685974121e-02 5.1938598752021790e+00 0.0000000000000000e+00
ITEM: ATOMS id type xs ys zs fx fy fz
1 1 0.98125 0.33771 0.593597 0 0.00159454 3.8147e-06
2 1 0.48125 0.33771 0.593597 0 0.00158501 1.14441e-05
3 1 0.235919 0.296175 0.0935973 0 -0.00117683 -7.62939e-06
4 1 0.735919 0.296175 0.0935974 0 -0.00119209 -7.62939e-06
5 1 0.217293 0.461869 0.593597 0 -0.00469208 5.72205e-06
6 1 0.717293 0.461869 0.593597 0 -0.00468826 9.53674e-06
7 1 0.971942 0.420511 0.093597 0 0.00183678 -1.90735e-06
8 1 0.471942 0.420511 0.0935975 0 0.00183868 -9.53674e-06
9 1 0.953331 0.586065 0.593597 0 -0.00184441 7.62939e-06
10 1 0.453331 0.586065 0.593597 0 -0.00185013 9.53674e-06
11 1 0.189354 0.7104 0.593597 0 0.00116158 1.52588e-05
12 1 0.689354 0.7104 0.593597 0 0.00116539 5.72205e-06
13 1 0.944023 0.668864 0.0935977 0 -0.00159073 -9.53674e-06
14 1 0.20798 0.544707 0.0935973 0 0.00466156 -1.14441e-05
15 1 0.70798 0.544707 0.0935974 0 0.00466537 -9.53674e-06
16 1 0.444023 0.668864 0.0935977 0 -0.00159264 -1.14441e-05
17 1 0.925304 0.835375 0.593596 0 -0.00967598 1.14441e-05
18 1 0.425304 0.835375 0.593596 0 -0.00967979 1.71661e-05
19 1 0.161193 0.960902 0.593597 0 -0.000265121 1.90735e-06
20 1 0.661193 0.960902 0.593597 0 -0.000265121 5.72205e-06
21 1 0.180114 0.792589 0.0935979 0 -0.00221825 -1.71661e-05
22 1 0.680114 0.792589 0.0935971 0 -0.00221825 -3.8147e-06
23 1 0.916306 0.915416 0.0935969 0 0.00348473 -3.8147e-06
24 1 0.416307 0.915416 0.0935977 0 0.00349617 -1.33514e-05
25 1 0.00896597 0.0911582 0.593597 0 -0.00352669 5.72205e-06
26 1 0.508966 0.0911582 0.593597 0 -0.00353432 3.8147e-06
27 1 0.26408 0.0456713 0.0935975 0 0.000286102 -5.72205e-06
28 1 0.76408 0.0456711 0.0935973 0 0.000295639 -5.72205e-06
29 1 0.245159 0.213984 0.593597 0 0.0022583 1.14441e-05
30 1 0.745159 0.213984 0.593597 0 0.0022583 3.8147e-06
31 1 -3.18365e-05 0.171198 0.0935973 0 0.0097065 -5.72205e-06
32 1 0.499969 0.171198 0.0935973 0 0.00971603 -5.72205e-06
ITEM: TIMESTEP
5
ITEM: NUMBER OF ATOMS
32
ITEM: BOX BOUNDS xy xz yz pp pp pp
-4.7826766967773438e-03 7.1192564964294434e+00 7.1992480754852295e-01
-3.7661075592041016e-02 2.2120539069175720e+01 0.0000000000000000e+00
-1.1393904685974121e-02 5.1938598752021790e+00 0.0000000000000000e+00
ITEM: ATOMS id type xs ys zs fx fy fz
1 1 0.981241 0.33779 0.593597 0 -0.00110626 -9.53674e-06
2 1 0.481241 0.337789 0.593597 0 -0.00110054 -7.62939e-06
3 1 0.235918 0.296184 0.0935968 0 0.00459862 9.53674e-06
4 1 0.735918 0.296184 0.0935968 0 0.00460052 9.53674e-06
5 1 0.217299 0.461815 0.593597 0 -0.00174141 -1.14441e-05
6 1 0.717299 0.461815 0.593597 0 -0.00174522 -1.14441e-05
7 1 0.97193 0.420611 0.0935968 0 -0.00141907 7.62939e-06
8 1 0.471931 0.420611 0.0935968 0 -0.00142288 1.14441e-05
9 1 0.953342 0.585964 0.593597 0 0.00140572 -9.53674e-06
10 1 0.453342 0.585964 0.593597 0 0.00140381 -5.72205e-06
11 1 0.189355 0.71039 0.593598 0 -0.00458717 -1.14441e-05
12 1 0.689355 0.71039 0.593597 0 -0.0045948 -7.62939e-06
13 1 0.944031 0.668785 0.0935971 0 0.00109482 5.72205e-06
14 1 0.207974 0.54476 0.0935964 0 0.00174332 1.52588e-05
15 1 0.707974 0.544759 0.0935966 0 0.00174713 9.53674e-06
16 1 0.444032 0.668785 0.0935969 0 0.00109291 7.62939e-06
17 1 0.925325 0.835191 0.593597 0 -0.000844955 -3.8147e-06
18 1 0.425325 0.835191 0.593598 0 -0.000846863 -7.62939e-06
19 1 0.161196 0.960879 0.593597 0 -0.00299644 -1.90735e-06
20 1 0.661196 0.960879 0.593597 0 -0.00299454 -3.8147e-06
21 1 0.180123 0.792515 0.0935968 0 0.000785828 9.53674e-06
22 1 0.680123 0.792515 0.0935968 0 0.000787735 5.72205e-06
23 1 0.916302 0.915456 0.0935966 0 -0.00196457 1.90735e-06
24 1 0.416302 0.915456 0.0935968 0 -0.00197792 3.8147e-06
25 1 0.00897049 0.091118 0.593597 0 0.00198746 -1.90735e-06
26 1 0.508971 0.0911179 0.593597 0 0.00200462 -5.72205e-06
27 1 0.264077 0.0456947 0.0935971 0 0.00299072 1.90735e-06
28 1 0.764077 0.0456947 0.0935969 0 0.00298882 1.90735e-06
29 1 0.24515 0.214059 0.593598 0 -0.00078392 -1.14441e-05
30 1 0.74515 0.214059 0.593597 0 -0.00078392 -7.62939e-06
31 1 -5.25447e-05 0.171383 0.0935968 0 0.000841141 7.62939e-06
32 1 0.499948 0.171383 0.0935968 0 0.000837326 9.53674e-06
ITEM: TIMESTEP
6
ITEM: NUMBER OF ATOMS
32
ITEM: BOX BOUNDS xy xz yz pp pp pp
-4.7826766967773438e-03 7.1192564964294434e+00 7.1992480754852295e-01
-3.7661075592041016e-02 2.2120539069175720e+01 0.0000000000000000e+00
-1.1393904685974121e-02 5.1938598752021790e+00 0.0000000000000000e+00
ITEM: ATOMS id type xs ys zs fx fy fz
1 1 0.98124 0.337793 0.593597 0 -0.00190353 1.52588e-05
2 1 0.481241 0.337793 0.593597 0 -0.001894 1.14441e-05
3 1 0.235907 0.296286 0.0935974 0 0.00123405 -7.62939e-06
4 1 0.735907 0.296286 0.0935975 0 0.00124168 -7.62939e-06
5 1 0.217305 0.46176 0.593596 0 0.0015316 1.52588e-05
6 1 0.717305 0.46176 0.593597 0 0.00153351 3.8147e-06
7 1 0.97193 0.420615 0.0935975 0 0.00136757 -1.52588e-05
8 1 0.47193 0.420615 0.0935976 0 0.00136948 -1.71661e-05
9 1 0.953342 0.585959 0.593596 0 -0.00136185 1.52588e-05
10 1 0.453343 0.585959 0.593597 0 -0.00135803 7.62939e-06
11 1 0.189366 0.710289 0.593597 0 -0.00123405 5.72205e-06
12 1 0.689366 0.710289 0.593597 0 -0.00124359 5.72205e-06
13 1 0.944032 0.668781 0.0935974 0 0.00189781 -1.14441e-05
14 1 0.207968 0.544815 0.0935975 0 -0.00154114 -9.53674e-06
15 1 0.707968 0.544815 0.0935972 0 -0.00154495 -3.8147e-06
16 1 0.444032 0.668781 0.0935973 0 0.00190163 -7.62939e-06
17 1 0.925334 0.835109 0.593597 0 -0.000156403 -1.90735e-06
18 1 0.425334 0.835109 0.593597 0 -0.00015831 -7.62939e-06
19 1 0.161204 0.960807 0.593597 0 0.000621796 3.8147e-06
20 1 0.661204 0.960807 0.593597 0 0.000623703 0
21 1 0.180124 0.792506 0.0935972 0 -0.000583649 0
22 1 0.680124 0.792506 0.0935972 0 -0.000579834 1.90735e-06
23 1 0.916305 0.915427 0.0935967 0 0.000499725 7.62939e-06
24 1 0.416305 0.915427 0.0935968 0 0.000499725 1.90735e-06
25 1 0.00896728 0.0911466 0.593597 0 -0.000482559 0
26 1 0.508968 0.0911467 0.593597 0 -0.000490189 5.72205e-06
27 1 0.264069 0.045767 0.0935971 0 -0.000621796 -5.72205e-06
28 1 0.764069 0.045767 0.093597 0 -0.000627518 -3.8147e-06
29 1 0.245149 0.214068 0.593597 0 0.000572205 1.90735e-06
30 1 0.745149 0.214068 0.593597 0 0.000574112 1.90735e-06
31 1 -6.18051e-05 0.171465 0.0935974 0 0.000152588 -1.90735e-06
32 1 0.499939 0.171465 0.0935975 0 0.000160217 -3.8147e-06
ITEM: TIMESTEP
7
ITEM: NUMBER OF ATOMS
32
ITEM: BOX BOUNDS xy xz yz pp pp pp
-4.7826766967773438e-03 7.1192564964294434e+00 7.1992480754852295e-01
-3.7661075592041016e-02 2.2120539069175720e+01 0.0000000000000000e+00
-1.1393904685974121e-02 5.1938598752021790e+00 0.0000000000000000e+00
ITEM: ATOMS id type xs ys zs fx fy fz
1 1 0.981243 0.337765 0.593597 0 0.000343323 -5.72205e-06
2 1 0.481244 0.337765 0.593598 0 0.000339508 -3.8147e-06
3 1 0.235903 0.296323 0.0935971 0 0.0001297 9.53674e-06
4 1 0.735903 0.296323 0.0935971 0 0.000125885 3.8147e-06
5 1 0.217303 0.461773 0.593597 0 -0.000234604 -7.62939e-06
6 1 0.717303 0.461773 0.593597 0 -0.000230789 -3.8147e-06
7 1 0.971927 0.420637 0.0935966 0 0.000494003 5.72205e-06
8 1 0.471928 0.420637 0.0935966 0 0.000492096 1.33514e-05
9 1 0.953345 0.585937 0.593597 0 -0.000494003 -7.62939e-06
10 1 0.453345 0.585937 0.593597 0 -0.000499725 -5.72205e-06
11 1 0.18937 0.710251 0.593597 0 -0.000139236 -3.8147e-06
12 1 0.68937 0.710251 0.593597 0 -0.000127792 -3.8147e-06
13 1 0.944029 0.66881 0.0935967 0 -0.000350952 1.33514e-05
14 1 0.20797 0.544801 0.093597 0 0.000238419 0
15 1 0.70797 0.544801 0.0935971 0 0.000234604 1.90735e-06
16 1 0.444029 0.66881 0.0935969 0 -0.000343323 1.90735e-06
17 1 0.925336 0.835092 0.593597 0 7.62939e-06 1.90735e-06
18 1 0.425336 0.835092 0.593597 0 1.14441e-05 3.8147e-06
19 1 0.161204 0.960804 0.593597 0 0.000400543 0
20 1 0.661204 0.960804 0.593597 0 0.000400543 1.90735e-06
21 1 0.180125 0.792496 0.0935973 0 0.00022316 -1.90735e-06
22 1 0.680125 0.792496 0.0935974 0 0.00022316 -1.90735e-06
23 1 0.916305 0.91543 0.0935972 0 3.05176e-05 -3.8147e-06
24 1 0.416305 0.91543 0.093597 0 3.05176e-05 0
25 1 0.00896754 0.0911442 0.593597 0 -3.24249e-05 -3.8147e-06
26 1 0.508968 0.0911444 0.593597 0 -3.8147e-05 0
27 1 0.264069 0.0457704 0.0935968 0 -0.000387192 1.90735e-06
28 1 0.764069 0.0457703 0.0935967 0 -0.000392914 5.72205e-06
29 1 0.245148 0.214078 0.593597 0 -0.000221252 1.90735e-06
30 1 0.745148 0.214079 0.593597 0 -0.000217438 0
31 1 -6.37271e-05 0.171482 0.0935973 0 -5.72205e-06 -7.62939e-06
32 1 0.499937 0.171482 0.0935974 0 -9.53674e-06 -5.72205e-06
ITEM: TIMESTEP
8
ITEM: NUMBER OF ATOMS
32
ITEM: BOX BOUNDS xy xz yz pp pp pp
-4.7826766967773438e-03 7.1192564964294434e+00 7.1992480754852295e-01
-3.7661075592041016e-02 2.2120539069175720e+01 0.0000000000000000e+00
-1.1393904685974121e-02 5.1938598752021790e+00 0.0000000000000000e+00
ITEM: ATOMS id type xs ys zs fx fy fz
1 1 0.981243 0.33777 0.593597 0 8.96454e-05 7.62939e-06
2 1 0.481243 0.33777 0.593597 0 8.7738e-05 0
3 1 0.235902 0.29633 0.0935979 0 6.29425e-05 -7.62939e-06
4 1 0.735902 0.296329 0.0935974 0 6.86646e-05 -5.72205e-06
5 1 0.217304 0.461769 0.593597 0 -0.000139236 1.33514e-05
6 1 0.717304 0.461769 0.593596 0 -0.000141144 7.62939e-06
7 1 0.971926 0.42065 0.093597 0 6.48499e-05 -5.72205e-06
8 1 0.471926 0.42065 0.0935977 0 5.91278e-05 -1.14441e-05
9 1 0.953346 0.585925 0.593597 0 -6.10352e-05 5.72205e-06
10 1 0.453347 0.585925 0.593597 0 -5.72205e-05 1.90735e-06
11 1 0.189371 0.710245 0.593597 0 -5.91278e-05 1.90735e-06
12 1 0.689371 0.710245 0.593597 0 -5.91278e-05 5.72205e-06
13 1 0.944029 0.668805 0.0935978 0 -8.7738e-05 -9.53674e-06
14 1 0.207969 0.544805 0.093597 0 0.000131607 -3.8147e-06
15 1 0.707969 0.544805 0.0935973 0 0.000133514 -3.8147e-06
16 1 0.44403 0.668805 0.093597 0 -8.96454e-05 0
17 1 0.925336 0.835091 0.593597 0 0.000101089 -3.8147e-06
18 1 0.425336 0.835091 0.593597 0 9.34601e-05 0
19 1 0.161203 0.960812 0.593597 0 -0.000171661 -3.8147e-06
20 1 0.661203 0.960812 0.593597 0 -0.000173569 1.90735e-06
21 1 0.180124 0.7925 0.0935972 0 -0.00012207 0
22 1 0.680124 0.7925 0.0935973 0 -0.00012207 -3.8147e-06
23 1 0.916305 0.915431 0.0935969 0 -0.000123978 3.8147e-06
24 1 0.416305 0.915431 0.093597 0 -0.000116348 3.8147e-06
25 1 0.00896765 0.0911433 0.593597 0 0.00012207 5.72205e-06
26 1 0.508968 0.0911433 0.593597 0 0.000131607 -1.90735e-06
27 1 0.26407 0.0457623 0.0935969 0 0.000164032 -1.90735e-06
28 1 0.76407 0.0457621 0.0935972 0 0.000175476 -3.8147e-06
29 1 0.245149 0.214075 0.593597 0 0.000123978 -1.90735e-06
30 1 0.745149 0.214075 0.593597 0 0.000110626 1.90735e-06
31 1 -6.38932e-05 0.171484 0.0935966 0 -9.53674e-05 5.72205e-06
32 1 0.499936 0.171484 0.0935969 0 -0.000101089 1.90735e-06
ITEM: TIMESTEP
9
ITEM: NUMBER OF ATOMS
32
ITEM: BOX BOUNDS xy xz yz pp pp pp
-4.7826766967773438e-03 7.1192564964294434e+00 7.1992480754852295e-01
-3.7661075592041016e-02 2.2120539069175720e+01 0.0000000000000000e+00
-1.1393904685974121e-02 5.1938598752021790e+00 0.0000000000000000e+00
ITEM: ATOMS id type xs ys zs fx fy fz
1 1 0.981243 0.33777 0.593597 0 8.96454e-05 7.62939e-06
2 1 0.481243 0.33777 0.593597 0 8.7738e-05 0
3 1 0.235902 0.29633 0.0935979 0 6.29425e-05 -7.62939e-06
4 1 0.735902 0.296329 0.0935974 0 6.86646e-05 -5.72205e-06
5 1 0.217304 0.461769 0.593597 0 -0.000139236 1.33514e-05
6 1 0.717304 0.461769 0.593596 0 -0.000141144 7.62939e-06
7 1 0.971926 0.42065 0.093597 0 6.48499e-05 -5.72205e-06
8 1 0.471926 0.42065 0.0935977 0 5.91278e-05 -1.14441e-05
9 1 0.953346 0.585925 0.593597 0 -6.10352e-05 5.72205e-06
10 1 0.453347 0.585925 0.593597 0 -5.72205e-05 1.90735e-06
11 1 0.189371 0.710245 0.593597 0 -5.91278e-05 1.90735e-06
12 1 0.689371 0.710245 0.593597 0 -5.91278e-05 5.72205e-06
13 1 0.944029 0.668805 0.0935978 0 -8.7738e-05 -9.53674e-06
14 1 0.207969 0.544805 0.093597 0 0.000131607 -3.8147e-06
15 1 0.707969 0.544805 0.0935973 0 0.000133514 -3.8147e-06
16 1 0.44403 0.668805 0.093597 0 -8.96454e-05 0
17 1 0.925336 0.835091 0.593597 0 0.000101089 -3.8147e-06
18 1 0.425336 0.835091 0.593597 0 9.34601e-05 0
19 1 0.161203 0.960812 0.593597 0 -0.000171661 -3.8147e-06
20 1 0.661203 0.960812 0.593597 0 -0.000173569 1.90735e-06
21 1 0.180124 0.7925 0.0935972 0 -0.00012207 0
22 1 0.680124 0.7925 0.0935973 0 -0.00012207 -3.8147e-06
23 1 0.916305 0.915431 0.0935969 0 -0.000123978 3.8147e-06
24 1 0.416305 0.915431 0.093597 0 -0.000116348 3.8147e-06
25 1 0.00896765 0.0911433 0.593597 0 0.00012207 5.72205e-06
26 1 0.508968 0.0911433 0.593597 0 0.000131607 -1.90735e-06
27 1 0.26407 0.0457623 0.0935969 0 0.000164032 -1.90735e-06
28 1 0.76407 0.0457621 0.0935972 0 0.000175476 -3.8147e-06
29 1 0.245149 0.214075 0.593597 0 0.000123978 -1.90735e-06
30 1 0.745149 0.214075 0.593597 0 0.000110626 1.90735e-06
31 1 -6.38932e-05 0.171484 0.0935966 0 -9.53674e-05 5.72205e-06
32 1 0.499936 0.171484 0.0935969 0 -0.000101089 1.90735e-06
