LAMMPS data file via write_data, version 4 May 2022, timestep = 71

56 atoms
3 atom types

0.02118818138502742 12.163911676915 xlo xhi
-0.0030061665652343075 5.529414278965233 ylo yhi
0.0007723223315064646 19.019187752468508 zlo zhi
1.5526132515564727e-08 -4.68610333407332287 2.1812666742635317e-08 xy xz yz
Masses

1 24.305
2 65.40900000000001
3 88.90600000000001

Atoms # atomic

1 1 6.705357985165174 -0.0028350489669467945 2.5181893883342816 0 0 0
2 1 3.669687283378303 0.9188994659794629 2.518189917498401 0 0 0
3 1 2.3076667712772263 -0.002922934223603586 5.2351300229886695 0 0 0
4 1 11.414706896189251 0.918985686176533 5.235130529712792 0 0 0
5 1 10.052046848180114 -0.002949805112181344 7.952038990559074 0 0 0
6 1 0.6340050059448787 -0.002836825213714795 2.5181904880439636 0 0 0
7 1 11.939564286000936 2.763547243531816 1.1597553435526782 0 0 0
8 1 9.741057926892664 0.918897717407023 2.5181914468431073 0 0 0
9 1 8.903897094450883 3.6849312980409143 1.159754553239643 0 0 0
10 1 8.379039558283068 -0.002923515135523631 5.235129193312481 0 0 0
11 1 7.016351479040086 0.91900853937438 7.9520393610130355 0 0 0
12 1 5.653572382603304 -0.00291744341677472 10.668993455070618 0 0 0
13 1 2.617899115695438 0.9189808618547716 10.668990567513216 0 0 0
14 1 1.2551911743043431 -0.002916711240023391 13.385943989073775 0 0 0
15 1 10.362235944484512 0.9189829948296256 13.385944950378668 0 0 0
16 1 8.999720811595322 -0.00291056321568019 16.10274926588882 0 0 0
17 1 7.542381160903786 2.7632969123819335 3.8767420659274716 0 0 0
18 1 5.343344740194769 0.9189892093538045 5.235129708518495 0 0 0
19 1 4.506714651165533 3.685181162941613 3.8767409096991465 0 0 0
20 1 3.9806856134036455 -0.0029457629086419067 7.952038401044235 0 0 0
21 1 3.144187918761569 2.7632907614125664 6.593547235832486 0 0 0
22 1 0.9450022902982361 0.9190084839382897 7.952038535353079 0 0 0
23 1 0.1085057086335044 3.6851877252166707 6.593549434464276 0 0 0
24 1 11.72494171651799 -0.002919173611716976 10.668989205102099 0 0 0
25 1 10.888516829083589 2.7632900315318127 9.310502480947875 0 0 0
26 1 8.689272067497164 0.9189808798616237 10.668986351066527 0 0 0
27 1 7.852849611132315 3.6851897458262677 9.310501964824738 0 0 0
28 1 5.868202197287686 2.7635435338917094 1.159755574855687 0 0 0
29 1 2.832523228113937 3.6849314904721835 1.1597553883187506 0 0 0
30 1 1.4710318064596226 2.7632968553795334 3.876741399004012 0 0 0
31 1 10.578076044125721 3.685184563755315 3.8767414322223934 0 0 0
32 1 9.21555879690935 2.7632925306474947 6.593549252473052 0 0 0
33 1 5.964021771695246 0.9189725338347223 16.102754711173098 0 0 0
34 1 4.602540164631089 -0.0026609581773495484 18.819736961474117 0 0 0
35 1 1.5668567049207651 0.9187235000271265 18.819737815462563 0 0 0
36 1 7.326541066488102 -0.0029171186762229967 13.385945278336958 0 0 0
37 1 6.490044769709412 2.763262158191784 12.02745929931519 0 0 0
38 1 4.290874354996111 0.9189791971573424 13.38594519796183 0 0 0
39 1 3.454376624911412 3.6852167935629847 12.027456474252183 0 0 0
40 1 2.9283485239446354 -0.002910751967861682 16.10275160169442 0 0 0
41 1 2.091710171898859 2.7632846669657862 14.744362460341431 0 0 0
42 1 -0.10733376908602008 0.9189740486109095 16.102751413320917 0 0 0
43 1 11.19874941642519 3.6851932656566486 14.744361926749532 0 0 0
44 1 10.673901126279677 -0.0026643534755276207 18.81973800209651 0 0 0
45 1 9.83674340008549 2.7633722682657003 17.461300133673074 0 0 0
46 1 6.179858503294034 3.6851861231886476 6.593546916400001 0 0 0
47 1 4.8171544523672045 2.7632857942592928 9.310502282257506 0 0 0
48 1 1.7814752540151546 3.6851893591852987 9.310503026903417 0 0 0
49 1 0.4186949484630815 2.7632621918339626 12.027455100332977 0 0 0
50 1 9.525744952562007 3.6852152786140984 12.027452483294713 0 0 0
51 1 8.163083544206879 2.7632846027713813 14.744361473443826 0 0 0
52 1 7.638207186047243 0.9187236816763393 18.81973731045989 0 0 0
53 1 6.801043145966159 3.6851070633476364 17.461306064126436 0 0 0
54 1 5.127387822083983 3.685196866316797 14.744362120508356 0 0 0
55 1 3.7653751287254265 2.7633714616351113 17.461303113184435 0 0 0
56 1 0.7296928072260234 3.6851069865185777 17.461303128197578 0 0 0

Velocities

1 0 0 0
2 0 0 0
3 0 0 0
4 0 0 0
5 0 0 0
6 0 0 0
7 0 0 0
8 0 0 0
9 0 0 0
10 0 0 0
11 0 0 0
12 0 0 0
13 0 0 0
14 0 0 0
15 0 0 0
16 0 0 0
17 0 0 0
18 0 0 0
19 0 0 0
20 0 0 0
21 0 0 0
22 0 0 0
23 0 0 0
24 0 0 0
25 0 0 0
26 0 0 0
27 0 0 0
28 0 0 0
29 0 0 0
30 0 0 0
31 0 0 0
32 0 0 0
33 0 0 0
34 0 0 0
35 0 0 0
36 0 0 0
37 0 0 0
38 0 0 0
39 0 0 0
40 0 0 0
41 0 0 0
42 0 0 0
43 0 0 0
44 0 0 0
45 0 0 0
46 0 0 0
47 0 0 0
48 0 0 0
49 0 0 0
50 0 0 0
51 0 0 0
52 0 0 0
53 0 0 0
54 0 0 0
55 0 0 0
56 0 0 0
