ITEM: TIMESTEP
0
ITEM: NUMBER OF ATOMS
56
ITEM: BOX BOUNDS xy xz yz pp pp pp
-5.8813063203792950e+00 1.2163911692441133e+01 1.5526132515564727e-08
-3.0061665652343075e-03 5.5294143007778995e+00 -5.9024945017643224e+00
7.7232233150646462e-04 1.9019187752468508e+01 2.1812666742635317e-08
ITEM: ATOMS id type xs ys zs fx fy fz
4 1 0.0720855 0.166653 0.275226 0 0.0022553 0.00143202
5 1 0.0293068 1.01858e-05 0.418082 0 -0.00096183 8.89486e-05
6 1 0.114811 3.06084e-05 0.132367 0 -0.0590724 0.125039
7 1 0.0111467 0.500062 0.06094 0 0.313096 0.324527
25 1 0.132914 0.500016 0.489511 0 -0.0011522 0.000145789
50 1 0.0901277 0.666656 0.63237 0 0.000985878 -8.42905e-05
51 1 0.0473489 0.500015 0.775227 0 -0.00225123 -0.00142465
52 1 0.108286 0.166605 0.989513 0 -0.313093 -0.324532
53 1 0.00462226 0.666636 0.918086 0 0.0590722 -0.125059
1 1 0.61481 3.09294e-05 0.132367 0 -0.0590795 0.125033
2 1 0.364811 0.166637 0.132367 0 0.0590597 0.125036
3 1 0.322086 1.50434e-05 0.275226 0 -0.00226528 0.00143058
8 1 0.864812 0.166637 0.132367 0 0.0590681 0.125036
9 1 0.761148 0.666605 0.06094 0 -0.313082 0.324531
10 1 0.822087 1.49384e-05 0.275226 0 -0.00226138 0.00143578
11 1 0.779306 0.166657 0.418083 0 0.000966778 8.78873e-05
12 1 0.736518 1.60347e-05 0.560942 0 -0.00116479 -0.000161179
13 1 0.486519 0.166652 0.560941 0 0.00114689 -0.000147678
14 1 0.443738 1.61665e-05 0.703801 0 -0.00188377 0.000945887
15 1 0.193738 0.166652 0.703801 0 0.00185704 0.000936576
16 1 0.150968 1.72772e-05 0.846652 0 -0.00542712 0.00312159
17 1 0.718465 0.500017 0.203801 0 -0.00541522 -0.00311178
18 1 0.572085 0.166653 0.275226 0 0.00223662 0.00143106
19 1 0.468467 0.66665 0.203801 0 0.00543063 -0.00310944
20 1 0.529307 1.09165e-05 0.418082 0 -0.000982603 9.41952e-05
21 1 0.425696 0.500016 0.346652 0 -0.00186994 -0.00093995
22 1 0.279307 0.166657 0.418082 0 0.000969381 9.22898e-05
23 1 0.175696 0.666651 0.346652 0 0.00188165 -0.000947425
24 1 0.236519 1.5722e-05 0.560941 0 -0.00115503 -0.000144452
26 1 0.98652 0.166652 0.560941 0 0.00114785 -0.00013081
27 1 0.882916 0.666651 0.489511 0 0.00115562 0.000153467
28 1 0.511147 0.500061 0.0609401 0 0.313099 0.324506
29 1 0.261147 0.666605 0.06094 0 -0.313081 0.324504
30 1 0.218466 0.500017 0.203801 0 -0.00541545 -0.00310765
31 1 0.968467 0.66665 0.203801 0 0.00541185 -0.0031069
32 1 0.925697 0.500016 0.346652 0 -0.00188131 -0.000947783
33 1 0.900967 0.16665 0.846652 0 0.00542254 0.00309461
34 1 0.858287 6.23935e-05 0.989513 0 0.313089 -0.324509
35 1 0.608287 0.166605 0.989513 0 -0.313091 -0.324512
36 1 0.943737 1.60929e-05 0.703801 0 -0.00188166 0.000940347
37 1 0.840126 0.50001 0.632371 0 -0.000968003 -0.000112207
38 1 0.693738 0.166651 0.703801 0 0.00187466 0.00094909
39 1 0.590127 0.666656 0.63237 0 0.000976076 -9.74975e-05
40 1 0.650968 1.72431e-05 0.846652 0 -0.00542567 0.00310732
41 1 0.547348 0.500015 0.775227 0 -0.00225246 -0.00142893
42 1 0.400967 0.16665 0.846652 0 0.00541186 0.00310944
43 1 0.297348 0.666652 0.775227 0 0.00226729 -0.00143259
44 1 0.358287 6.17797e-05 0.989513 0 0.313088 -0.324509
45 1 0.254624 0.50003 0.918085 0 -0.0590649 -0.125017
46 1 0.675695 0.666651 0.346652 0 0.00189036 -0.000937526
47 1 0.632914 0.500015 0.489511 0 -0.00113096 0.000152982
48 1 0.382915 0.666651 0.489511 0 0.0011576 0.00014797
49 1 0.340127 0.500011 0.63237 0 -0.000967226 -9.61523e-05
54 1 0.797348 0.666653 0.775227 0 0.00225015 -0.00142192
55 1 0.754623 0.50003 0.918085 0 -0.0590622 -0.125043
56 1 0.504623 0.666636 0.918085 0 0.0590724 -0.125038
ITEM: TIMESTEP
9
ITEM: NUMBER OF ATOMS
56
ITEM: BOX BOUNDS xy xz yz pp pp pp
-5.8813063203792950e+00 1.2163911692441133e+01 1.5526132515564727e-08
-3.0061665652343075e-03 5.5294143007778995e+00 -5.9024945017643224e+00
7.7232233150646462e-04 1.9019187752468508e+01 2.1812666742635317e-08
ITEM: ATOMS id type xs ys zs fx fy fz
4 1 0.073047 0.167531 0.277204 0 8.36031e-06 -3.49253e-05
5 1 0.0297213 -0.000865919 0.418935 0 -2.55033e-05 7.15324e-05
6 1 0.116241 0.00353722 0.135309 0 -2.22264e-05 0.000106882
7 1 0.0128728 0.517668 0.0644912 0 4.39268e-05 4.80048e-05
25 1 0.133047 0.499145 0.489783 0 1.04308e-06 9.3281e-05
50 1 0.0897133 0.667533 0.631518 0 2.79163e-05 -7.15392e-05
51 1 0.0463874 0.499136 0.773249 0 -8.83423e-06 3.56282e-05
52 1 0.10656 0.149 0.985961 0 -4.46342e-05 -5.28165e-05
53 1 0.00319209 0.66313 0.915143 0 2.2663e-05 -0.000104428
1 1 0.61624 0.00353729 0.135309 0 -2.07295e-05 0.00010421
2 1 0.366241 0.16313 0.135309 0 2.086e-05 0.000102836
3 1 0.323047 -0.000863917 0.277204 0 -7.95764e-06 -3.35704e-05
8 1 0.866242 0.16313 0.135309 0 2.1016e-05 0.00010366
9 1 0.762874 0.649 0.0644915 0 -4.2512e-05 4.82424e-05
10 1 0.823048 -0.000864069 0.277204 0 -7.29185e-06 -3.57055e-05
11 1 0.77972 0.167534 0.418935 0 2.57753e-05 7.11636e-05
12 1 0.736386 -0.00085552 0.560669 0 -6.33881e-08 -9.50181e-05
13 1 0.486387 0.167523 0.56067 0 -2.04914e-06 -9.43244e-05
14 1 0.443057 -0.000936572 0.7024 0 -6.97901e-06 1.48952e-06
15 1 0.193057 0.167603 0.7024 0 6.64481e-06 1.12224e-06
16 1 0.149721 -0.000264918 0.844087 0 3.49028e-05 -4.13498e-05
17 1 0.719712 0.499735 0.206366 0 3.4516e-05 4.6071e-05
18 1 0.573047 0.167531 0.277204 0 7.96161e-06 -3.61718e-05
19 1 0.469714 0.666932 0.206366 0 -3.46586e-05 4.57774e-05
20 1 0.529721 -0.000866076 0.418935 0 -2.78522e-05 7.16931e-05
21 1 0.426377 0.499064 0.348052 0 -5.87903e-06 -8.45233e-07
22 1 0.279721 0.167534 0.418935 0 2.62875e-05 7.03535e-05
23 1 0.176377 0.667603 0.348052 0 6.8832e-06 -8.739e-07
24 1 0.236387 -0.000855572 0.56067 0 1.01238e-06 -9.34298e-05
26 1 0.986388 0.167523 0.56067 0 -2.45986e-06 -9.60268e-05
27 1 0.883048 0.667523 0.489783 0 -9.93299e-07 9.46234e-05
28 1 0.512873 0.517668 0.064491 0 4.22165e-05 4.87239e-05
29 1 0.262873 0.649 0.0644913 0 -4.08224e-05 4.48823e-05
30 1 0.219713 0.499735 0.206366 0 3.49871e-05 4.71148e-05
31 1 0.969714 0.666932 0.206366 0 -3.48335e-05 4.66558e-05
32 1 0.926378 0.499064 0.348052 0 -7.4541e-06 2.77534e-07
33 1 0.89972 0.166932 0.844086 0 -3.51137e-05 -4.75082e-05
34 1 0.856561 0.017668 0.985962 0 4.2213e-05 -4.47183e-05
35 1 0.606561 0.148999 0.985962 0 -4.25371e-05 -4.46239e-05
36 1 0.943056 -0.000936698 0.7024 0 -6.71286e-06 4.75568e-07
37 1 0.839712 0.499133 0.631518 0 -2.61283e-05 -7.05291e-05
38 1 0.693057 0.167603 0.7024 0 5.86836e-06 6.35264e-08
39 1 0.589713 0.667533 0.631518 0 2.76739e-05 -6.94889e-05
40 1 0.649721 -0.000264854 0.844087 0 3.28546e-05 -4.58521e-05
41 1 0.546386 0.499136 0.773249 0 -7.37302e-06 3.67592e-05
42 1 0.39972 0.166932 0.844087 0 -3.55276e-05 -5.12388e-05
43 1 0.296386 0.667531 0.773249 0 7.72509e-06 3.47385e-05
44 1 0.356561 0.0176681 0.985962 0 4.05542e-05 -4.38691e-05
45 1 0.253194 0.503537 0.915144 0 -1.94925e-05 -0.000103616
46 1 0.676376 0.667603 0.348052 0 7.66775e-06 -3.24566e-07
47 1 0.633047 0.499145 0.489783 0 2.42835e-06 9.39096e-05
48 1 0.383047 0.667523 0.489783 0 -1.32876e-06 9.45409e-05
49 1 0.339713 0.499134 0.631518 0 -2.6454e-05 -7.27302e-05
54 1 0.796386 0.66753 0.773249 0 8.87155e-06 3.46682e-05
55 1 0.753193 0.503537 0.915144 0 -2.08723e-05 -0.000107147
56 1 0.503193 0.66313 0.915144 0 2.21884e-05 -0.00010649
