ITEM: TIMESTEP
0
ITEM: NUMBER OF ATOMS
48
ITEM: BOX BOUNDS xy xz yz pp pp pp
-3.9544260501861572e+00 8.6109705567359924e+00 2.5110912919044495e+00
-1.0506033897399902e-02 9.6185076832771301e+00 -3.9398692250251770e+00
-2.6944518089294434e-02 1.9544072151184082e+01 3.6519104242324829e-01
ITEM: ATOMS id type xs ys zs fx fy fz
6 1 0.0637493 0.040578 0.906998 0 0 -0.127822
9 1 0.00825192 0.0336318 0.677832 0 0 -0.0028615
20 1 0.0637493 0.373911 0.906998 0 0 -0.127822
22 1 0.154754 0.332245 0.531998 0 0 -5.38826e-05
24 1 0.00825192 0.366965 0.677832 0 0 -0.0028615
26 1 0.0992564 0.325298 0.302832 0 0 -6.84261e-05
36 1 0.0637493 0.707245 0.906998 0 0 -0.127822
38 1 0.154754 0.665578 0.531998 0 0 -5.50747e-05
40 1 0.00825191 0.700298 0.677832 0 0 -0.00286078
42 1 0.0992564 0.658632 0.302832 0 0 -6.79493e-05
47 1 0.154754 0.998911 0.531998 0 0 -5.45979e-05
48 1 0.0992564 0.991965 0.302832 0 0 -6.78301e-05
1 1 0.94276 0.165578 0.0319985 0 0 1.07896
2 1 0.493259 0.0752984 0.0528317 0 0 0.127821
3 1 0.457752 0.123911 0.656998 0 0 6.78301e-05
4 1 0.614249 0.950298 0.927832 0 0 -1.07896
5 1 0.31125 0.158632 0.802832 0 0 3.89814e-05
7 1 0.760751 0.248911 0.781998 0 0 -0.00185776
8 1 0.851755 0.207245 0.406998 0 0 0.00125766
10 1 0.705253 0.241965 0.552832 0 0 -0.0012573
11 1 0.796258 0.200298 0.177832 0 0 0.001858
12 1 0.548757 0.0822446 0.281998 0 0 0.00286162
13 1 0.245758 0.290578 0.156998 0 0 -3.92199e-05
14 1 0.402255 0.116965 0.427832 0 0 5.48363e-05
15 1 0.94276 0.498911 0.0319984 0 0 1.07896
16 1 0.493259 0.408632 0.0528317 0 0 0.127821
17 1 0.457752 0.457245 0.656998 0 0 6.75917e-05
18 1 0.614249 0.283632 0.927832 0 0 -1.07896
19 1 0.31125 0.491965 0.802832 0 0 3.89814e-05
21 1 0.760751 0.582245 0.781998 0 0 -0.00185812
23 1 0.851755 0.540578 0.406998 0 0 0.00125766
25 1 0.705253 0.575298 0.552832 0 0 -0.00125778
27 1 0.796258 0.533632 0.177832 0 0 0.00185776
28 1 0.548757 0.415578 0.281998 0 0 0.0028615
29 1 0.245758 0.623911 0.156998 0 0 -3.95775e-05
30 1 0.402255 0.450298 0.427832 0 0 5.42402e-05
31 1 0.94276 0.832245 0.0319985 0 0 1.07896
32 1 0.493259 0.741965 0.0528317 0 0 0.127822
33 1 0.457752 0.790578 0.656998 0 0 6.78301e-05
34 1 0.614249 0.616965 0.927832 0 0 -1.07896
35 1 0.31125 0.825298 0.802832 0 0 3.93391e-05
37 1 0.760751 0.915578 0.781998 0 0 -0.00185823
39 1 0.851755 0.873911 0.406998 0 0 0.0012579
41 1 0.705253 0.908632 0.552832 0 0 -0.00125861
43 1 0.796258 0.866965 0.177832 0 0 0.001858
44 1 0.548757 0.748911 0.281998 0 0 0.0028615
45 1 0.245758 0.957245 0.156998 0 0 -3.92199e-05
46 1 0.402255 0.783632 0.427832 0 0 5.48363e-05
ITEM: TIMESTEP
1
ITEM: NUMBER OF ATOMS
48
ITEM: BOX BOUNDS xy xz yz pp pp pp
-3.9544260501861572e+00 8.6109705567359924e+00 2.5110912919044495e+00
-1.0506033897399902e-02 9.6185076832771301e+00 -3.9398692250251770e+00
-2.6944518089294434e-02 1.9544072151184082e+01 3.6519104242324829e-01
ITEM: ATOMS id type xs ys zs fx fy fz
6 1 0.0633494 0.0406018 0.906393 0 0 0.0323917
9 1 0.00824296 0.0336323 0.677818 0 0 -0.00896645
20 1 0.0633494 0.373935 0.906393 0 0 0.0323919
22 1 0.154753 0.332245 0.531998 0 0 0.00101161
24 1 0.00824297 0.366966 0.677818 0 0 -0.00896597
26 1 0.0992562 0.325298 0.302831 0 0 0.0065726
36 1 0.0633495 0.707268 0.906393 0 0 0.0323919
38 1 0.154753 0.665578 0.531998 0 0 0.00101125
40 1 0.00824296 0.700299 0.677818 0 0 -0.00896585
42 1 0.0992561 0.658632 0.302831 0 0 0.0065726
47 1 0.154753 0.998911 0.531998 0 0 0.00101125
48 1 0.0992561 0.991965 0.302831 0 0 0.0065726
1 1 0.946135 0.165377 0.037108 0 0 0.406508
2 1 0.493659 0.0752745 0.053437 0 0 -0.032392
3 1 0.457752 0.123911 0.656999 0 0 -0.00657225
4 1 0.610874 0.9505 0.922722 0 0 -0.406508
5 1 0.311251 0.158632 0.802832 0 0 -0.0835557
7 1 0.760745 0.248912 0.78199 0 0 -0.0644647
8 1 0.851759 0.207244 0.407004 0 0 -0.000385761
10 1 0.705249 0.241965 0.552826 0 0 0.000385642
11 1 0.796264 0.200298 0.177841 0 0 0.0644647
12 1 0.548766 0.0822441 0.282012 0 0 0.00896657
13 1 0.245758 0.290578 0.156998 0 0 0.0835553
14 1 0.402255 0.116965 0.427832 0 0 -0.00101137
15 1 0.946135 0.49871 0.037108 0 0 0.406508
16 1 0.493659 0.408608 0.053437 0 0 -0.0323917
17 1 0.457752 0.457245 0.656999 0 0 -0.00657248
18 1 0.610874 0.283833 0.922722 0 0 -0.406508
19 1 0.311251 0.491965 0.802832 0 0 -0.0835557
21 1 0.760745 0.582245 0.78199 0 0 -0.0644652
23 1 0.851759 0.540578 0.407004 0 0 -0.000385761
25 1 0.705249 0.575299 0.552826 0 0 0.000385523
27 1 0.796264 0.533631 0.177841 0 0 0.0644643
28 1 0.548766 0.415577 0.282012 0 0 0.00896621
29 1 0.245758 0.623911 0.156998 0 0 0.0835552
30 1 0.402255 0.450298 0.427832 0 0 -0.00101149
31 1 0.946135 0.832043 0.037108 0 0 0.406508
32 1 0.493659 0.741941 0.053437 0 0 -0.0323917
33 1 0.457752 0.790578 0.656999 0 0 -0.00657248
34 1 0.610874 0.617167 0.922722 0 0 -0.406508
35 1 0.311251 0.825298 0.802832 0 0 -0.0835555
37 1 0.760745 0.915578 0.78199 0 0 -0.0644653
39 1 0.851759 0.873911 0.407004 0 0 -0.000385046
41 1 0.705249 0.908632 0.552826 0 0 0.000384808
43 1 0.796264 0.866965 0.177841 0 0 0.0644647
44 1 0.548766 0.748911 0.282012 0 0 0.0089668
45 1 0.245758 0.957245 0.156998 0 0 0.0835552
46 1 0.402255 0.783632 0.427832 0 0 -0.00101149
ITEM: TIMESTEP
2
ITEM: NUMBER OF ATOMS
48
ITEM: BOX BOUNDS xy xz yz pp pp pp
-3.9544260501861572e+00 8.6109705567359924e+00 2.5110912919044495e+00
-1.0506033897399902e-02 9.6185076832771301e+00 -3.9398692250251770e+00
-2.6944518089294434e-02 1.9544072151184082e+01 3.6519104242324829e-01
ITEM: ATOMS id type xs ys zs fx fy fz
6 1 0.0635879 0.0405876 0.906754 0 0 0.0903134
9 1 0.00817695 0.0336362 0.677718 0 0 -0.0262996
20 1 0.0635879 0.373921 0.906754 0 0 0.0903131
22 1 0.154761 0.332244 0.532009 0 0 -0.0028758
24 1 0.00817696 0.36697 0.677718 0 0 -0.0262996
26 1 0.0993046 0.325295 0.302905 0 0 0.0222197
36 1 0.0635879 0.707254 0.906754 0 0 0.090313
38 1 0.154761 0.665578 0.532009 0 0 -0.00287557
40 1 0.00817695 0.700303 0.677718 0 0 -0.0262992
42 1 0.0993045 0.658629 0.302905 0 0 0.0222197
47 1 0.154761 0.998911 0.532009 0 0 -0.00287569
48 1 0.0993045 0.991962 0.302905 0 0 0.0222198
1 1 0.949128 0.165198 0.041639 0 0 -0.0504282
2 1 0.493421 0.0752888 0.053076 0 0 -0.090313
3 1 0.457704 0.123914 0.656926 0 0 -0.02222
4 1 0.607881 0.950678 0.918191 0 0 0.0504284
5 1 0.310635 0.158668 0.801901 0 0 -0.114753
7 1 0.76027 0.24894 0.781271 0 0 -0.0874617
8 1 0.851756 0.207245 0.407 0 0 0.00232971
10 1 0.705252 0.241965 0.55283 0 0 -0.00232959
11 1 0.796738 0.20027 0.178559 0 0 0.0874617
12 1 0.548832 0.0822401 0.282112 0 0 0.0262996
13 1 0.246373 0.290541 0.15793 0 0 0.114753
14 1 0.402248 0.116966 0.427821 0 0 0.00287569
15 1 0.949128 0.498531 0.041639 0 0 -0.0504284
16 1 0.493421 0.408622 0.053076 0 0 -0.090313
17 1 0.457704 0.457248 0.656926 0 0 -0.0222199
18 1 0.607881 0.284012 0.918191 0 0 0.0504282
19 1 0.310635 0.492002 0.801901 0 0 -0.114753
21 1 0.76027 0.582273 0.781271 0 0 -0.0874616
23 1 0.851756 0.540578 0.407 0 0 0.00232971
25 1 0.705252 0.575298 0.55283 0 0 -0.00232983
27 1 0.796738 0.533603 0.178559 0 0 0.0874616
28 1 0.548832 0.415573 0.282112 0 0 0.0262995
29 1 0.246373 0.623875 0.15793 0 0 0.114753
30 1 0.402248 0.450299 0.427821 0 0 0.00287569
31 1 0.949128 0.831865 0.041639 0 0 -0.0504283
32 1 0.493421 0.741955 0.053076 0 0 -0.0903131
33 1 0.457704 0.790581 0.656926 0 0 -0.0222198
34 1 0.607881 0.617345 0.918191 0 0 0.0504282
35 1 0.310635 0.825335 0.801901 0 0 -0.114753
37 1 0.76027 0.915607 0.781271 0 0 -0.0874616
39 1 0.851756 0.873911 0.407 0 0 0.00232983
41 1 0.705252 0.908632 0.55283 0 0 -0.00232971
43 1 0.796738 0.866936 0.178559 0 0 0.0874615
44 1 0.548832 0.748907 0.282112 0 0 0.0262997
45 1 0.246373 0.957208 0.15793 0 0 0.114753
46 1 0.402248 0.783632 0.427821 0 0 0.0028758
ITEM: TIMESTEP
3
ITEM: NUMBER OF ATOMS
48
ITEM: BOX BOUNDS xy xz yz pp pp pp
-3.9544260501861572e+00 8.6109705567359924e+00 2.5110912919044495e+00
-1.0506033897399902e-02 9.6185076832771301e+00 -3.9398692250251770e+00
-2.6944518089294434e-02 1.9544072151184082e+01 3.6519104242324829e-01
ITEM: ATOMS id type xs ys zs fx fy fz
6 1 0.0647348 0.0405192 0.90849 0 0 -0.0164883
9 1 0.00784404 0.0336561 0.677214 0 0 -0.0507674
20 1 0.0647349 0.373852 0.90849 0 0 -0.0164883
22 1 0.154729 0.332246 0.531961 0 0 -0.0147978
24 1 0.00784405 0.366989 0.677214 0 0 -0.0507675
26 1 0.0995835 0.325279 0.303327 0 0 0.0500938
36 1 0.0647349 0.707186 0.90849 0 0 -0.0164881
38 1 0.154729 0.665579 0.531961 0 0 -0.0147974
40 1 0.00784405 0.700323 0.677214 0 0 -0.0507675
42 1 0.0995835 0.658612 0.303327 0 0 0.0500939
47 1 0.154729 0.998913 0.531961 0 0 -0.0147984
48 1 0.0995835 0.991946 0.303327 0 0 0.0500938
1 1 0.949472 0.165177 0.0421597 0 0 0.00577831
2 1 0.492274 0.0753572 0.0513397 0 0 0.016488
3 1 0.457425 0.123931 0.656503 0 0 -0.0500938
4 1 0.607537 0.950699 0.91767 0 0 -0.00577915
5 1 0.30908 0.158761 0.799546 0 0 0.0102705
7 1 0.759083 0.249011 0.779473 0 0 0.0125581
8 1 0.851783 0.207243 0.407041 0 0 0.012777
10 1 0.705226 0.241967 0.55279 0 0 -0.0127773
11 1 0.797926 0.200199 0.180357 0 0 -0.0125576
12 1 0.549164 0.0822203 0.282616 0 0 0.0507673
13 1 0.247929 0.290448 0.160285 0 0 -0.0102701
14 1 0.402279 0.116964 0.427869 0 0 0.014798
15 1 0.949472 0.498511 0.0421597 0 0 0.00577807
16 1 0.492274 0.408691 0.0513397 0 0 0.0164876
17 1 0.457425 0.457264 0.656503 0 0 -0.0500939
18 1 0.607537 0.284032 0.91767 0 0 -0.00577807
19 1 0.30908 0.492095 0.799546 0 0 0.0102701
21 1 0.759083 0.582344 0.779473 0 0 0.0125579
23 1 0.851783 0.540576 0.407041 0 0 0.0127767
25 1 0.705226 0.5753 0.55279 0 0 -0.0127767
27 1 0.797926 0.533532 0.180357 0 0 -0.0125576
28 1 0.549164 0.415554 0.282616 0 0 0.0507673
29 1 0.247929 0.623782 0.160285 0 0 -0.0102698
30 1 0.402279 0.450297 0.427869 0 0 0.0147979
31 1 0.949472 0.831844 0.0421597 0 0 0.00577867
32 1 0.492274 0.742024 0.0513397 0 0 0.0164877
33 1 0.457425 0.790598 0.656503 0 0 -0.0500939
34 1 0.607537 0.617366 0.91767 0 0 -0.00577831
35 1 0.30908 0.825428 0.799546 0 0 0.0102705
37 1 0.759083 0.915678 0.779473 0 0 0.0125582
39 1 0.851783 0.87391 0.407041 0 0 0.0127767
41 1 0.705226 0.908633 0.55279 0 0 -0.0127766
43 1 0.797926 0.866865 0.180357 0 0 -0.0125579
44 1 0.549164 0.748887 0.282616 0 0 0.0507671
45 1 0.247929 0.957115 0.160285 0 0 -0.0102695
46 1 0.402279 0.78363 0.427869 0 0 0.014798
ITEM: TIMESTEP
4
ITEM: NUMBER OF ATOMS
48
ITEM: BOX BOUNDS xy xz yz pp pp pp
-3.9544260501861572e+00 8.6109705567359924e+00 2.5110912919044495e+00
-1.0506033897399902e-02 9.6185076832771301e+00 -3.9398692250251770e+00
-2.6944518089294434e-02 1.9544072151184082e+01 3.6519104242324829e-01
ITEM: ATOMS id type xs ys zs fx fy fz
6 1 0.0648339 0.0405132 0.90864 0 0 -0.0258743
9 1 0.00688054 0.0337136 0.675756 0 0 0.00582671
20 1 0.0648339 0.373847 0.90864 0 0 -0.025874
22 1 0.15447 0.332262 0.531569 0 0 -0.0200313
24 1 0.00688054 0.367047 0.675756 0 0 0.00582719
26 1 0.100518 0.325223 0.304742 0 0 -0.00323367
36 1 0.0648339 0.70718 0.90864 0 0 -0.025874
38 1 0.15447 0.665595 0.531569 0 0 -0.0200319
40 1 0.00688055 0.70038 0.675756 0 0 0.00582623
42 1 0.100518 0.658556 0.304742 0 0 -0.00323403
47 1 0.15447 0.998928 0.531569 0 0 -0.0200309
48 1 0.100518 0.99189 0.304742 0 0 -0.00323367
1 1 0.949682 0.165165 0.0424778 0 0 -0.00737321
2 1 0.492175 0.0753631 0.0511898 0 0 0.0258741
3 1 0.456491 0.123987 0.655089 0 0 0.00323379
4 1 0.607327 0.950712 0.917352 0 0 0.00737488
5 1 0.308742 0.158781 0.799034 0 0 -0.00318468
7 1 0.758904 0.249022 0.779203 0 0 -0.0106375
8 1 0.852007 0.20723 0.407379 0 0 0.017928
10 1 0.705002 0.24198 0.552451 0 0 -0.0179279
11 1 0.798104 0.200188 0.180627 0 0 0.0106364
12 1 0.550128 0.0821628 0.284075 0 0 -0.00582659
13 1 0.248267 0.290428 0.160796 0 0 0.00318396
14 1 0.402539 0.116948 0.428262 0 0 0.0200311
15 1 0.949682 0.498498 0.0424778 0 0 -0.00737298
16 1 0.492175 0.408696 0.0511898 0 0 0.0258747
17 1 0.456491 0.45732 0.655089 0 0 0.00323403
18 1 0.607327 0.284045 0.917352 0 0 0.00737321
19 1 0.308742 0.492115 0.799034 0 0 -0.00318396
21 1 0.758904 0.582355 0.779203 0 0 -0.010637
23 1 0.852007 0.540563 0.407379 0 0 0.0179285
25 1 0.705002 0.575313 0.552451 0 0 -0.0179285
27 1 0.798104 0.533522 0.180627 0 0 0.0106366
28 1 0.550128 0.415496 0.284075 0 0 -0.00582647
29 1 0.248267 0.623762 0.160796 0 0 0.00318372
30 1 0.402539 0.450281 0.428262 0 0 0.0200317
31 1 0.949682 0.831831 0.0424778 0 0 -0.00737417
32 1 0.492175 0.74203 0.0511898 0 0 0.0258744
33 1 0.456491 0.790653 0.655089 0 0 0.00323403
34 1 0.607327 0.617378 0.917352 0 0 0.00737309
35 1 0.308742 0.825448 0.799034 0 0 -0.0031848
37 1 0.758904 0.915688 0.779203 0 0 -0.0106374
39 1 0.852007 0.873896 0.407379 0 0 0.0179282
41 1 0.705002 0.908647 0.552451 0 0 -0.0179281
43 1 0.798104 0.866855 0.180627 0 0 0.0106373
44 1 0.550128 0.748829 0.284075 0 0 -0.00582635
45 1 0.248267 0.957095 0.160796 0 0 0.00318384
46 1 0.402539 0.783615 0.428262 0 0 0.0200317
ITEM: TIMESTEP
5
ITEM: NUMBER OF ATOMS
48
ITEM: BOX BOUNDS xy xz yz pp pp pp
-3.9544260501861572e+00 8.6109705567359924e+00 2.5110912919044495e+00
-1.0506033897399902e-02 9.6185076832771301e+00 -3.9398692250251770e+00
-2.6944518089294434e-02 1.9544072151184082e+01 3.6519104242324829e-01
ITEM: ATOMS id type xs ys zs fx fy fz
6 1 0.0645215 0.0405319 0.908168 0 0 -0.0112623
9 1 0.00679442 0.0337187 0.675625 0 0 -0.00170577
20 1 0.0645215 0.373865 0.908168 0 0 -0.0112618
22 1 0.154172 0.332279 0.531118 0 0 0.00850534
24 1 0.00679443 0.367052 0.675625 0 0 -0.00170588
26 1 0.100632 0.325216 0.304915 0 0 0.00316691
36 1 0.0645215 0.707199 0.908168 0 0 -0.0112624
38 1 0.154172 0.665613 0.531118 0 0 0.00850499
40 1 0.00679443 0.700385 0.675625 0 0 -0.00170553
42 1 0.100632 0.65855 0.304915 0 0 0.00316727
47 1 0.154172 0.998946 0.531118 0 0 0.00850534
48 1 0.100632 0.991883 0.304915 0 0 0.00316668
1 1 0.949623 0.165168 0.0423888 0 0 -0.00183666
2 1 0.492487 0.0753445 0.0516626 0 0 0.0112627
3 1 0.456376 0.123993 0.654916 0 0 -0.00316691
4 1 0.607386 0.950708 0.917441 0 0 0.00183511
5 1 0.308645 0.158787 0.798888 0 0 -0.00133669
7 1 0.758739 0.249031 0.778954 0 0 -0.00586224
8 1 0.852272 0.207214 0.407781 0 0 -0.00935972
10 1 0.704737 0.241996 0.55205 0 0 0.00935996
11 1 0.798269 0.200178 0.180876 0 0 0.00586295
12 1 0.550214 0.0821576 0.284205 0 0 0.00170529
13 1 0.248363 0.290422 0.160942 0 0 0.00133741
14 1 0.402836 0.11693 0.428712 0 0 -0.00850475
15 1 0.949623 0.498502 0.0423888 0 0 -0.0018363
16 1 0.492487 0.408678 0.0516626 0 0 0.0112618
17 1 0.456376 0.457327 0.654916 0 0 -0.00316751
18 1 0.607386 0.284041 0.917441 0 0 0.00183642
19 1 0.308645 0.492121 0.798888 0 0 -0.00133729
21 1 0.75874 0.582365 0.778954 0 0 -0.00586271
23 1 0.852272 0.540547 0.407781 0 0 -0.00935972
25 1 0.704737 0.575329 0.55205 0 0 0.00936007
27 1 0.798269 0.533512 0.180876 0 0 0.00586259
28 1 0.550214 0.415491 0.284205 0 0 0.00170553
29 1 0.248363 0.623756 0.160942 0 0 0.00133717
30 1 0.402837 0.450264 0.428712 0 0 -0.00850558
31 1 0.949623 0.831835 0.0423888 0 0 -0.00183511
32 1 0.492487 0.742011 0.0516626 0 0 0.0112621
33 1 0.456376 0.79066 0.654916 0 0 -0.00316715
34 1 0.607386 0.617375 0.917441 0 0 0.00183642
35 1 0.308645 0.825454 0.798888 0 0 -0.00133681
37 1 0.75874 0.915698 0.778954 0 0 -0.00586236
39 1 0.852272 0.87388 0.407781 0 0 -0.00935936
41 1 0.704737 0.908663 0.55205 0 0 0.00935948
43 1 0.798269 0.866845 0.180876 0 0 0.00586247
44 1 0.550214 0.748824 0.284205 0 0 0.00170565
45 1 0.248363 0.957089 0.160942 0 0 0.00133657
46 1 0.402837 0.783597 0.428712 0 0 -0.00850558
ITEM: TIMESTEP
6
ITEM: NUMBER OF ATOMS
48
ITEM: BOX BOUNDS xy xz yz pp pp pp
-3.9544260501861572e+00 8.6109705567359924e+00 2.5110912919044495e+00
-1.0506033897399902e-02 9.6185076832771301e+00 -3.9398692250251770e+00
-2.6944518089294434e-02 1.9544072151184082e+01 3.6519104242324829e-01
ITEM: ATOMS id type xs ys zs fx fy fz
6 1 0.0642847 0.040546 0.907809 0 0 -9.17912e-06
9 1 0.00674956 0.0337214 0.675557 0 0 0.0010637
20 1 0.0642847 0.373879 0.907809 0 0 -9.41753e-06
22 1 0.154227 0.332276 0.531201 0 0 -0.000489116
24 1 0.00674957 0.367055 0.675557 0 0 0.00106347
26 1 0.100705 0.325212 0.305025 0 0 -0.000722289
36 1 0.0642847 0.707213 0.907809 0 0 -8.9407e-06
38 1 0.154227 0.665609 0.531201 0 0 -0.000488162
40 1 0.00674956 0.700388 0.675557 0 0 0.00106382
42 1 0.100705 0.658545 0.305025 0 0 -0.000722647
47 1 0.154227 0.998943 0.531201 0 0 -0.000488997
48 1 0.100705 0.991879 0.305025 0 0 -0.000722051
1 1 0.949583 0.165171 0.0423276 0 0 0.00109494
2 1 0.492724 0.0753304 0.0520211 0 0 8.70228e-06
3 1 0.456304 0.123998 0.654806 0 0 0.000722408
4 1 0.607426 0.950706 0.917503 0 0 -0.00109339
5 1 0.308603 0.15879 0.798824 0 0 -0.00113428
7 1 0.758616 0.249039 0.778766 0 0 -0.00116873
8 1 0.852197 0.207218 0.407667 0 0 0.00065589
10 1 0.704812 0.241991 0.552163 0 0 -0.00065589
11 1 0.798393 0.200171 0.181064 0 0 0.00116825
12 1 0.550259 0.0821549 0.284273 0 0 -0.00106299
13 1 0.248405 0.29042 0.161006 0 0 0.0011338
14 1 0.402781 0.116934 0.428629 0 0 0.000488877
15 1 0.949583 0.498504 0.0423276 0 0 0.00109446
16 1 0.492724 0.408664 0.0520211 0 0 9.41753e-06
17 1 0.456304 0.457331 0.654806 0 0 0.000723004
18 1 0.607426 0.284039 0.917503 0 0 -0.00109482
19 1 0.308603 0.492123 0.798824 0 0 -0.00113451
21 1 0.758616 0.582372 0.778766 0 0 -0.00116861
23 1 0.852197 0.540552 0.407667 0 0 0.00065577
25 1 0.704812 0.575325 0.552163 0 0 -0.00065577
27 1 0.798393 0.533504 0.181064 0 0 0.00116873
28 1 0.550259 0.415488 0.284273 0 0 -0.00106323
29 1 0.248405 0.623753 0.161006 0 0 0.0011344
30 1 0.402781 0.450267 0.428629 0 0 0.000488758
31 1 0.949583 0.831837 0.0423277 0 0 0.00109315
32 1 0.492724 0.741997 0.0520211 0 0 9.41753e-06
33 1 0.456304 0.790664 0.654806 0 0 0.000722289
34 1 0.607426 0.617372 0.917503 0 0 -0.00109446
35 1 0.308603 0.825456 0.798824 0 0 -0.00113451
37 1 0.758616 0.915705 0.778766 0 0 -0.0011692
39 1 0.852197 0.873885 0.407667 0 0 0.000655413
41 1 0.704812 0.908658 0.552163 0 0 -0.00065577
43 1 0.798393 0.866838 0.181064 0 0 0.00116897
44 1 0.550259 0.748822 0.284273 0 0 -0.00106359
45 1 0.248405 0.957087 0.161006 0 0 0.0011344
46 1 0.402781 0.7836 0.428629 0 0 0.00048852
ITEM: TIMESTEP
7
ITEM: NUMBER OF ATOMS
48
ITEM: BOX BOUNDS xy xz yz pp pp pp
-3.9544260501861572e+00 8.6109705567359924e+00 2.5110912919044495e+00
-1.0506033897399902e-02 9.6185076832771301e+00 -3.9398692250251770e+00
-2.6944518089294434e-02 1.9544072151184082e+01 3.6519104242324829e-01
ITEM: ATOMS id type xs ys zs fx fy fz
6 1 0.0642781 0.0405464 0.907799 0 0 0.000340819
9 1 0.00675859 0.0337209 0.675571 0 0 -0.000247717
20 1 0.0642781 0.37388 0.907799 0 0 0.0003407
22 1 0.154224 0.332276 0.531196 0 0 8.08239e-05
24 1 0.0067586 0.367054 0.675571 0 0 -0.000247717
26 1 0.1007 0.325212 0.305017 0 0 0.000276566
36 1 0.0642781 0.707213 0.907799 0 0 0.000340581
38 1 0.154224 0.66561 0.531196 0 0 8.04663e-05
40 1 0.0067586 0.700388 0.675571 0 0 -0.00024724
42 1 0.1007 0.658546 0.305017 0 0 0.000276923
47 1 0.154224 0.998943 0.531196 0 0 8.04663e-05
48 1 0.1007 0.991879 0.305017 0 0 0.000276804
1 1 0.949592 0.16517 0.042342 0 0 0.000195026
2 1 0.49273 0.07533 0.0520311 0 0 -0.000340462
3 1 0.456309 0.123997 0.654813 0 0 -0.000276685
4 1 0.607417 0.950706 0.917488 0 0 -0.000196099
5 1 0.308591 0.15879 0.798806 0 0 -0.000206351
7 1 0.758601 0.24904 0.778744 0 0 -0.000128865
8 1 0.852201 0.207218 0.407673 0 0 -2.24113e-05
10 1 0.704808 0.241992 0.552157 0 0 2.25306e-05
11 1 0.798407 0.20017 0.181086 0 0 0.000129223
12 1 0.55025 0.0821555 0.284259 0 0 0.00024724
13 1 0.248417 0.290419 0.161024 0 0 0.00020659
14 1 0.402785 0.116933 0.428634 0 0 -8.08239e-05
15 1 0.949592 0.498504 0.0423419 0 0 0.000195265
16 1 0.49273 0.408663 0.0520311 0 0 -0.000340581
17 1 0.456309 0.457331 0.654813 0 0 -0.000276685
18 1 0.607416 0.28404 0.917488 0 0 -0.000195503
19 1 0.308591 0.492124 0.798806 0 0 -0.00020647
21 1 0.758601 0.582373 0.778744 0 0 -0.000128865
23 1 0.852201 0.540551 0.407673 0 0 -2.25306e-05
25 1 0.704808 0.575325 0.552157 0 0 2.20537e-05
27 1 0.798407 0.533503 0.181086 0 0 0.000129104
28 1 0.55025 0.415489 0.284259 0 0 0.00024724
29 1 0.248417 0.623753 0.161024 0 0 0.000206351
30 1 0.402785 0.450267 0.428634 0 0 -8.02279e-05
31 1 0.949592 0.831837 0.0423419 0 0 0.000195742
32 1 0.49273 0.741997 0.0520311 0 0 -0.000340581
33 1 0.456309 0.790664 0.654813 0 0 -0.000276804
34 1 0.607416 0.617373 0.917488 0 0 -0.000195503
35 1 0.308591 0.825457 0.798806 0 0 -0.000206232
37 1 0.758601 0.915706 0.778744 0 0 -0.000128269
39 1 0.852201 0.873885 0.407673 0 0 -2.22921e-05
41 1 0.704808 0.908658 0.552157 0 0 2.22921e-05
43 1 0.798407 0.866837 0.181086 0 0 0.000128269
44 1 0.55025 0.748822 0.284259 0 0 0.000247478
45 1 0.248417 0.957086 0.161024 0 0 0.000206828
46 1 0.402785 0.7836 0.428634 0 0 -8.04663e-05
ITEM: TIMESTEP
8
ITEM: NUMBER OF ATOMS
48
ITEM: BOX BOUNDS xy xz yz pp pp pp
-3.9544260501861572e+00 8.6109705567359924e+00 2.5110912919044495e+00
-1.0506033897399902e-02 9.6185076832771301e+00 -3.9398692250251770e+00
-2.6944518089294434e-02 1.9544072151184082e+01 3.6519104242324829e-01
ITEM: ATOMS id type xs ys zs fx fy fz
6 1 0.0642839 0.0405461 0.907808 0 0 -2.28882e-05
9 1 0.00675479 0.0337211 0.675565 0 0 -8.95262e-05
20 1 0.0642839 0.373879 0.907808 0 0 -2.30074e-05
22 1 0.154225 0.332276 0.531198 0 0 -0.000199556
24 1 0.00675479 0.367054 0.675565 0 0 -8.96454e-05
26 1 0.100705 0.325212 0.305024 0 0 4.24385e-05
36 1 0.0642839 0.707213 0.907808 0 0 -2.26498e-05
38 1 0.154225 0.665609 0.531198 0 0 -0.000199199
40 1 0.0067548 0.700388 0.675565 0 0 -9.04799e-05
42 1 0.100705 0.658545 0.305024 0 0 4.25577e-05
47 1 0.154225 0.998943 0.531198 0 0 -0.00019908
48 1 0.100705 0.991879 0.305024 0 0 4.23193e-05
1 1 0.949596 0.16517 0.0423487 0 0 -5.14984e-05
2 1 0.492725 0.0753303 0.0520224 0 0 2.22921e-05
3 1 0.456304 0.123998 0.654806 0 0 -4.24385e-05
4 1 0.607412 0.950706 0.917481 0 0 5.31673e-05
5 1 0.308586 0.158791 0.798799 0 0 -1.74046e-05
7 1 0.758597 0.24904 0.778739 0 0 4.41074e-06
8 1 0.852201 0.207218 0.407673 0 0 0.000151396
10 1 0.704808 0.241992 0.552157 0 0 -0.000151515
11 1 0.798411 0.20017 0.181092 0 0 -4.64916e-06
12 1 0.550254 0.0821553 0.284265 0 0 9.02414e-05
13 1 0.248422 0.290419 0.161031 0 0 1.66893e-05
14 1 0.402783 0.116934 0.428632 0 0 0.000199199
15 1 0.949596 0.498503 0.0423487 0 0 -5.16176e-05
16 1 0.492725 0.408664 0.0520224 0 0 2.30074e-05
17 1 0.456304 0.457331 0.654806 0 0 -4.22001e-05
18 1 0.607412 0.28404 0.917481 0 0 5.23329e-05
19 1 0.308586 0.492124 0.798799 0 0 -1.68085e-05
21 1 0.758597 0.582373 0.778739 0 0 4.17233e-06
23 1 0.852201 0.540551 0.407673 0 0 0.000151277
25 1 0.704808 0.575325 0.552157 0 0 -0.000150561
27 1 0.798411 0.533503 0.181092 0 0 -4.52995e-06
28 1 0.550254 0.415489 0.284265 0 0 9.05991e-05
29 1 0.248422 0.623752 0.161031 0 0 1.66893e-05
30 1 0.402783 0.450267 0.428632 0 0 0.000198603
31 1 0.949596 0.831837 0.0423487 0 0 -5.25713e-05
32 1 0.492725 0.741997 0.0520224 0 0 2.26498e-05
33 1 0.456304 0.790664 0.654806 0 0 -4.25577e-05
34 1 0.607412 0.617373 0.917481 0 0 5.20945e-05
35 1 0.308586 0.825457 0.798799 0 0 -1.70469e-05
37 1 0.758597 0.915707 0.778739 0 0 3.69549e-06
39 1 0.852201 0.873885 0.407673 0 0 0.000150919
41 1 0.704808 0.908658 0.552157 0 0 -0.000151038
43 1 0.798411 0.866837 0.181092 0 0 -3.69549e-06
44 1 0.550254 0.748822 0.284265 0 0 8.96454e-05
45 1 0.248422 0.957086 0.161031 0 0 1.65701e-05
46 1 0.402783 0.7836 0.428632 0 0 0.000199199
ITEM: TIMESTEP
9
ITEM: NUMBER OF ATOMS
48
ITEM: BOX BOUNDS xy xz yz pp pp pp
-3.9544260501861572e+00 8.6109705567359924e+00 2.5110912919044495e+00
-1.0506033897399902e-02 9.6185076832771301e+00 -3.9398692250251770e+00
-2.6944518089294434e-02 1.9544072151184082e+01 3.6519104242324829e-01
ITEM: ATOMS id type xs ys zs fx fy fz
6 1 0.0642845 0.040546 0.907809 0 0 -8.28505e-05
9 1 0.00675299 0.0337212 0.675562 0 0 -5.3525e-05
20 1 0.0642845 0.373879 0.907809 0 0 -8.30889e-05
22 1 0.154223 0.332276 0.531195 0 0 1.5378e-05
24 1 0.006753 0.367055 0.675562 0 0 -5.30481e-05
26 1 0.100706 0.325212 0.305026 0 0 4.76837e-05
36 1 0.0642845 0.707213 0.907809 0 0 -8.30889e-05
38 1 0.154223 0.66561 0.531195 0 0 1.52588e-05
40 1 0.006753 0.700388 0.675562 0 0 -5.28097e-05
42 1 0.100706 0.658545 0.305026 0 0 4.73261e-05
47 1 0.154223 0.998943 0.531195 0 0 1.54972e-05
48 1 0.100706 0.991879 0.305026 0 0 4.79221e-05
1 1 0.949596 0.16517 0.0423487 0 0 5.36442e-06
2 1 0.492724 0.0753303 0.0520215 0 0 8.29697e-05
3 1 0.456303 0.123998 0.654804 0 0 -4.75645e-05
4 1 0.607412 0.950706 0.917482 0 0 -6.19888e-06
5 1 0.308585 0.158791 0.798797 0 0 5.00679e-06
7 1 0.758597 0.24904 0.778738 0 0 -4.29153e-06
8 1 0.852203 0.207218 0.407676 0 0 -3.3617e-05
10 1 0.704806 0.241992 0.552154 0 0 3.37362e-05
11 1 0.798412 0.20017 0.181092 0 0 4.29153e-06
12 1 0.550255 0.0821552 0.284268 0 0 5.29289e-05
13 1 0.248423 0.290419 0.161033 0 0 -4.05312e-06
14 1 0.402786 0.116933 0.428636 0 0 -1.52588e-05
15 1 0.949596 0.498503 0.0423487 0 0 5.00679e-06
16 1 0.492724 0.408664 0.0520215 0 0 8.24928e-05
17 1 0.456303 0.457331 0.654804 0 0 -4.80413e-05
18 1 0.607412 0.28404 0.917482 0 0 -5.48363e-06
19 1 0.308585 0.492124 0.798797 0 0 4.52995e-06
21 1 0.758597 0.582373 0.778738 0 0 -4.17233e-06
23 1 0.852203 0.540551 0.407676 0 0 -3.32594e-05
25 1 0.704806 0.575325 0.552154 0 0 3.3021e-05
27 1 0.798412 0.533503 0.181092 0 0 4.17233e-06
28 1 0.550255 0.415488 0.284268 0 0 5.25713e-05
29 1 0.248423 0.623752 0.161033 0 0 -3.33786e-06
30 1 0.402786 0.450267 0.428636 0 0 -1.5378e-05
31 1 0.949596 0.831837 0.0423487 0 0 6.07967e-06
32 1 0.492724 0.741997 0.0520215 0 0 8.29697e-05
33 1 0.456303 0.790664 0.654804 0 0 -4.72069e-05
34 1 0.607412 0.617373 0.917482 0 0 -5.24521e-06
35 1 0.308585 0.825457 0.798797 0 0 4.52995e-06
37 1 0.758597 0.915707 0.778738 0 0 -4.64916e-06
39 1 0.852203 0.873885 0.407676 0 0 -3.34978e-05
41 1 0.704806 0.908658 0.552154 0 0 3.33786e-05
43 1 0.798412 0.866836 0.181092 0 0 4.29153e-06
44 1 0.550255 0.748822 0.284268 0 0 5.31673e-05
45 1 0.248423 0.957086 0.161033 0 0 -4.29153e-06
46 1 0.402786 0.7836 0.428636 0 0 -1.56164e-05
ITEM: TIMESTEP
10
ITEM: NUMBER OF ATOMS
48
ITEM: BOX BOUNDS xy xz yz pp pp pp
-3.9544260501861572e+00 8.6109705567359924e+00 2.5110912919044495e+00
-1.0506033897399902e-02 9.6185076832771301e+00 -3.9398692250251770e+00
-2.6944518089294434e-02 1.9544072151184082e+01 3.6519104242324829e-01
ITEM: ATOMS id type xs ys zs fx fy fz
6 1 0.0642834 0.0405461 0.907807 0 0 -2.15769e-05
9 1 0.00675192 0.0337213 0.675561 0 0 2.16961e-05
20 1 0.0642834 0.373879 0.907807 0 0 -2.13385e-05
22 1 0.154222 0.332276 0.531194 0 0 5.96046e-07
24 1 0.00675193 0.367055 0.675561 0 0 2.12193e-05
26 1 0.100707 0.325212 0.305028 0 0 -8.46386e-06
36 1 0.0642834 0.707213 0.907807 0 0 -2.13385e-05
38 1 0.154222 0.66561 0.531194 0 0 2.38419e-07
40 1 0.00675193 0.700388 0.675561 0 0 2.09808e-05
42 1 0.100707 0.658545 0.305028 0 0 -8.82149e-06
47 1 0.154222 0.998943 0.531194 0 0 8.34465e-07
48 1 0.100707 0.991878 0.305028 0 0 -9.05991e-06
1 1 0.949596 0.16517 0.0423488 0 0 -2.7895e-05
2 1 0.492725 0.0753303 0.0520231 0 0 2.15769e-05
3 1 0.456302 0.123998 0.654803 0 0 8.9407e-06
4 1 0.607412 0.950706 0.917481 0 0 2.81334e-05
5 1 0.308585 0.158791 0.798797 0 0 -3.67165e-05
7 1 0.758597 0.24904 0.778738 0 0 -4.54187e-05
8 1 0.852203 0.207218 0.407676 0 0 3.33786e-06
10 1 0.704806 0.241992 0.552154 0 0 -3.69549e-06
11 1 0.798412 0.20017 0.181093 0 0 4.52995e-05
12 1 0.550257 0.0821551 0.284269 0 0 -2.12193e-05
13 1 0.248423 0.290419 0.161033 0 0 3.57628e-05
14 1 0.402786 0.116933 0.428636 0 0 -2.38419e-07
15 1 0.949597 0.498503 0.0423488 0 0 -2.74181e-05
16 1 0.492725 0.408664 0.0520231 0 0 2.16961e-05
17 1 0.456302 0.457331 0.654803 0 0 9.05991e-06
18 1 0.607412 0.28404 0.917481 0 0 2.7895e-05
19 1 0.308585 0.492124 0.798797 0 0 -3.60012e-05
21 1 0.758597 0.582373 0.778738 0 0 -4.51803e-05
23 1 0.852203 0.540551 0.407676 0 0 3.09944e-06
25 1 0.704806 0.575325 0.552154 0 0 -2.98023e-06
27 1 0.798412 0.533503 0.181093 0 0 4.52995e-05
28 1 0.550257 0.415488 0.284269 0 0 -2.11e-05
29 1 0.248423 0.623752 0.161033 0 0 3.50475e-05
30 1 0.402786 0.450267 0.428636 0 0 -2.38419e-07
31 1 0.949597 0.831837 0.0423488 0 0 -2.87294e-05
32 1 0.492725 0.741997 0.0520231 0 0 2.16961e-05
33 1 0.456302 0.790665 0.654803 0 0 8.58307e-06
34 1 0.607412 0.617373 0.917481 0 0 2.76566e-05
35 1 0.308585 0.825457 0.798797 0 0 -3.60012e-05
37 1 0.758597 0.915707 0.778738 0 0 -4.50611e-05
39 1 0.852203 0.873885 0.407676 0 0 3.45707e-06
41 1 0.704806 0.908658 0.552154 0 0 -3.21865e-06
43 1 0.798412 0.866836 0.181093 0 0 4.54187e-05
44 1 0.550257 0.748822 0.284269 0 0 -2.12193e-05
45 1 0.248423 0.957086 0.161033 0 0 3.5882e-05
46 1 0.402786 0.7836 0.428636 0 0 -4.76837e-07
ITEM: TIMESTEP
11
ITEM: NUMBER OF ATOMS
48
ITEM: BOX BOUNDS xy xz yz pp pp pp
-3.9544260501861572e+00 8.6109705567359924e+00 2.5110912919044495e+00
-1.0506033897399902e-02 9.6185076832771301e+00 -3.9398692250251770e+00
-2.6944518089294434e-02 1.9544072151184082e+01 3.6519104242324829e-01
ITEM: ATOMS id type xs ys zs fx fy fz
6 1 0.0642828 0.0405461 0.907806 0 0 -8.46386e-06
9 1 0.00675183 0.0337213 0.675561 0 0 8.22544e-06
20 1 0.0642828 0.373879 0.907806 0 0 -8.22544e-06
22 1 0.154222 0.332276 0.531194 0 0 3.57628e-07
24 1 0.00675184 0.367055 0.675561 0 0 8.46386e-06
26 1 0.100707 0.325212 0.305028 0 0 -4.76837e-07
36 1 0.0642828 0.707213 0.907806 0 0 -8.46386e-06
38 1 0.154222 0.66561 0.531194 0 0 7.15256e-07
40 1 0.00675184 0.700388 0.675561 0 0 8.58307e-06
42 1 0.100707 0.658545 0.305028 0 0 -4.76837e-07
47 1 0.154222 0.998943 0.531194 0 0 0
48 1 0.100707 0.991878 0.305028 0 0 -5.96046e-07
1 1 0.949596 0.16517 0.0423483 0 0 2.61068e-05
2 1 0.492726 0.0753302 0.052024 0 0 8.46386e-06
3 1 0.456301 0.123998 0.654802 0 0 3.57628e-07
4 1 0.607412 0.950706 0.917482 0 0 -2.61068e-05
5 1 0.308585 0.158791 0.798796 0 0 0
7 1 0.758596 0.24904 0.778737 0 0 -8.10623e-06
8 1 0.852203 0.207218 0.407676 0 0 5.36442e-06
10 1 0.704806 0.241992 0.552154 0 0 -5.126e-06
11 1 0.798412 0.20017 0.181094 0 0 7.98702e-06