ITEM: TIMESTEP
0
ITEM: NUMBER OF ATOMS
56
ITEM: BOX BOUNDS xy xz yz pp pp pp
-5.5772085284562953e+00 1.2163911692441133e+01 1.5526132515564727e-08
-3.0061665652343075e-03 5.5294143007778995e+00 -5.5983967098413228e+00
7.7232233150646462e-04 1.9019187752468508e+01 2.1812666742635317e-08
ITEM: ATOMS id type xs ys zs fx fy fz
3 1 0.315193 1.50434e-05 0.275226 0 -0.00311302 0.00340561
4 1 0.0651928 0.166653 0.275226 0 0.00310292 0.0034072
5 1 0.0188365 1.01858e-05 0.418082 0 -0.000875917 3.20625e-05
6 1 0.111496 3.06084e-05 0.132367 0 -0.0871167 0.233492
7 1 0.0096205 0.500062 0.06094 0 0.674183 0.707804
15 1 0.176112 0.166652 0.703801 0 0.00251574 0.00218013
16 1 0.129765 1.72772e-05 0.846652 0 -0.00863555 -0.00157978
22 1 0.268836 0.166657 0.418082 0 0.000883484 3.54993e-05
23 1 0.167015 0.666651 0.346652 0 0.00254037 -0.00219112
24 1 0.222471 1.5722e-05 0.560941 0 -0.00113921 -0.00012466
25 1 0.120655 0.500016 0.489511 0 -0.0011364 0.00012596
29 1 0.259621 0.666605 0.06094 0 -0.674165 0.707778
30 1 0.213362 0.500017 0.203801 0 -0.00862366 0.0015941
43 1 0.277933 0.666652 0.775227 0 0.00311493 -0.00340743
44 1 0.333506 6.17797e-05 0.989513 0 0.674171 -0.707781
45 1 0.231632 0.50003 0.918085 0 -0.0871095 -0.233471
49 1 0.32429 0.500011 0.63237 0 -0.000881357 -3.94078e-05
50 1 0.0742908 0.666656 0.63237 0 0.000899866 -2.74508e-05
51 1 0.0279344 0.500015 0.775227 0 -0.00309891 -0.00339958
52 1 0.0835052 0.166605 0.989513 0 -0.67418 -0.707809
1 1 0.611495 3.09294e-05 0.132367 0 -0.0871245 0.233488
2 1 0.361496 0.166637 0.132367 0 0.0871045 0.233491
8 1 0.861497 0.166637 0.132367 0 0.087112 0.233489
9 1 0.759622 0.666605 0.06094 0 -0.674167 0.707807
10 1 0.815194 1.49384e-05 0.275226 0 -0.00310909 0.0034106
11 1 0.768835 0.166657 0.418083 0 0.000880805 3.10211e-05
12 1 0.72247 1.60347e-05 0.560942 0 -0.00114897 -0.000141369
13 1 0.472471 0.166652 0.560941 0 0.00113119 -0.00012784
14 1 0.426112 1.61665e-05 0.703801 0 -0.00254247 0.00218947
17 1 0.713361 0.500017 0.203801 0 -0.00862327 0.00158972
18 1 0.565193 0.166653 0.275226 0 0.00308427 0.00340607
19 1 0.463363 0.66665 0.203801 0 0.00863892 0.00159223
20 1 0.518837 1.09165e-05 0.418082 0 -0.000896691 3.74207e-05
21 1 0.417015 0.500016 0.346652 0 -0.00252862 -0.00218343
26 1 0.972472 0.166652 0.560941 0 0.00113212 -0.00011111
27 1 0.870656 0.666651 0.489511 0 0.00113987 0.000133804
28 1 0.50962 0.500061 0.0609401 0 0.674184 0.707781
31 1 0.963363 0.66665 0.203801 0 0.00862001 0.00159488
32 1 0.917016 0.500016 0.346652 0 -0.00254006 -0.00219129
33 1 0.879764 0.16665 0.846652 0 0.00863081 -0.00160715
34 1 0.833506 6.23935e-05 0.989513 0 0.674175 -0.707781
35 1 0.583506 0.166605 0.989513 0 -0.674175 -0.70779
36 1 0.926111 1.60929e-05 0.703801 0 -0.00254032 0.00218374
37 1 0.824289 0.50001 0.632371 0 -0.000882116 -5.54749e-05
38 1 0.676112 0.166651 0.703801 0 0.00253347 0.00219246
39 1 0.57429 0.666656 0.63237 0 0.000890052 -4.0715e-05
40 1 0.629764 1.72431e-05 0.846652 0 -0.00863386 -0.00159451
41 1 0.527934 0.500015 0.775227 0 -0.0031001 -0.00340384
42 1 0.379764 0.16665 0.846652 0 0.00862013 -0.0015924
46 1 0.667014 0.666651 0.346652 0 0.00254913 -0.0021813
47 1 0.620655 0.500015 0.489511 0 -0.00111519 0.00013332
48 1 0.370655 0.666651 0.489511 0 0.00114177 0.000128112
53 1 0.98163 0.666636 0.918086 0 0.0871168 -0.233514
54 1 0.777933 0.666653 0.775227 0 0.00309763 -0.00339736
55 1 0.731631 0.50003 0.918085 0 -0.0871071 -0.233498
56 1 0.481631 0.666636 0.918085 0 0.0871167 -0.233493
ITEM: TIMESTEP
11
ITEM: NUMBER OF ATOMS
56
ITEM: BOX BOUNDS xy xz yz pp pp pp
-5.5772085284562953e+00 1.2163911692441133e+01 1.5526132515564727e-08
-3.0061665652343075e-03 5.5294143007778995e+00 -5.5983967098413228e+00
7.7232233150646462e-04 1.9019187752468508e+01 2.1812666742635317e-08
ITEM: ATOMS id type xs ys zs fx fy fz
3 1 0.316779 -0.00131849 0.278665 0 2.86985e-05 9.37164e-06
4 1 0.0667783 0.167985 0.278665 0 -2.89906e-05 1.01032e-05
5 1 0.0195189 -0.00144921 0.419562 0 1.67819e-05 1.37393e-05
6 1 0.113831 0.00762864 0.137433 0 3.03496e-05 -1.40681e-05
7 1 0.012352 0.528152 0.0668647 0 -1.56183e-06 -4.17206e-05
15 1 0.174996 0.168202 0.70138 0 -9.86701e-06 7.70422e-06
16 1 0.127735 0.000195897 0.842249 0 -1.48484e-05 -4.05697e-05
22 1 0.269519 0.168117 0.419562 0 -1.89543e-05 1.50331e-05
23 1 0.168131 0.668202 0.349073 0 -8.12302e-06 -7.12915e-06
24 1 0.222253 -0.00142807 0.56047 0 -1.47889e-05 -1.00595e-05
25 1 0.120873 0.498572 0.489983 0 -1.32169e-05 1.08453e-05
29 1 0.262352 0.638516 0.0668649 0 2.57447e-06 -4.02569e-05
30 1 0.215392 0.500196 0.208204 0 -1.66519e-05 4.07981e-05
43 1 0.276348 0.667985 0.771788 0 -2.86954e-05 -7.07489e-06
44 1 0.330775 0.0281519 0.983588 0 -1.92838e-06 4.1867e-05
45 1 0.229296 0.507629 0.91302 0 3.10715e-05 1.43584e-05
49 1 0.323608 0.49855 0.63089 0 1.73592e-05 -1.41192e-05
50 1 0.0736086 0.668117 0.630891 0 -1.68129e-05 -1.92313e-05
51 1 0.0263489 0.498681 0.771788 0 2.70749e-05 -7.21507e-06
52 1 0.0807735 0.138516 0.983588 0 1.53389e-06 4.04072e-05
1 1 0.613831 0.00762881 0.137433 0 3.08563e-05 -1.50827e-05
2 1 0.363832 0.159039 0.137433 0 -3.0316e-05 -1.62498e-05
8 1 0.863832 0.159039 0.137433 0 -3.13438e-05 -1.54348e-05
9 1 0.762353 0.638516 0.0668651 0 2.58332e-06 -4.53105e-05
10 1 0.816779 -0.00131853 0.278665 0 2.77915e-05 1.06655e-05
11 1 0.769518 0.168117 0.419562 0 -1.72518e-05 1.38576e-05
12 1 0.722253 -0.00142805 0.56047 0 -1.46404e-05 -5.56089e-06
13 1 0.472253 0.168095 0.56047 0 1.30507e-05 -1.10015e-05
14 1 0.424996 -0.00153553 0.70138 0 8.88493e-06 7.50764e-06
17 1 0.715391 0.500196 0.208204 0 -1.59384e-05 4.35722e-05
18 1 0.566778 0.167985 0.278665 0 -2.86001e-05 8.14498e-06
19 1 0.465393 0.666471 0.208204 0 1.54516e-05 4.18169e-05
20 1 0.519519 -0.00144944 0.419562 0 1.78366e-05 1.61371e-05
21 1 0.418131 0.498465 0.349073 0 9.77764e-06 -6.38218e-06
26 1 0.972254 0.168095 0.56047 0 1.3651e-05 -6.20331e-06
27 1 0.870874 0.668095 0.489983 0 1.41101e-05 8.61953e-06
28 1 0.512352 0.528152 0.0668645 0 -1.15296e-06 -4.3835e-05
31 1 0.965392 0.666471 0.208204 0 1.69016e-05 4.38163e-05
32 1 0.918132 0.498465 0.349073 0 1.06152e-05 -9.27731e-06
33 1 0.877734 0.166471 0.842249 0 1.62453e-05 -4.03819e-05
34 1 0.830775 0.0281516 0.983588 0 -2.58429e-06 3.91423e-05
35 1 0.580775 0.138516 0.983588 0 6.67326e-07 3.9821e-05
36 1 0.924995 -0.00153565 0.70138 0 9.71716e-06 3.96192e-06
37 1 0.823607 0.49855 0.63089 0 1.72406e-05 -1.36576e-05
38 1 0.674996 0.168202 0.70138 0 -8.22401e-06 6.36205e-06
39 1 0.573608 0.668117 0.63089 0 -1.75895e-05 -1.46624e-05
40 1 0.627734 0.000195844 0.842249 0 -1.68995e-05 -3.82739e-05
41 1 0.526348 0.498681 0.771788 0 2.88733e-05 -1.21824e-05
42 1 0.377734 0.166471 0.842249 0 1.44502e-05 -4.45057e-05
46 1 0.66813 0.668202 0.349073 0 -8.89317e-06 -6.88323e-06
47 1 0.620873 0.498572 0.489983 0 -1.46265e-05 7.5053e-06
48 1 0.370873 0.668095 0.489983 0 1.53884e-05 8.21618e-06
53 1 0.979294 0.659039 0.913019 0 -3.06168e-05 1.46774e-05
54 1 0.776348 0.667985 0.771788 0 -2.95155e-05 -1.16511e-05
55 1 0.729295 0.507628 0.91302 0 3.1457e-05 1.99931e-05
56 1 0.479295 0.659039 0.913019 0 -2.82231e-05 1.98858e-05
