ITEM: TIMESTEP
0
ITEM: NUMBER OF ATOMS
56
ITEM: BOX BOUNDS xy xz yz pp pp pp
-3.5375323295593262e+00 1.2203788340091705e+01 0.0000000000000000e+00
-8.4733366966247559e-03 5.5348814725875854e+00 -3.5188438296318054e+00
-2.9168844223022461e-02 1.9049128890037537e+01 0.0000000000000000e+00
ITEM: ATOMS id type xs ys zs fx fy fz
1 1 0.588179 4.41887e-05 0.132366 0 0.0400352 0.0250626
2 1 0.33818 0.166624 0.132366 0 -0.0400524 0.0250912
3 1 0.266718 2.39879e-05 0.275225 0 0.00200462 -0.00293159
4 1 0.0167172 0.166644 0.275225 0 -0.0020256 -0.00292397
5 1 0.945202 1.9421e-05 0.418082 0 1.71661e-05 0.000738144
6 1 0.0881801 4.41295e-05 0.132366 0 0.0400372 0.0250778
7 1 0.998884 0.500074 0.0609403 0 1.61375 1.10679
8 1 0.838181 0.166623 0.132366 0 -0.040041 0.0250988
9 1 0.748885 0.666593 0.0609403 0 -1.61372 1.1068
10 1 0.766719 2.39872e-05 0.275225 0 0.00200272 -0.00291824
11 1 0.695201 0.166647 0.418082 0 -1.33514e-05 0.000732422
12 1 0.623674 2.47556e-05 0.560942 0 -8.58307e-05 -0.000343323
13 1 0.373675 0.166643 0.560942 0 7.62939e-05 -0.00034523
14 1 0.302157 2.39811e-05 0.703801 0 -0.000415802 -0.000490189
15 1 0.0521568 0.166644 0.703801 0 0.000385284 -0.000494003
16 1 0.980651 2.63435e-05 0.846651 0 0.00608444 -0.00434113
17 1 0.677466 0.500026 0.203802 0 0.00609779 0.0043602
18 1 0.516717 0.166645 0.275225 0 -0.00203896 -0.00291634
19 1 0.427467 0.66664 0.203802 0 -0.00606728 0.00435448
20 1 0.445202 2.01694e-05 0.418082 0 0 0.000736237
21 1 0.35596 0.500023 0.346651 0 -0.000392914 0.000509262
22 1 0.195201 0.166648 0.418082 0 -1.71661e-05 0.000736237
23 1 0.10596 0.666642 0.346651 0 0.000429153 0.000488281
24 1 0.123675 2.49573e-05 0.560941 0 -8.96454e-05 -0.000335693
25 1 0.0344411 0.500025 0.489511 0 -8.2016e-05 0.000329971
26 1 0.873676 0.166643 0.560941 0 7.62939e-05 -0.000329971
27 1 0.784442 0.666642 0.489511 0 8.7738e-05 0.000352859
28 1 0.498884 0.500073 0.0609404 0 1.6138 1.10683
29 1 0.248884 0.666593 0.0609403 0 -1.61376 1.10681
30 1 0.177467 0.500026 0.203802 0 0.00608635 0.00435257
31 1 0.927467 0.666641 0.203802 0 -0.00609398 0.00435638
32 1 0.855961 0.500024 0.346651 0 -0.000415802 0.000488281
33 1 0.730649 0.166641 0.846652 0 -0.00608635 -0.00437737
34 1 0.659233 7.47473e-05 0.989512 0 1.61372 -1.10676
35 1 0.409233 0.166594 0.989513 0 -1.61379 -1.10683
36 1 0.802156 2.44315e-05 0.703801 0 -0.000421524 -0.000494003
37 1 0.712914 0.50002 0.632371 0 1.14441e-05 -0.00075531
38 1 0.552157 0.166643 0.703801 0 0.000396729 -0.000486374
39 1 0.462915 0.666647 0.632371 0 -7.62939e-06 -0.000738144
40 1 0.48065 2.63314e-05 0.846651 0 0.00608444 -0.00435638
41 1 0.391399 0.500023 0.775228 0 0.00201988 0.00292587
42 1 0.230649 0.166641 0.846651 0 -0.00609016 -0.00435829
43 1 0.141399 0.666644 0.775228 0 -0.00201607 0.00291252
44 1 0.159233 7.37033e-05 0.989512 0 1.61377 -1.1068
45 1 0.0699371 0.500043 0.918087 0 0.0400486 -0.0250664
46 1 0.60596 0.666643 0.346651 0 0.000425339 0.000492096
47 1 0.534441 0.500025 0.489511 0 -7.82013e-05 0.000333786
48 1 0.284441 0.666642 0.489511 0 9.15527e-05 0.000333786
49 1 0.212915 0.500019 0.632371 0 2.47955e-05 -0.000730515
50 1 0.962916 0.666647 0.63237 0 5.72205e-06 -0.000715256
51 1 0.8914 0.500022 0.775228 0 0.00203133 0.00292397
52 1 0.909231 0.166594 0.989513 0 -1.61375 -1.10682
53 1 0.819936 0.666624 0.918087 0 -0.0400486 -0.0251102
54 1 0.641399 0.666643 0.775228 0 -0.00201225 0.00292397
55 1 0.569937 0.500044 0.918087 0 0.0400562 -0.0250854
56 1 0.319937 0.666624 0.918087 0 -0.0400448 -0.0250854
ITEM: TIMESTEP
1
ITEM: NUMBER OF ATOMS
56
ITEM: BOX BOUNDS xy xz yz pp pp pp
-3.5375323295593262e+00 1.2203788340091705e+01 0.0000000000000000e+00
-8.4733366966247559e-03 5.5348814725875854e+00 -3.5188438296318054e+00
-2.9168844223022461e-02 1.9049128890037537e+01 0.0000000000000000e+00
ITEM: ATOMS id type xs ys zs fx fy fz
1 1 0.588203 0.000491717 0.132447 0 0.126875 -0.0087719
2 1 0.338204 0.166176 0.132447 0 -0.126896 -0.00876045
3 1 0.266715 4.63962e-05 0.275216 0 0.00218582 0.00125313
4 1 0.0167144 0.166622 0.275216 0 -0.0022068 0.00124359
5 1 0.945202 1.96129e-05 0.418084 0 -0.000238419 -0.00128937
6 1 0.0882036 0.000491679 0.132447 0 0.126883 -0.0087738
7 1 0.999919 0.518113 0.0645351 0 0.675653 0.324949
8 1 0.838204 0.166176 0.132447 0 -0.126886 -0.0087471
9 1 0.74992 0.648554 0.0645351 0 -0.675648 0.324957
10 1 0.766716 4.63742e-05 0.275215 0 0.00219536 0.00125694
11 1 0.695201 0.166647 0.418085 0 0.000249863 -0.001297
12 1 0.623674 2.37962e-05 0.56094 0 -3.8147e-05 1.71661e-05
13 1 0.373675 0.166644 0.560941 0 3.24249e-05 1.52588e-05
14 1 0.302156 1.93331e-05 0.7038 0 -0.000404358 -0.00361633
15 1 0.0521564 0.166649 0.7038 0 0.00038147 -0.00362396
16 1 0.980647 9.43575e-05 0.846637 0 -0.00767708 -0.082634
17 1 0.67747 0.500094 0.203816 0 -0.00765419 0.0826416
18 1 0.516715 0.166622 0.275215 0 -0.00222588 0.00125504
19 1 0.427471 0.666572 0.203816 0 0.00767899 0.0826511
20 1 0.445202 2.01694e-05 0.418085 0 -0.000263214 -0.00129509
21 1 0.355961 0.500019 0.346653 0 -0.000385284 0.0036335
22 1 0.195202 0.166648 0.418084 0 0.000236511 -0.00129318
23 1 0.105961 0.666647 0.346653 0 0.00041008 0.00362206
24 1 0.123675 2.39552e-05 0.56094 0 -3.43323e-05 2.47955e-05
25 1 0.0344414 0.500024 0.489512 0 -4.00543e-05 -2.47955e-05
26 1 0.873676 0.166644 0.56094 0 3.62396e-05 3.24249e-05
27 1 0.784443 0.666643 0.489512 0 4.3869e-05 -1.14441e-05
28 1 0.499919 0.518113 0.0645353 0 0.675678 0.324949
29 1 0.249919 0.648553 0.0645352 0 -0.675648 0.324936
30 1 0.177471 0.500094 0.203816 0 -0.00766182 0.0826492
31 1 0.927471 0.666573 0.203816 0 0.00766182 0.0826473
32 1 0.855961 0.50002 0.346653 0 -0.000406265 0.00361633
33 1 0.730645 0.166573 0.846637 0 0.00766182 -0.0826702
34 1 0.658198 0.0181134 0.985918 0 0.675646 -0.324936
35 1 0.408198 0.148554 0.985918 0 -0.675665 -0.324957
36 1 0.802155 1.97195e-05 0.7038 0 -0.000402451 -0.00361252
37 1 0.712913 0.50002 0.632369 0 -0.00025177 0.00128555
38 1 0.552156 0.166648 0.7038 0 0.000398636 -0.00362015
39 1 0.462915 0.666647 0.632369 0 0.000253677 0.00128937
40 1 0.480646 9.43454e-05 0.846637 0 -0.00766945 -0.0826473
41 1 0.391402 0.500046 0.775237 0 0.00219917 -0.00125313
42 1 0.230645 0.166573 0.846637 0 0.00766373 -0.0826492
43 1 0.141402 0.666621 0.775237 0 -0.00219536 -0.00126266
44 1 0.158198 0.018113 0.985918 0 0.675663 -0.32494
45 1 0.0699137 0.500491 0.918005 0 0.126888 0.00878716
46 1 0.60596 0.666647 0.346653 0 0.000406265 0.00361824
47 1 0.534442 0.500024 0.489512 0 -2.67029e-05 -2.67029e-05
48 1 0.284442 0.666643 0.489513 0 4.76837e-05 -3.24249e-05
49 1 0.212914 0.500019 0.632368 0 -0.000236511 0.001297
50 1 0.962915 0.666647 0.632368 0 0.000255585 0.00130081
51 1 0.891403 0.500045 0.775237 0 0.00221062 -0.00126266
52 1 0.908196 0.148555 0.985918 0 -0.67565 -0.324965
53 1 0.819913 0.666176 0.918006 0 -0.126884 0.00873947
54 1 0.641402 0.666621 0.775237 0 -0.00220299 -0.00124359
55 1 0.569913 0.500491 0.918005 0 0.126888 0.00877571
56 1 0.319913 0.666176 0.918005 0 -0.126886 0.0087719
ITEM: TIMESTEP
2
ITEM: NUMBER OF ATOMS
56
ITEM: BOX BOUNDS xy xz yz pp pp pp
-3.5375323295593262e+00 1.2203788340091705e+01 0.0000000000000000e+00
-8.4733366966247559e-03 5.5348814725875854e+00 -3.5188438296318054e+00
-2.9168844223022461e-02 1.9049128890037537e+01 0.0000000000000000e+00
ITEM: ATOMS id type xs ys zs fx fy fz
1 1 0.588183 0.00387909 0.132379 0 0.198048 -0.00916862
2 1 0.338184 0.162788 0.132379 0 -0.198044 -0.00915909
3 1 0.266718 0.000104754 0.275225 0 0.00184059 0.00803757
4 1 0.0167172 0.166563 0.275225 0 -0.00184441 0.00804329
5 1 0.945199 1.32475e-05 0.418074 0 -0.000597 -0.00149536
6 1 0.088184 0.00387926 0.132379 0 0.198034 -0.00916481
7 1 1.00064 0.536152 0.0670559 0 0.130404 -0.12513
8 1 0.838185 0.162788 0.132379 0 -0.198036 -0.00915909
9 1 0.750646 0.630515 0.067056 0 -0.130404 -0.125114
10 1 0.766719 0.000104987 0.275225 0 0.00183678 0.0080471
11 1 0.695198 0.166654 0.418074 0 0.00060463 -0.00150108
12 1 0.623674 2.27777e-05 0.560941 0 -0.000171661 -0.000923157
13 1 0.373675 0.166644 0.560941 0 0.000169754 -0.000917435
14 1 0.302148 8.53738e-06 0.703772 0 -0.0013237 -0.0143299
15 1 0.0521483 0.166659 0.703772 0 0.00132179 -0.0143299
16 1 0.980462 -0.000110609 0.845996 0 -0.00610542 -0.120916
17 1 0.677655 0.49989 0.204457 0 -0.00611115 0.120922
18 1 0.516717 0.166563 0.275225 0 -0.00184822 0.00805283
19 1 0.427656 0.666777 0.204457 0 0.00610733 0.120932
20 1 0.4452 1.3142e-05 0.418074 0 -0.000608444 -0.0015049
21 1 0.355969 0.500008 0.346681 0 -0.00131989 0.0143299
22 1 0.195199 0.166654 0.418074 0 0.000602722 -0.00150299
23 1 0.105969 0.666658 0.346681 0 0.00133324 0.0143299
24 1 0.123675 2.30386e-05 0.560941 0 -0.000177383 -0.000915527
25 1 0.0344414 0.500023 0.489512 0 -0.000167847 0.000904083
26 1 0.873676 0.166645 0.560941 0 0.000165939 -0.000907898
27 1 0.784443 0.666644 0.489512 0 0.000173569 0.000925064
28 1 0.500644 0.536152 0.0670561 0 0.130402 -0.125147
29 1 0.250645 0.630515 0.0670559 0 -0.130409 -0.125128
30 1 0.177656 0.49989 0.204457 0 -0.00610542 0.120928
31 1 0.927656 0.666778 0.204457 0 0.00610542 0.120932
32 1 0.85597 0.500009 0.346681 0 -0.00132751 0.0143318
33 1 0.730461 0.166777 0.845996 0 0.00611115 -0.120937
34 1 0.657473 0.0361522 0.983397 0 0.130402 0.125135
35 1 0.407472 0.130515 0.983397 0 -0.130402 0.125139
36 1 0.802147 8.97471e-06 0.703772 0 -0.00133896 -0.0143356
37 1 0.712916 0.500013 0.632379 0 -0.000602722 0.00149155
38 1 0.552148 0.166658 0.703772 0 0.00132751 -0.0143299
39 1 0.462918 0.666654 0.632379 0 0.000602722 0.00150299
40 1 0.480461 -0.000110418 0.845996 0 -0.00610733 -0.120932
41 1 0.391399 0.500104 0.775227 0 0.00183296 -0.00803947
42 1 0.230461 0.166777 0.845996 0 0.00610352 -0.120947
43 1 0.141399 0.666563 0.775227 0 -0.0018425 -0.00804138
44 1 0.157473 0.0361522 0.983397 0 0.130407 0.125141
45 1 0.0699333 0.503879 0.918073 0 0.198044 0.00916672
46 1 0.605968 0.666658 0.346681 0 0.00133133 0.0143318
47 1 0.534442 0.500023 0.489512 0 -0.000160217 0.000917435
48 1 0.284442 0.666644 0.489512 0 0.000179291 0.000921249
49 1 0.212917 0.500013 0.632378 0 -0.000602722 0.00150299
50 1 0.962918 0.666654 0.632378 0 0.000612259 0.00151062
51 1 0.8914 0.500104 0.775228 0 0.00184059 -0.00804329
52 1 0.907471 0.130516 0.983397 0 -0.130402 0.12512
53 1 0.819932 0.662788 0.918073 0 -0.198042 0.00915146
54 1 0.641399 0.666562 0.775228 0 -0.00184059 -0.00804901
55 1 0.569933 0.503879 0.918074 0 0.198042 0.00916481
56 1 0.319933 0.662788 0.918073 0 -0.198044 0.00915718
ITEM: TIMESTEP
3
ITEM: NUMBER OF ATOMS
56
ITEM: BOX BOUNDS xy xz yz pp pp pp
-3.5375323295593262e+00 1.2203788340091705e+01 0.0000000000000000e+00
-8.4733366966247559e-03 5.5348814725875854e+00 -3.5188438296318054e+00
-2.9168844223022461e-02 1.9049128890037537e+01 0.0000000000000000e+00
ITEM: ATOMS id type xs ys zs fx fy fz
1 1 0.588116 0.0213304 0.132144 0 -0.000991821 0.0373631
2 1 0.338116 0.145337 0.132144 0 0.000976562 0.0373516
3 1 0.266777 0.000267567 0.27543 0 0.00279236 0.0248508
4 1 0.0167763 0.1664 0.27543 0 -0.00279045 0.0248566
5 1 0.945188 -3.92688e-05 0.418036 0 -0.000862122 0.00682068
6 1 0.0881163 0.0213294 0.132144 0 -0.000980377 0.0373478
7 1 0.999743 0.54801 0.0639252 0 0.130383 0.0576534
8 1 0.838117 0.145338 0.132144 0 0.000974655 0.0373573
9 1 0.749745 0.618657 0.0639257 0 -0.130377 0.057642
10 1 0.766778 0.00026747 0.275431 0 0.00279236 0.024847
11 1 0.695187 0.166707 0.418036 0 0.000864029 0.00682449
12 1 0.623667 7.69604e-06 0.560917 0 -0.00183487 -0.00810623
13 1 0.373668 0.166659 0.560917 0 0.0018425 -0.00811005
14 1 0.302043 -0.000107827 0.703406 0 -0.00549889 -0.0495777
15 1 0.0520429 0.166775 0.703406 0 0.00549126 -0.0495758
16 1 0.979571 -0.000650938 0.842899 0 0.0741119 0.0880413
17 1 0.678546 0.499349 0.207554 0 0.0741158 -0.0880356
18 1 0.516777 0.166399 0.275431 0 -0.00278664 0.024847
19 1 0.428548 0.667318 0.207554 0 -0.0741024 -0.0880527
20 1 0.445188 -4.03936e-05 0.418036 0 -0.000846863 0.00682068
21 1 0.356074 0.499892 0.347047 0 -0.00550079 0.0495758
22 1 0.195188 0.166707 0.418036 0 0.000864029 0.0068264
23 1 0.106074 0.666775 0.347047 0 0.00549126 0.0495758
24 1 0.123668 7.45734e-06 0.560917 0 -0.00183105 -0.00811005
25 1 0.034448 0.500008 0.489535 0 -0.0018425 0.00812149
26 1 0.873669 0.166659 0.560917 0 0.00184441 -0.00810623
27 1 0.784449 0.666659 0.489536 0 0.00183487 0.00810623
28 1 0.499743 0.548011 0.063925 0 0.1304 0.0576763
29 1 0.249743 0.618656 0.0639253 0 -0.130381 0.0576591
30 1 0.178547 0.499349 0.207554 0 0.0741024 -0.088047
31 1 0.928548 0.667318 0.207554 0 -0.0741119 -0.0880527
32 1 0.856075 0.499892 0.347047 0 -0.00548744 0.0495701
33 1 0.729569 0.167318 0.842899 0 -0.0741119 0.0880508
34 1 0.658374 0.0480104 0.986528 0 0.130377 -0.0576687
35 1 0.408374 0.118657 0.986528 0 -0.130402 -0.0576801
36 1 0.802042 -0.000108727 0.703406 0 -0.00548553 -0.0495625
37 1 0.712927 0.49996 0.632417 0 -0.000867844 -0.00682259
38 1 0.552043 0.166775 0.703406 0 0.00549698 -0.0495796
39 1 0.462929 0.666707 0.632417 0 0.000865936 -0.00682449
40 1 0.47957 -0.000650909 0.842899 0 0.0741062 0.088047
41 1 0.39134 0.500267 0.775022 0 0.00279808 -0.0248413
42 1 0.229569 0.167318 0.842898 0 -0.0741024 0.0880642
43 1 0.14134 0.6664 0.775022 0 -0.00279808 -0.0248508
44 1 0.158374 0.0480109 0.986528 0 0.130383 -0.0576706
45 1 0.0700011 0.52133 0.918309 0 -0.000980377 -0.0373497
46 1 0.606074 0.666775 0.347047 0 0.00548935 0.049572
47 1 0.534448 0.500009 0.489536 0 -0.00185394 0.00810242
48 1 0.284448 0.66666 0.489536 0 0.00183105 0.00810432
49 1 0.212928 0.49996 0.632417 0 -0.000858307 -0.0068264
50 1 0.962929 0.666708 0.632417 0 0.000846863 -0.00681877
51 1 0.891341 0.500267 0.775022 0 0.00279236 -0.0248528
52 1 0.908372 0.118658 0.986527 0 -0.130375 -0.0576515
53 1 0.82 0.645338 0.918308 0 0.000984192 -0.0373535
54 1 0.64134 0.666399 0.775022 0 -0.00279808 -0.0248508
55 1 0.570001 0.52133 0.918309 0 -0.000982285 -0.0373535
56 1 0.32 0.645337 0.918308 0 0.000989914 -0.037344
ITEM: TIMESTEP
4
ITEM: NUMBER OF ATOMS
56
ITEM: BOX BOUNDS xy xz yz pp pp pp
-3.5375323295593262e+00 1.2203788340091705e+01 0.0000000000000000e+00
-8.4733366966247559e-03 5.5348814725875854e+00 -3.5188438296318054e+00
-2.9168844223022461e-02 1.9049128890037537e+01 0.0000000000000000e+00
ITEM: ATOMS id type xs ys zs fx fy fz
1 1 0.588289 0.0268719 0.132748 0 0.00892448 0.0258121
2 1 0.33829 0.139795 0.132748 0 -0.00891304 0.0258026
3 1 0.266926 0.00049455 0.275948 0 0.011631 0.0169621
4 1 0.0169254 0.166173 0.275948 0 -0.0116367 0.0169621
5 1 0.94522 -0.000110071 0.418148 0 -0.00134468 0.0148029
6 1 0.08829 0.0268712 0.132748 0 0.00892258 0.0258141
7 1 0.999756 0.559975 0.0639681 0 -0.0445881 -0.0584087
8 1 0.838291 0.139796 0.132748 0 -0.00891876 0.0258007
9 1 0.749757 0.606692 0.0639685 0 0.0445938 -0.0584183
10 1 0.766927 0.000494349 0.275948 0 0.0116348 0.0169601
11 1 0.695219 0.166778 0.418148 0 0.00134087 0.0147991
12 1 0.623623 -0.000111946 0.560762 0 -0.00378609 -0.014246
13 1 0.373624 0.166779 0.560762 0 0.00378227 -0.0142498
14 1 0.301749 -0.000489233 0.702387 0 0.00338936 -0.00148582
15 1 0.0517496 0.167156 0.702387 0 -0.00339699 -0.00148964
16 1 0.979745 0.00381243 0.843505 0 0.0474606 0.0262833
17 1 0.678372 0.503812 0.206948 0 0.0474529 -0.0262909
18 1 0.516926 0.166172 0.275948 0 -0.0116329 0.0169506
19 1 0.428373 0.662855 0.206948 0 -0.0474644 -0.0262852
20 1 0.445221 -0.000110568 0.418147 0 -0.00134468 0.0148048
21 1 0.356367 0.499511 0.348066 0 0.0034008 0.00149345
22 1 0.19522 0.166778 0.418148 0 0.00134659 0.0148029
23 1 0.106367 0.667157 0.348066 0 -0.00338936 0.00148201
24 1 0.123623 -0.000112107 0.560762 0 -0.00378036 -0.0142632
25 1 0.0344927 0.499888 0.48969 0 -0.00378036 0.0142651
26 1 0.873625 0.166779 0.560763 0 0.00377846 -0.0142517
27 1 0.784494 0.666779 0.489691 0 0.00379181 0.0142441
28 1 0.499755 0.559977 0.0639682 0 -0.044611 -0.0584145
29 1 0.249756 0.606691 0.0639683 0 0.0445995 -0.0584106
30 1 0.178373 0.503812 0.206948 0 0.0474567 -0.0262909
31 1 0.928373 0.662854 0.206948 0 -0.0474567 -0.0262928
32 1 0.856368 0.499511 0.348066 0 0.00338936 0.00149155
33 1 0.729743 0.162855 0.843505 0 -0.0474606 0.0262871
34 1 0.658362 0.0599751 0.986485 0 -0.0445881 0.0584087
35 1 0.408361 0.10669 0.986484 0 0.0446186 0.0584259
36 1 0.801748 -0.000489727 0.702387 0 0.00338745 -0.00149155
37 1 0.712895 0.499889 0.632305 0 -0.00133896 -0.0147991
38 1 0.55175 0.167156 0.702387 0 -0.00339699 -0.00148964
39 1 0.462896 0.666778 0.632305 0 0.00134468 -0.0148048
40 1 0.479744 0.00381205 0.843505 0 0.0474567 0.0262947
41 1 0.391191 0.500494 0.774505 0 0.0116444 -0.0169678
42 1 0.229744 0.162855 0.843505 0 -0.0474567 0.0263062
43 1 0.141191 0.666172 0.774505 0 -0.011631 -0.0169563
44 1 0.158362 0.0599761 0.986485 0 -0.0446014 0.0584068
45 1 0.0698273 0.526872 0.917705 0 0.00891876 -0.0258121
46 1 0.606367 0.667156 0.348066 0 -0.00339699 0.00149155
47 1 0.534493 0.499888 0.48969 0 -0.00377846 0.0142517
48 1 0.284493 0.66678 0.489691 0 0.00377846 0.0142441
49 1 0.212896 0.499889 0.632305 0 -0.0013485 -0.0147972
50 1 0.962897 0.666778 0.632305 0 0.00134087 -0.0148029
51 1 0.891192 0.500494 0.774505 0 0.0116329 -0.016964
52 1 0.908359 0.106693 0.986484 0 0.04459 0.0584183
53 1 0.819826 0.639796 0.917705 0 -0.00891876 -0.0258064
54 1 0.641191 0.666172 0.774505 0 -0.011631 -0.0169563
55 1 0.569827 0.526872 0.917705 0 0.00891495 -0.0258083
56 1 0.319827 0.639796 0.917705 0 -0.00893211 -0.0258141
ITEM: TIMESTEP
5
ITEM: NUMBER OF ATOMS
56
ITEM: BOX BOUNDS xy xz yz pp pp pp
-3.5375323295593262e+00 1.2203788340091705e+01 0.0000000000000000e+00
-8.4733366966247559e-03 5.5348814725875854e+00 -3.5188438296318054e+00
-2.9168844223022461e-02 1.9049128890037537e+01 0.0000000000000000e+00
ITEM: ATOMS id type xs ys zs fx fy fz
1 1 0.588564 0.0301574 0.133703 0 -0.0212593 0.00842094
2 1 0.338565 0.13651 0.133703 0 0.0212708 0.0084343
3 1 0.267122 0.00166047 0.27663 0 0.016161 0.00632286
4 1 0.0171217 0.165006 0.27663 0 -0.0161591 0.00630951
5 1 0.945348 -0.000264714 0.418591 0 -0.00247383 0.00627708
6 1 0.0885651 0.0301567 0.133703 0 -0.0212631 0.0084343
7 1 0.999314 0.561223 0.0624335 0 -0.000764847 -0.00819016
8 1 0.838566 0.13651 0.133703 0 0.0212669 0.00843811
9 1 0.749315 0.605445 0.0624336 0 0.00075531 -0.00818253
10 1 0.767123 0.00166057 0.27663 0 0.0161552 0.00631523
11 1 0.695347 0.166933 0.418591 0 0.00248146 0.00628281
12 1 0.623494 -0.000511853 0.560314 0 -0.00130844 0.00541115
13 1 0.373495 0.167179 0.560314 0 0.00131798 0.00541115
14 1 0.301607 -0.000348839 0.701894 0 0.00847626 0.0199566
15 1 0.0516076 0.167015 0.701894 0 -0.00847054 0.0199604
16 1 0.980024 0.0101456 0.844474 0 -0.000196457 -0.00728416
17 1 0.678093 0.510145 0.205978 0 -0.000181198 0.00728989
18 1 0.517122 0.165006 0.27663 0 -0.0161648 0.00632095
19 1 0.428094 0.656522 0.205979 0 0.000188828 0.00728226
20 1 0.445348 -0.000264931 0.418591 0 -0.00247765 0.0062809
21 1 0.356509 0.499652 0.348559 0 0.00845909 -0.019968
22 1 0.195348 0.166933 0.418591 0 0.00247192 0.00627518
23 1 0.106509 0.667016 0.348559 0 -0.00847244 -0.0199509
24 1 0.123494 -0.000511455 0.560314 0 -0.00131607 0.00543404
25 1 0.0346218 0.499489 0.490139 0 -0.00131226 -0.00542831
26 1 0.873496 0.167179 0.560315 0 0.00130272 0.00540924
27 1 0.784623 0.667179 0.490139 0 0.00130844 -0.00540924
28 1 0.499314 0.561223 0.0624335 0 -0.000753403 -0.00818253
29 1 0.249314 0.605444 0.0624337 0 0.000757217 -0.00819397
30 1 0.178094 0.510145 0.205978 0 -0.000190735 0.00729179
31 1 0.928094 0.656522 0.205978 0 0.000185013 0.00729561
32 1 0.85651 0.499652 0.348559 0 0.00846672 -0.0199604
33 1 0.730023 0.156522 0.844474 0 0.000190735 -0.00728798
34 1 0.658803 0.0612228 0.988019 0 -0.000759125 0.00819778
35 1 0.408803 0.105445 0.988019 0 0.000743866 0.00818634
36 1 0.801606 -0.000349327 0.701894 0 0.00847816 0.0199604
37 1 0.712767 0.499734 0.631862 0 -0.00247383 -0.00627518
38 1 0.551608 0.167015 0.701894 0 -0.00847244 0.0199604
39 1 0.462769 0.666933 0.631862 0 0.00247192 -0.00628281
40 1 0.480023 0.0101447 0.844474 0 -0.000185013 -0.0072937
41 1 0.390995 0.501661 0.773823 0 0.0161514 -0.00632095
42 1 0.230023 0.156522 0.844475 0 0.000179291 -0.00729942
43 1 0.140995 0.665006 0.773823 0 -0.0161572 -0.00632095
44 1 0.158803 0.0612229 0.988019 0 -0.000759125 0.00820351
45 1 0.0695523 0.530157 0.91675 0 -0.0212593 -0.0084343
46 1 0.606509 0.667015 0.348559 0 -0.00845718 -0.0199604
47 1 0.534622 0.499489 0.490138 0 -0.00131035 -0.00541306
48 1 0.284622 0.667179 0.490138 0 0.00131798 -0.00541115
49 1 0.212769 0.499734 0.631862 0 -0.00247765 -0.00628281
50 1 0.96277 0.666932 0.631862 0 0.00248528 -0.00629234
51 1 0.890996 0.50166 0.773823 0 0.0161648 -0.00630951
52 1 0.908801 0.105445 0.988019 0 0.000751495 0.00818253
53 1 0.819551 0.636511 0.916749 0 0.0212669 -0.0084362
54 1 0.640995 0.665006 0.773823 0 -0.0161591 -0.00632095
55 1 0.569552 0.530157 0.91675 0 -0.0212708 -0.0084343
56 1 0.319552 0.63651 0.916749 0 0.0212784 -0.00841904
ITEM: TIMESTEP
6
ITEM: NUMBER OF ATOMS
56
ITEM: BOX BOUNDS xy xz yz pp pp pp
-3.5375323295593262e+00 1.2203788340091705e+01 0.0000000000000000e+00
-8.4733366966247559e-03 5.5348814725875854e+00 -3.5188438296318054e+00
-2.9168844223022461e-02 1.9049128890037537e+01 0.0000000000000000e+00
ITEM: ATOMS id type xs ys zs fx fy fz
1 1 0.588654 0.0284388 0.134016 0 -0.00432968 0.00621605
2 1 0.338655 0.138229 0.134016 0 0.00432396 0.00620842
3 1 0.267189 0.00328229 0.276861 0 0.000457764 0.0014019
4 1 0.0171882 0.163384 0.276861 0 -0.000459671 0.00141144
5 1 0.945409 -0.000510922 0.418801 0 0.00159264 0.000366211
6 1 0.0886552 0.0284378 0.134016 0 -0.00434113 0.00621033
7 1 0.999211 0.561259 0.0620773 0 0.00115395 0.00431824
8 1 0.838656 0.13823 0.134016 0 0.00433159 0.00619507
9 1 0.749213 0.605409 0.0620777 0 -0.00115585 0.00431824
10 1 0.76719 0.00328188 0.276861 0 0.000469208 0.00140381
11 1 0.695408 0.167179 0.418801 0 -0.00161743 0.000364304
12 1 0.623525 -0.000669463 0.560424 0 0.000524521 0.00939941
13 1 0.373526 0.167338 0.560424 0 -0.000534058 0.00939369
14 1 0.301752 0.000461229 0.702397 0 0.00200272 -0.00437164
15 1 0.0517525 0.166205 0.702397 0 -0.00198936 -0.00437355
16 1 0.979991 0.0106724 0.844359 0 -0.00698662 0.0112553
17 1 0.678126 0.510673 0.206094 0 -0.00700188 -0.0112591
18 1 0.517188 0.163384 0.276861 0 -0.000455856 0.00140381
19 1 0.428127 0.655994 0.206094 0 0.00700569 -0.011261
20 1 0.445409 -0.000511475 0.418801 0 0.00161934 0.000368118
21 1 0.356364 0.500461 0.348056 0 0.00200653 0.00438118
22 1 0.195408 0.167179 0.418801 0 -0.00161362 0.000368118
23 1 0.106364 0.666206 0.348056 0 -0.00200462 0.00436974
24 1 0.123526 -0.000669735 0.560424 0 0.000530243 0.00938988
25 1 0.0345902 0.499331 0.490029 0 0.000526428 -0.00938988
26 1 0.873527 0.167336 0.560424 0 -0.000507355 0.00939369
27 1 0.784592 0.667337 0.490029 0 -0.000537872 -0.0093956
28 1 0.499211 0.561259 0.0620776 0 0.00115013 0.00431061
29 1 0.249211 0.605408 0.0620774 0 -0.00115013 0.0043335
30 1 0.178127 0.510672 0.206094 0 -0.00699234 -0.0112667
31 1 0.928127 0.655994 0.206094 0 0.00699806 -0.0112667
32 1 0.856365 0.500461 0.348056 0 0.00200653 0.00437546
33 1 0.729989 0.155994 0.844358 0 0.00700378 0.0112629
34 1 0.658906 0.0612588 0.988376 0 0.00115585 -0.00432777
35 1 0.408906 0.105408 0.988375 0 -0.00113869 -0.00431252
36 1 0.801751 0.000460922 0.702397 0 0.00200081 -0.00437927
37 1 0.712707 0.499488 0.631652 0 0.00161171 -0.000371933
38 1 0.551753 0.166206 0.702397 0 -0.00199318 -0.00437355
39 1 0.462708 0.667179 0.631652 0 -0.00162315 -0.000360489
40 1 0.47999 0.0106725 0.844358 0 -0.00700951 0.0112629
41 1 0.390928 0.503282 0.773591 0 0.000469208 -0.00140762
42 1 0.229989 0.155994 0.844358 0 0.00700951 0.0112648
43 1 0.140928 0.663385 0.773591 0 -0.0004673 -0.00139809
44 1 0.158906 0.0612588 0.988376 0 0.00116348 -0.0043335
45 1 0.0694622 0.528438 0.916437 0 -0.00434303 -0.00620651
46 1 0.606364 0.666207 0.348056 0 -0.00201035 0.00437546
47 1 0.53459 0.499331 0.490029 0 0.000526428 -0.00940132
48 1 0.28459 0.667337 0.490029 0 -0.000526428 -0.00939751
49 1 0.212708 0.499488 0.631652 0 0.00160789 -0.000368118
50 1 0.962709 0.667179 0.631652 0 -0.00161552 -0.000358582
51 1 0.890929 0.503282 0.773592 0 0.000457764 -0.00140762
52 1 0.908904 0.105409 0.988375 0 -0.00114822 -0.00431633
53 1 0.819461 0.63823 0.916436 0 0.00431824 -0.00619698
54 1 0.640928 0.663384 0.773591 0 -0.000465393 -0.00139999
55 1 0.569462 0.528437 0.916437 0 -0.00432205 -0.00621033
56 1 0.319462 0.63823 0.916437 0 0.00431633 -0.00621033
ITEM: TIMESTEP
7
ITEM: NUMBER OF ATOMS
56
ITEM: BOX BOUNDS xy xz yz pp pp pp
-3.5375323295593262e+00 1.2203788340091705e+01 0.0000000000000000e+00
-8.4733366966247559e-03 5.5348814725875854e+00 -3.5188438296318054e+00
-2.9168844223022461e-02 1.9049128890037537e+01 0.0000000000000000e+00
ITEM: ATOMS id type xs ys zs fx fy fz
1 1 0.588702 0.02789 0.134181 0 -0.000720978 -0.00126648
2 1 0.338703 0.138778 0.134181 0 0.000709534 -0.00126839
3 1 0.267207 0.0035683 0.276924 0 -0.00469971 0.000917435
4 1 0.0172063 0.163098 0.276924 0 0.00470161 0.000923157
5 1 0.94542 -0.000448113 0.418841 0 0.0023613 0.00169182
6 1 0.0887027 0.0278882 0.134181 0 -0.000709534 -0.0012722
7 1 0.999218 0.561338 0.0621011 0 -0.00286865 -0.00452423
8 1 0.838704 0.138779 0.134181 0 0.000707626 -0.00126839
9 1 0.74922 0.605329 0.0621015 0 0.00286484 -0.00453949
10 1 0.767208 0.00356854 0.276924 0 -0.00469971 0.000925064
11 1 0.695419 0.167115 0.418841 0 -0.00235748 0.0016861
12 1 0.623581 -0.000660893 0.560616 0 0.00025177 0.000436783
13 1 0.373581 0.167329 0.560616 0 -0.000255585 0.000442505
14 1 0.301752 0.000717467 0.702396 0 -2.67029e-05 0.00159264
15 1 0.0517521 0.16595 0.702396 0 1.52588e-05 0.00159836
16 1 0.980046 0.0103092 0.844549 0 -0.00259399 0.000699997
17 1 0.678071 0.510309 0.205904 0 -0.00258827 -0.000699997
18 1 0.517207 0.163098 0.276924 0 0.00470924 0.000917435
19 1 0.428072 0.656358 0.205903 0 0.00258255 -0.000692368
20 1 0.44542 -0.000447013 0.418841 0 0.00235367 0.001688
21 1 0.356365 0.500717 0.348057 0 -1.71661e-05 -0.00159264
22 1 0.19542 0.167115 0.418841 0 -0.00235558 0.0016861
23 1 0.106365 0.66595 0.348057 0 1.33514e-05 -0.00159645
24 1 0.123581 -0.000660905 0.560616 0 0.000247955 0.000432968
25 1 0.0345349 0.499339 0.489837 0 0.000249863 -0.000431061
26 1 0.873582 0.167328 0.560616 0 -0.000257492 0.000436783
27 1 0.784536 0.667328 0.489837 0 -0.000234604 -0.000442505
28 1 0.499218 0.561339 0.0621013 0 -0.00285149 -0.00452995
29 1 0.249218 0.605328 0.0621015 0 0.00287247 -0.00454521
30 1 0.178072 0.510309 0.205904 0 -0.00258636 -0.00069046
31 1 0.928072 0.656358 0.205904 0 0.00258636 -0.000696182
32 1 0.856366 0.500718 0.348057 0 -2.28882e-05 -0.00159454
33 1 0.730044 0.156358 0.844549 0 0.00258255 0.00069809
34 1 0.658899 0.0613383 0.988352 0 -0.00286865 0.00452232
35 1 0.408899 0.105329 0.988352 0 0.00286102 0.00453186
36 1 0.801751 0.000717066 0.702396 0 -1.14441e-05 0.00159264
37 1 0.712695 0.499552 0.631612 0 0.00235939 -0.00168991
38 1 0.551752 0.16595 0.702396 0 5.72205e-06 0.00158882
39 1 0.462697 0.667114 0.631612 0 -0.00234604 -0.001688
40 1 0.480045 0.010308 0.844549 0 -0.00258827 0.000688553
41 1 0.39091 0.503569 0.773529 0 -0.00470543 -0.000909805
42 1 0.230044 0.156358 0.844549 0 0.00258255 0.000694275
43 1 0.14091 0.663098 0.773529 0 0.00470734 -0.000921249
44 1 0.158899 0.0613388 0.988352 0 -0.00286865 0.00453377
45 1 0.0694147 0.527889 0.916272 0 -0.000715256 0.00126648
46 1 0.606365 0.66595 0.348057 0 1.14441e-05 -0.00158882
47 1 0.534535 0.49934 0.489837 0 0.000249863 -0.000427246
48 1 0.284535 0.667329 0.489837 0 -0.000246048 -0.000440598
49 1 0.212697 0.499551 0.631612 0 0.00237083 -0.00169373
50 1 0.962698 0.667115 0.631612 0 -0.0023632 -0.00168228
51 1 0.890911 0.503568 0.773529 0 -0.00469208 -0.000930786
52 1 0.908897 0.10533 0.988351 0 0.00286484 0.00453568
53 1 0.819413 0.638778 0.916272 0 0.000713348 0.00127411
54 1 0.64091 0.663098 0.773529 0 0.00470924 -0.000917435
55 1 0.569414 0.527888 0.916272 0 -0.000711441 0.00126839
56 1 0.319414 0.638778 0.916272 0 0.000717163 0.00127029
ITEM: TIMESTEP
8
ITEM: NUMBER OF ATOMS
56
ITEM: BOX BOUNDS xy xz yz pp pp pp
-3.5375323295593262e+00 1.2203788340091705e+01 0.0000000000000000e+00
-8.4733366966247559e-03 5.5348814725875854e+00 -3.5188438296318054e+00
-2.9168844223022461e-02 1.9049128890037537e+01 0.0000000000000000e+00
ITEM: ATOMS id type xs ys zs fx fy fz
1 1 0.588705 0.0276925 0.134193 0 -0.00189209 -3.8147e-06
2 1 0.338706 0.138975 0.134192 0 0.00189972 0
3 1 0.267218 0.00325708 0.276962 0 -0.00166702 -0.000543594
4 1 0.0172172 0.16341 0.276962 0 0.00166512 -0.000551224
5 1 0.945435 -0.000239546 0.418891 0 0.000101089 0.000236511
6 1 0.088706 0.0276914 0.134192 0 -0.00189209 -3.8147e-06
7 1 0.999189 0.561124 0.0619999 0 0.00217247 0.00133324
8 1 0.838707 0.138975 0.134192 0 0.001894 0
9 1 0.74919 0.605543 0.0619999 0 -0.00217438 0.0013485
10 1 0.767219 0.00325749 0.276962 0 -0.00167847 -0.000543594
11 1 0.695433 0.166907 0.418891 0 -8.7738e-05 0.000244141
12 1 0.623598 -0.000638181 0.560674 0 0.000631332 -0.00107574
13 1 0.373598 0.167305 0.560675 0 -0.000623703 -0.00107765
14 1 0.301763 0.00078006 0.702433 0 -0.00112724 0.00153542
15 1 0.0517629 0.165886 0.702433 0 0.00112152 0.00153351
16 1 0.980065 0.0100058 0.844614 0 -0.000427246 8.7738e-05
17 1 0.678053 0.510006 0.205839 0 -0.000423431 -8.96454e-05
18 1 0.517217 0.16341 0.276962 0 0.0016613 -0.000541687
19 1 0.428054 0.656661 0.205839 0 0.00043869 -9.34601e-05
20 1 0.445435 -0.00023865 0.418891 0 8.39233e-05 0.000234604
21 1 0.356354 0.500781 0.34802 0 -0.00112534 -0.00153542
22 1 0.195434 0.166907 0.418891 0 -8.7738e-05 0.000246048
23 1 0.106354 0.665886 0.34802 0 0.00113297 -0.00152779
24 1 0.123598 -0.000638439 0.560674 0 0.00063324 -0.00108337
25 1 0.034518 0.499362 0.489778 0 0.000629425 0.00107002
26 1 0.873599 0.167305 0.560675 0 -0.000623703 -0.00107193
27 1 0.784519 0.667306 0.489778 0 -0.000638962 0.00107765