ITEM: TIMESTEP
0
ITEM: NUMBER OF ATOMS
56
ITEM: BOX BOUNDS xy xz yz pp pp pp
-2.0120587944984436e+00 1.2203788340091705e+01 0.0000000000000000e+00
-8.4733366966247559e-03 5.5348814725875854e+00 -1.9933702945709229e+00
-2.9168844223022461e-02 1.9049128890037537e+01 0.0000000000000000e+00
ITEM: ATOMS id type xs ys zs fx fy fz
1 1 0.571659 4.41887e-05 0.132366 0 0.0197468 0.726482
2 1 0.32166 0.166624 0.132366 0 -0.0197849 0.726515
3 1 0.232367 2.39879e-05 0.275225 0 0.000295639 -0.00346184
4 1 0.982367 0.166644 0.275225 0 -0.000312805 -0.00345612
5 1 0.893021 1.9421e-05 0.418082 0 5.72205e-05 -6.67572e-05
6 1 0.0716597 4.41295e-05 0.132366 0 0.0197582 0.726498
7 1 0.991278 0.500074 0.0609403 0 -0.0292377 0.724356
8 1 0.821661 0.166623 0.132366 0 -0.0197697 0.726515
9 1 0.741279 0.666593 0.0609403 0 0.0292511 0.724396
10 1 0.732368 2.39872e-05 0.275225 0 0.000297546 -0.00345421
11 1 0.64302 0.166647 0.418082 0 -5.34058e-05 -7.24792e-05
12 1 0.553664 2.47556e-05 0.560942 0 -3.8147e-06 3.05176e-05
13 1 0.303665 0.166643 0.560942 0 -5.72205e-06 2.86102e-05
14 1 0.214316 2.39811e-05 0.703801 0 -0.000255585 0.00130081
15 1 0.964316 0.166644 0.703801 0 0.000219345 0.00129509
16 1 0.874981 2.63435e-05 0.846651 0 0.00632286 -0.00444984
17 1 0.65203 0.500026 0.203802 0 0.00634575 0.00445747
18 1 0.482367 0.166645 0.275225 0 -0.000335693 -0.00345421
19 1 0.402031 0.66664 0.203802 0 -0.00631332 0.00447273
20 1 0.393021 2.01694e-05 0.418082 0 4.00543e-05 -6.67572e-05
21 1 0.312695 0.500023 0.346651 0 -0.000225067 -0.00128174
22 1 0.143021 0.166648 0.418082 0 -5.72205e-05 -6.86646e-05
23 1 0.062695 0.666642 0.346651 0 0.000267029 -0.00130081
24 1 0.0536645 2.49573e-05 0.560941 0 -7.62939e-06 3.8147e-05
25 1 0.973346 0.500025 0.489511 0 0 -4.3869e-05
26 1 0.803666 0.166643 0.560941 0 -5.72205e-06 4.3869e-05
27 1 0.723347 0.666642 0.489511 0 5.72205e-06 -2.09808e-05
28 1 0.491278 0.500073 0.0609404 0 -0.0292072 0.724352
29 1 0.241278 0.666593 0.0609403 0 0.0292511 0.724363
30 1 0.152031 0.500026 0.203802 0 0.00633621 0.00445938
31 1 0.902031 0.666641 0.203802 0 -0.00634193 0.0044632
32 1 0.812696 0.500024 0.346651 0 -0.000253677 -0.00130081
33 1 0.62498 0.166641 0.846652 0 -0.00632095 -0.00448608
34 1 0.535733 7.47473e-05 0.989512 0 -0.0292606 -0.724337
35 1 0.285733 0.166594 0.989513 0 0.0292244 -0.724377
36 1 0.714315 2.44315e-05 0.703801 0 -0.000259399 0.00129318
37 1 0.633988 0.50002 0.632371 0 5.34058e-05 5.34058e-05
38 1 0.464316 0.166643 0.703801 0 0.000236511 0.00130272
39 1 0.38399 0.666647 0.632371 0 -4.76837e-05 6.86646e-05
40 1 0.37498 2.63314e-05 0.846651 0 0.0063324 -0.00446892
41 1 0.294644 0.500023 0.775228 0 0.000307083 0.00345993
42 1 0.12498 0.166641 0.846651 0 -0.00632668 -0.00446701
43 1 0.0446438 0.666644 0.775228 0 -0.000305176 0.00344086
44 1 0.0357334 7.37033e-05 0.989512 0 -0.0292282 -0.72435
45 1 0.955352 0.500043 0.918087 0 0.0197716 -0.726477
46 1 0.562695 0.666643 0.346651 0 0.000265121 -0.00129509
47 1 0.473346 0.500025 0.489511 0 3.8147e-06 -4.00543e-05
48 1 0.223346 0.666642 0.489511 0 9.53674e-06 -4.00543e-05
49 1 0.13399 0.500019 0.632371 0 6.48499e-05 7.43866e-05
50 1 0.883991 0.666647 0.63237 0 -3.62396e-05 8.96454e-05
51 1 0.794645 0.500022 0.775228 0 0.000329971 0.00345421
52 1 0.785731 0.166594 0.989513 0 0.0292358 -0.724384
53 1 0.705351 0.666624 0.918087 0 -0.0197735 -0.726532
54 1 0.544644 0.666643 0.775228 0 -0.000312805 0.00345802
55 1 0.455351 0.500044 0.918087 0 0.0197811 -0.726511
56 1 0.205351 0.666624 0.918087 0 -0.0197678 -0.726498
ITEM: TIMESTEP
1
ITEM: NUMBER OF ATOMS
56
ITEM: BOX BOUNDS xy xz yz pp pp pp
-2.0120587944984436e+00 1.2203788340091705e+01 0.0000000000000000e+00
-8.4733366966247559e-03 5.5348814725875854e+00 -1.9933702945709229e+00
-2.9168844223022461e-02 1.9049128890037537e+01 0.0000000000000000e+00
ITEM: ATOMS id type xs ys zs fx fy fz
1 1 0.572514 0.000534497 0.137607 0 0.00238609 0.113258
2 1 0.322515 0.166132 0.137607 0 -0.00239563 0.113249
3 1 0.232363 3.13285e-05 0.2752 0 -0.0185719 0.101446
4 1 0.982363 0.166637 0.2752 0 0.0185642 0.101435
5 1 0.893021 2.08418e-05 0.418081 0 -0.000778198 -0.00120544
6 1 0.0725145 0.000534722 0.137607 0 0.00238037 0.113249
7 1 0.99213 0.499348 0.0661661 0 -0.0573158 0.0839748
8 1 0.822515 0.166132 0.137607 0 -0.00238419 0.113251
9 1 0.742132 0.667319 0.0661664 0 0.0573235 0.0839691
10 1 0.732364 3.13752e-05 0.2752 0 -0.0185661 0.101437
11 1 0.64302 0.166646 0.418082 0 0.000785828 -0.00120735
12 1 0.553664 2.46609e-05 0.560942 0 0.000148773 0.00289917
13 1 0.303665 0.166643 0.560942 0 -0.000154495 0.00290108
14 1 0.214318 1.7635e-05 0.703811 0 -0.00276375 -0.00427628
15 1 0.964318 0.16665 0.703811 0 0.00274467 -0.00428391
16 1 0.874976 0.000183339 0.846619 0 -9.53674e-06 -0.127522
17 1 0.652035 0.500184 0.203834 0 -3.8147e-06 0.127527
18 1 0.482363 0.166636 0.2752 0 0.0185585 0.101444
19 1 0.402036 0.666483 0.203834 0 1.14441e-05 0.127525
20 1 0.393021 2.1164e-05 0.418082 0 -0.000789642 -0.0012188
21 1 0.312693 0.500018 0.346642 0 -0.0027504 0.00428772
22 1 0.143021 0.166647 0.418082 0 0.000774384 -0.00120926
23 1 0.0626935 0.666649 0.346642 0 0.00276947 0.00427818
24 1 0.0536646 2.47678e-05 0.560942 0 0.000148773 0.00290489
25 1 0.973346 0.500025 0.489511 0 0.000146866 -0.0029068
26 1 0.803666 0.166643 0.560942 0 -0.000152588 0.00291443
27 1 0.723347 0.666642 0.489511 0 -0.000143051 -0.00290108
28 1 0.49213 0.499348 0.0661662 0 -0.057312 0.0839729
29 1 0.24213 0.667319 0.0661662 0 0.0573177 0.0839767
30 1 0.152036 0.500184 0.203834 0 -3.8147e-06 0.127523
31 1 0.902036 0.666484 0.203834 0 1.90735e-06 0.127544
32 1 0.812694 0.500018 0.346642 0 -0.00275993 0.00427246
33 1 0.624975 0.166484 0.846619 0 1.90735e-06 -0.127552
34 1 0.534881 -0.000651787 0.984287 0 -0.0573254 -0.0839767
35 1 0.284881 0.167319 0.984287 0 0.057312 -0.0839729
36 1 0.714316 1.79907e-05 0.703811 0 -0.00275993 -0.00426674
37 1 0.633988 0.500021 0.632371 0 -0.000785828 0.00119972
38 1 0.464318 0.166649 0.703811 0 0.0027523 -0.00427437
39 1 0.38399 0.666646 0.632371 0 0.00079155 0.00121307
40 1 0.374975 0.000183563 0.846619 0 -5.72205e-06 -0.127531
41 1 0.294648 0.500031 0.775253 0 -0.0185661 -0.101431
42 1 0.124975 0.166484 0.846619 0 3.8147e-06 -0.127535
43 1 0.0446479 0.666636 0.775253 0 0.0185738 -0.101444
44 1 0.0348812 -0.000652026 0.984287 0 -0.0573101 -0.0839653
45 1 0.954497 0.500534 0.912845 0 0.002388 -0.113237
46 1 0.562693 0.666649 0.346642 0 0.00275803 0.004282
47 1 0.473346 0.500025 0.489511 0 0.000152588 -0.00290871
48 1 0.223346 0.666642 0.489511 0 -0.000137329 -0.00291443
49 1 0.13399 0.500021 0.632371 0 -0.000782013 0.00121117
50 1 0.883991 0.666646 0.632371 0 0.000795364 0.00122833
51 1 0.794649 0.500031 0.775253 0 -0.0185585 -0.101437
52 1 0.784879 0.16732 0.984287 0 0.0573139 -0.0839901
53 1 0.704496 0.666133 0.912846 0 -0.00238419 -0.113264
54 1 0.544648 0.666636 0.775253 0 0.0185642 -0.101442
55 1 0.454496 0.500535 0.912846 0 0.00239182 -0.113247
56 1 0.204497 0.666133 0.912845 0 -0.00239182 -0.113255
ITEM: TIMESTEP
2
ITEM: NUMBER OF ATOMS
56
ITEM: BOX BOUNDS xy xz yz pp pp pp
-2.0120587944984436e+00 1.2203788340091705e+01 0.0000000000000000e+00
-8.4733366966247559e-03 5.5348814725875854e+00 -1.9933702945709229e+00
-2.9168844223022461e-02 1.9049128890037537e+01 0.0000000000000000e+00
ITEM: ATOMS id type xs ys zs fx fy fz
1 1 0.573021 0.000760062 0.140718 0 -0.0280743 -0.0437889
2 1 0.323022 0.165906 0.140718 0 0.0280972 -0.0437832
3 1 0.232817 -0.00172433 0.277987 0 6.67572e-05 0.0490475
4 1 0.982817 0.168391 0.277986 0 -5.91278e-05 0.0490608
5 1 0.893016 -5.2724e-05 0.418048 0 -0.00901604 0.0482883
6 1 0.0730218 0.000759746 0.140718 0 -0.0280724 -0.0437698
7 1 0.992506 0.49393 0.0684727 0 -0.0162067 -0.0659142
8 1 0.823023 0.165907 0.140718 0 0.0280838 -0.0438023
9 1 0.742508 0.672738 0.0684729 0 0.0162067 -0.0659313
10 1 0.732818 -0.00172375 0.277986 0 5.34058e-05 0.0490761
11 1 0.643015 0.16672 0.418048 0 0.00901604 0.0482845
12 1 0.553677 3.87249e-05 0.561021 0 -0.00245285 -0.00370216
13 1 0.303678 0.166628 0.561022 0 0.00246239 -0.00371742
14 1 0.214298 -0.000243632 0.703693 0 -0.0119324 -0.0748692
15 1 0.964298 0.166909 0.703693 0 0.0119591 -0.0748539
16 1 0.874405 0.000182437 0.843116 0 -0.0108356 -0.020565
17 1 0.652607 0.500183 0.207337 0 -0.0108547 0.0205669
18 1 0.482817 0.168391 0.277986 0 -5.14984e-05 0.049057
19 1 0.402608 0.666484 0.207337 0 0.0108204 0.0205708
20 1 0.393016 -5.34837e-05 0.418048 0 -0.00899696 0.0483055
21 1 0.312713 0.499758 0.34676 0 -0.0119534 0.0748539
22 1 0.143016 0.16672 0.418048 0 0.0090313 0.0482979
23 1 0.0627127 0.666911 0.34676 0 0.0119324 0.0748634
24 1 0.0536776 3.88319e-05 0.561022 0 -0.00244522 -0.00370598
25 1 0.973333 0.500039 0.489431 0 -0.00244522 0.00371361
26 1 0.803679 0.166628 0.561022 0 0.00245857 -0.00370789
27 1 0.723334 0.666629 0.489431 0 0.00245476 0.00371933
28 1 0.492506 0.49393 0.0684727 0 -0.0162106 -0.0659218
29 1 0.242507 0.672737 0.0684729 0 0.0161991 -0.065937
30 1 0.152607 0.500183 0.207336 0 -0.010849 0.0205727
31 1 0.902608 0.666484 0.207337 0 0.0108395 0.0205402
32 1 0.812713 0.499757 0.346759 0 -0.0119438 0.0748692
33 1 0.624403 0.166484 0.843116 0 0.0108414 -0.0205479
34 1 0.534505 -0.00607095 0.98198 0 -0.0161953 0.0659218
35 1 0.284505 0.172737 0.98198 0 0.0162125 0.0659218
36 1 0.714297 -0.000242915 0.703693 0 -0.0119514 -0.0748692
37 1 0.633994 0.499947 0.632404 0 -0.00901413 -0.048296
38 1 0.464299 0.166909 0.703693 0 0.0119438 -0.0748692
39 1 0.383995 0.666721 0.632405 0 0.00898933 -0.0482979
40 1 0.374404 0.000183022 0.843116 0 -0.0108376 -0.0205612
41 1 0.294194 0.498276 0.772467 0 5.91278e-05 -0.0490723
42 1 0.124403 0.166484 0.843116 0 0.0108433 -0.0205708
43 1 0.0441934 0.668392 0.772466 0 -7.82013e-05 -0.0490341
44 1 0.034505 -0.00606975 0.98198 0 -0.0162048 0.0659199
45 1 0.95399 0.50076 0.909735 0 -0.0280781 0.0437775
46 1 0.562712 0.66691 0.34676 0 0.0119495 0.0748577
47 1 0.473333 0.500039 0.489431 0 -0.00244904 0.0037117
48 1 0.223333 0.666629 0.489431 0 0.00244141 0.00372124
49 1 0.133995 0.499947 0.632404 0 -0.00901794 -0.0482941
50 1 0.883996 0.666721 0.632405 0 0.00899315 -0.0483074
51 1 0.794195 0.498276 0.772467 0 4.95911e-05 -0.0490685
52 1 0.784503 0.172738 0.98198 0 0.0162182 0.0659447
53 1 0.703988 0.665907 0.909735 0 0.0280781 0.0437794
54 1 0.544193 0.668391 0.772467 0 -5.91278e-05 -0.0490589
55 1 0.453989 0.500761 0.909735 0 -0.028101 0.0437851
56 1 0.203989 0.665907 0.909735 0 0.0280857 0.0437889
ITEM: TIMESTEP
3
ITEM: NUMBER OF ATOMS
56
ITEM: BOX BOUNDS xy xz yz pp pp pp
-2.0120587944984436e+00 1.2203788340091705e+01 0.0000000000000000e+00
-8.4733366966247559e-03 5.5348814725875854e+00 -1.9933702945709229e+00
-2.9168844223022461e-02 1.9049128890037537e+01 0.0000000000000000e+00
ITEM: ATOMS id type xs ys zs fx fy fz
1 1 0.573029 -0.00158348 0.140765 0 -0.00809097 0.0344868
2 1 0.32303 0.168251 0.140764 0 0.00806236 0.0344906
3 1 0.233186 -0.00236534 0.280245 0 0.00669098 -0.02495
4 1 0.983185 0.169033 0.280245 0 -0.00670433 -0.0249577
5 1 0.893212 -0.00085914 0.419249 0 -0.00714111 0.0439987
6 1 0.0730294 -0.00158383 0.140765 0 -0.00807762 0.0344753
7 1 0.992375 0.490533 0.067667 0 0.0122433 0.0192108
8 1 0.82303 0.168252 0.140764 0 0.00806236 0.0345135
9 1 0.742376 0.676135 0.0676667 0 -0.0122356 0.0192089
10 1 0.733187 -0.00236571 0.280245 0 0.0066967 -0.0249786
11 1 0.64321 0.167527 0.419249 0 0.00714684 0.0439854
12 1 0.553667 -0.00016811 0.560958 0 -0.0105629 -0.0192947
13 1 0.303667 0.166835 0.560958 0 0.0105648 -0.0192814
14 1 0.213985 -0.00137127 0.70177 0 -0.00475883 -0.036129
15 1 0.963985 0.168038 0.70177 0 0.00474167 -0.036129
16 1 0.87411 -0.000754491 0.841309 0 -0.0052948 0.0359764
17 1 0.652901 0.499245 0.209144 0 -0.00528336 -0.0359859
18 1 0.483186 0.169033 0.280245 0 -0.00670815 -0.0249615
19 1 0.402902 0.66742 0.209144 0 0.00531578 -0.0359879
20 1 0.393212 -0.00085865 0.419249 0 -0.00715256 0.0439758
21 1 0.313026 0.498629 0.348683 0 -0.00474167 0.036129
22 1 0.143211 0.167527 0.419249 0 0.00713921 0.043972
23 1 0.0630264 0.668039 0.348683 0 0.00475502 0.036129
24 1 0.0536672 -0.000167343 0.560958 0 -0.0105801 -0.0192909
25 1 0.973343 0.499832 0.489495 0 -0.0105667 0.0192909
26 1 0.803668 0.166836 0.560958 0 0.0105667 -0.0192947
27 1 0.723344 0.666836 0.489495 0 0.0105648 0.0192776
28 1 0.492375 0.490533 0.0676668 0 0.0122395 0.0192184
29 1 0.242375 0.676134 0.0676666 0 -0.0122337 0.0192318
30 1 0.152902 0.499245 0.209144 0 -0.0052948 -0.0359802
31 1 0.902902 0.667421 0.209144 0 0.00531006 -0.0359802
32 1 0.813027 0.498629 0.348683 0 -0.00474739 0.0361328
33 1 0.624108 0.167421 0.841309 0 0.00531197 0.0359821
34 1 0.534636 -0.00946721 0.982786 0 0.012228 -0.0192032
35 1 0.284636 0.176134 0.982786 0 -0.012249 -0.0192261
36 1 0.713984 -0.00137207 0.70177 0 -0.00474739 -0.0361385
37 1 0.633798 0.49914 0.631204 0 -0.00714493 -0.0439625
38 1 0.463985 0.168038 0.70177 0 0.00475883 -0.0361328
39 1 0.3838 0.667526 0.631204 0 0.00714493 -0.0439796
40 1 0.374109 -0.000753937 0.841309 0 -0.00531578 0.0359802
41 1 0.293825 0.497634 0.770208 0 0.00669861 0.0249672
42 1 0.124109 0.167421 0.841309 0 0.00529099 0.0360012
43 1 0.0438252 0.669032 0.770208 0 -0.00669289 0.0249386
44 1 0.0346365 -0.00946629 0.982786 0 0.0122433 -0.0192051
45 1 0.953982 0.498416 0.909689 0 -0.00807381 -0.034481
46 1 0.563026 0.668039 0.348683 0 0.00474358 0.0361328
47 1 0.473343 0.499833 0.489495 0 -0.0105686 0.0192833
48 1 0.223343 0.666835 0.489495 0 0.0105743 0.0192795
49 1 0.133799 0.49914 0.631204 0 -0.00713158 -0.0439739
50 1 0.8838 0.667526 0.631204 0 0.00715256 -0.0439777
51 1 0.793826 0.497634 0.770208 0 0.00669098 0.0249596
52 1 0.784634 0.176135 0.982786 0 -0.0122356 -0.0192337
53 1 0.703981 0.668251 0.909688 0 0.00807381 -0.0344772
54 1 0.543825 0.669032 0.770208 0 -0.00670433 0.0249596
55 1 0.453982 0.498415 0.909689 0 -0.00805664 -0.0345001
56 1 0.203982 0.668251 0.909688 0 0.00808334 -0.0344944
ITEM: TIMESTEP
4
ITEM: NUMBER OF ATOMS
56
ITEM: BOX BOUNDS xy xz yz pp pp pp
-2.0120587944984436e+00 1.2203788340091705e+01 0.0000000000000000e+00
-8.4733366966247559e-03 5.5348814725875854e+00 -1.9933702945709229e+00
-2.9168844223022461e-02 1.9049128890037537e+01 0.0000000000000000e+00
ITEM: ATOMS id type xs ys zs fx fy fz
1 1 0.573124 -0.00265264 0.141351 0 0.00392151 0.0018959
2 1 0.323125 0.169319 0.141351 0 -0.00392342 0.001894
3 1 0.233213 -0.00214679 0.280412 0 -0.00131798 0.0026989
4 1 0.983213 0.168814 0.280412 0 0.00132561 0.00271034
5 1 0.893382 -0.00147708 0.420292 0 -0.00332832 0.00137901
6 1 0.0731251 -0.00265223 0.141352 0 0.0039196 0.00190735
7 1 0.992393 0.490359 0.0677794 0 0.00681686 0.000822067
8 1 0.823126 0.169319 0.141351 0 -0.00391579 0.00190544
9 1 0.742395 0.67631 0.0677789 0 -0.00681877 0.000837326
10 1 0.733214 -0.00214708 0.280412 0 -0.00131226 0.0026989
11 1 0.643381 0.168145 0.420292 0 0.00332642 0.00139046
12 1 0.553611 -0.000827669 0.56062 0 -0.0101871 -0.00883484
13 1 0.303612 0.167495 0.56062 0 0.0101776 -0.0088253
14 1 0.213805 -0.0019354 0.700671 0 0.000646591 0.00530243
15 1 0.963806 0.168602 0.700671 0 -0.000659943 0.00529289
16 1 0.874132 -0.00130015 0.841443 0 0.00302696 0.00201035
17 1 0.652879 0.498699 0.20901 0 0.00302505 -0.00201035
18 1 0.483213 0.168813 0.280412 0 0.00131226 0.00269127
19 1 0.402881 0.667966 0.20901 0 -0.00302124 -0.00199699
20 1 0.393382 -0.00147692 0.420292 0 -0.00333023 0.00137901
21 1 0.313206 0.498065 0.349782 0 0.000652313 -0.00530243
22 1 0.143382 0.168145 0.420292 0 0.00333023 0.00138092
23 1 0.0632056 0.668603 0.349782 0 -0.000650406 -0.00530434
24 1 0.0536121 -0.000827717 0.56062 0 -0.0101757 -0.00883293
25 1 0.973398 0.499173 0.489833 0 -0.0101891 0.0088253
26 1 0.803613 0.167495 0.56062 0 0.0101852 -0.0088253
27 1 0.7234 0.667495 0.489833 0 0.0101833 0.00882721
28 1 0.492393 0.490359 0.0677793 0 0.00681496 0.000816345
29 1 0.242393 0.676308 0.0677792 0 -0.00681114 0.000818253
30 1 0.15288 0.498699 0.20901 0 0.00303078 -0.00200462
31 1 0.90288 0.667967 0.20901 0 -0.00304031 -0.00200653
32 1 0.813206 0.498065 0.349782 0 0.000644684 -0.00530243
33 1 0.62413 0.167968 0.841443 0 -0.0030365 0.00200653
34 1 0.534618 -0.009642 0.982674 0 0.00682259 -0.000827789
35 1 0.284618 0.176308 0.982673 0 -0.00681496 -0.000816345
36 1 0.713804 -0.00193593 0.700671 0 0.000652313 0.00529861
37 1 0.633628 0.498522 0.630161 0 -0.00333214 -0.00139046
38 1 0.463806 0.168602 0.700671 0 -0.00066185 0.00530243
39 1 0.383629 0.668143 0.630161 0 0.0033474 -0.00139427
40 1 0.374131 -0.00130081 0.841443 0 0.00303459 0.00200653
41 1 0.293798 0.497853 0.770041 0 -0.00131798 -0.00269318
42 1 0.12413 0.167967 0.841443 0 -0.00302505 0.00201416
43 1 0.0437979 0.668813 0.770041 0 0.00131607 -0.00270653
44 1 0.0346182 -0.00964028 0.982674 0 0.00681686 -0.000825882
45 1 0.953886 0.497348 0.909102 0 0.00392342 -0.00190926
46 1 0.563205 0.668602 0.349782 0 -0.000648499 -0.00529861
47 1 0.473398 0.499173 0.489833 0 -0.0101833 0.00883675
48 1 0.223398 0.667495 0.489833 0 0.0101814 0.00883865
49 1 0.133629 0.498522 0.630161 0 -0.00333595 -0.00139046
50 1 0.88363 0.668144 0.630161 0 0.00333405 -0.00138283
51 1 0.793799 0.497852 0.770041 0 -0.00131035 -0.00268555
52 1 0.784616 0.17631 0.982673 0 -0.00681686 -0.000816345
53 1 0.703885 0.66932 0.909101 0 -0.00392342 -0.00191498
54 1 0.543798 0.668813 0.770041 0 0.00132561 -0.00269508
55 1 0.453886 0.497347 0.909101 0 0.00392151 -0.00190163
56 1 0.203886 0.66932 0.909101 0 -0.00392723 -0.00189209
ITEM: TIMESTEP
5
ITEM: NUMBER OF ATOMS
56
ITEM: BOX BOUNDS xy xz yz pp pp pp
-2.0120587944984436e+00 1.2203788340091705e+01 0.0000000000000000e+00
-8.4733366966247559e-03 5.5348814725875854e+00 -1.9933702945709229e+00
-2.9168844223022461e-02 1.9049128890037537e+01 0.0000000000000000e+00
ITEM: ATOMS id type xs ys zs fx fy fz
1 1 0.573132 -0.00234219 0.141399 0 0.00279617 -0.00101089
2 1 0.323133 0.169008 0.141399 0 -0.0028019 -0.00100708
3 1 0.233223 -0.00225192 0.280476 0 0.00115776 0.00088501
4 1 0.983223 0.168919 0.280476 0 -0.00117111 0.000881195
5 1 0.893388 -0.00174916 0.420331 0 -0.00404167 -0.00222588
6 1 0.073133 -0.00234194 0.1414 0 0.00279045 -0.00102043
7 1 0.992397 0.490908 0.0677993 0 0.00296783 -0.00236702
8 1 0.823134 0.169009 0.141399 0 -0.0028019 -0.00100899
9 1 0.742398 0.675761 0.0677992 0 -0.00296593 -0.00237656
10 1 0.733225 -0.00225175 0.280476 0 0.00114632 0.000879288
11 1 0.643387 0.168417 0.420331 0 0.00403595 -0.00222015
12 1 0.553577 -0.0016535 0.560411 0 -0.00238228 0.00466347
13 1 0.303578 0.16832 0.560411 0 0.002388 0.00466156
14 1 0.213825 -0.0018864 0.700789 0 -0.000478745 -0.00450897
15 1 0.963825 0.168552 0.700789 0 0.000482559 -0.00450325
16 1 0.87414 -0.00105895 0.841491 0 0.000127792 0.000543594
17 1 0.652872 0.49894 0.208962 0 0.000131607 -0.000535965
18 1 0.483223 0.168918 0.280476 0 -0.00115013 0.000894547
19 1 0.402873 0.667726 0.208962 0 -0.000118256 -0.000564575
20 1 0.393388 -0.00174916 0.42033 0 -0.00403214 -0.00221825
21 1 0.313186 0.498115 0.349664 0 -0.000488281 0.00451469
22 1 0.143388 0.168418 0.42033 0 0.00402832 -0.00222015
23 1 0.0631863 0.668553 0.349664 0 0.000488281 0.0045166
24 1 0.053578 -0.00165263 0.560411 0 -0.00239372 0.00466347
25 1 0.973432 0.498347 0.490042 0 -0.00238228 -0.00465965
26 1 0.803579 0.168321 0.560411 0 0.00238419 0.00465202
27 1 0.723434 0.668321 0.490042 0 0.00238609 -0.00465775
28 1 0.492396 0.490908 0.0677991 0 0.00297165 -0.00235939
29 1 0.242397 0.675759 0.067799 0 -0.00296402 -0.00234795
30 1 0.152873 0.498941 0.208962 0 0.00012207 -0.000553131
31 1 0.902873 0.667725 0.208962 0 -0.000108719 -0.00053978
32 1 0.813187 0.498114 0.349664 0 -0.0004673 0.00451088
33 1 0.624138 0.167726 0.84149 0 -0.000120163 0.000547409
34 1 0.534615 -0.00909239 0.982654 0 0.00296021 0.00236511
35 1 0.284614 0.175759 0.982654 0 -0.00296402 0.00236511
36 1 0.713824 -0.00188647 0.700789 0 -0.000480652 -0.00450325
37 1 0.633621 0.49825 0.630122 0 -0.00402451 0.00222206
38 1 0.463825 0.168552 0.700789 0 0.000484467 -0.0045166
39 1 0.383623 0.668417 0.630122 0 0.00402451 0.00222969
40 1 0.374139 -0.001059 0.841491 0 0.000120163 0.000547409
41 1 0.293788 0.497748 0.769977 0 0.00116158 -0.000898361
42 1 0.124138 0.167726 0.841491 0 -0.000125885 0.000541687
43 1 0.0437874 0.668918 0.769977 0 -0.00115395 -0.00088501
44 1 0.0346149 -0.00909113 0.982654 0 0.00296402 0.00237083
45 1 0.953879 0.497659 0.909054 0 0.00279999 0.00101852
46 1 0.563186 0.668553 0.349664 0 0.00047493 0.00451088
47 1 0.473432 0.498347 0.490042 0 -0.00239372 -0.00466156
48 1 0.223433 0.668321 0.490042 0 0.00239182 -0.00466919
49 1 0.133623 0.49825 0.630122 0 -0.00403023 0.00222588
50 1 0.883624 0.668417 0.630123 0 0.00403214 0.00221825
51 1 0.793789 0.497748 0.769977 0 0.00115013 -0.000911713
52 1 0.784613 0.175761 0.982653 0 -0.00296974 0.0023632
53 1 0.703877 0.669009 0.909053 0 -0.00279427 0.00103951
54 1 0.543787 0.668919 0.769977 0 -0.0011692 -0.000896454
55 1 0.453878 0.497658 0.909054 0 0.0028038 0.0010128
56 1 0.203878 0.669009 0.909054 0 -0.00279808 0.00100327
ITEM: TIMESTEP
6
ITEM: NUMBER OF ATOMS
56
ITEM: BOX BOUNDS xy xz yz pp pp pp
-2.0120587944984436e+00 1.2203788340091705e+01 0.0000000000000000e+00
-8.4733366966247559e-03 5.5348814725875854e+00 -1.9933702945709229e+00
-2.9168844223022461e-02 1.9049128890037537e+01 0.0000000000000000e+00
ITEM: ATOMS id type xs ys zs fx fy fz
1 1 0.573131 -0.00202019 0.14139 0 0.000297546 0.000150681
2 1 0.323132 0.168686 0.14139 0 -0.00028038 0.000146866
3 1 0.23323 -0.00219072 0.280517 0 0.000255585 -0.00101471
4 1 0.98323 0.168857 0.280517 0 -0.000236511 -0.00102615
5 1 0.893381 -0.00216007 0.42029 0 -1.33514e-05 0.00157166
6 1 0.0731315 -0.00202044 0.14139 0 0.000295639 0.000148773
7 1 0.992389 0.491317 0.0677498 0 0.000825882 0.000362396
8 1 0.823132 0.168687 0.14139 0 -0.000291824 0.000146866
9 1 0.74239 0.675351 0.0677496 0 -0.000835419 0.000370026
10 1 0.733231 -0.00219132 0.280516 0 0.000267029 -0.00101852
11 1 0.64338 0.168828 0.42029 0 2.47955e-05 0.00156021
12 1 0.553585 -0.00210109 0.560456 0 0.000234604 0.00028801
13 1 0.303585 0.168768 0.560456 0 -0.000232697 0.000282288
14 1 0.213813 -0.00191 0.700719 0 -0.00116539 -0.000324249
15 1 0.963814 0.168576 0.700719 0 0.00116539 -0.000312805
16 1 0.874144 -0.000974167 0.841518 0 0.000673294 -0.00146866
17 1 0.652867 0.499026 0.208935 0 0.000684738 0.00147247
18 1 0.48323 0.168857 0.280517 0 -0.00025177 -0.00102043
19 1 0.402868 0.667642 0.208934 0 -0.00069809 0.00149155
20 1 0.393382 -0.00215935 0.42029 0 -2.86102e-05 0.00157547
21 1 0.313198 0.49809 0.349733 0 -0.00115776 0.000312805
22 1 0.143381 0.168828 0.42029 0 3.8147e-05 0.00157547
23 1 0.0631977 0.668578 0.349733 0 0.0011425 0.000307083
24 1 0.0535853 -0.00210087 0.560456 0 0.000230789 0.000278473
25 1 0.973425 0.497899 0.489997 0 0.000232697 -0.000284195
26 1 0.803587 0.168769 0.560456 0 -0.000238419 0.000286102
27 1 0.723426 0.668769 0.489997 0 -0.000242233 -0.00028038
28 1 0.492388 0.491317 0.0677497 0 0.000825882 0.000354767
29 1 0.242389 0.67535 0.06775 0 -0.000843048 0.00034523
30 1 0.152868 0.499025 0.208934 0 0.000673294 0.00148582
31 1 0.902868 0.667642 0.208935 0 -0.000684738 0.0014782
32 1 0.813198 0.498091 0.349733 0 -0.00117683 0.00031662
33 1 0.624143 0.167641 0.841518 0 -0.000682831 -0.00147629
34 1 0.534623 -0.0086833 0.982703 0 0.000835419 -0.000360489
35 1 0.284623 0.17535 0.982703 0 -0.000837326 -0.000364304
36 1 0.713812 -0.00191008 0.700719 0 -0.00116539 -0.000326157
37 1 0.633628 0.49784 0.630162 0 -2.67029e-05 -0.00156975
38 1 0.463814 0.168575 0.700719 0 0.00117302 -0.000320435
39 1 0.38363 0.668827 0.630163 0 2.47955e-05 -0.00156593
40 1 0.374143 -0.000974647 0.841518 0 0.000686646 -0.0014782
41 1 0.293781 0.497809 0.769936 0 0.000246048 0.00102425
42 1 0.124143 0.167641 0.841518 0 -0.000686646 -0.00147247
43 1 0.0437808 0.668857 0.769936 0 -0.00025177 0.00102615
44 1 0.034623 -0.00868188 0.982704 0 0.000837326 -0.000370026
45 1 0.95388 0.497981 0.909063 0 0.000295639 -0.00015831
46 1 0.563197 0.668577 0.349734 0 0.00116348 0.000320435
47 1 0.473425 0.497899 0.489997 0 0.000238419 -0.000297546
48 1 0.223425 0.668769 0.489997 0 -0.000234604 -0.00028038
49 1 0.13363 0.49784 0.630163 0 -2.09808e-05 -0.00156403
50 1 0.883631 0.668827 0.630163 0 1.90735e-05 -0.00157356
51 1 0.793782 0.497809 0.769936 0 0.000263214 0.00103378
52 1 0.784621 0.175351 0.982703 0 -0.000827789 -0.000362396
53 1 0.703879 0.668687 0.909062 0 -0.00028801 -0.000160217
54 1 0.543781 0.668857 0.769936 0 -0.000253677 0.00102615
55 1 0.453879 0.497981 0.909063 0 0.000286102 -0.000144958
56 1 0.20388 0.668687 0.909062 0 -0.000284195 -0.000143051
ITEM: TIMESTEP
7
ITEM: NUMBER OF ATOMS
56
ITEM: BOX BOUNDS xy xz yz pp pp pp
-2.0120587944984436e+00 1.2203788340091705e+01 0.0000000000000000e+00
-8.4733366966247559e-03 5.5348814725875854e+00 -1.9933702945709229e+00
-2.9168844223022461e-02 1.9049128890037537e+01 0.0000000000000000e+00
ITEM: ATOMS id type xs ys zs fx fy fz
1 1 0.573131 -0.00196717 0.141393 0 7.62939e-06 -0.000436783
2 1 0.323132 0.168634 0.141393 0 -1.52588e-05 -0.000427246
3 1 0.233227 -0.00216446 0.280496 0 -0.000116348 0.000921249
4 1 0.983226 0.168832 0.280496 0 9.72748e-05 0.000923157
5 1 0.893387 -0.00219795 0.420324 0 0.000202179 -3.8147e-05
6 1 0.0731319 -0.00196762 0.141393 0 9.53674e-06 -0.000429153
7 1 0.992389 0.491421 0.0677539 0 0.000230789 0.000482559
8 1 0.823133 0.168634 0.141393 0 -9.53674e-06 -0.000440598
9 1 0.742391 0.675247 0.0677539 0 -0.000225067 0.000480652
10 1 0.733228 -0.0021642 0.280496 0 -0.000112534 0.000921249
11 1 0.643386 0.168866 0.420324 0 -0.00021553 -3.8147e-05
12 1 0.553586 -0.0021221 0.560467 0 0.00022316 -0.000137329
13 1 0.303587 0.168789 0.560467 0 -0.000217438 -0.000120163
14 1 0.213811 -0.00200688 0.700706 0 -0.000160217 -0.000181198
15 1 0.963811 0.168672 0.700706 0 0.000173569 -0.000185013
16 1 0.874139 -0.000911829 0.841486 0 0.000167847 -0.000286102
17 1 0.652872 0.499089 0.208967 0 0.00015831 0.00028038
18 1 0.483227 0.168831 0.280496 0 0.000108719 0.000928879
19 1 0.402874 0.667578 0.208967 0 -0.000152588 0.000261307
20 1 0.393387 -0.0021984 0.420324 0 0.000209808 -4.19617e-05
21 1 0.3132 0.497994 0.349747 0 -0.000169754 0.000190735
22 1 0.143387 0.168867 0.420324 0 -0.000230789 -4.57764e-05
23 1 0.0631999 0.668673 0.349747 0 0.000185013 0.000196457
24 1 0.0535871 -0.00212223 0.560466 0 0.000228882 -0.000116348
25 1 0.973423 0.497878 0.489986 0 0.000230789 0.000125885
26 1 0.803588 0.16879 0.560467 0 -0.000226974 -0.000120163
27 1 0.723425 0.668789 0.489987 0 -0.000217438 0.000114441
28 1 0.492389 0.491421 0.0677537 0 0.000238419 0.000488281
29 1 0.242389 0.675245 0.0677537 0 -0.000226974 0.000490189
30 1 0.152873 0.499088 0.208967 0 0.000169754 0.000268936
31 1 0.902873 0.667578 0.208967 0 -0.00015831 0.000274658
32 1 0.813201 0.497993 0.349747 0 -0.00015831 0.000188828
33 1 0.624137 0.167578 0.841486 0 -0.000160217 -0.000289917
34 1 0.534622 -0.00857874 0.982699 0 0.000226974 -0.000482559
35 1 0.284622 0.175245 0.982699 0 -0.000221252 -0.000478745
36 1 0.71381 -0.00200696 0.700706 0 -0.000167847 -0.000179291
37 1 0.633623 0.497801 0.630129 0 0.000209808 5.34058e-05
38 1 0.463811 0.168673 0.700706 0 0.000162125 -0.000181198
39 1 0.383624 0.668866 0.630129 0 -0.000217438 3.43323e-05
40 1 0.374138 -0.000911261 0.841486 0 0.000154495 -0.000282288
41 1 0.293784 0.497835 0.769957 0 -0.000114441 -0.000923157
42 1 0.124137 0.167578 0.841486 0 -0.000156403 -0.000286102
43 1 0.0437842 0.668831 0.769957 0 0.000106812 -0.000928879
44 1 0.0346223 -0.00857715 0.982699 0 0.000219345 -0.000473022
45 1 0.95388 0.498034 0.90906 0 3.8147e-06 0.000442505
46 1 0.5632 0.668673 0.349747 0 0.000173569 0.000181198
47 1 0.473423 0.497878 0.489986 0 0.000234604 0.000135422
48 1 0.223423 0.66879 0.489986 0 -0.000221252 0.000118256
49 1 0.133624 0.497801 0.630129 0 0.000202179 3.8147e-05
50 1 0.883625 0.668866 0.630129 0 -0.000209808 3.8147e-05
51 1 0.793785 0.497836 0.769957 0 -0.00012207 -0.000928879
52 1 0.78462 0.175247 0.982699 0 -0.000230789 -0.000482559
53 1 0.703878 0.668635 0.909059 0 -7.62939e-06 0.000448227
54 1 0.543784 0.66883 0.769957 0 0.000120163 -0.000925064
55 1 0.453879 0.498033 0.90906 0 5.72205e-06 0.000421524
56 1 0.203879 0.668635 0.90906 0 -1.90735e-05 0.000436783
ITEM: TIMESTEP
8
ITEM: NUMBER OF ATOMS
56
ITEM: BOX BOUNDS xy xz yz pp pp pp
-2.0120587944984436e+00 1.2203788340091705e+01 0.0000000000000000e+00
-8.4733366966247559e-03 5.5348814725875854e+00 -1.9933702945709229e+00
-2.9168844223022461e-02 1.9049128890037537e+01 0.0000000000000000e+00
ITEM: ATOMS id type xs ys zs fx fy fz
1 1 0.57313 -0.00195741 0.141384 0 0.000162125 0.000307083
2 1 0.323131 0.168624 0.141384 0 -0.000156403 0.000299454
3 1 0.23323 -0.00216902 0.280514 0 -1.14441e-05 4.57764e-05
4 1 0.983229 0.168836 0.280514 0 1.71661e-05 5.53131e-05
5 1 0.893388 -0.00218868 0.420329 0 -1.52588e-05 5.72205e-05
6 1 0.0731304 -0.00195774 0.141384 0 0.000152588 0.000303268
7 1 0.992391 0.491457 0.0677656 0 3.05176e-05 8.01086e-05
8 1 0.823131 0.168625 0.141383 0 -0.000146866 0.000301361
9 1 0.742392 0.675211 0.0677655 0 -3.24249e-05 7.05719e-05
10 1 0.733231 -0.00216832 0.280513 0 -1.71661e-05 6.10352e-05
11 1 0.643387 0.168856 0.420328 0 2.47955e-05 6.48499e-05
12 1 0.553586 -0.00210826 0.560465 0 8.01086e-05 -9.34601e-05
13 1 0.303587 0.168776 0.560466 0 -8.58307e-05 -0.000112534
14 1 0.21381 -0.00203615 0.700699 0 0.000230789 -0.000240326
15 1 0.96381 0.168703 0.700699 0 -0.000242233 -0.000257492
16 1 0.874137 -0.000887922 0.841474 0 -0.000213623 -8.96454e-05
17 1 0.652874 0.499112 0.208979 0 -0.000217438 9.15527e-05
18 1 0.483229 0.168835 0.280514 0 7.62939e-06 4.57764e-05
19 1 0.402875 0.667554 0.208979 0 0.00022316 0.000104904
20 1 0.393388 -0.00218873 0.420329 0 -9.53674e-06 5.34058e-05
21 1 0.313201 0.497964 0.349754 0 0.000234604 0.00025177
22 1 0.143387 0.168856 0.420328 0 2.28882e-05 5.53131e-05
23 1 0.063201 0.668704 0.349754 0 -0.000234604 0.000246048