LAMMPS (23 Jun 2022 - Update 1)
OMP_NUM_THREADS environment is not set. Defaulting to 1 thread. (src/comm.cpp:98)
  using 1 OpenMP thread(s) per MPI task
Loaded 1 plugins from /software/deepmd-kit/2.1.5/gpu/lib/deepmd_lmp
Loaded 0 plugins from 
Reading data file ...
  orthogonal box = (0 0 0) to (26.25021 26.25021 25.3108)
  1 by 1 by 1 MPI processor grid
  reading atoms ...
  900 atoms
  read_data CPU = 0.078 seconds
Summary of lammps deepmd module ...
  >>> Info of deepmd-kit:
  installed to:       /software/deepmd-kit/2.1.5/gpu
  source:             v2.1.5
  source branch:       HEAD
  source commit:      6e3d4a62
  source commit at:   2022-09-23 16:10:28 +0800
  surpport model ver.:1.1 
  build float prec:   double
  build variant:      cuda
  build with tf inc:  /software/deepmd-kit/2.1.5/gpu/include;/software/deepmd-kit/2.1.5/gpu/include
  build with tf lib:  /software/deepmd-kit/2.1.5/gpu/lib/libtensorflow_cc.so;/software/deepmd-kit/2.1.5/gpu/lib/libtensorflow_framework.so
  set tf intra_op_parallelism_threads: 0
  set tf inter_op_parallelism_threads: 0
  >>> Info of lammps module:
  use deepmd-kit at:  /software/deepmd-kit/2.1.5/gpuDeePMD-kit WARNING: Environmental variable TF_INTRA_OP_PARALLELISM_THREADS is not set. Tune TF_INTRA_OP_PARALLELISM_THREADS for the best performance.
DeePMD-kit WARNING: Environmental variable TF_INTER_OP_PARALLELISM_THREADS is not set. Tune TF_INTER_OP_PARALLELISM_THREADS for the best performance.
DeePMD-kit WARNING: Environmental variable OMP_NUM_THREADS is not set. Tune OMP_NUM_THREADS for the best performance.
2023-03-03 14:56:35.895520: I tensorflow/core/platform/cpu_feature_guard.cc:193] This TensorFlow binary is optimized with oneAPI Deep Neural Network Library (oneDNN) to use the following CPU instructions in performance-critical operations:  SSE4.1 SSE4.2 AVX
To enable them in other operations, rebuild TensorFlow with the appropriate compiler flags.
2023-03-03 14:56:36.513542: I tensorflow/core/common_runtime/gpu/gpu_device.cc:1532] Created device /job:localhost/replica:0/task:0/device:GPU:0 with 10059 MB memory:  -> device: 0, name: GeForce GTX 1080 Ti, pci bus id: 0000:04:00.0, compute capability: 6.1
2023-03-03 14:56:36.513851: I tensorflow/core/common_runtime/process_util.cc:146] Creating new thread pool with default inter op setting: 2. Tune using inter_op_parallelism_threads for best performance.
2023-03-03 14:56:36.559744: I tensorflow/compiler/mlir/mlir_graph_optimization_pass.cc:354] MLIR V1 optimization pass is not enabled
  >>> Info of model(s):
  using   1 model(s): model.pb 
  rcut in model:      6
  ntypes in model:    4

CITE-CITE-CITE-CITE-CITE-CITE-CITE-CITE-CITE-CITE-CITE-CITE-CITE

Your simulation uses code contributions which should be cited:
- USER-DEEPMD package:
The log file lists these citations in BibTeX format.

CITE-CITE-CITE-CITE-CITE-CITE-CITE-CITE-CITE-CITE-CITE-CITE-CITE

Generated 0 of 6 mixed pair_coeff terms from geometric mixing rule
Neighbor list info ...
  update every 10 steps, delay 0 steps, check no
  max neighbors/atom: 2000, page size: 100000
  master list distance cutoff = 7
  ghost atom cutoff = 7
  binsize = 3.5, bins = 8 8 8
  1 neighbor lists, perpetual/occasional/extra = 1 0 0
  (1) pair deepmd, perpetual
      attributes: full, newton on
      pair build: full/bin/atomonly
      stencil: full/bin/3d
      bin: standard
Setting up Verlet run ...
  Unit style    : metal
  Current step  : 0
  Time step     : 0.002
Per MPI rank memory allocation (min/avg/max) = 2.657 | 2.657 | 2.657 Mbytes
   Step          Temp          E_pair         E_mol          TotEng         Press     
         0   500           -3889.3627      0             -3831.2602      12523.097    
      2000   526.4165      -3836.4443      0             -3775.2721      14764.694    
Loop time of 111.471 on 1 procs for 2000 steps with 900 atoms

Performance: 3.100 ns/day, 7.741 hours/ns, 17.942 timesteps/s
57.5% CPU use with 1 MPI tasks x 1 OpenMP threads

MPI task timing breakdown:
Section |  min time  |  avg time  |  max time  |%varavg| %total
---------------------------------------------------------------
Pair    | 110.47     | 110.47     | 110.47     |   0.0 | 99.10
Neigh   | 0.90173    | 0.90173    | 0.90173    |   0.0 |  0.81
Comm    | 0.040663   | 0.040663   | 0.040663   |   0.0 |  0.04
Output  | 0.00033475 | 0.00033475 | 0.00033475 |   0.0 |  0.00
Modify  | 0.045152   | 0.045152   | 0.045152   |   0.0 |  0.04
Other   |            | 0.01474    |            |       |  0.01

Nlocal:            900 ave         900 max         900 min
Histogram: 1 0 0 0 0 0 0 0 0 0
Nghost:           2450 ave        2450 max        2450 min
Histogram: 1 0 0 0 0 0 0 0 0 0
Neighs:              0 ave           0 max           0 min
Histogram: 1 0 0 0 0 0 0 0 0 0
FullNghs:        65744 ave       65744 max       65744 min
Histogram: 1 0 0 0 0 0 0 0 0 0

Total # of neighbors = 65744
Ave neighs/atom = 73.048889
Neighbor list builds = 200
Dangerous builds not checked
Generated 0 of 6 mixed pair_coeff terms from geometric mixing rule
Setting up Verlet run ...
  Unit style    : metal
  Current step  : 0
  Time step     : 0.002
Per MPI rank memory allocation (min/avg/max) = 3.941 | 3.941 | 3.941 Mbytes
   Step          Time           Temp          KinEng         TotEng         Press     
         0   0              526.4165       61.172161     -3775.2721      14764.694    
       100   0.2            501.35935      58.260398     -3776.9598      14289.92     
       200   0.4            492.68392      57.252271     -3780.2366      13722.338    
       300   0.6            508.72257      59.116041     -3780.1797      14389.37     
       400   0.8            489.07394      56.832773     -3779.2035      14825.259    
       500   1              505.22067      58.709103     -3777.2886      14964.256    
       600   1.2            512.39738      59.543071     -3776.0126      13443.184    
       700   1.4            518.55835      60.259006     -3774.457       14769.592    
       800   1.6            517.23172      60.104844     -3775.4363      14251.894    
       900   1.8            491.70336      57.138326     -3779.0018      13535.075    
      1000   2              488.84826      56.806549     -3780.5261      14868.688    
      1100   2.2            489.11969      56.83809      -3779.8941      13073.632    
      1200   2.4            514.26473      59.760066     -3776.3998      14881.825    
      1300   2.6            542.31031      63.0191       -3774.2501      13844.479    
      1400   2.8            508.0797       59.041336     -3776.0476      15825.986    
      1500   3              503.24853      58.479931     -3778.0241      16845.491    
      1600   3.2            488.87515      56.809673     -3780.1697      13959.279    
      1700   3.4            486.97885      56.589314     -3781.0482      14464.108    
      1800   3.6            491.73204      57.141658     -3780.5611      16408.892    
      1900   3.8            536.73594      62.37133      -3775.9285      13264.141    
      2000   4              541.23742      62.894424     -3775.3454      14030.283    
      2100   4.2            472.9396       54.957885     -3778.6028      15482.305    
      2200   4.4            487.17902      56.612575     -3780.4976      15720.477    
      2300   4.6            493.03635      57.293226     -3780.7044      14535.21     
      2400   4.8            514.42223      59.778369     -3780.2384      12265.728    
      2500   5              531.82909      61.801131     -3777.3916      15038.334    
      2600   5.2            529.63869      61.546596     -3774.9974      15086.244    
      2700   5.4            485.81233      56.453759     -3776.8407      14824.531    
      2800   5.6            489.87305      56.925634     -3780.7592      15449.088    
      2900   5.8            499.72498      58.070476     -3781.2376      13918.388    
      3000   6              494.93166      57.513469     -3780.0691      14435.667    
      3100   6.2            504.27673      58.599412     -3777.7004      15879.709    
      3200   6.4            506.28688      58.833001     -3776.3214      13378.48     
      3300   6.6            503.01742      58.453074     -3777.4303      13315.574    
      3400   6.8            475.66787      55.274923     -3781.5776      15162.576    
      3500   7              506.29127      58.833511     -3782.137       13401.845    
      3600   7.2            491.14214      57.073108     -3780.4771      12779.407    
      3700   7.4            501.89195      58.322289     -3777.3214      13997.253    
      3800   7.6            520.95233      60.537198     -3777.7738      14439.734    
      3900   7.8            516.80534      60.055298     -3778.9729      13700.726    
      4000   8              507.64667      58.991015     -3780.0591      14269.245    
      4100   8.2            515.43103      59.895596     -3780.6121      13108.066    
      4200   8.4            492.79394      57.265056     -3781.0563      13118.381    
      4300   8.6            507.42858      58.965672     -3779.571       14864.432    
      4400   8.8            503.95302      58.561795     -3776.6966      12952.118    
      4500   9              520.92607      60.534147     -3776.2623      13302.627    
      4600   9.2            494.80651      57.498927     -3779.5382      15350.868    
      4700   9.4            497.22392      57.779841     -3781.4641      12293.385    
      4800   9.6            502.6875       58.414736     -3781.2951      13000.276    
      4900   9.8            505.63623      58.757393     -3779.8235      14192.243    
      5000   10             502.8645       58.435304     -3776.2909      12806.837    
      5100   10.2           531.0365       61.709027     -3774.2725      12891.501    
      5200   10.4           516.128        59.976587     -3777.6147      15894.985    
      5300   10.6           500.08881      58.112756     -3779.507       12322.413    
      5400   10.8           489.06688      56.831953     -3781.2912      15163.37     
      5500   11             486.61059      56.546521     -3781.5794      12821.829    
      5600   11.2           498.73659      57.95562      -3779.2089      13852.13     
      5700   11.4           520.51698      60.486608     -3775.875       13093.105    
      5800   11.6           511.75968      59.468967     -3776.4726      14133.623    
      5900   11.8           504.18889      58.589204     -3778.9156      14656.292    
      6000   12             495.66887      57.599137     -3780.0556      13414.723    
      6100   12.2           513.53736      59.675542     -3780.6474      13663.784    
      6200   12.4           502.07386      58.343428     -3780.9695      12890.27     
      6300   12.6           475.84485      55.295489     -3780.4805      13688.851    
      6400   12.8           476.67174      55.391577     -3777.7042      13113.718    
      6500   13             531.22478      61.730907     -3776.4077      14965.569    
      6600   13.2           505.96953      58.796123     -3778.9722      12699.558    
      6700   13.4           486.21148      56.500141     -3782.3838      14248.477    
      6800   13.6           493.30885      57.32489      -3782.0093      12903.872    
      6900   13.8           493.58391      57.356854     -3780.1572      12352.431    
      7000   14             527.88794      61.34315      -3778.6051      15551.097    
      7100   14.2           512.31553      59.53356      -3779.3729      13919.248    
      7200   14.4           474.02979      55.08457      -3784.1244      13895.78     
      7300   14.6           475.00749      55.198183     -3784.7849      14194.977    
      7400   14.8           497.60899      57.824588     -3781.7751      14381.383    
      7500   15             518.67523      60.272588     -3779.6504      13692.029    
      7600   15.2           493.95836      57.400367     -3778.9068      14268.973    
      7700   15.4           490.77711      57.03069      -3779.2037      15078.058    
      7800   15.6           480.76869      55.867664     -3782.2288      15981.167    
      7900   15.8           488.98896      56.822898     -3784.6844      14089.43     
      8000   16             503.85598      58.550519     -3783.0379      14676.389    
      8100   16.2           491.84876      57.155222     -3780.4162      14756.783    
      8200   16.4           502.45218      58.38739      -3779.4719      15150.315    
      8300   16.6           492.43446      57.223283     -3779.5505      13387.648    
      8400   16.8           489.39408      56.869976     -3780.5401      11468.938    
      8500   17             481.64599      55.969609     -3784.1768      14689.934    
      8600   17.2           501.3717       58.261833     -3785.0358      13405.631    
      8700   17.4           486.01738      56.477586     -3782.1231      13061.735    
      8800   17.6           515.0385       59.849983     -3780.1427      15185.792    
      8900   17.8           509.04451      59.153452     -3779.4396      15203.995    
      9000   18             499.22381      58.012238     -3778.8212      15197.773    
      9100   18.2           518.53526      60.256323     -3779.4335      15007.684    
      9200   18.4           488.67799      56.786762     -3782.3585      12440.604    
      9300   18.6           499.6263       58.05901      -3783.5925      12738.081    
      9400   18.8           511.51171      59.440152     -3781.4487      14113.793    
      9500   19             492.66274      57.24981      -3777.6251      16048.254    
      9600   19.2           515.47227      59.900388     -3777.7476      13218.845    
      9700   19.4           501.4938       58.276022     -3779.6675      15297.314    
      9800   19.6           485.73293      56.444533     -3781.5215      13096.362    
      9900   19.8           474.61124      55.152137     -3782.8079      11468.079    
     10000   20             510.75774      59.352537     -3780.3354      15911.737    
     10100   20.2           504.55569      58.631829     -3776.9144      13113.054    
     10200   20.4           493.75533      57.376774     -3777.4614      14391.183    
     10300   20.6           503.39062      58.496442     -3780.0568      15073.584    
     10400   20.8           494.86921      57.506213     -3782.4884      12582.747    
     10500   21             497.24119      57.781848     -3781.6969      13567.015    
     10600   21.2           510.3497       59.305121     -3780.2066      12224.263    
     10700   21.4           481.1161       55.908033     -3779.7058      15367.657    
     10800   21.6           483.05736      56.133618     -3779.9513      12357.341    
     10900   21.8           495.94784      57.631554     -3779.9699      13685.118    
     11000   22             506.35924      58.841409     -3779.8841      12504.933    
     11100   22.2           495.64882      57.596807     -3780.7539      13948.708    
     11200   22.4           502.89658      58.439032     -3782.4075      14078.088    
     11300   22.6           504.41857      58.615895     -3782.9439      13899.256    
     11400   22.8           498.16336      57.889009     -3780.9374      13876.106    
     11500   23             510.15624      59.28264      -3777.5964      13362.479    
     11600   23.2           520.05628      60.433073     -3777.828       14589.727    
     11700   23.4           491.29909      57.091348     -3779.8328      15311.599    
     11800   23.6           500.17308      58.122548     -3781.3682      13535.875    
     11900   23.8           496.80463      57.731118     -3781.1604      13511.025    
     12000   24             491.93604      57.165364     -3780.7539      16441.716    
     12100   24.2           509.63543      59.222119     -3780.2368      13502.536    
     12200   24.4           496.99168      57.752854     -3779.2637      13877.479    
     12300   24.6           508.89451      59.13602      -3777.6241      14237.041    
     12400   24.8           523.08037      60.784487     -3778.4929      12728.623    
     12500   25             502.87488      58.43651      -3781.5106      13300.015    
     12600   25.2           490.79943      57.033284     -3783.0543      16055.458    
     12700   25.4           497.90913      57.859466     -3782.5494      12061.435    
     12800   25.6           514.085        59.73918      -3777.4379      13140.388    
     12900   25.8           528.98454      61.47058      -3776.9757      14447.576    
     13000   26             501.93626      58.327438     -3779.3484      14689.624    
     13100   26.2           512.74396      59.583346     -3781.7108      12931.492    
     13200   26.4           498.49842      57.927944     -3782.0527      13308.636    
     13300   26.6           484.89114      56.346712     -3780.7935      14599.022    
     13400   26.8           514.80145      59.822436     -3775.734       14999.446    
     13500   27             519.62041      60.382423     -3775.8267      15779.053    
     13600   27.2           507.87538      59.017593     -3778.7902      14946.86     
     13700   27.4           489.29857      56.858877     -3781.2454      13822.387    
     13800   27.6           488.48334      56.764143     -3781.9535      14194.199    
     13900   27.8           492.62486      57.245408     -3780.3575      14098.184    
     14000   28             519.24456      60.338747     -3776.1532      15548.137    
     14100   28.2           531.2158       61.729863     -3776.3207      15404.904    
     14200   28.4           515.55829      59.910384     -3778.6482      14306.227    
     14300   28.6           517.72005      60.161591     -3780.6441      17098.615    
     14400   28.8           482.86969      56.11181      -3782.0005      12462.388    
     14500   29             496.32682      57.675594     -3781.3473      15486.692    
     14600   29.2           520.47606      60.481853     -3777.2835      17180.429    
     14700   29.4           527.68344      61.319386     -3775.9258      14102.052    
     14800   29.6           513.62782      59.686054     -3778.2819      14740.473    
     14900   29.8           491.12964      57.071656     -3780.2772      13908.015    
     15000   30             490.11366      56.953594     -3780.7549      13327.544    
     15100   30.2           480.31694      55.815168     -3780.9868      15981.459    
     15200   30.4           498.84405      57.968108     -3779.9299      14243.213    
     15300   30.6           504.29309      58.601313     -3776.1425      15081.474    
     15400   30.8           519.43155      60.360476     -3775.6726      16279.628    
     15500   31             498.27497      57.901978     -3779.1054      17044.776    
     15600   31.2           498.85321      57.969172     -3780.7408      12143.486    
     15700   31.4           494.49679      57.462935     -3781.4894      15294.077    
     15800   31.6           509.87236      59.249651     -3781.4741      13439.114    
     15900   31.8           508.07504      59.040795     -3779.2763      14354.223    
     16000   32             516.56319      60.027159     -3776.4744      16010.481    
     16100   32.2           498.3117       57.906246     -3777.4338      12728.694    
     16200   32.4           486.47472      56.530732     -3781.5493      14586.37     
     16300   32.6           482.67034      56.088644     -3782.2155      12826.582    
     16400   32.8           482.96051      56.122364     -3781.1654      13763.446    
     16500   33             498.45476      57.922871     -3779.091       14086.781    
     16600   33.2           491.93868      57.165671     -3776.8098      12036.105    
     16700   33.4           521.09074      60.553282     -3774.6021      14530.682    
     16800   33.6           533.93487      62.045832     -3774.8186      14102.64     
     16900   33.8           488.45239      56.760547     -3779.0014      13013.542    
     17000   34             496.73317      57.722813     -3780.7512      13751.246    
     17100   34.2           491.27169      57.088163     -3780.7777      13934.504    
     17200   34.4           508.85571      59.131512     -3777.9503      13649.059    
     17300   34.6           506.67399      58.877985     -3775.7384      15280.638    
     17400   34.8           527.30207      61.275069     -3777.2334      16390.822    
     17500   35             486.18388      56.496935     -3780.7128      13371.21     
     17600   35.2           488.31197      56.744229     -3780.5968      14623.463    
     17700   35.4           487.77202      56.681484     -3779.2904      14484.944    
     17800   35.6           494.73863      57.491039     -3776.6752      14663.89     
     17900   35.8           515.39436      59.891335     -3775.7658      14275.696    
     18000   36             507.70946      58.998312     -3778.5094      15878.761    
     18100   36.2           495.30079      57.556364     -3781.7704      13538.133    
     18200   36.4           489.24836      56.853042     -3781.3463      14357.295    
     18300   36.6           491.62552      57.12928      -3779.6539      14099.397    
     18400   36.8           495.80971      57.615503     -3777.5392      15435.643    
     18500   37             514.47209      59.784162     -3777.419       13442.996    
     18600   37.2           482.67818      56.089555     -3781.8568      14453.203    
     18700   37.4           488.35948      56.74975      -3783.5632      14027.251    
     18800   37.6           503.86519      58.551589     -3781.8704      13870.803    
     18900   37.8           505.65164      58.759184     -3779.3779      15790.641    
     19000   38             488.89305      56.811753     -3777.6349      14298.864    
     19100   38.2           515.26         59.875721     -3777.88        11895.677    
     19200   38.4           507.64379      58.99068      -3778.4986      15900.815    
     19300   38.6           492.93772      57.281764     -3778.7907      14319.41     
     19400   38.8           505.80231      58.776691     -3778.9148      13695.272    
     19500   39             485.8331       56.456173     -3779.8777      14134.313    
     19600   39.2           486.27599      56.507638     -3781.4607      13565.023    
     19700   39.4           496.23933      57.665427     -3780.917       13139.589    
     19800   39.6           517.09939      60.089467     -3777.4883      14027.977    
     19900   39.8           514.2269       59.755671     -3776.1391      13083.242    
     20000   40             514.7513       59.816608     -3778.1855      12680.869    
     20100   40.2           497.82222      57.849367     -3780.6035      14203.237    
     20200   40.4           521.70144      60.624249     -3780.2521      13047.938    
     20300   40.6           493.77283      57.378808     -3779.9254      13688.243    
     20400   40.8           519.73105      60.39528      -3778.3934      15205.064    
     20500   41             519.31023      60.346378     -3775.8208      14113.718    
     20600   41.2           508.33341      59.070818     -3775.564       14034.383    
     20700   41.4           498.96259      57.981883     -3780.0974      14083.344    
     20800   41.6           504.14235      58.583796     -3781.5593      13664.005    
     20900   41.8           504.04751      58.572776     -3780.9521      15276.072    
     21000   42             504.01562      58.56907      -3779.2862      15544.273    
     21100   42.2           538.04298      62.523214     -3777.1689      16086.985    
     21200   42.4           527.87263      61.341371     -3776.4258      13121.335    
     21300   42.6           488.51028      56.767273     -3779.0596      13571.531    
     21400   42.8           478.04625      55.551302     -3782.2565      14197.676    
     21500   43             483.12545      56.14153      -3782.5349      13545.277    
     21600   43.2           501.41033      58.266322     -3780.1087      13318.894    
     21700   43.4           516.58167      60.029306     -3778.0095      16001.342    
     21800   43.6           502.76312      58.423523     -3778.545       14335.294    
     21900   43.8           498.4973       57.927814     -3779.5664      14391.169    
     22000   44             511.52084      59.441213     -3779.8735      15458.57     
     22100   44.2           483.13154      56.142238     -3779.5242      13839.855    
     22200   44.4           506.95194      58.910284     -3777.6521      13244.384    
     22300   44.6           529.65474      61.54846      -3775.49        14264.92     
     22400   44.8           501.97251      58.331651     -3776.4259      15642.515    
     22500   45             484.55472      56.307619     -3780.5216      15263.98     
     22600   45.2           481.74431      55.981035     -3781.1447      14004.863    
     22700   45.4           494.35933      57.446962     -3779.5039      16233.159    
     22800   45.6           497.52088      57.81435      -3778.0041      14356.912    
     22900   45.8           499.18903      58.008196     -3777.3403      16348.724    
     23000   46             521.58803      60.611069     -3778.3203      13067.166    
     23100   46.2           499.80242      58.079476     -3781.4943      13842.666    
     23200   46.4           483.73471      56.212329     -3783.2028      14496.197    
     23300   46.6           499.38936      58.031476     -3782.4417      15483.769    
     23400   46.8           502.64424      58.409709     -3778.8195      13683.225    
     23500   47             514.50603      59.788106     -3777.2464      14921.612    
     23600   47.2           495.61773      57.593194     -3778.3317      15265.438    
     23700   47.4           487.54266      56.654831     -3779.8552      13193.344    
     23800   47.6           484.95647      56.354304     -3780.6801      14069.801    
     23900   47.8           498.09549      57.881122     -3780.6061      12376.675    
     24000   48             508.81566      59.126858     -3779.9796      14293.691    
     24100   48.2           522.05476      60.665306     -3778.354       13555.033    
     24200   48.4           523.61623      60.846756     -3774.7686      13093.312    
     24300   48.6           515.13021      59.860639     -3776.2502      13407.772    
     24400   48.8           492.79958      57.265712     -3780.0374      13712.537    
     24500   49             497.55826      57.818693     -3781.2986      14001.654    
     24600   49.2           489.24575      56.852739     -3781.4158      14874.766    
     24700   49.4           497.00452      57.754346     -3779.0559      14294.167    
     24800   49.6           518.02617      60.197164     -3775.9842      13763.578    
     24900   49.8           513.90643      59.71843      -3776.7033      14130.773    
     25000   50             491.50462      57.115231     -3781.3744      13833.551    
     25100   50.2           479.62169      55.734376     -3781.8183      16282.221    
     25200   50.4           513.99973      59.729272     -3781.3033      13923.348    
     25300   50.6           501.11643      58.23217      -3779.4863      14152.606    
     25400   50.8           505.44365      58.735014     -3777.6307      12752.124    
     25500   51             499.65374      58.062198     -3777.9795      15276.979    
     25600   51.2           498.41908      57.918724     -3781.8931      16192.847    
     25700   51.4           477.2711       55.461226     -3783.2017      13169.777    
     25800   51.6           490.86179      57.040531     -3781.7275      16501.522    
     25900   51.8           499.06346      57.993605     -3778.25        13583.115    
     26000   52             506.94439      58.909407     -3777.9039      13944.123    
     26100   52.2           522.68318      60.738331     -3778.8668      17381.088    
     26200   52.4           488.14211      56.72449      -3781.0368      13595.431    
     26300   52.6           491.09937      57.068138     -3782.0857      13965.98     
     26400   52.8           496.09615      57.648788     -3781.2246      15207.203    
     26500   53             509.83008      59.244739     -3777.1422      13782.996    
     26600   53.2           514.83023      59.82578      -3776.5726      16160.619    
     26700   53.4           503.72233      58.534988     -3779.5875      14719.93     
     26800   53.6           493.36778      57.331738     -3781.7002      14536.245    
     26900   53.8           484.38694      56.288121     -3781.6756      14128.744    
     27000   54             499.32312      58.023779     -3780.131       15758.898    
     27100   54.2           508.12074      59.046105     -3778.1417      13229.702    
     27200   54.4           521.00542      60.543368     -3773.5792      15676.75     
     27300   54.6           525.49219      61.064752     -3774.2897      15232.685    
     27400   54.8           511.45372      59.433413     -3777.4069      14022.13     
     27500   55             502.80582      58.428485     -3779.0701      11530.861    
     27600   55.2           492.7894       57.264529     -3780.0865      14386.065    
     27700   55.4           496.00647      57.638367     -3780.7997      13258.001    
     27800   55.6           500.70753      58.184654     -3782.3824      13850.186    
     27900   55.8           483.07889      56.13612      -3784.3026      14514.042    
     28000   56             484.87961      56.345373     -3782.5987      14087.554    
     28100   56.2           508.44491      59.083775     -3779.1888      14861.085    
     28200   56.4           489.19551      56.846901     -3778.8102      11325.705    
     28300   56.6           497.48067      57.809677     -3780.15        15496.341    
     28400   56.8           480.6182       55.850176     -3782.7433      12407.06     
     28500   57             479.38837      55.707264     -3785.5907      14193.175    
     28600   57.2           459.15595      53.356158     -3788.3375      13045.59     
     28700   57.4           457.83746      53.202942     -3784.8924      14823.688    
     28800   57.6           512.98582      59.61145      -3782.4126      13032.797    
     28900   57.8           502.26304      58.365412     -3780.4574      13780.942    
     29000   58             504.80437      58.660726     -3778.8738      15519.942    
     29100   58.2           501.0957       58.229761     -3779.3703      13823.232    
     29200   58.4           497.22337      57.779778     -3782.4158      14207.032    
     29300   58.6           492.31316      57.209187     -3784.3108      13493.709    
     29400   58.8           503.33971      58.490525     -3782.3965      14249.539    
     29500   59             497.43536      57.804411     -3779.208       13213.058    
     29600   59.2           492.29263      57.206801     -3779.2068      14238.759    
     29700   59.4           501.13626      58.234474     -3780.4702      14159.923    
     29800   59.6           493.88197      57.39149      -3782.1482      13811.307    
     29900   59.8           481.86384      55.994925     -3783.927       15850.347    
     30000   60             475.33823      55.236617     -3783.8934      13253.945    
     30100   60.2           511.04772      59.386235     -3780.1003      15144.371    
     30200   60.4           495.27754      57.553663     -3778.482       14806.069    
     30300   60.6           490.23155      56.967294     -3778.3358      14894.162    
     30400   60.8           527.88758      61.343107     -3778.1466      13187.543    
     30500   61             505.09022      58.693944     -3777.9675      15102.969    
     30600   61.2           510.45091      59.316882     -3778.3547      13470.105    
     30700   61.4           486.75126      56.562867     -3780.3146      14385.603    
     30800   61.6           492.57051      57.239092     -3782.0976      15593.234    
     30900   61.8           481.29254      55.928537     -3782.0957      14755.448    
     31000   62             504.42658      58.616825     -3778.6891      14551.106    
     31100   62.2           512.53729      59.559329     -3776.818       14565.432    
     31200   62.4           514.40002      59.775788     -3778.2905      13202.481    
     31300   62.6           504.17988      58.588158     -3781.5025      13486.997    
     31400   62.8           481.9353       56.00323      -3781.3956      12824.142    
     31500   63             500.01778      58.104501     -3780.2         15375.434    
     31600   63.2           525.90035      61.112182     -3778.8064      13793.209    
     31700   63.4           498.2268       57.896381     -3778.2445      14663.102    
     31800   63.6           508.0462       59.037443     -3777.4855      14420.336    
     31900   63.8           512.72183      59.580774     -3778.0773      13939.166    
     32000   64             487.68223      56.67105      -3780.2262      14129.569    
     32100   64.2           493.38987      57.334306     -3781.6774      16042.77     
     32200   64.4           508.41443      59.080233     -3782.2552      14580.62     
     32300   64.6           499.87882      58.088353     -3780.4485      12807.066    
     32400   64.8           515.93273      59.953896     -3777.1546      15429.222    
     32500   65             523.19484      60.797788     -3776.8246      13653.152    
     32600   65.2           487.28816      56.625258     -3779.7392      14742.26     
     32700   65.4           495.84412      57.619502     -3781.7341      14741.586    
     32800   65.6           492.45023      57.225115     -3781.2132      14207.839    
     32900   65.8           495.19096      57.543601     -3779.9237      15727.291    
     33000   66             528.31638      61.392937     -3778.3212      13479.34     
     33100   66.2           510.51529      59.324363     -3777.8594      14949.875    
     33200   66.4           518.41238      60.242044     -3781.4908      14757.939    
     33300   66.6           482.76148      56.099235     -3783.9767      12278.119    
     33400   66.8           491.74966      57.143705     -3782.6667      13253.921    
     33500   67             495.23538      57.548763     -3779.7141      12651.441    
     33600   67.2           504.74846      58.654229     -3778.9425      14480.17     
     33700   67.4           496.053        57.643774     -3779.2819      15044.426    
     33800   67.6           491.59889      57.126185     -3780.1385      14148.84     
     33900   67.8           483.52995      56.188535     -3781.0592      13821.306    
     34000   68             495.22534      57.547596     -3781.5353      14108.897    
     34100   68.2           510.98082      59.37846      -3779.2307      13120.482    
     34200   68.4           511.78408      59.471803     -3776.7356      13360.636    
     34300   68.6           518.39528      60.240056     -3777.8185      13759.355    
     34400   68.8           490.76378      57.029141     -3781.0754      13892.272    
     34500   69             489.16004      56.842779     -3782.1596      12879.217    
     34600   69.2           496.32232      57.675071     -3781.7809      15335.319    
     34700   69.4           500.56733      58.168361     -3777.7945      15592.463    
     34800   69.6           506.89506      58.903674     -3776.7797      13648.733    
     34900   69.8           494.90626      57.510517     -3778.7046      14676.763    
     35000   70             506.93137      58.907895     -3780.2013      14358.248    
     35100   70.2           496.34159      57.67731      -3780.6582      14004.263    
     35200   70.4           495.31518      57.558037     -3780.5216      14399.474    
     35300   70.6           506.8036       58.893046     -3780.2985      15370.563    
     35400   70.8           482.72553      56.095058     -3781.3344      14691.72     
     35500   71             510.5413       59.327385     -3782.5945      13427.658    
     35600   71.2           493.4802       57.344803     -3782.6253      14978.44     
     35700   71.4           510.24252      59.292666     -3780.1504      13993.718    
     35800   71.6           495.57064      57.587722     -3777.9848      13958.059    
     35900   71.8           519.87698      60.412237     -3777.2671      15463.3      
     36000   72             485.511        56.418743     -3781.3568      13762.828    
     36100   72.2           472.44532      54.900447     -3783.6272      13149.909    
     36200   72.4           482.55562      56.075314     -3781.8258      14091.516    
     36300   72.6           507.38779      58.960932     -3779.0514      13299.479    
     36400   72.8           496.26031      57.667865     -3778.497       13949.917    
     36500   73             504.36522      58.609695     -3778.6754      12652.991    
     36600   73.2           497.39691      57.799943     -3781.8025      14888.179    
     36700   73.4           472.25502      54.878333     -3785.2375      13261.273    
     36800   73.6           479.82941      55.758514     -3783.4023      13616.187    
     36900   73.8           490.19719      56.963301     -3780.6258      14820.985    
     37000   74             506.94828      58.909859     -3779.0915      13554.06     
     37100   74.2           499.52543      58.047287     -3778.7172      13382.234    
     37200   74.4           501.56041      58.283762     -3780.6967      12599.614    
     37300   74.6           475.93839      55.306359     -3784.2436      15636.899    
     37400   74.8           474.58456      55.149037     -3783.3351      13233.274    
     37500   75             500.41087      58.15018      -3780.6723      15194.247    
     37600   75.2           487.04164      56.59661      -3779.9277      14416.807    
     37700   75.4           509.38139      59.192599     -3779.0413      14467.023    
     37800   75.6           502.77611      58.425032     -3778.6505      13599.934    
     37900   75.8           499.58043      58.053679     -3778.2042      14239.757    
     38000   76             490.24882      56.9693       -3778.6044      14649.6      
     38100   76.2           490.42321      56.989566     -3780.686       13296.753    
     38200   76.4           480.81235      55.872737     -3782.646       16161.719    
     38300   76.6           490.99013      57.055444     -3782.8738      14334.765    
     38400   76.8           509.12332      59.162609     -3779.0429      13890.182    
     38500   77             512.92599      59.604498     -3777.0484      16437.129    
     38600   77.2           519.26698      60.341352     -3778.0646      14373.432    
     38700   77.4           504.03374      58.571176     -3780.6492      15464.551    
     38800   77.6           482.44534      56.062499     -3781.4669      14100.392    
     38900   77.8           476.10172      55.325339     -3781.1866      14709.692    
     39000   78             496.79102      57.729536     -3780.3348      15003.867    
     39100   78.2           486.30124      56.510572     -3779.0532      13073.604    
     39200   78.4           503.22553      58.477258     -3776.3358      13309.134    
     39300   78.6           532.73325      61.906198     -3773.7817      14789.919    
     39400   78.8           489.63482      56.897951     -3777.0595      14617.652    
     39500   79             478.28093      55.578573     -3779.9081      14050.863    
     39600   79.2           493.07524      57.297744     -3780.3476      14854.29     
     39700   79.4           506.67867      58.878529     -3779.7424      13904.324    
     39800   79.6           517.17575      60.098341     -3778.0883      15039.532    
     39900   79.8           522.94808      60.769114     -3775.8135      13359.491    
     40000   80             525.31259      61.043881     -3776.4472      13833.785    
     40100   80.2           506.03368      58.803578     -3780.854       13560.257    
     40200   80.4           506.14477      58.816487     -3781.5507      13007.316    
     40300   80.6           491.63243      57.130083     -3781.5296      13664.207    
     40400   80.8           492.88815      57.276004     -3779.2336      14069.647    
     40500   81             524.9278       60.999167     -3776.3014      15200.505    
     40600   81.2           508.80116      59.125172     -3777.0525      12818.05     
     40700   81.4           483.23863      56.154683     -3781.4422      13484.462    
     40800   81.6           474.88063      55.183442     -3782.0989      14261.336    
     40900   81.8           475.11959      55.211211     -3780.9956      13316.149    
     41000   82             508.50859      59.091175     -3778.2535      15825.912    
     41100   82.2           503.49593      58.50868      -3777.2605      13949.313    
     41200   82.4           515.08526      59.855416     -3779.8003      14043.231    
     41300   82.6           493.81909      57.384183     -3783.1765      14868.075    
     41400   82.8           479.76389      55.750901     -3782.2213      13421.647    
     41500   83             493.51543      57.348896     -3780.108       15089.329    
     41600   83.2           501.83565      58.315747     -3778.2188      14771.246    
     41700   83.4           509.48708      59.20488      -3777.4499      13714.321    
     41800   83.6           510.11768      59.278159     -3781.0766      14880.483    
     41900   83.8           484.86137      56.343253     -3783.5462      14304.956    
     42000   84             483.14923      56.144293     -3781.9155      16137.663    
     42100   84.2           518.49402      60.25153      -3779.2848      14336.139    
     42200   84.4           512.23984      59.524764     -3777.8798      16449.442    
     42300   84.6           508.89565      59.136154     -3778.6111      15276.69     
     42400   84.8           475.39192      55.242856     -3783.6364      12588.081    
     42500   85             491.70944      57.139032     -3783.6725      15554.444    
     42600   85.2           503.9246       58.558493     -3781.0219      13691.794    
     42700   85.4           514.90832      59.834854     -3778.694       14453.169    
     42800   85.6           505.66364      58.760578     -3778.5092      15111.786    
     42900   85.8           509.89044      59.251752     -3779.4957      15002.771    
     43000   86             475.13506      55.213008     -3782.0499      14363.071    
     43100   86.2           477.33671      55.468851     -3786.0793      14101.375    
     43200   86.4           486.41726      56.524055     -3784.4131      13940.277    
     43300   86.6           496.54666      57.70114      -3781.5079      13887.751    
     43400   86.8           493.43595      57.33966      -3779.6264      14647.47     
     43500   87             491.41333      57.104622     -3779.039       13746.618    
     43600   87.2           504.34537      58.607389     -3779.1707      15791.96     
     43700   87.4           499.01173      57.987594     -3781.7757      15497.97     
     43800   87.6           489.38092      56.868446     -3784.0289      13496.285    
     43900   87.8           494.72705      57.489693     -3782.8581      15614.307    
     44000   88             478.60723      55.616491     -3779.3033      12602.459    
     44100   88.2           501.04181      58.223498     -3778.471       14914.259    
     44200   88.4           506.72054      58.883394     -3779.3962      15931.714    
     44300   88.6           501.61019      58.289547     -3780.8655      14619.613    
     44400   88.8           500.02482      58.10532      -3783.295       15971.413    
     44500   89             479.00982      55.663274     -3786.2723      11955.169    
     44600   89.2           469.57525      54.566931     -3784.2728      15617.081    
     44700   89.4           492.28014      57.20535      -3780.9052      13629.505    
     44800   89.6           495.07925      57.53062      -3779.6391      12567.332    
     44900   89.8           519.47293      60.365285     -3778.2685      15368.753    
     45000   90             492.94005      57.282035     -3777.8776      13385.887    
     45100   90.2           499.31662      58.023023     -3779.8915      14411.743    
     45200   90.4           495.80275      57.614694     -3782.7526      13944.945    
     45300   90.6           472.25556      54.878396     -3782.2656      11948.678    
     45400   90.8           516.65872      60.03826      -3778.4584      14918.977    
     45500   91             505.65511      58.759587     -3777.652       15152.162    
     45600   91.2           504.63734      58.641316     -3778.7315      13900.564    
     45700   91.4           482.80186      56.103928     -3781.4858      14518.202    
     45800   91.6           506.97133      58.912538     -3782.1925      13441.851    
     45900   91.8           491.03865      57.061083     -3781.1379      13677.898    
     46000   92             519.68823      60.390304     -3776.8776      13922.771    
     46100   92.2           512.18523      59.518418     -3775.1798      12821.024    
     46200   92.4           513.41756      59.661621     -3777.502       14104.879    
     46300   92.6           498.08013      57.879337     -3780.4708      14436.256    
     46400   92.8           478.96101      55.657602     -3781.2534      12391.352    
     46500   93             499.51419      58.045982     -3780.2519      13151.344    
     46600   93.2           511.37398      59.424147     -3776.2587      13665.731    
     46700   93.4           513.06113      59.620202     -3775.4994      13172.685    
     46800   93.6           518.93526      60.302805     -3777.4017      14236.173    
     46900   93.8           509.77039      59.237802     -3779.5161      14728.234    
     47000   94             480.98806      55.893155     -3780.7074      14104.133    
     47100   94.2           501.58175      58.286242     -3780.9426      13677.933    
     47200   94.4           504.1467       58.584302     -3779.1273      15011.507    
     47300   94.6           523.7395       60.861081     -3775.9805      13512.315    
     47400   94.8           525.77763      61.097921     -3775.6941      13697.413    
     47500   95             508.95057      59.142536     -3779.7226      13944.37     
     47600   95.2           511.12512      59.395228     -3781.2625      12786.49     
     47700   95.4           510.16935      59.284163     -3781.1108      13550.586    
     47800   95.6           502.96958      58.447515     -3779.4978      15093.367    
     47900   95.8           533.96162      62.048941     -3777.6295      13548.184    
     48000   96             516.61306      60.032953     -3777.3839      13768.96     
     48100   96.2           490.77555      57.030509     -3780.0264      14190.186    
     48200   96.4           489.73902      56.910059     -3782.1112      13573.97     
     48300   96.6           491.18117      57.077645     -3781.8534      14147.899    
     48400   96.8           508.94687      59.142105     -3778.1927      13094.596    
     48500   97             500.31135      58.138616     -3776.4718      13561.923    
     48600   97.2           498.05606      57.87654      -3777.4861      15561.107    
     48700   97.4           497.24475      57.782262     -3779.513       13660.385    
     48800   97.6           503.4967       58.508769     -3780.6716      13207.18     
     48900   97.8           499.54965      58.050102     -3781.2024      12987.379    
     49000   98             496.60567      57.707997     -3780.73        14628.1      
     49100   98.2           529.59824      61.541895     -3780.1511      13733.575    
     49200   98.4           522.09479      60.669958     -3780.3649      13248.111    
     49300   98.6           498.19599      57.8928       -3780.4812      15575.141    
     49400   98.8           501.49225      58.275841     -3779.9072      13280.759    
     49500   99             510.75855      59.352631     -3776.7881      15386.292    
     49600   99.2           504.35883      58.608952     -3774.491       12434.849    
     49700   99.4           500.60629      58.172889     -3777.5196      13394.664    
     49800   99.6           499.08981      57.996666     -3779.6355      11753.457    
     49900   99.8           493.5874       57.35726      -3780.5418      12480.991    
     50000   100            493.19865      57.312085     -3781.1438      12626.985    
     50100   100.2          501.96989      58.331346     -3780.7815      14532.884    
     50200   100.4          505.94172      58.792891     -3777.9618      12859.975    
     50300   100.6          506.39017      58.845004     -3775.8185      13555.377    
     50400   100.8          507.47152      58.970663     -3776.5491      15162.676    
     50500   101            476.53615      55.375822     -3781.2223      12422.423    
     50600   101.2          477.7382       55.515505     -3781.636       14124.61     
     50700   101.4          483.29175      56.160856     -3780.3688      13361.322    
     50800   101.6          489.33861      56.86353      -3778.6074      15299.374    
     50900   101.8          509.06001      59.155252     -3776.6149      14171.377    
     51000   102            509.42081      59.197179     -3777.8496      15280.56     
     51100   102.2          503.48091      58.506934     -3781.7081      14141.579    
     51200   102.4          496.05156      57.643607     -3782.2382      15461.929    
     51300   102.6          508.55543      59.096618     -3780.1162      13242.076    
     51400   102.8          519.80328      60.403673     -3777.156       14137.755    
     51500   103            521.98198      60.656848     -3777.8274      14150.652    
     51600   103.2          500.69531      58.183234     -3779.9829      15147.752    
     51700   103.4          488.13233      56.723355     -3781.6489      13698.784    
     51800   103.6          496.97072      57.750418     -3781.6429      13162.155    
     51900   103.8          501.86432      58.319078     -3778.6256      14886.393    
     52000   104            508.17435      59.052334     -3774.9579      13741.125    
     52100   104.2          502.25593      58.364585     -3776.6416      14437.671    
     52200   104.4          510.96905      59.377092     -3779.6925      14985.903    
     52300   104.6          487.34775      56.632182     -3781.2678      14106.974    
     52400   104.8          500.5302       58.164046     -3781.1971      14154.283    
     52500   105            493.68119      57.368159     -3779.4543      15123.4      
     52600   105.2          517.93923      60.187061     -3775.5472      14688.483    
     52700   105.4          513.40029      59.659615     -3775.5314      13506.106    
     52800   105.6          494.11064      57.418063     -3778.1253      13612.739    
     52900   105.8          501.02296      58.221308     -3779.5685      15285.649    
     53000   106            494.9298       57.513254     -3780.1743      12530.663    
     53100   106.2          495.99576      57.637123     -3780.4996      14411.502    
     53200   106.4          507.88355      59.018542     -3779.0303      12716.194    
     53300   106.6          502.42167      58.383845     -3776.064       12664.806    
     53400   106.8          514.7285       59.813959     -3775.8476      12631.927    
     53500   107            484.71672      56.326444     -3779.5765      12908.076    
     53600   107.2          502.25917      58.364962     -3781.7627      13387.865    
     53700   107.4          487.50416      56.650358     -3781.3894      14509.726    
     53800   107.6          510.50851      59.323576     -3779.2599      13518.234    
     53900   107.8          498.52513      57.931048     -3777.8522      14750.402    
     54000   108            498.80429      57.963488     -3775.7971      14514.118    
     54100   108.2          534.46675      62.107639     -3775.3916      14579.195    
     54200   108.4          518.52363      60.254972     -3779.0698      13458.606    
     54300   108.6          493.58797      57.357326     -3781.2559      13886.968    
     54400   108.8          481.69871      55.975736     -3781.4202      14023.991    
     54500   109            505.82896      58.779788     -3779.2337      14722.352    
     54600   109.2          514.10369      59.741353     -3775.4836      16825.505    
     54700   109.4          522.08476      60.668792     -3776.0936      13125.534    
     54800   109.6          504.68343      58.646673     -3777.7212      15696.747    
     54900   109.8          493.27366      57.320801     -3779.6847      14235.777    
     55000   110            492.39395      57.218575     -3780.7453      13747.55     
     55100   110.2          480.54205      55.841327     -3781.2398      13264.159    
     55200   110.4          499.85301      58.085355     -3779.189       15449.009    
     55300   110.6          517.22798      60.10441      -3776.3683      14717.05     
     55400   110.8          506.16794      58.81918      -3777.1412      13102.595    
     55500   111            505.43633      58.734163     -3780.7299      14437.336    
     55600   111.2          486.70747      56.557778     -3781.7445      14733.186    
     55700   111.4          495.51702      57.581491     -3780.549       11554.281    
     55800   111.6          508.21364      59.0569       -3778.6799      14604.476    
     55900   111.8          543.76123      63.187703     -3774.4116      14921.649    
     56000   112            530.64482      61.663512     -3773.7723      15105.922    
     56100   112.2          501.34156      58.25833      -3779.0459      14267.135    
     56200   112.4          491.54257      57.119641     -3780.3422      14326.713    
     56300   112.6          497.765        57.842718     -3781.0757      13351.299    
     56400   112.8          522.79505      60.751331     -3780.42        13050.937    
     56500   113            495.48437      57.577697     -3779.5161      13911.728    
     56600   113.2          510.13825      59.280549     -3777.5527      13920.889    
     56700   113.4          517.07411      60.08653      -3776.0553      14217.925    
     56800   113.6          506.54963      58.863534     -3777.8915      16751.821    
     56900   113.8          473.38975      55.010195     -3781.5178      13251.982    
     57000   114            504.76099      58.655686     -3781.7836      14650.152    
     57100   114.2          497.77981      57.844438     -3779.7654      16220.659    
     57200   114.4          490.65659      57.016686     -3777.6096      11947.191    
     57300   114.6          505.53128      58.745197     -3777.5109      15992.53     
     57400   114.8          500.00975      58.103568     -3780.7824      14404.484    
     57500   115            478.15447      55.563879     -3784.5463      12621.7      
     57600   115.2          477.87854      55.531814     -3782.0628      13927.338    
     57700   115.4          497.05709      57.760454     -3779.1053      13312.57     
     57800   115.6          527.01605      61.241832     -3777.5305      14244.197    
     57900   115.8          513.06914      59.621132     -3778.3604      14613.346    
     58000   116            502.22949      58.361513     -3781.8306      13174.733    
     58100   116.2          480.90548      55.883559     -3783.6417      14888.975    
     58200   116.4          482.10522      56.022975     -3782.1049      14975.009    
     58300   116.6          490.32051      56.977631     -3780.5988      14041.591    
     58400   116.8          500.34107      58.142069     -3779.8098      13505.553    
     58500   117            509.47056      59.202961     -3778.1538      11929.127    
     58600   117.2          508.46923      59.086601     -3776.8652      15940.489    
     58700   117.4          520.69671      60.507494     -3776.4547      13565.706    
     58800   117.6          494.7797       57.495811     -3778.6447      14943.887    
     58900   117.8          486.09437      56.486533     -3781.1237      16388.948    
     59000   118            495.72857      57.606074     -3781.8165      13719.615    
     59100   118.2          497.11603      57.767304     -3778.857       12084.774    
     59200   118.4          511.62076      59.452824     -3776.3322      12935.899    
     59300   118.6          512.51354      59.55657      -3777.2127      13353.989    
     59400   118.8          489.52056      56.884673     -3779.4019      13902.021    
     59500   119            498.31766      57.90694      -3780.3438      14657.807    
     59600   119.2          476.0058       55.314193     -3780.1437      15475.889    
     59700   119.4          515.19917      59.868652     -3779.9313      13862.996    
     59800   119.6          495.69044      57.601644     -3780.0613      15838.195    
     59900   119.8          514.24957      59.758305     -3779.7436      15465.31     
     60000   120            508.26736      59.063143     -3779.5044      14359.629    
     60100   120.2          488.61897      56.779904     -3780.1054      15662.352    
     60200   120.4          499.7748       58.076266     -3780.858       14119.731    
     60300   120.6          476.27099      55.345009     -3781.1189      16656.703    
     60400   120.8          505.95929      58.794933     -3780.1289      13370.081    
     60500   121            531.68578      61.784478     -3777.8921      13622.415    
     60600   121.2          516.14097      59.978094     -3776.5322      14700.498    
     60700   121.4          506.28559      58.832851     -3778.4463      16103.109    
     60800   121.6          482.13275      56.026174     -3782.114       13873.487    
     60900   121.8          501.98389      58.332973     -3782.4373      16098.942    
     61000   122            506.62134      58.871867     -3780.2619      15695.005    
     61100   122.2          499.48502      58.042592     -3777.5692      14081.263    
     61200   122.4          503.14831      58.468284     -3777.5208      12963.177    
     61300   122.6          511.21987      59.406239     -3778.2908      15832.533    
     61400   122.8          487.36977      56.634741     -3779.6516      13813.286    
     61500   123            481.55175      55.958659     -3782.36        14136.42     
     61600   123.2          487.92684      56.699475     -3783.8662      13231.511    
     61700   123.4          490.24317      56.968644     -3780.2326      13381.775    
     61800   123.6          521.14857      60.560002     -3777.629       13944.511    
     61900   123.8          503.31316      58.487441     -3777.8788      14702.065    
     62000   124            493.05623      57.295536     -3779.5891      13442.685    
     62100   124.2          492.151        57.190344     -3782.311       14738.453    
     62200   124.4          490.62186      57.012649     -3784.0863      11912.572    
     62300   124.6          485.68026      56.438411     -3781.5024      12960.193    
     62400   124.8          517.33737      60.117122     -3777.6421      14942.855    
     62500   125            515.78046      59.936201     -3778.0449      12576.211    
     62600   125.2          493.6675       57.366568     -3780.9436      14220.74     
     62700   125.4          483.57175      56.193393     -3782.7288      14060.33     
     62800   125.6          473.24962      54.993911     -3782.0853      13928.829    
     62900   125.8          511.62839      59.453711     -3778.1963      15690.147    
     63000   126            513.14702      59.630183     -3777.4299      13614.116    
     63100   126.2          500.71839      58.185915     -3779.1418      15922.213    
     63200   126.4          494.84145      57.502986     -3781.2575      14049.224    
     63300   126.6          513.3312       59.651586     -3781.616       12495.828    
     63400   126.8          494.64722      57.480416     -3779.065       16503.451    
     63500   127            514.38797      59.774387     -3775.9374      13061.279    
     63600   127.2          501.2542       58.24818      -3777.0646      14786.027    
     63700   127.4          495.65766      57.597834     -3779.6072      13538.088    
     63800   127.6          483.50761      56.185939     -3780.7316      14729.079    
     63900   127.8          490.76775      57.029603     -3780.2365      12599.338    
     64000   128            497.37408      57.79729      -3779.5497      12472.066    
     64100   128.2          517.32333      60.11549      -3777.8965      12350.35     
     64200   128.4          527.44688      61.291896     -3773.8742      14179.004    
     64300   128.6          515.98497      59.959966     -3774.5965      14195.751    
     64400   128.8          496.52173      57.698244     -3778.0868      14826.946    
     64500   129            497.87914      57.855981     -3779.0195      13427.633    
     64600   129.2          521.21997      60.568298     -3779.3204      13211.026    
     64700   129.4          496.98338      57.751889     -3780.5122      13036.055    
     64800   129.6          488.15183      56.72562      -3782.6773      13672.125    
     64900   129.8          479.90129      55.766867     -3784.204       14412.631    
     65000   130            496.52504      57.698627     -3781.5437      14001.266    
     65100   130.2          507.22239      58.941712     -3778.0792      14874.129    
     65200   130.4          498.59295      57.938929     -3778.1642      12579.169    
     65300   130.6          481.32821      55.932682     -3779.7542      14985.971    
     65400   130.8          482.35856      56.052414     -3782.0947      10597.308    
     65500   131            478.50801      55.604962     -3784.9195      15065.816    
     65600   131.2          490.96761      57.052827     -3785.7569      12491.093    
     65700   131.4          506.80911      58.893687     -3780.7561      12411.968    
     65800   131.6          505.9736       58.796597     -3779.2194      15799.264    
     65900   131.8          504.58645      58.635403     -3778.3214      15111.734    
     66000   132            501.31273      58.254981     -3778.64        16322.669    
     66100   132.2          504.09093      58.577822     -3780.554       14093.467    
     66200   132.4          498.9736       57.983163     -3783.1527      13483.093    
     66300   132.6          478.32827      55.584075     -3782.6791      14916.144    
     66400   132.8          507.40323      58.962727     -3777.7916      14717.711    
     66500   133            505.26393      58.71413      -3777.3691      13672.027    
     66600   133.2          495.12885      57.536384     -3778.8347      15598.326    
     66700   133.4          501.5659       58.284401     -3781.395       13076.301    
     66800   133.6          486.95523      56.586569     -3782.7018      14760.021    
     66900   133.8          501.2096       58.242996     -3780.5348      14346.414    
     67000   134            509.59249      59.217129     -3776.3485      12916.013    
     67100   134.2          510.44202      59.315848     -3777.1531      15997.277    
     67200   134.4          508.89523      59.136104     -3779.8544      11712.234    
     67300   134.6          504.89656      58.67144      -3781.4306      14170.91     
     67400   134.8          486.5315       56.537329     -3781.2933      13487.891    
     67500   135            508.05429      59.038383     -3776.8299      13637.025    
     67600   135.2          522.33259      60.69759      -3775.5325      13883.521    
     67700   135.4          506.55236      58.863852     -3777.8621      14068.575    
     67800   135.6          508.68922      59.112165     -3780.145       11306.157    
     67900   135.8          493.02651      57.292081     -3780.9124      14660.118    
     68000   136            502.5133       58.394493     -3780.6006      12569.948    
     68100   136.2          506.72245      58.883616     -3778.2505      12768.192    
     68200   136.4          523.38073      60.819389     -3774.4201      16247.915    
     68300   136.6          514.24063      59.757265     -3776.7271      12685.573    
     68400   136.8          500.27949      58.134913     -3779.2916      13440.401    
     68500   137            495.46592      57.575553     -3780.633       13982.569    
     68600   137.2          482.26153      56.041138     -3781.4302      15890.322    
     68700   137.4          505.05581      58.689945     -3780.8736      13959.139    
     68800   137.6          504.9967       58.683076     -3776.6269      15057.364    
     68900   137.8          527.82503      61.335839     -3775.8736      15290.36     
     69000   138            498.425        57.919413     -3778.2224      14786.461    
     69100   138.2          496.45517      57.690508     -3781.0225      14348.526    
     69200   138.4          495.9964       57.637197     -3780.8356      13391.098    
     69300   138.6          501.10445      58.230778     -3779.8356      14537.183    
     69400   138.8          500.21985      58.127983     -3778.9619      13576.823    
     69500   139            502.31443      58.371384     -3776.3809      14917.346    
     69600   139.2          524.50533      60.950073     -3774.4402      12175.467    
     69700   139.4          512.72679      59.58135      -3777.6213      14018.526    
     69800   139.6          498.88476      57.972839     -3780.1798      15156.8      
     69900   139.8          477.6937       55.510334     -3780.3848      13390.722    
     70000   140            509.50988      59.207529     -3779.1287      14197.529    
     70100   140.2          501.03446      58.222644     -3776.5759      13468.999    
     70200   140.4          519.38127      60.354633     -3774.3566      14888.896    
     70300   140.6          524.72026      60.97505      -3775.2137      12926.732    
     70400   140.8          490.09575      56.951513     -3779.7843      14662.105    
     70500   141            502.94245      58.444363     -3781.3564      12399.359    
     70600   141.2          489.28472      56.857268     -3781.6148      13983.981    
     70700   141.4          513.31232      59.649391     -3779.3667      12914.434    
     70800   141.6          503.6202       58.523121     -3776.4457      12869.083    
     70900   141.8          529.62384      61.544869     -3774.773       15689.345    
     71000   142            493.15405      57.306903     -3779.8957      11801.375    
     71100   142.2          487.05668      56.598358     -3781.3141      15808.889    
     71200   142.4          514.23071      59.756113     -3780.5524      14158.932    
     71300   142.6          497.73398      57.839113     -3778.5984      14252.089    
     71400   142.8          500.81035      58.196602     -3776.361       15310.99     
     71500   143            505.38268      58.727929     -3775.976       13384.513    
     71600   143.2          506.52688      58.86089      -3780.4778      15285.522    
     71700   143.4          490.13198      56.955724     -3782.1836      13207.921    
     71800   143.6          500.47096      58.157163     -3781.0717      14279.216    
     71900   143.8          506.12409      58.814084     -3778.0525      13656.266    
     72000   144            499.78144      58.077037     -3777.381       14040.005    
     72100   144.2          510.55584      59.329075     -3778.4137      14805.118    
     72200   144.4          489.56176      56.88946      -3779.2481      13260.707    
     72300   144.6          492.88863      57.276059     -3779.5007      15673.419    
     72400   144.8          491.92067      57.163577     -3779.6784      15941.04     
     72500   145            491.08146      57.066057     -3780.1213      14333.497    
     72600   145.2          476.13379      55.329066     -3782.839       15629.535    
     72700   145.4          481.35868      55.936222     -3784.3364      13420.769    
     72800   145.6          505.08766      58.693646     -3781.5442      14750.782    
     72900   145.8          506.86771      58.900496     -3778.6809      14804.112    
     73000   146            521.73525      60.628178     -3778.6833      14107.613    
     73100   146.2          513.78088      59.703841     -3779.3211      13589.976    
     73200   146.4          502.4781       58.390402     -3781.3131      14617.915    
     73300   146.6          493.74638      57.375734     -3784.2779      15391.08     
     73400   146.8          488.87343      56.809474     -3783.3884      15252.768    
     73500   147            493.06023      57.296        -3779.1551      14509.983    
     73600   147.2          485.70825      56.441664     -3778.8183      14304.401    
     73700   147.4          491.17977      57.077482     -3779.8687      12052.482    
     73800   147.6          495.01337      57.522964     -3781.1564      14167.597    
     73900   147.8          503.06238      58.458299     -3782.4434      13980.657    
     74000   148            457.19122      53.127846     -3783.3063      13082.253    
     74100   148.2          505.40949      58.731044     -3780.7681      15673.92     
     74200   148.4          502.43684      58.385608     -3777.8624      15193.241    
     74300   148.6          519.47115      60.365077     -3777.4674      13428.622    
     74400   148.8          503.77286      58.54086      -3780.0029      15892.456    
     74500   149            491.24811      57.085422     -3782.644       15530.882    
     74600   149.2          479.74561      55.748776     -3782.3493      13597.483    
     74700   149.4          481.50109      55.952772     -3780.6995      14214.941    
     74800   149.6          502.41795      58.383413     -3778.2873      15885.238    
     74900   149.8          496.75068      57.724848     -3777.1049      14299.721    
     75000   150            505.96353      58.795426     -3777.7203      13197.47     
     75100   150.2          486.57855      56.542798     -3782.4137      14295.652    
     75200   150.4          492.32421      57.210471     -3783.1567      11601.678    
     75300   150.6          496.13574      57.653389     -3781.0057      15850.638    
     75400   150.8          487.94409      56.70148      -3778.7956      13454.481    
     75500   151            499.28745      58.019633     -3778.404       13446.064    
     75600   151.2          492.43781      57.223672     -3779.2501      14660.598    
     75700   151.4          491.11108      57.069499     -3782.7865      11794        
     75800   151.6          452.00253      52.524895     -3784.7995      12841.646    
     75900   151.8          504.87072      58.668437     -3782.5872      14229.111    
     76000   152            487.89311      56.695556     -3780.9046      11896.327    
     76100   152.2          521.46532      60.596809     -3779.1012      13502.323    
     76200   152.4          499.5261       58.047366     -3777.4875      16521.772    
     76300   152.6          501.58005      58.286044     -3777.9251      13110.444    
     76400   152.8          486.8408       56.573272     -3782.2472      15600.644    
     76500   153            505.23489      58.710755     -3783.0323      14384.715    
     76600   153.2          491.60482      57.126875     -3781.0411      15072.893    
     76700   153.4          485.00289      56.359698     -3779.0619      16589.229    
     76800   153.6          517.20769      60.102052     -3778.5195      13226.841    
     76900   153.8          499.0948       57.997246     -3779.7424      15078.972    
     77000   154            509.73714      59.233938     -3780.304       11558.801    
     77100   154.2          510.0187       59.266657     -3776.9889      15516.506    
     77200   154.4          537.86768      62.502844     -3774.2784      14449.67     
     77300   154.6          495.16785      57.540915     -3776.2797      12047.841    
     77400   154.8          490.86702      57.041138     -3778.7342      15323.676    
     77500   155            480.01714      55.780329     -3779.4246      14185.306    
     77600   155.2          502.34355      58.374767     -3779.1477      14940.455    
     77700   155.4          505.53141      58.745212     -3778.4856      12781.817    
     77800   155.6          530.55963      61.653613     -3774.5987      15398.154    
     77900   155.8          537.05632      62.40856      -3773.6011      14406.021    
     78000   156            511.86946      59.481725     -3777.3157      13672.647    
     78100   156.2          507.09416      58.926811     -3779.5967      15017.51     
     78200   156.4          489.12517      56.838727     -3780.8101      12585.295    
     78300   156.6          483.03431      56.13094      -3781.3219      12795.165    
     78400   156.8          487.08505      56.601655     -3780.2906      12801.81     
     78500   157            507.48748      58.972517     -3777.0075      13621.987    
     78600   157.2          515.38065      59.889742     -3776.3335      14495.127    
     78700   157.4          502.04699      58.340306     -3778.7305      11597.373    
     78800   157.6          481.15307      55.91233      -3781.7381      15466.477    
     78900   157.8          507.23512      58.943191     -3781.3603      13202.722    
     79000   158            488.00924      56.709051     -3780.528       11322.047    
     79100   158.2          509.74199      59.234502     -3779.4489      13928.138    
     79200   158.4          498.15439      57.887966     -3778.8247      13550.08     
     79300   158.6          484.84018      56.34079      -3779.062       15139.173    
     79400   158.8          498.5708       57.936355     -3780.297       13961.014    
     79500   159            496.88199      57.740108     -3781.4205      13587.537    
     79600   159.2          513.87855      59.71519      -3780.7177      14139.954    
     79700   159.4          496.07026      57.64578      -3778.9014      12921.042    
     79800   159.6          524.66895      60.969088     -3775.8366      11746.579    
     79900   159.8          505.22452      58.70955      -3776.5201      14546.874    
     80000   160            493.46413      57.342936     -3780.6027      11376.07     
     80100   160.2          486.89866      56.579995     -3781.2156      14923.197    
     80200   160.4          495.6464       57.596526     -3780.5395      13143.319    
     80300   160.6          482.15068      56.028257     -3779.5506      12474.577    
     80400   160.8          494.29729      57.439752     -3777.8992      14364.533    
     80500   161            526.21492      61.148736     -3776.0665      15564.152    
     80600   161.2          515.62745      59.918421     -3777.2546      12532.275    
     80700   161.4          485.12994      56.374462     -3781.1761      15512.578    
     80800   161.6          491.0956       57.0677       -3781.9946      15705.413    
     80900   161.8          482.56557      56.076469     -3780.8963      13548.075    
     81000   162            501.98083      58.332617     -3777.8148      15124.212    
     81100   162.2          524.82754      60.987516     -3775.3556      14474.171    
     81200   162.4          495.76758      57.610607     -3780.2106      13571.736    
     81300   162.6          482.05183      56.01677      -3782.3021      14933.072    
     81400   162.8          495.37638      57.565148     -3781.7537      13110.275    
     81500   163            495.8194       57.616629     -3779.6195      14655.983    
     81600   163.2          519.96493      60.422457     -3778.0972      14889.203    
     81700   163.4          500.33989      58.141932     -3779.5798      13411.762    
     81800   163.6          487.10493      56.603965     -3783.2271      13063.251    
     81900   163.8          495.25768      57.551355     -3783.3471      13575.41     
     82000   164            493.88735      57.392115     -3781.2879      14302.006    
     82100   164.2          498.76789      57.959258     -3780.5276      13208.034    
     82200   164.4          507.26585      58.946762     -3780.5084      14489.055    
     82300   164.6          492.29274      57.206814     -3780.4479      14346.195    
     82400   164.8          503.14129      58.467468     -3780.3398      14069.412    
     82500   165            509.21033      59.172721     -3780.92        14480.031    
     82600   165.2          484.06667      56.250904     -3781.819       14866.562    
     82700   165.4          493.75678      57.376943     -3782.0772      11154.458    
     82800   165.6          514.29476      59.763556     -3778.7536      14549.988    
     82900   165.8          513.13843      59.629184     -3777.2486      14158.892    
     83000   166            501.28161      58.251365     -3778.7609      13723.773    
     83100   166.2          494.52096      57.465744     -3781.0105      14426.001    
     83200   166.4          473.80475      55.058419     -3781.3921      13720.181    
     83300   166.6          507.53159      58.977642     -3777.7543      12957.777    
     83400   166.8          518.71734      60.277481     -3774.396       14391.724    
     83500   167            511.64945      59.456158     -3776.9628      14113.733    
     83600   167.2          508.90738      59.137517     -3780.2359      11848.787    
     83700   167.4          484.89538      56.347204     -3781.7612      13893.462    
     83800   167.6          481.48964      55.951441     -3781.4778      14792.099    
     83900   167.8          499.58711      58.054455     -3778.1541      11874.607    
     84000   168            501.24701      58.247344     -3776.4467      14527.759    
     84100   168.2          505.73634      58.769026     -3777.9158      12911.055    
     84200   168.4          482.05773      56.017455     -3781.2515      14314.503    
     84300   168.6          506.32673      58.837632     -3781.2953      14456.833    
     84400   168.8          500.93163      58.210695     -3780.0534      12520.298    
     84500   169            525.77576      61.097704     -3778.3232      12803.074    
     84600   169.2          505.77695      58.773745     -3777.6255      14105.613    
     84700   169.4          505.33288      58.722142     -3779.6394      13565.879    
     84800   169.6          474.41579      55.129425     -3782.6519      11012.532    
     84900   169.8          484.54715      56.306738     -3782.3365      14362.481    
     85000   170            516.05273      59.96784      -3778.8818      13679.008    
     85100   170.2          513.73322      59.698303     -3777.6604      15376.606    
     85200   170.4          503.71369      58.533984     -3778.6722      13719.857    
     85300   170.6          479.75018      55.749307     -3780.477       14630.638    
     85400   170.8          470.22355      54.642267     -3781.987       12433.922    
     85500   171            473.5079       55.023925     -3783.8323      14865.732    
     85600   171.2          471.79255      54.824592     -3785.698       12549.138    
     85700   171.4          474.15017      55.098559     -3783.8252      13023.178    
[...]
    478600   957.2          495.48008      57.577199     -3782.6323      15590.337    
    478700   957.4          517.79443      60.170234     -3778.7104      14869.641    
    478800   957.6          523.77888      60.865657     -3777.5699      15456.004    
    478900   957.8          511.37998      59.424844     -3779.0609      14904.558    
    479000   958            495.29726      57.555954     -3782.1695      14158.773    
    479100   958.2          499.86836      58.087137     -3782.5124      14541.154    
    479200   958.4          489.873        56.925629     -3781.6294      15302.531    
    479300   958.6          499.21821      58.011587     -3780.5         13392.581    
    479400   958.8          507.24459      58.944292     -3779.3223      14258.516    
    479500   959            500.8425       58.200338     -3777.5619      13375.232    
    479600   959.2          528.1623       61.375031     -3774.2695      13107.3      
    479700   959.4          520.63981      60.500882     -3776.1185      14780.878    
    479800   959.6          503.0441       58.456175     -3779.6141      12902.424    
    479900   959.8          479.63056      55.735407     -3780.4618      14298.191    
    480000   960            486.18766      56.497374     -3781.0813      13937.928    
    480100   960.2          484.44934      56.295372     -3781.0258      12666.471    
    480200   960.4          504.91764      58.673889     -3779.024       11695.065    
    480300   960.6          521.6284       60.615761     -3776.4195      13624.407    
    480400   960.8          514.4502       59.781619     -3776.2177      12831.818    
    480500   961            513.47616      59.668431     -3780.4455      12273.363    
    480600   961.2          484.7113       56.325814     -3781.9025      13363.635    
    480700   961.4          490.30629      56.975979     -3781.255       12359.57     
    480800   961.6          502.8736       58.436362     -3779.1324      13856.171    
    480900   961.8          523.75782      60.863209     -3776.2682      16147.077    
    481000   962            524.81113      60.98561      -3775.6083      11864.825    
    481100   962.2          506.27333      58.831427     -3780.9213      13614.678    
    481200   962.4          460.32457      53.491957     -3782.0242      13619.381    
    481300   962.6          508.36335      59.074297     -3780.4004      14684.524    
    481400   962.8          493.77822      57.379434     -3778.3763      12920.03     
    481500   963            522.06896      60.666956     -3777.2777      16524.542    
    481600   963.2          482.37315      56.05411      -3781.0838      14213.985    
    481700   963.4          502.50095      58.393058     -3783.2595      15438.018    
    481800   963.6          484.3756       56.286804     -3782.2385      15033.009    
    481900   963.8          500.41303      58.150431     -3779.2276      13260.356    
    482000   964            505.64247      58.758117     -3777.9326      14617.863    
    482100   964.2          509.67838      59.22711      -3778.5429      14120.404    
    482200   964.4          501.3583       58.260277     -3779.9203      14961.652    
    482300   964.6          499.14512      58.003094     -3780.4326      15719.871    
    482400   964.8          505.28824      58.716955     -3780.4729      15207.507    
    482500   965            496.43942      57.688679     -3780.1705      14103.176    
    482600   965.2          513.58985      59.681643     -3780.2682      13816.926    
    482700   965.4          516.27425      59.993582     -3780.4832      14865.753    
    482800   965.6          505.66836      58.761126     -3780.8083      12977.338    
    482900   965.8          498.81707      57.964973     -3780.6839      12961.953    
    483000   966            499.62391      58.058731     -3779.4147      13950.807    
    483100   966.2          502.02466      58.337711     -3777.4992      12254.643    
    483200   966.4          504.3463       58.607497     -3776.9998      15964.142    
    483300   966.6          517.21304      60.102674     -3780.0465      14261.108    
    483400   966.8          492.97254      57.28581      -3782.7252      14490.751    
    483500   967            488.51641      56.767986     -3782.1313      15997.709    
    483600   967.2          518.65936      60.270744     -3779.728       14104.031    
    483700   967.4          537.83736      62.499321     -3778.4616      15249.021    
    483800   967.6          525.671        61.085531     -3779.0656      14945.946    
    483900   967.8          511.74934      59.467766     -3780.201       13196.819    
    484000   968            475.72694      55.281788     -3781.5984      13675.212    
    484100   968.2          497.24006      57.781716     -3782.6573      12613.874    
    484200   968.4          474.05665      55.087692     -3784.0953      14217.694    
    484300   968.6          500.10189      58.114276     -3782.4939      14519.043    
    484400   968.8          510.0615       59.271631     -3779.2483      12704.7      
    484500   969            508.80271      59.125353     -3778.5891      15030.358    
    484600   969.2          492.82451      57.268609     -3779.7542      13701.636    
    484700   969.4          497.26917      57.785099     -3783.5355      15035.352    
    484800   969.6          481.17403      55.914766     -3784.941       13141.193    
    484900   969.8          515.14093      59.861885     -3782.8209      11819.224    
    485000   970            496.84166      57.735421     -3781.1153      13154.956    
    485100   970.2          507.5714       58.982268     -3779.5172      13523.821    
    485200   970.4          515.46742      59.899825     -3777.7177      14789.956    
    485300   970.6          513.12502      59.627626     -3777.2099      13606.496    
    485400   970.8          486.71301      56.558422     -3780.3665      13758.173    
    485500   971            491.5632       57.122038     -3782.6672      13279.794    
    485600   971.2          491.44285      57.108053     -3782.3011      13142.033    
    485700   971.4          502.64252      58.409509     -3779.1545      13251.585    
    485800   971.6          529.09938      61.483924     -3776.9462      12420.574    
    485900   971.8          497.46075      57.807362     -3778.1104      12091.033    
    486000   972            521.74434      60.629234     -3779.3405      14331.885    
    486100   972.2          516.54223      60.024723     -3779.9583      14478.09     
    486200   972.4          502.57701      58.401896     -3781.0921      12148.937    
    486300   972.6          487.20786      56.615926     -3784.1774      14299.931    
    486400   972.8          464.24818      53.9479       -3786.3915      13644.858    
    486500   973            478.32989      55.584263     -3783.3189      14759.172    
    486600   973.2          499.34565      58.026396     -3781.2695      14110.448    
    486700   973.4          496.03757      57.641981     -3779.9983      13588.816    
    486800   973.6          500.72414      58.186584     -3779.2239      10139.741    
    486900   973.8          506.83247      58.896401     -3778.4025      17196.415    
    487000   974            483.49694      56.1847       -3779.5319      12766.498    
    487100   974.2          500.94871      58.21268      -3782.3213      14179.053    
    487200   974.4          488.10949      56.7207       -3782.6263      14418.721    
    487300   974.6          504.87836      58.669324     -3779.7298      12891.818    
    487400   974.8          509.51057      59.20761      -3777.1505      15652.814    
    487500   975            509.06644      59.156        -3777.9348      15858.346    
    487600   975.2          508.34188      59.071802     -3779.3813      13575.527    
    487700   975.4          491.36739      57.099284     -3780.2184      14863.769    
    487800   975.6          488.94091      56.817315     -3780.6635      14429.082    
    487900   975.8          481.37232      55.937808     -3781.0042      14843.059    
    488000   976            498.09268      57.880796     -3780.6677      15191.102    
    488100   976.2          515.42287      59.894648     -3779.3472      16262.227    
    488200   976.4          488.59625      56.777264     -3778.5395      14733.885    
    488300   976.6          510.55726      59.329241     -3777.9398      15026.067    
    488400   976.8          490.55157      57.004481     -3780.4604      15197.284    
    488500   977            491.24673      57.085262     -3783.2384      12948.34     
    488600   977.2          498.72163      57.953882     -3782.7733      14953.1      
    488700   977.4          504.71972      58.65089      -3780.7988      14157.02     
    488800   977.6          491.26666      57.087578     -3778.809       14168.735    
    488900   977.8          521.03511      60.546817     -3778.7474      14289.364    
    489000   978            482.30892      56.046645     -3780.0123      13790.519    
    489100   978.2          485.30181      56.394434     -3781.7563      17046.706    
    489200   978.4          500.73603      58.187965     -3782.5655      14310.547    
    489300   978.6          491.2004       57.079879     -3780.779       13869.618    
    489400   978.8          521.9921       60.658024     -3777.0476      15806.104    
    489500   979            516.071        59.969964     -3777.5732      14037.306    
    489600   979.2          481.92462      56.001988     -3779.8888      15194.047    
    489700   979.4          491.20017      57.079852     -3781.2462      14831.403    
    489800   979.6          493.3263       57.326919     -3781.6334      14188.686    
    489900   979.8          490.75055      57.027604     -3781.1023      15077.16     
    490000   980            518.37428      60.237616     -3778.9627      12760.789    
    490100   980.2          532.8499       61.919754     -3774.6705      15057.94     
    490200   980.4          515.43746      59.896344     -3775.1086      12733.298    
    490300   980.6          519.55943      60.375336     -3778.2587      16098.831    
    490400   980.8          502.45655      58.387899     -3780.4064      13415.382    
    490500   981            495.49166      57.578544     -3781.9596      14440.725    
    490600   981.2          499.84144      58.084009     -3782.1635      13942.202    
    490700   981.4          517.66537      60.155237     -3779.34        14885.432    
    490800   981.6          502.12406      58.349261     -3776.7766      13980.578    
    490900   981.8          514.59795      59.798788     -3777.4655      14085.479    
    491000   982            494.81821      57.500286     -3780.5373      13185.824    
    491100   982.2          486.69216      56.555999     -3781.8589      15118.261    
    491200   982.4          495.48788      57.578105     -3781.1098      13720.664    
    491300   982.6          519.54278      60.373401     -3779.7859      14495.518    
    491400   982.8          514.23347      59.756434     -3778.5202      14611.887    
    491500   983            523.01304      60.776662     -3776.6115      14609.773    
    491600   983.2          499.81592      58.081045     -3776.8071      15732.367    
    491700   983.4          490.73586      57.025896     -3780.7583      12027.679    
    491800   983.6          490.26766      56.97149      -3781.8989      14366.186    
    491900   983.8          498.49011      57.926979     -3780.7599      13556.933    
    492000   984            501.07227      58.227038     -3777.5738      14084.213    
    492100   984.2          509.13145      59.163554     -3775.9821      14289.806    
    492200   984.4          508.66285      59.1091       -3777.1762      13702.713    
    492300   984.6          492.6714       57.250817     -3778.7003      15501.019    
    492400   984.8          495.59425      57.590465     -3780.2505      10424.484    
    492500   985            498.0679       57.877916     -3781.3336      15653.525    
    492600   985.2          497.57252      57.82035      -3781.7065      13347.039    
    492700   985.4          511.63582      59.454574     -3779.5262      13135.404    
    492800   985.6          523.31357      60.811586     -3776.8879      15845.779    
    492900   985.8          509.2315       59.17518      -3776.909       13372.745    
    493000   986            512.82929      59.593262     -3780.5979      14153.628    
    493100   986.2          505.72437      58.767635     -3782.2092      14852.166    
    493200   986.4          494.07869      57.41435      -3780.9523      15085.156    
    493300   986.6          516.45569      60.014666     -3779.4088      14455.067    
    493400   986.8          485.6982       56.440496     -3778.7403      15507.537    
    493500   987            514.45644      59.782344     -3777.4006      15744.076    
    493600   987.2          527.8556       61.339391     -3776.5272      13653.72     
    493700   987.4          490.6264       57.013177     -3779.0352      14371.125    
    493800   987.6          484.83565      56.340264     -3781.3481      14875.34     
    493900   987.8          521.50709      60.601663     -3781.1502      12131.762    
    494000   988            503.5075       58.510023     -3778.7814      15584.952    
    494100   988.2          536.76278      62.374449     -3775.0252      13572.148    
    494200   988.4          529.82763      61.568551     -3776.3894      13407.234    
    494300   988.6          499.28142      58.018932     -3779.3387      15266.56     
    494400   988.8          490.50231      56.998758     -3780.5351      14261.402    
    494500   989            510.06218      59.27171      -3780.0343      13743.71     
    494600   989.2          496.31407      57.674113     -3779.4785      14988.765    
    494700   989.4          511.87861      59.482788     -3777.1308      12891.431    
    494800   989.6          520.89935      60.531041     -3775.118       14740.038    
    494900   989.8          517.78673      60.16934      -3777.5696      13342.316    
    495000   990            500.94571      58.212331     -3780.8836      12769.078    
    495100   990.2          495.70434      57.603258     -3781.1634      14588.31     
    495200   990.4          482.58939      56.079238     -3780.6137      12516.714    
    495300   990.6          487.17298      56.611873     -3778.4667      14512.365    
    495400   990.8          518.79556      60.286571     -3775.1377      14882.099    
    495500   991            504.48134      58.623189     -3776.0976      15494.638    
    495600   991.2          495.52438      57.582347     -3780.0058      14225.33     
    495700   991.4          503.94645      58.561031     -3780.5276      13212.408    
    495800   991.6          496.53721      57.700042     -3780.4811      14021.223    
    495900   991.8          505.89969      58.788008     -3779.9804      14285.008    
    496000   992            519.69529      60.391124     -3778.4391      13530.13     
    496100   992.2          508.02784      59.035309     -3776.0556      15551.369    
    496200   992.4          512.14035      59.513203     -3775.7622      13825.919    
    496300   992.6          493.64343      57.363771     -3780.1463      13062.22     
    496400   992.8          492.81655      57.267683     -3781.7822      13209.692    
    496500   993            493.81234      57.383399     -3780.9094      14530.337    
    496600   993.2          511.91413      59.486915     -3778.2093      12674.102    
    496700   993.4          510.82302      59.360123     -3776.6511      11518.493    
    496800   993.6          510.37879      59.308501     -3778.7501      14277.502    
    496900   993.8          489.93299      56.9326       -3783.1113      11919.895    
    497000   994            482.44833      56.062845     -3782.2778      14725.413    
    497100   994.2          492.41073      57.220525     -3779.4144      14901.337    
    497200   994.4          513.21932      59.638584     -3777.7155      13962.419    
    497300   994.6          498.43964      57.921113     -3778.2275      16046.153    
    497400   994.8          477.63565      55.503588     -3782.0176      14973.977    
    497500   995            487.98078      56.705743     -3783.7423      14984.179    
    497600   995.2          465.12721      54.050047     -3782.228       13647.185    
    497700   995.4          490.29379      56.974526     -3780.1018      15090.525    
    497800   995.6          505.00552      58.684101     -3778.9577      12588.229    
    497900   995.8          504.74171      58.653445     -3779.1058      12747.15     
    498000   996            466.10357      54.163505     -3782.1921      13561.419    
    498100   996.2          469.48204      54.556099     -3784.8789      12576.253    
    498200   996.4          480.98944      55.893316     -3782.335       13070.142    
    498300   996.6          513.99643      59.728889     -3779.4984      12764.392    
    498400   996.8          506.60361      58.869807     -3778.6765      14478.338    
    498500   997            491.57397      57.12329      -3778.5402      14089.772    
    498600   997.2          515.21728      59.870757     -3779.662       14596.052    
    498700   997.4          473.73379      55.050173     -3783.0667      12535.86     
    498800   997.6          489.3094       56.860136     -3783.3328      13949.464    
    498900   997.8          514.60179      59.799234     -3779.9195      15009.902    
    499000   998            496.88408      57.74035      -3778.5388      11742.496    
    499100   998.2          507.30102      58.95085      -3779.1039      13780.233    
    499200   998.4          494.252        57.43449      -3780.8374      15159.974    
    499300   998.6          487.12005      56.605722     -3783.3125      11622.118    
    499400   998.8          470.98341      54.730566     -3785.5953      14204.971    
    499500   999            489.60293      56.894245     -3783.0517      13863.064    
    499600   999.2          504.13094      58.582471     -3779.5548      11914.901    
    499700   999.4          499.185        58.007728     -3778.1647      16452.957    
    499800   999.6          516.09123      59.972314     -3777.9663      12958.819    
    499900   999.8          499.65327      58.062144     -3779.8896      13660.511    
    500000   1000           472.6268       54.921536     -3782.7669      13233.866    
Loop time of 29937.8 on 1 procs for 500000 steps with 900 atoms

Performance: 2.886 ns/day, 8.316 hours/ns, 16.701 timesteps/s
59.5% CPU use with 1 MPI tasks x 1 OpenMP threads

MPI task timing breakdown:
Section |  min time  |  avg time  |  max time  |%varavg| %total
---------------------------------------------------------------
Pair    | 29641      | 29641      | 29641      |   0.0 | 99.01
Neigh   | 251.01     | 251.01     | 251.01     |   0.0 |  0.84
Comm    | 10.87      | 10.87      | 10.87      |   0.0 |  0.04
Output  | 11.333     | 11.333     | 11.333     |   0.0 |  0.04
Modify  | 19.213     | 19.213     | 19.213     |   0.0 |  0.06
Other   |            | 3.943      |            |       |  0.01

Nlocal:            900 ave         900 max         900 min
Histogram: 1 0 0 0 0 0 0 0 0 0
Nghost:           2476 ave        2476 max        2476 min
Histogram: 1 0 0 0 0 0 0 0 0 0
Neighs:              0 ave           0 max           0 min
Histogram: 1 0 0 0 0 0 0 0 0 0
FullNghs:        65832 ave       65832 max       65832 min
Histogram: 1 0 0 0 0 0 0 0 0 0

Total # of neighbors = 65832
Ave neighs/atom = 73.146667
Neighbor list builds = 50000
Dangerous builds not checked
Total wall time: 8:20:52
