ITEM: TIMESTEP
0
ITEM: NUMBER OF ATOMS
48
ITEM: BOX BOUNDS xy xz yz pp pp pp
-7.3093596100807190e+00 8.6109705567359924e+00 2.5110912919044495e+00
-1.0506033897399902e-02 9.6185076832771301e+00 -7.2948027849197388e+00
-2.6944518089294434e-02 1.9544072151184082e+01 3.6519104242324829e-01
ITEM: ATOMS id type xs ys zs fx fy fz
1 1 0.960317 0.165578 0.0319985 0 0 0.0371201
2 1 0.522247 0.0752984 0.0528317 0 0 -0.0170643
3 1 0.818241 0.123911 0.656998 0 0 0.00012815
4 1 0.123341 0.950298 0.927832 0 0 -0.03712
5 1 0.751757 0.158632 0.802832 0 0 0.00219917
6 1 0.561411 0.040578 0.906998 0 0 0.0170641
7 1 0.189826 0.248911 0.781998 0 0 0.00346673
8 1 0.0750713 0.207245 0.406998 0 0 -6.87838e-05
9 1 0.380172 0.0336318 0.677832 0 0 -0.000339627
10 1 0.00858695 0.241965 0.552832 0 0 6.91414e-05
11 1 0.893832 0.200298 0.177832 0 0 -0.00346649
12 1 0.703486 0.0822446 0.281998 0 0 0.000339746
13 1 0.331902 0.290578 0.156998 0 0 -0.00219929
14 1 0.637002 0.116965 0.427832 0 0 -3.5882e-05
15 1 0.960317 0.498911 0.0319984 0 0 0.0371205
16 1 0.522247 0.408632 0.0528317 0 0 -0.0170643
17 1 0.818241 0.457245 0.656998 0 0 0.000127792
18 1 0.123341 0.283632 0.927832 0 0 -0.0371202
19 1 0.751757 0.491965 0.802832 0 0 0.00219929
20 1 0.561411 0.373911 0.906998 0 0 0.0170641
21 1 0.189826 0.582245 0.781998 0 0 0.00346661
22 1 0.446656 0.332245 0.531998 0 0 3.68357e-05
23 1 0.0750713 0.540578 0.406998 0 0 -6.86646e-05
24 1 0.380172 0.366965 0.677832 0 0 -0.000339508
25 1 0.00858695 0.575298 0.552832 0 0 6.86646e-05
26 1 0.265417 0.325298 0.302832 0 0 -0.000128269
27 1 0.893832 0.533632 0.177832 0 0 -0.00346696
28 1 0.703486 0.415578 0.281998 0 0 0.000339508
29 1 0.331902 0.623911 0.156998 0 0 -0.00219941
30 1 0.637002 0.450298 0.427832 0 0 -3.6478e-05
31 1 0.960317 0.832245 0.0319985 0 0 0.0371202
32 1 0.522247 0.741965 0.0528317 0 0 -0.0170642
33 1 0.818241 0.790578 0.656998 0 0 0.000128031
34 1 0.123341 0.616965 0.927832 0 0 -0.0371202
35 1 0.751757 0.825298 0.802832 0 0 0.00219965
36 1 0.561411 0.707245 0.906998 0 0 0.0170641
37 1 0.189826 0.915578 0.781998 0 0 0.00346637
38 1 0.446656 0.665578 0.531998 0 0 3.56436e-05
39 1 0.0750713 0.873911 0.406998 0 0 -6.85453e-05
40 1 0.380172 0.700298 0.677832 0 0 -0.000339031
41 1 0.00858696 0.908632 0.552832 0 0 6.78301e-05
42 1 0.265417 0.658632 0.302832 0 0 -0.000127912
43 1 0.893832 0.866965 0.177832 0 0 -0.00346661
44 1 0.703486 0.748911 0.281998 0 0 0.000339627
45 1 0.331902 0.957245 0.156998 0 0 -0.00219941
46 1 0.637002 0.783632 0.427832 0 0 -3.5882e-05
47 1 0.446656 0.998911 0.531998 0 0 3.61204e-05
48 1 0.265417 0.991965 0.302832 0 0 -0.000127912
ITEM: TIMESTEP
1
ITEM: NUMBER OF ATOMS
48
ITEM: BOX BOUNDS xy xz yz pp pp pp
-7.3093596100807190e+00 8.6109705567359924e+00 2.5110912919044495e+00
-1.0506033897399902e-02 9.6185076832771301e+00 -7.2948027849197388e+00
-2.6944518089294434e-02 1.9544072151184082e+01 3.6519104242324829e-01
ITEM: ATOMS id type xs ys zs fx fy fz
1 1 0.961097 0.165553 0.0326436 0 0 -0.00225961
2 1 0.521889 0.0753101 0.0525351 0 0 -0.00550258
3 1 0.818244 0.123911 0.657001 0 0 0.000559211
4 1 0.122561 0.950324 0.927187 0 0 0.00225997
5 1 0.751803 0.15863 0.80287 0 0 -0.00567913
6 1 0.561769 0.0405663 0.907295 0 0 0.00550246
7 1 0.189899 0.248909 0.782059 0 0 -0.00167704
8 1 0.0750699 0.207245 0.406997 0 0 -5.25713e-05
9 1 0.380165 0.033632 0.677826 0 0 0.000395656
10 1 0.0085884 0.241965 0.552833 0 0 5.23329e-05
11 1 0.89376 0.200301 0.177771 0 0 0.00167668
12 1 0.703494 0.0822444 0.282004 0 0 -0.000395894
13 1 0.331855 0.290579 0.15696 0 0 0.00567901
14 1 0.637001 0.116965 0.427831 0 0 -0.000167847
15 1 0.961097 0.498886 0.0326436 0 0 -0.00225949
16 1 0.521889 0.408643 0.0525351 0 0 -0.00550282
17 1 0.818244 0.457245 0.657001 0 0 0.00055933
18 1 0.122561 0.283657 0.927187 0 0 0.00225997
19 1 0.751803 0.491964 0.80287 0 0 -0.00567925
20 1 0.561769 0.3739 0.907295 0 0 0.0055027
21 1 0.189899 0.582242 0.782059 0 0 -0.00167727
22 1 0.446657 0.332245 0.531999 0 0 0.000168085
23 1 0.0750699 0.540578 0.406997 0 0 -5.28097e-05
24 1 0.380165 0.366965 0.677826 0 0 0.000396013
25 1 0.00858839 0.575298 0.552833 0 0 5.26905e-05
26 1 0.265415 0.325298 0.302829 0 0 -0.000559449
27 1 0.89376 0.533634 0.177771 0 0 0.00167704
28 1 0.703494 0.415578 0.282004 0 0 -0.000395894
29 1 0.331855 0.623913 0.15696 0 0 0.00567913
30 1 0.637001 0.450298 0.427831 0 0 -0.000167727
31 1 0.961097 0.832219 0.0326436 0 0 -0.00225961
32 1 0.521889 0.741977 0.0525351 0 0 -0.00550294
33 1 0.818244 0.790578 0.657001 0 0 0.000558734
34 1 0.122561 0.616991 0.927187 0 0 0.00225961
35 1 0.751803 0.825297 0.80287 0 0 -0.00567913
36 1 0.561769 0.707233 0.907295 0 0 0.00550282
37 1 0.189899 0.915576 0.782059 0 0 -0.00167692
38 1 0.446657 0.665578 0.531999 0 0 0.000168681
39 1 0.0750699 0.873911 0.406997 0 0 -5.23329e-05
40 1 0.380165 0.700299 0.677826 0 0 0.000395656
41 1 0.00858838 0.908632 0.552833 0 0 5.26905e-05
42 1 0.265415 0.658632 0.302829 0 0 -0.000559092
43 1 0.89376 0.866967 0.177771 0 0 0.00167716
44 1 0.703494 0.748911 0.282004 0 0 -0.000395656
45 1 0.331855 0.957246 0.15696 0 0 0.00567889
46 1 0.637001 0.783632 0.427831 0 0 -0.000168324
47 1 0.446657 0.998911 0.531999 0 0 0.000167966
48 1 0.265415 0.991965 0.302829 0 0 -0.000559092
ITEM: TIMESTEP
2
ITEM: NUMBER OF ATOMS
48
ITEM: BOX BOUNDS xy xz yz pp pp pp
-7.3093596100807190e+00 8.6109705567359924e+00 2.5110912919044495e+00
-1.0506033897399902e-02 9.6185076832771301e+00 -7.2948027849197388e+00
-2.6944518089294434e-02 1.9544072151184082e+01 3.6519104242324829e-01
ITEM: ATOMS id type xs ys zs fx fy fz
1 1 0.961089 0.165553 0.0326367 0 0 0.000103831
2 1 0.521786 0.0753135 0.0524501 0 0 0.000716567
3 1 0.818253 0.123911 0.657008 0 0 -0.000628591
4 1 0.12257 0.950324 0.927193 0 0 -0.000103712
5 1 0.751712 0.158633 0.802795 0 0 -0.00110066
6 1 0.561872 0.0405629 0.90738 0 0 -0.000716329
7 1 0.189874 0.24891 0.782038 0 0 0.000485778
8 1 0.075069 0.207245 0.406997 0 0 3.71933e-05
9 1 0.380171 0.0336318 0.677831 0 0 -0.00090766
10 1 0.00858931 0.241965 0.552834 0 0 -3.75509e-05
11 1 0.893784 0.2003 0.177792 0 0 -0.000486135
12 1 0.703487 0.0822446 0.281999 0 0 0.000907779
13 1 0.331946 0.290576 0.157035 0 0 0.00110054
14 1 0.636999 0.116965 0.427829 0 0 -2.86102e-06
15 1 0.961089 0.498886 0.0326367 0 0 0.000103951
16 1 0.521786 0.408647 0.0524501 0 0 0.000716448
17 1 0.818253 0.457244 0.657008 0 0 -0.000628591
18 1 0.12257 0.283657 0.927193 0 0 -0.000103712
19 1 0.751712 0.491967 0.802795 0 0 -0.00110066
20 1 0.561872 0.373896 0.90738 0 0 -0.00071609
21 1 0.189874 0.582243 0.782038 0 0 0.000485301
22 1 0.44666 0.332245 0.532001 0 0 2.38419e-06
23 1 0.075069 0.540578 0.406997 0 0 3.75509e-05
24 1 0.380171 0.366965 0.677831 0 0 -0.00090754
25 1 0.0085893 0.575298 0.552834 0 0 -3.75509e-05
26 1 0.265405 0.325299 0.302822 0 0 0.000629187
27 1 0.893784 0.533633 0.177792 0 0 -0.000486016
28 1 0.703487 0.415578 0.281999 0 0 0.00090766
29 1 0.331946 0.62391 0.157035 0 0 0.00110054
30 1 0.636999 0.450299 0.427829 0 0 -2.86102e-06
31 1 0.961089 0.832219 0.0326367 0 0 0.000103831
32 1 0.521786 0.74198 0.0524501 0 0 0.000716805
33 1 0.818253 0.790578 0.657008 0 0 -0.000628591
34 1 0.12257 0.61699 0.927193 0 0 -0.000104308
35 1 0.751712 0.8253 0.802795 0 0 -0.00110066
36 1 0.561872 0.70723 0.90738 0 0 -0.000716567
37 1 0.189874 0.915576 0.782038 0 0 0.000485539
38 1 0.44666 0.665578 0.532001 0 0 2.86102e-06
39 1 0.075069 0.873911 0.406997 0 0 3.76701e-05
40 1 0.380171 0.700298 0.677831 0 0 -0.000907421
41 1 0.00858929 0.908632 0.552834 0 0 -3.75509e-05
42 1 0.265405 0.658632 0.302822 0 0 0.000628471
43 1 0.893784 0.866967 0.177792 0 0 -0.000485897
44 1 0.703487 0.748911 0.281999 0 0 0.000907779
45 1 0.331946 0.957243 0.157035 0 0 0.00110066
46 1 0.636999 0.783632 0.427829 0 0 -2.38419e-06
47 1 0.44666 0.998911 0.532001 0 0 2.6226e-06
48 1 0.265405 0.991965 0.302822 0 0 0.000628948
ITEM: TIMESTEP
3
ITEM: NUMBER OF ATOMS
48
ITEM: BOX BOUNDS xy xz yz pp pp pp
-7.3093596100807190e+00 8.6109705567359924e+00 2.5110912919044495e+00
-1.0506033897399902e-02 9.6185076832771301e+00 -7.2948027849197388e+00
-2.6944518089294434e-02 1.9544072151184082e+01 3.6519104242324829e-01
ITEM: ATOMS id type xs ys zs fx fy fz
1 1 0.961091 0.165553 0.0326389 0 0 0.000245929
2 1 0.521801 0.075313 0.0524625 0 0 8.86917e-05
3 1 0.818234 0.123912 0.656993 0 0 -7.12872e-05
4 1 0.122567 0.950324 0.927191 0 0 -0.000246167
5 1 0.751671 0.158635 0.802761 0 0 -1.44243e-05
6 1 0.561857 0.0405634 0.907368 0 0 -8.88109e-05
7 1 0.189887 0.248909 0.782049 0 0 -0.000648141
8 1 0.0750701 0.207245 0.406997 0 0 0.000408411
9 1 0.380143 0.0336327 0.677808 0 0 -0.000154018
10 1 0.0085882 0.241965 0.552833 0 0 -0.000408053
11 1 0.893771 0.2003 0.177781 0 0 0.000648856
12 1 0.703515 0.0822437 0.282022 0 0 0.000153661
13 1 0.331987 0.290575 0.157069 0 0 1.52588e-05
14 1 0.636998 0.116965 0.427829 0 0 0.000420809
15 1 0.961091 0.498886 0.0326389 0 0 0.000245571
16 1 0.521801 0.408646 0.0524625 0 0 8.85725e-05
17 1 0.818234 0.457245 0.656993 0 0 -7.10487e-05
18 1 0.122567 0.283657 0.927191 0 0 -0.000246286
19 1 0.751671 0.491968 0.802761 0 0 -1.46627e-05
20 1 0.561857 0.373897 0.907368 0 0 -8.92878e-05
21 1 0.189887 0.582243 0.782049 0 0 -0.000648022
22 1 0.44666 0.332245 0.532002 0 0 -0.000420213
23 1 0.0750701 0.540578 0.406997 0 0 0.000407815
24 1 0.380143 0.366966 0.677808 0 0 -0.000153899
25 1 0.0085882 0.575298 0.552833 0 0 -0.000407696
26 1 0.265424 0.325298 0.302838 0 0 7.00951e-05
27 1 0.893771 0.533634 0.177781 0 0 0.000648499
28 1 0.703515 0.415577 0.282022 0 0 0.000153661
29 1 0.331987 0.623908 0.157069 0 0 1.5378e-05
30 1 0.636998 0.450299 0.427829 0 0 0.00042069
31 1 0.961091 0.832219 0.0326389 0 0 0.000246286
32 1 0.521801 0.74198 0.0524625 0 0 8.82149e-05
33 1 0.818234 0.790578 0.656993 0 0 -7.09295e-05
34 1 0.122567 0.61699 0.927191 0 0 -0.00024569
35 1 0.751671 0.825301 0.802761 0 0 -1.4782e-05
36 1 0.561857 0.70723 0.907368 0 0 -8.83341e-05
37 1 0.189887 0.915576 0.782049 0 0 -0.000648141
38 1 0.44666 0.665578 0.532002 0 0 -0.00042057
39 1 0.0750701 0.873911 0.406997 0 0 0.000408053
40 1 0.380143 0.700299 0.677808 0 0 -0.000154138
41 1 0.00858819 0.908632 0.552833 0 0 -0.000407577
42 1 0.265424 0.658631 0.302838 0 0 7.09295e-05
43 1 0.893771 0.866967 0.177781 0 0 0.000647902
44 1 0.703515 0.74891 0.282022 0 0 0.000153899
45 1 0.331987 0.957242 0.157069 0 0 1.51396e-05
46 1 0.636998 0.783632 0.427829 0 0 0.000420094
47 1 0.44666 0.998911 0.532002 0 0 -0.00042057
48 1 0.265424 0.991965 0.302838 0 0 7.03335e-05
ITEM: TIMESTEP
4
ITEM: NUMBER OF ATOMS
48
ITEM: BOX BOUNDS xy xz yz pp pp pp
-7.3093596100807190e+00 8.6109705567359924e+00 2.5110912919044495e+00
-1.0506033897399902e-02 9.6185076832771301e+00 -7.2948027849197388e+00
-2.6944518089294434e-02 1.9544072151184082e+01 3.6519104242324829e-01
ITEM: ATOMS id type xs ys zs fx fy fz
1 1 0.961101 0.165552 0.0326467 0 0 -6.67572e-06
2 1 0.521809 0.0753127 0.0524689 0 0 -0.00011003
3 1 0.818226 0.123912 0.656986 0 0 -0.000310779
4 1 0.122557 0.950324 0.927183 0 0 6.79493e-06
5 1 0.751658 0.158635 0.80275 0 0 0.00010407
6 1 0.561849 0.0405637 0.907361 0 0 0.000109553
7 1 0.189869 0.24891 0.782034 0 0 -0.000257373
8 1 0.0750848 0.207244 0.40701 0 0 -0.000247002
9 1 0.380129 0.0336332 0.677796 0 0 -0.000128984
10 1 0.00857347 0.241966 0.552821 0 0 0.000247002
11 1 0.89379 0.2003 0.177796 0 0 0.000256896
12 1 0.703529 0.0822432 0.282034 0 0 0.000129461
13 1 0.332 0.290575 0.15708 0 0 -0.0001055
14 1 0.637013 0.116965 0.427841 0 0 -0.000223756
15 1 0.961101 0.498886 0.0326467 0 0 -6.07967e-06
16 1 0.521809 0.408646 0.0524689 0 0 -0.000109315
17 1 0.818226 0.457245 0.656986 0 0 -0.000311255
18 1 0.122557 0.283657 0.927183 0 0 7.15256e-06
19 1 0.751658 0.491968 0.80275 0 0 0.000104547
20 1 0.561849 0.373897 0.907361 0 0 0.00011003
21 1 0.189869 0.582243 0.782034 0 0 -0.000257015
22 1 0.446645 0.332245 0.531989 0 0 0.000223041
23 1 0.0750848 0.540578 0.40701 0 0 -0.000246644
24 1 0.380129 0.366966 0.677796 0 0 -0.000129104
25 1 0.00857348 0.575299 0.552821 0 0 0.000246525
26 1 0.265433 0.325298 0.302844 0 0 0.00031209
27 1 0.89379 0.533633 0.177796 0 0 0.000256896
28 1 0.703529 0.415577 0.282034 0 0 0.000129819
29 1 0.332 0.623908 0.15708 0 0 -0.000105858
30 1 0.637013 0.450298 0.427841 0 0 -0.000223279
31 1 0.961101 0.832219 0.0326467 0 0 -6.91414e-06
32 1 0.521809 0.741979 0.0524689 0 0 -0.000109196
33 1 0.818226 0.790578 0.656986 0 0 -0.000311136
34 1 0.122557 0.616991 0.927183 0 0 6.79493e-06
35 1 0.751658 0.825302 0.80275 0 0 0.000104666
36 1 0.56185 0.70723 0.907361 0 0 0.000109196
37 1 0.189869 0.915577 0.782034 0 0 -0.000257254
38 1 0.446645 0.665578 0.531989 0 0 0.000222802
39 1 0.0750848 0.873911 0.40701 0 0 -0.000246882
40 1 0.380129 0.7003 0.677796 0 0 -0.000129104
41 1 0.00857347 0.908632 0.552821 0 0 0.000246644
42 1 0.265433 0.658631 0.302844 0 0 0.000311375
43 1 0.89379 0.866966 0.177796 0 0 0.000258088
44 1 0.703529 0.74891 0.282034 0 0 0.000129223
45 1 0.332 0.957241 0.15708 0 0 -0.000105381
46 1 0.637013 0.783631 0.427841 0 0 -0.000222802
47 1 0.446645 0.998912 0.531989 0 0 0.00022316
48 1 0.265433 0.991965 0.302844 0 0 0.000311494
ITEM: TIMESTEP
5
ITEM: NUMBER OF ATOMS
48
ITEM: BOX BOUNDS xy xz yz pp pp pp
-7.3093596100807190e+00 8.6109705567359924e+00 2.5110912919044495e+00
-1.0506033897399902e-02 9.6185076832771301e+00 -7.2948027849197388e+00
-2.6944518089294434e-02 1.9544072151184082e+01 3.6519104242324829e-01
ITEM: ATOMS id type xs ys zs fx fy fz
1 1 0.961103 0.165552 0.0326484 0 0 -7.86781e-06
2 1 0.521808 0.0753127 0.0524684 0 0 2.41995e-05
3 1 0.818217 0.123912 0.656978 0 0 -4.50611e-05
4 1 0.122555 0.950324 0.927182 0 0 7.86781e-06
5 1 0.751657 0.158635 0.80275 0 0 -1.91927e-05
6 1 0.56185 0.0405636 0.907362 0 0 -2.39611e-05
7 1 0.189859 0.24891 0.782026 0 0 -5.96046e-07
8 1 0.0750827 0.207244 0.407008 0 0 -9.29832e-06
9 1 0.380123 0.0336333 0.677791 0 0 6.17504e-05
10 1 0.00857557 0.241965 0.552822 0 0 9.05991e-06
11 1 0.893799 0.200299 0.177804 0 0 3.57628e-07
12 1 0.703535 0.082243 0.282039 0 0 -6.18696e-05
13 1 0.332001 0.290575 0.157081 0 0 1.95503e-05
14 1 0.637011 0.116965 0.427839 0 0 1.75238e-05
15 1 0.961103 0.498886 0.0326484 0 0 -8.10623e-06
16 1 0.521808 0.408646 0.0524684 0 0 2.37226e-05
17 1 0.818217 0.457245 0.656978 0 0 -4.48227e-05
18 1 0.122555 0.283657 0.927182 0 0 7.86781e-06
19 1 0.751657 0.491968 0.80275 0 0 -1.89543e-05
20 1 0.56185 0.373897 0.907362 0 0 -2.38419e-05
21 1 0.189859 0.582244 0.782026 0 0 -5.96046e-07
22 1 0.446647 0.332245 0.531991 0 0 -1.72853e-05
23 1 0.0750827 0.540578 0.407008 0 0 -9.41753e-06
24 1 0.380123 0.366967 0.677791 0 0 6.17504e-05
25 1 0.00857557 0.575299 0.552822 0 0 9.05991e-06
26 1 0.265441 0.325298 0.302852 0 0 4.49419e-05
27 1 0.893799 0.533633 0.177804 0 0 8.34465e-07
28 1 0.703535 0.415576 0.282039 0 0 -6.2108e-05
29 1 0.332001 0.623908 0.157081 0 0 1.91927e-05
30 1 0.637011 0.450298 0.427839 0 0 1.7643e-05
31 1 0.961103 0.832219 0.0326484 0 0 -8.70228e-06
32 1 0.521808 0.741979 0.0524684 0 0 2.37226e-05
33 1 0.818217 0.790579 0.656978 0 0 -4.49419e-05
34 1 0.122555 0.616991 0.927182 0 0 8.22544e-06
35 1 0.751657 0.825302 0.80275 0 0 -1.91927e-05
36 1 0.56185 0.70723 0.907362 0 0 -2.40803e-05
37 1 0.189859 0.915577 0.782026 0 0 -1.19209e-07
38 1 0.446647 0.665578 0.531991 0 0 -1.74046e-05
39 1 0.0750827 0.873911 0.407008 0 0 -9.41753e-06
40 1 0.380123 0.7003 0.677791 0 0 6.17504e-05
41 1 0.00857557 0.908632 0.552822 0 0 9.17912e-06
42 1 0.265441 0.658631 0.302852 0 0 4.52995e-05
43 1 0.893799 0.866966 0.177804 0 0 3.57628e-07
44 1 0.703535 0.74891 0.282039 0 0 -6.19888e-05
45 1 0.332001 0.957241 0.157081 0 0 1.93119e-05
46 1 0.637011 0.783631 0.427839 0 0 1.74046e-05
47 1 0.446647 0.998912 0.531991 0 0 -1.74046e-05
48 1 0.265441 0.991964 0.302852 0 0 4.56572e-05
ITEM: TIMESTEP
6
ITEM: NUMBER OF ATOMS
48
ITEM: BOX BOUNDS xy xz yz pp pp pp
-7.3093596100807190e+00 8.6109705567359924e+00 2.5110912919044495e+00
-1.0506033897399902e-02 9.6185076832771301e+00 -7.2948027849197388e+00
-2.6944518089294434e-02 1.9544072151184082e+01 3.6519104242324829e-01
ITEM: ATOMS id type xs ys zs fx fy fz
1 1 0.961103 0.165552 0.0326482 0 0 2.38419e-06
2 1 0.521809 0.0753127 0.0524689 0 0 9.53674e-07
3 1 0.818216 0.123912 0.656977 0 0 0
4 1 0.122556 0.950324 0.927182 0 0 -2.5034e-06
5 1 0.751657 0.158635 0.802749 0 0 3.21865e-06
6 1 0.56185 0.0405637 0.907361 0 0 -8.34465e-07
7 1 0.189859 0.24891 0.782025 0 0 5.96046e-07
8 1 0.0750824 0.207244 0.407008 0 0 -3.21865e-06
9 1 0.380124 0.0336333 0.677792 0 0 -2.02656e-06
10 1 0.00857585 0.241965 0.552823 0 0 3.33786e-06
11 1 0.8938 0.200299 0.177805 0 0 -2.38419e-07
12 1 0.703534 0.0822431 0.282038 0 0 2.02656e-06
13 1 0.332002 0.290575 0.157081 0 0 -3.69549e-06
14 1 0.637012 0.116965 0.42784 0 0 7.98702e-06
15 1 0.961103 0.498886 0.0326482 0 0 3.09944e-06
16 1 0.521809 0.408646 0.0524689 0 0 1.07288e-06
17 1 0.818216 0.457245 0.656977 0 0 -2.38419e-07
18 1 0.122556 0.283657 0.927182 0 0 -2.38419e-06
19 1 0.751657 0.491968 0.802749 0 0 3.21865e-06
20 1 0.56185 0.373897 0.907361 0 0 -1.19209e-06
21 1 0.189859 0.582244 0.782025 0 0 8.34465e-07
22 1 0.446646 0.332245 0.53199 0 0 -7.98702e-06
23 1 0.0750824 0.540578 0.407008 0 0 -3.09944e-06
24 1 0.380124 0.366967 0.677792 0 0 -2.14577e-06
25 1 0.00857585 0.575299 0.552823 0 0 3.09944e-06
26 1 0.265443 0.325298 0.302853 0 0 5.96046e-07
27 1 0.8938 0.533633 0.177805 0 0 -8.34465e-07
28 1 0.703534 0.415576 0.282038 0 0 2.26498e-06
29 1 0.332002 0.623908 0.157081 0 0 -2.98023e-06
30 1 0.637012 0.450298 0.42784 0 0 7.51019e-06
31 1 0.961103 0.832219 0.0326482 0 0 3.09944e-06
32 1 0.521809 0.741979 0.0524689 0 0 5.96046e-07
33 1 0.818216 0.790579 0.656977 0 0 -1.19209e-07
34 1 0.122556 0.616991 0.927182 0 0 -2.86102e-06
35 1 0.751657 0.825302 0.802749 0 0 3.21865e-06
36 1 0.56185 0.70723 0.907361 0 0 -9.53674e-07
37 1 0.189859 0.915577 0.782025 0 0 1.19209e-07
38 1 0.446646 0.665578 0.53199 0 0 -7.51019e-06
39 1 0.0750824 0.873911 0.407008 0 0 -2.98023e-06
40 1 0.380124 0.7003 0.677792 0 0 -2.02656e-06
41 1 0.00857585 0.908632 0.552823 0 0 2.5034e-06
42 1 0.265443 0.658631 0.302853 0 0 0
43 1 0.8938 0.866966 0.177805 0 0 -5.96046e-07
44 1 0.703534 0.74891 0.282038 0 0 1.78814e-06
45 1 0.332002 0.957241 0.157081 0 0 -3.45707e-06
46 1 0.637012 0.783631 0.42784 0 0 8.10623e-06
47 1 0.446646 0.998912 0.53199 0 0 -7.86781e-06
48 1 0.265443 0.991964 0.302853 0 0 1.19209e-07
ITEM: TIMESTEP
7
ITEM: NUMBER OF ATOMS
48
ITEM: BOX BOUNDS xy xz yz pp pp pp
-7.3093596100807190e+00 8.6109705567359924e+00 2.5110912919044495e+00
-1.0506033897399902e-02 9.6185076832771301e+00 -7.2948027849197388e+00
-2.6944518089294434e-02 1.9544072151184082e+01 3.6519104242324829e-01
ITEM: ATOMS id type xs ys zs fx fy fz
1 1 0.961103 0.165552 0.0326483 0 0 -3.57628e-07
2 1 0.521809 0.0753127 0.0524689 0 0 -1.66893e-06
3 1 0.818215 0.123912 0.656977 0 0 0
4 1 0.122556 0.950324 0.927182 0 0 3.57628e-07
5 1 0.751657 0.158635 0.802749 0 0 -7.15256e-07
6 1 0.56185 0.0405637 0.907361 0 0 1.43051e-06
7 1 0.189859 0.24891 0.782025 0 0 -1.07288e-06
8 1 0.0750824 0.207244 0.407008 0 0 -9.53674e-07
9 1 0.380124 0.0336333 0.677792 0 0 -5.96046e-07
10 1 0.00857592 0.241965 0.552823 0 0 7.15256e-07
11 1 0.8938 0.200299 0.177805 0 0 9.53674e-07
12 1 0.703534 0.0822431 0.282038 0 0 5.96046e-07
13 1 0.332001 0.290575 0.157081 0 0 1.3113e-06
14 1 0.637012 0.116965 0.42784 0 0 0
15 1 0.961103 0.498886 0.0326483 0 0 -1.07288e-06
16 1 0.521809 0.408646 0.0524689 0 0 -1.54972e-06
17 1 0.818215 0.457245 0.656977 0 0 2.38419e-07
18 1 0.122556 0.283657 0.927182 0 0 4.76837e-07
19 1 0.751657 0.491968 0.802749 0 0 -8.34465e-07
20 1 0.56185 0.373897 0.907361 0 0 1.78814e-06
21 1 0.189859 0.582244 0.782025 0 0 -1.3113e-06
22 1 0.446646 0.332245 0.53199 0 0 0
23 1 0.0750823 0.540578 0.407008 0 0 -8.34465e-07
24 1 0.380124 0.366967 0.677792 0 0 -7.15256e-07
25 1 0.00857592 0.575299 0.552823 0 0 1.07288e-06
26 1 0.265443 0.325298 0.302853 0 0 -4.76837e-07
27 1 0.8938 0.533633 0.177805 0 0 1.3113e-06
28 1 0.703534 0.415576 0.282038 0 0 5.96046e-07
29 1 0.332001 0.623908 0.157081 0 0 7.15256e-07
30 1 0.637012 0.450298 0.42784 0 0 0
31 1 0.961103 0.832219 0.0326483 0 0 -3.57628e-07
32 1 0.521809 0.741979 0.0524689 0 0 -1.3113e-06
33 1 0.818215 0.790579 0.656977 0 0 -2.38419e-07
34 1 0.122556 0.616991 0.927182 0 0 9.53674e-07
35 1 0.751657 0.825302 0.802749 0 0 -7.15256e-07
36 1 0.56185 0.70723 0.907361 0 0 1.43051e-06
37 1 0.189859 0.915577 0.782025 0 0 -7.15256e-07
38 1 0.446646 0.665578 0.53199 0 0 -1.19209e-07
39 1 0.0750824 0.873911 0.407008 0 0 -9.53674e-07
40 1 0.380124 0.7003 0.677792 0 0 -4.76837e-07
41 1 0.00857591 0.908632 0.552823 0 0 1.19209e-06
42 1 0.265443 0.658631 0.302853 0 0 -3.57628e-07
43 1 0.8938 0.866966 0.177805 0 0 1.19209e-06
44 1 0.703534 0.74891 0.282038 0 0 8.34465e-07
45 1 0.332001 0.957241 0.157081 0 0 8.34465e-07
46 1 0.637012 0.783631 0.42784 0 0 -1.19209e-07
47 1 0.446646 0.998912 0.53199 0 0 1.19209e-07
48 1 0.265443 0.991964 0.302853 0 0 -5.96046e-07
ITEM: TIMESTEP
8
ITEM: NUMBER OF ATOMS
48
ITEM: BOX BOUNDS xy xz yz pp pp pp
-7.3093596100807190e+00 8.6109705567359924e+00 2.5110912919044495e+00
-1.0506033897399902e-02 9.6185076832771301e+00 -7.2948027849197388e+00
-2.6944518089294434e-02 1.9544072151184082e+01 3.6519104242324829e-01
ITEM: ATOMS id type xs ys zs fx fy fz
1 1 0.961103 0.165552 0.0326483 0 0 0
2 1 0.521809 0.0753127 0.0524689 0 0 -1.19209e-07
3 1 0.818215 0.123912 0.656977 0 0 -1.19209e-07
4 1 0.122556 0.950324 0.927182 0 0 2.38419e-07
5 1 0.751657 0.158635 0.802749 0 0 -2.38419e-07
6 1 0.56185 0.0405637 0.907361 0 0 3.57628e-07
7 1 0.189859 0.24891 0.782025 0 0 -2.38419e-07
8 1 0.0750823 0.207244 0.407008 0 0 2.38419e-07
9 1 0.380124 0.0336333 0.677792 0 0 -3.57628e-07
10 1 0.00857594 0.241965 0.552823 0 0 0
11 1 0.8938 0.200299 0.177805 0 0 3.57628e-07
12 1 0.703534 0.0822431 0.282038 0 0 3.57628e-07
13 1 0.332002 0.290575 0.157081 0 0 -1.19209e-07
14 1 0.637012 0.116965 0.42784 0 0 -4.76837e-07
15 1 0.961103 0.498886 0.0326483 0 0 -2.38419e-07
16 1 0.521809 0.408646 0.0524689 0 0 -1.19209e-07
17 1 0.818215 0.457245 0.656977 0 0 -1.19209e-07
18 1 0.122556 0.283657 0.927182 0 0 1.19209e-07
19 1 0.751657 0.491968 0.802749 0 0 -2.38419e-07
20 1 0.56185 0.373897 0.907361 0 0 2.38419e-07
21 1 0.189859 0.582244 0.782025 0 0 -2.38419e-07
22 1 0.446646 0.332245 0.53199 0 0 3.57628e-07
23 1 0.0750823 0.540578 0.407008 0 0 4.76837e-07
24 1 0.380124 0.366967 0.677792 0 0 -2.38419e-07
25 1 0.00857594 0.575299 0.552823 0 0 -2.38419e-07
26 1 0.265443 0.325298 0.302853 0 0 0
27 1 0.8938 0.533633 0.177805 0 0 4.76837e-07
28 1 0.703534 0.415576 0.282038 0 0 2.38419e-07
29 1 0.332001 0.623908 0.157081 0 0 0
30 1 0.637012 0.450298 0.42784 0 0 -3.57628e-07
31 1 0.961103 0.832219 0.0326483 0 0 -2.38419e-07
32 1 0.521809 0.741979 0.0524689 0 0 1.19209e-07
33 1 0.818215 0.790579 0.656977 0 0 -1.19209e-07
34 1 0.122556 0.616991 0.927182 0 0 0
35 1 0.751657 0.825302 0.802749 0 0 -5.96046e-07
36 1 0.56185 0.70723 0.907361 0 0 3.57628e-07
37 1 0.189859 0.915577 0.782025 0 0 -4.76837e-07
38 1 0.446646 0.665578 0.53199 0 0 0
39 1 0.0750823 0.873911 0.407008 0 0 -2.38419e-07
40 1 0.380124 0.7003 0.677792 0 0 -2.38419e-07
41 1 0.00857593 0.908632 0.552823 0 0 0
42 1 0.265443 0.658631 0.302853 0 0 2.38419e-07
43 1 0.8938 0.866966 0.177805 0 0 1.19209e-07
44 1 0.703534 0.74891 0.282038 0 0 3.57628e-07
45 1 0.332001 0.957241 0.157081 0 0 3.57628e-07
46 1 0.637012 0.783631 0.42784 0 0 -8.34465e-07
47 1 0.446646 0.998912 0.53199 0 0 8.34465e-07
48 1 0.265443 0.991964 0.302853 0 0 3.57628e-07
