ITEM: TIMESTEP
0
ITEM: NUMBER OF ATOMS
48
ITEM: BOX BOUNDS xy xz yz pp pp pp
-4.8132069110870361e+00 8.6067802309989929e+00 2.5094206929206848e+00
-9.4973444938659668e-03 9.3236122131347656e+00 -4.8011698126792908e+00
-2.8691649436950684e-02 1.9545819282531738e+01 7.1304261684417725e-02
ITEM: ATOMS id type xs ys zs fx fy fz
1 1 0.946765 0.16703 0.0320218 0 0 2.26043
2 1 0.499742 0.0738739 0.0528103 0 0 -0.0958176
3 1 0.54003 0.125314 0.657023 0 0 0.000518799
4 1 0.730154 0.948847 0.927808 0 0 -2.2604
5 1 0.411619 0.157156 0.802805 0 0 -0.0015049
6 1 0.177176 0.0420026 0.90702 0 0 0.0958157
7 1 0.858639 0.250315 0.78202 0 0 -0.000940323
8 1 0.902601 0.208712 0.407029 0 0 0.00135422
9 1 0.0930114 0.0321465 0.677802 0 0 -0.00395203
10 1 0.774317 0.240498 0.552801 0 0 -0.00134659
11 1 0.818279 0.198895 0.17781 0 0 0.000936508
12 1 0.583907 0.0837297 0.282028 0 0 0.00395012
13 1 0.265299 0.292053 0.157025 0 0 0.00150108
14 1 0.455583 0.115534 0.427803 0 0 1.90735e-05
15 1 0.946765 0.500363 0.0320219 0 0 2.2604
16 1 0.499742 0.407207 0.0528103 0 0 -0.0958138
17 1 0.54003 0.458648 0.657023 0 0 0.000520706
18 1 0.730153 0.28218 0.927808 0 0 -2.26042
19 1 0.411619 0.49049 0.802805 0 0 -0.00150108
20 1 0.177176 0.375336 0.90702 0 0 0.0958176
21 1 0.858639 0.583648 0.78202 0 0 -0.000938416
22 1 0.221336 0.333676 0.532027 0 0 -2.28882e-05
23 1 0.902602 0.542046 0.407029 0 0 0.0013485
24 1 0.0930115 0.36548 0.677802 0 0 -0.0039444
25 1 0.774317 0.573831 0.552801 0 0 -0.0013504
26 1 0.136889 0.323895 0.302807 0 0 -0.000518799
27 1 0.818279 0.532228 0.17781 0 0 0.000938416
28 1 0.583907 0.417063 0.282028 0 0 0.00395203
29 1 0.265299 0.625387 0.157025 0 0 0.00149918
30 1 0.455583 0.448867 0.427803 0 0 1.90735e-05
31 1 0.946765 0.833696 0.0320219 0 0 2.2604
32 1 0.499742 0.740541 0.0528104 0 0 -0.0958138
33 1 0.54003 0.791981 0.657023 0 0 0.000516891
34 1 0.730153 0.615514 0.927808 0 0 -2.2604
35 1 0.411619 0.823823 0.802805 0 0 -0.00149536
36 1 0.177176 0.708669 0.90702 0 0 0.0958176
37 1 0.858639 0.916981 0.78202 0 0 -0.000940323
38 1 0.221336 0.667009 0.532027 0 0 -2.47955e-05
39 1 0.902601 0.875379 0.407029 0 0 0.0013485
40 1 0.093011 0.698813 0.677802 0 0 -0.00395393
41 1 0.774317 0.907164 0.552801 0 0 -0.00134659
42 1 0.136889 0.657228 0.302807 0 0 -0.000518799
43 1 0.81828 0.865562 0.17781 0 0 0.000936508
44 1 0.583907 0.750396 0.282028 0 0 0.00395012
45 1 0.265299 0.95872 0.157026 0 0 0.00149918
46 1 0.455583 0.782201 0.427803 0 0 2.47955e-05
47 1 0.221335 0.000342385 0.532027 0 0 -2.47955e-05
48 1 0.136889 0.990562 0.302807 0 0 -0.000516891
ITEM: TIMESTEP
1
ITEM: NUMBER OF ATOMS
48
ITEM: BOX BOUNDS xy xz yz pp pp pp
-4.8132069110870361e+00 8.6067802309989929e+00 2.5094206929206848e+00
-9.4973444938659668e-03 9.3236122131347656e+00 -4.8011698126792908e+00
-2.8691649436950684e-02 1.9545819282531738e+01 7.1304261684417725e-02
ITEM: ATOMS id type xs ys zs fx fy fz
1 1 0.950795 0.16699 0.0371305 0 0 1.11974
2 1 0.499571 0.0738756 0.0525937 0 0 -0.113214
3 1 0.540031 0.125314 0.657024 0 0 -0.000297546
4 1 0.726123 0.948886 0.9227 0 0 -1.11975
5 1 0.411617 0.157156 0.802801 0 0 -0.0785904
6 1 0.177347 0.0420009 0.907236 0 0 0.11322
7 1 0.858637 0.250315 0.782018 0 0 -0.0533276
8 1 0.902604 0.208712 0.407032 0 0 9.91821e-05
9 1 0.0930044 0.0321466 0.677793 0 0 -0.00688934
10 1 0.774315 0.240498 0.552798 0 0 -8.96454e-05
11 1 0.818281 0.198895 0.177812 0 0 0.0533257
12 1 0.583914 0.0837296 0.282037 0 0 0.00688362
13 1 0.265302 0.292053 0.157029 0 0 0.0785866
14 1 0.455583 0.115534 0.427803 0 0 -0.000879288
15 1 0.950796 0.500324 0.0371305 0 0 1.11974
16 1 0.499571 0.407209 0.0525938 0 0 -0.11322
17 1 0.540031 0.458648 0.657024 0 0 -0.000293732
18 1 0.726123 0.28222 0.9227 0 0 -1.11974
19 1 0.411617 0.49049 0.802801 0 0 -0.0785923
20 1 0.177347 0.375334 0.907236 0 0 0.11322
21 1 0.858637 0.583648 0.782018 0 0 -0.0533314
22 1 0.221336 0.333676 0.532027 0 0 0.000879288
23 1 0.902604 0.542045 0.407032 0 0 8.58307e-05
24 1 0.0930044 0.36548 0.677793 0 0 -0.00688744
25 1 0.774315 0.573831 0.552798 0 0 -9.34601e-05
26 1 0.136888 0.323895 0.302806 0 0 0.000305176
27 1 0.818281 0.532228 0.177812 0 0 0.0533276
28 1 0.583914 0.417063 0.282037 0 0 0.00689316
29 1 0.265302 0.625387 0.157029 0 0 0.0785847
30 1 0.455583 0.448867 0.427803 0 0 -0.00088501
31 1 0.950796 0.833657 0.0371306 0 0 1.11975
32 1 0.499571 0.740542 0.0525938 0 0 -0.113218
33 1 0.54003 0.791981 0.657024 0 0 -0.000297546
34 1 0.726123 0.615553 0.9227 0 0 -1.11974
35 1 0.411617 0.823823 0.802801 0 0 -0.0785866
36 1 0.177347 0.708668 0.907236 0 0 0.113218
37 1 0.858637 0.916981 0.782018 0 0 -0.0533257
38 1 0.221336 0.667009 0.532027 0 0 0.000881195
39 1 0.902604 0.875379 0.407032 0 0 8.39233e-05
40 1 0.093004 0.698813 0.677793 0 0 -0.00688744
41 1 0.774314 0.907164 0.552798 0 0 -8.96454e-05
42 1 0.136888 0.657228 0.302806 0 0 0.000303268
43 1 0.818281 0.865561 0.177812 0 0 0.0533257
44 1 0.583914 0.750396 0.282037 0 0 0.00688553
45 1 0.265302 0.95872 0.157029 0 0 0.0785847
46 1 0.455583 0.782201 0.427803 0 0 -0.000881195
47 1 0.221335 0.000342386 0.532027 0 0 0.000879288
48 1 0.136888 0.990562 0.302806 0 0 0.000299454
ITEM: TIMESTEP
2
ITEM: NUMBER OF ATOMS
48
ITEM: BOX BOUNDS xy xz yz pp pp pp
-4.8132069110870361e+00 8.6067802309989929e+00 2.5094206929206848e+00
-9.4973444938659668e-03 9.3236122131347656e+00 -4.8011698126792908e+00
-2.8691649436950684e-02 1.9545819282531738e+01 7.1304261684417725e-02
ITEM: ATOMS id type xs ys zs fx fy fz
1 1 0.954826 0.166951 0.0422392 0 0 0.259195
2 1 0.499163 0.0738796 0.0520772 0 0 -0.108637
3 1 0.54003 0.125314 0.657023 0 0 -0.00818443
4 1 0.722092 0.948926 0.917591 0 0 -0.259188
5 1 0.411334 0.157159 0.802443 0 0 -0.156927
6 1 0.177755 0.0419969 0.907753 0 0 0.108635
7 1 0.858445 0.250317 0.781775 0 0 -0.10907
8 1 0.902604 0.208712 0.407033 0 0 -0.000326157
9 1 0.0929796 0.0321468 0.677762 0 0 -0.0148106
10 1 0.774314 0.240498 0.552797 0 0 0.000329971
11 1 0.818473 0.198893 0.178055 0 0 0.10907
12 1 0.583939 0.0837294 0.282069 0 0 0.0148067
13 1 0.265585 0.29205 0.157387 0 0 0.156918
14 1 0.45558 0.115534 0.427799 0 0 -0.000776291
15 1 0.954827 0.500284 0.0422392 0 0 0.259197
16 1 0.499164 0.407213 0.0520772 0 0 -0.108629
17 1 0.54003 0.458648 0.657023 0 0 -0.00818253
18 1 0.722092 0.282259 0.917591 0 0 -0.259193
19 1 0.411334 0.490493 0.802443 0 0 -0.156916
20 1 0.177755 0.37533 0.907753 0 0 0.108639
21 1 0.858445 0.58365 0.781775 0 0 -0.10907
22 1 0.221339 0.333676 0.532031 0 0 0.000774384
23 1 0.902604 0.542045 0.407033 0 0 -0.000328064
24 1 0.0929796 0.36548 0.677762 0 0 -0.0148087
25 1 0.774314 0.573831 0.552797 0 0 0.000322342
26 1 0.136889 0.323895 0.302807 0 0 0.00818825
27 1 0.818473 0.532226 0.178055 0 0 0.109066
28 1 0.583939 0.417063 0.282069 0 0 0.0148067
29 1 0.265585 0.625384 0.157387 0 0 0.156919
30 1 0.45558 0.448867 0.427799 0 0 -0.000776291
31 1 0.954827 0.833618 0.0422393 0 0 0.259192
32 1 0.499164 0.740546 0.0520773 0 0 -0.108631
33 1 0.540029 0.791981 0.657023 0 0 -0.00818443
34 1 0.722092 0.615592 0.917591 0 0 -0.259197
35 1 0.411334 0.823826 0.802443 0 0 -0.156914
36 1 0.177755 0.708664 0.907753 0 0 0.108635
37 1 0.858445 0.916983 0.781775 0 0 -0.109068
38 1 0.221339 0.667009 0.532031 0 0 0.000770569
39 1 0.902604 0.875379 0.407033 0 0 -0.000331879
40 1 0.0929792 0.698814 0.677761 0 0 -0.0148067
41 1 0.774314 0.907164 0.552797 0 0 0.000328064
42 1 0.136889 0.657228 0.302807 0 0 0.00818443
43 1 0.818473 0.86556 0.178055 0 0 0.109064
44 1 0.583939 0.750396 0.282069 0 0 0.0148106
45 1 0.265585 0.958717 0.157387 0 0 0.156912
46 1 0.45558 0.782201 0.427799 0 0 -0.000774384
47 1 0.221339 0.000342355 0.532031 0 0 0.000774384
48 1 0.136889 0.990562 0.302807 0 0 0.00819206
ITEM: TIMESTEP
3
ITEM: NUMBER OF ATOMS
48
ITEM: BOX BOUNDS xy xz yz pp pp pp
-4.8132069110870361e+00 8.6067802309989929e+00 2.5094206929206848e+00
-9.4973444938659668e-03 9.3236122131347656e+00 -4.8011698126792908e+00
-2.8691649436950684e-02 1.9545819282531738e+01 7.1304261684417725e-02
ITEM: ATOMS id type xs ys zs fx fy fz
1 1 0.957531 0.166925 0.0456676 0 0 -0.129921
2 1 0.49803 0.0738906 0.0506402 0 0 -0.0143681
3 1 0.539944 0.125315 0.656914 0 0 -0.0447407
4 1 0.719387 0.948952 0.914163 0 0 0.129917
5 1 0.409696 0.157175 0.800367 0 0 -0.107023
6 1 0.178888 0.0419859 0.90919 0 0 0.0143642
7 1 0.857307 0.250328 0.780332 0 0 -0.0784359
8 1 0.902601 0.208712 0.407028 0 0 0.00405502
9 1 0.092825 0.0321483 0.677566 0 0 -0.0485229
10 1 0.774318 0.240498 0.552802 0 0 -0.0040493
11 1 0.819611 0.198882 0.179498 0 0 0.0784454
12 1 0.584094 0.0837279 0.282265 0 0 0.0485249
13 1 0.267222 0.292034 0.159463 0 0 0.107031
14 1 0.455572 0.115534 0.427789 0 0 0.00415611
15 1 0.957532 0.500258 0.0456677 0 0 -0.129925
16 1 0.49803 0.407224 0.0506404 0 0 -0.0143642
17 1 0.539944 0.458649 0.656914 0 0 -0.0447407
18 1 0.719387 0.282285 0.914163 0 0 0.129917
19 1 0.409696 0.490509 0.800367 0 0 -0.107033
20 1 0.178889 0.375319 0.90919 0 0 0.0143623
21 1 0.857307 0.583661 0.780332 0 0 -0.0784473
22 1 0.221347 0.333675 0.532041 0 0 -0.00415039
23 1 0.902601 0.542046 0.407028 0 0 0.0040493
24 1 0.0928251 0.365482 0.677566 0 0 -0.048521
25 1 0.774318 0.573831 0.552802 0 0 -0.00404739
26 1 0.136974 0.323894 0.302916 0 0 0.044733
27 1 0.819611 0.532215 0.179498 0 0 0.0784435
28 1 0.584094 0.417061 0.282265 0 0 0.0485229
29 1 0.267222 0.625368 0.159463 0 0 0.107031
30 1 0.455571 0.448868 0.427789 0 0 0.00415611
31 1 0.957532 0.833591 0.0456676 0 0 -0.129927
32 1 0.49803 0.740557 0.0506404 0 0 -0.01437
33 1 0.539944 0.791982 0.656914 0 0 -0.0447388
34 1 0.719387 0.615619 0.914163 0 0 0.12993
35 1 0.409696 0.823842 0.800367 0 0 -0.107033
36 1 0.178888 0.708653 0.90919 0 0 0.0143661
37 1 0.857307 0.916994 0.780332 0 0 -0.0784397
38 1 0.221347 0.667009 0.532041 0 0 -0.00415039
39 1 0.902601 0.875379 0.407028 0 0 0.00405312
40 1 0.0928247 0.698815 0.677566 0 0 -0.0485287
41 1 0.774317 0.907164 0.552802 0 0 -0.00405693
42 1 0.136974 0.657228 0.302916 0 0 0.044733
43 1 0.819611 0.865549 0.179498 0 0 0.0784473
44 1 0.584094 0.750395 0.282265 0 0 0.0485249
45 1 0.267223 0.958701 0.159463 0 0 0.107037
46 1 0.455572 0.782201 0.427789 0 0 0.0041523
47 1 0.221347 0.000342276 0.532041 0 0 -0.0041523
48 1 0.136975 0.990561 0.302916 0 0 0.044733
ITEM: TIMESTEP
4
ITEM: NUMBER OF ATOMS
48
ITEM: BOX BOUNDS xy xz yz pp pp pp
-4.8132069110870361e+00 8.6067802309989929e+00 2.5094206929206848e+00
-9.4973444938659668e-03 9.3236122131347656e+00 -4.8011698126792908e+00
-2.8691649436950684e-02 1.9545819282531738e+01 7.1304261684417725e-02
ITEM: ATOMS id type xs ys zs fx fy fz
1 1 0.957219 0.166928 0.0452719 0 0 0.00317001
2 1 0.497437 0.0738964 0.0498893 0 0 0.0653172
3 1 0.539441 0.12532 0.656276 0 0 -0.0604191
4 1 0.719699 0.948949 0.914558 0 0 -0.00318336
5 1 0.407934 0.157192 0.798133 0 0 0.0178833
6 1 0.179481 0.0419801 0.909941 0 0 -0.0653076
7 1 0.856039 0.25034 0.778725 0 0 0.00700569
8 1 0.902642 0.208712 0.407081 0 0 0.0157623
9 1 0.0922548 0.0321539 0.676843 0 0 -0.0618553
10 1 0.774277 0.240498 0.55275 0 0 -0.0157642
11 1 0.820879 0.198869 0.181105 0 0 -0.00700569
12 1 0.584664 0.0837223 0.282987 0 0 0.0618629
13 1 0.268985 0.292017 0.161697 0 0 -0.0178833
14 1 0.455612 0.115534 0.42784 0 0 0.016552
15 1 0.957219 0.500261 0.0452719 0 0 0.00317764
16 1 0.497437 0.40723 0.0498896 0 0 0.0653019
17 1 0.539441 0.458653 0.656276 0 0 -0.0604172
18 1 0.719699 0.282282 0.914558 0 0 -0.00317383
19 1 0.407933 0.490526 0.798133 0 0 0.0178871
20 1 0.179481 0.375313 0.909941 0 0 -0.0653057
21 1 0.856039 0.583674 0.778725 0 0 0.00700951
22 1 0.221307 0.333676 0.53199 0 0 -0.0165558
23 1 0.902642 0.542045 0.407081 0 0 0.0157642
24 1 0.0922549 0.365487 0.676843 0 0 -0.0618572
25 1 0.774276 0.573831 0.552749 0 0 -0.0157661
26 1 0.137478 0.323889 0.303554 0 0 0.0604134
27 1 0.820879 0.532203 0.181105 0 0 -0.00700378
28 1 0.584664 0.417056 0.282987 0 0 0.061861
29 1 0.268985 0.625351 0.161697 0 0 -0.0178852
30 1 0.455612 0.448867 0.42784 0 0 0.0165539
31 1 0.957219 0.833594 0.0452719 0 0 0.00318527
32 1 0.497437 0.740563 0.0498895 0 0 0.0653057
33 1 0.53944 0.791987 0.656276 0 0 -0.0604191
34 1 0.719699 0.615616 0.914558 0 0 -0.0031929
35 1 0.407934 0.823859 0.798133 0 0 0.0178852
36 1 0.179481 0.708647 0.909941 0 0 -0.0653076
37 1 0.856039 0.917007 0.778725 0 0 0.00700378
38 1 0.221306 0.667009 0.53199 0 0 -0.0165539
39 1 0.902642 0.875378 0.407081 0 0 0.0157661
40 1 0.0922544 0.698821 0.676843 0 0 -0.0618534
41 1 0.774276 0.907165 0.552749 0 0 -0.0157623
42 1 0.137478 0.657223 0.303554 0 0 0.0604286
43 1 0.820879 0.865536 0.181105 0 0 -0.00701141
44 1 0.584664 0.750389 0.282987 0 0 0.0618534
45 1 0.268985 0.958684 0.161697 0 0 -0.0178776
46 1 0.455612 0.782201 0.42784 0 0 0.0165539
47 1 0.221306 0.000342671 0.53199 0 0 -0.0165577
48 1 0.137478 0.990556 0.303554 0 0 0.0604153
ITEM: TIMESTEP
5
ITEM: NUMBER OF ATOMS
48
ITEM: BOX BOUNDS xy xz yz pp pp pp
-4.8132069110870361e+00 8.6067802309989929e+00 2.5094206929206848e+00
-9.4973444938659668e-03 9.3236122131347656e+00 -4.8011698126792908e+00
-2.8691649436950684e-02 1.9545819282531738e+01 7.1304261684417725e-02
ITEM: ATOMS id type xs ys zs fx fy fz
1 1 0.957111 0.166929 0.0451347 0 0 0.0443058
2 1 0.498541 0.0738856 0.0512888 0 0 0.0066967
3 1 0.537819 0.125336 0.654221 0 0 0.00976944
4 1 0.719807 0.948948 0.914695 0 0 -0.0442734
5 1 0.407322 0.157198 0.797358 0 0 -0.00169373
6 1 0.178377 0.0419909 0.908542 0 0 -0.00669861
7 1 0.85547 0.250346 0.778004 0 0 -0.0162029
8 1 0.903014 0.208708 0.407552 0 0 0.029768
9 1 0.0905632 0.0321704 0.674699 0 0 0.0139103
10 1 0.773905 0.240502 0.552278 0 0 -0.0297699
11 1 0.821448 0.198864 0.181826 0 0 0.0161953
12 1 0.586356 0.0837058 0.285131 0 0 -0.013916
13 1 0.269597 0.292011 0.162472 0 0 0.00168991
14 1 0.456001 0.11553 0.428333 0 0 0.0324478
15 1 0.957111 0.500262 0.0451349 0 0 0.0442791
16 1 0.498541 0.407219 0.0512886 0 0 0.00670433
17 1 0.537819 0.458669 0.654221 0 0 0.00977135
18 1 0.719807 0.282281 0.914695 0 0 -0.0442982
19 1 0.407322 0.490532 0.797358 0 0 -0.00169754
20 1 0.178377 0.375324 0.908542 0 0 -0.00670815
21 1 0.85547 0.583679 0.778004 0 0 -0.0161991
22 1 0.220918 0.33368 0.531497 0 0 -0.0324535
23 1 0.903014 0.542041 0.407552 0 0 0.0297661
24 1 0.0905633 0.365504 0.674699 0 0 0.0139084
25 1 0.773905 0.573835 0.552278 0 0 -0.0297661
26 1 0.139099 0.323874 0.305609 0 0 -0.009758
27 1 0.821448 0.532197 0.181826 0 0 0.0162048
28 1 0.586355 0.417039 0.285131 0 0 -0.0139103
29 1 0.269597 0.625345 0.162472 0 0 0.00169754
30 1 0.456001 0.448863 0.428333 0 0 0.0324516
31 1 0.957111 0.833595 0.045135 0 0 0.0442848
32 1 0.498541 0.740552 0.0512886 0 0 0.00670242
33 1 0.537819 0.792003 0.654221 0 0 0.00976562
34 1 0.719807 0.615615 0.914695 0 0 -0.0442657
35 1 0.407322 0.823865 0.797358 0 0 -0.00170135
36 1 0.178377 0.708658 0.908542 0 0 -0.00670242
37 1 0.85547 0.917012 0.778004 0 0 -0.0162029
38 1 0.220918 0.667013 0.531497 0 0 -0.0324497
39 1 0.903014 0.875375 0.407552 0 0 0.0297699
40 1 0.0905628 0.698837 0.674699 0 0 0.0139122
41 1 0.773904 0.907168 0.552278 0 0 -0.0297642
42 1 0.1391 0.657207 0.305609 0 0 -0.00977898
43 1 0.821448 0.865531 0.181826 0 0 0.0162048
44 1 0.586356 0.750373 0.285131 0 0 -0.0139046
45 1 0.269597 0.958678 0.162472 0 0 0.00167274
46 1 0.456001 0.782197 0.428333 0 0 0.0324459
47 1 0.220917 0.000346465 0.531497 0 0 -0.0324478
48 1 0.1391 0.99054 0.305609 0 0 -0.00976181
ITEM: TIMESTEP
6
ITEM: NUMBER OF ATOMS
48
ITEM: BOX BOUNDS xy xz yz pp pp pp
-4.8132069110870361e+00 8.6067802309989929e+00 2.5094206929206848e+00
-9.4973444938659668e-03 9.3236122131347656e+00 -4.8011698126792908e+00
-2.8691649436950684e-02 1.9545819282531738e+01 7.1304261684417725e-02
ITEM: ATOMS id type xs ys zs fx fy fz
1 1 0.957528 0.166925 0.0456633 0 0 -0.0125999
2 1 0.498782 0.0738833 0.0515934 0 0 -0.00718498
3 1 0.537658 0.125338 0.654017 0 0 0.00234795
4 1 0.71939 0.948952 0.914167 0 0 0.0125904
5 1 0.407209 0.157199 0.797215 0 0 -0.0117416
6 1 0.178137 0.0419932 0.908237 0 0 0.00717926
7 1 0.855222 0.250348 0.777689 0 0 -0.0165424
8 1 0.903364 0.208705 0.407996 0 0 0.00222778
9 1 0.0904318 0.0321717 0.674533 0 0 0.00563049
10 1 0.773554 0.240505 0.551834 0 0 -0.00222588
11 1 0.821697 0.198861 0.182141 0 0 0.0165367
12 1 0.586487 0.0837045 0.285298 0 0 -0.00563431
13 1 0.26971 0.29201 0.162615 0 0 0.0117435
14 1 0.456381 0.115526 0.428814 0 0 0.0044384
15 1 0.957528 0.500258 0.0456632 0 0 -0.0125847
16 1 0.498782 0.407217 0.0515932 0 0 -0.00717735
17 1 0.537658 0.458671 0.654017 0 0 0.00234985
18 1 0.71939 0.282285 0.914167 0 0 0.0125999
19 1 0.407209 0.490533 0.797215 0 0 -0.0117435
20 1 0.178137 0.375327 0.908237 0 0 0.00717926
21 1 0.855221 0.583682 0.777689 0 0 -0.0165424
22 1 0.220538 0.333683 0.531016 0 0 -0.00444031
23 1 0.903364 0.542038 0.407996 0 0 0.00222778
24 1 0.0904319 0.365505 0.674533 0 0 0.00563431
25 1 0.773554 0.573838 0.551834 0 0 -0.00222397
26 1 0.13926 0.323872 0.305813 0 0 -0.00234032
27 1 0.821697 0.532195 0.182141 0 0 0.0165348
28 1 0.586487 0.417038 0.285298 0 0 -0.0056324
29 1 0.26971 0.625344 0.162616 0 0 0.0117416
30 1 0.45638 0.44886 0.428814 0 0 0.0044384
31 1 0.957528 0.833591 0.0456634 0 0 -0.0125961
32 1 0.498782 0.74055 0.0515932 0 0 -0.00717545
33 1 0.537658 0.792004 0.654017 0 0 0.00234795
34 1 0.71939 0.615619 0.914167 0 0 0.0125885
35 1 0.407209 0.823866 0.797215 0 0 -0.0117435
36 1 0.178137 0.70866 0.908237 0 0 0.00717926
37 1 0.855221 0.917015 0.777689 0 0 -0.0165386
38 1 0.220538 0.667017 0.531016 0 0 -0.00443649
39 1 0.903364 0.875371 0.407996 0 0 0.00222206
40 1 0.0904315 0.698838 0.674533 0 0 0.00563431
41 1 0.773554 0.907172 0.551834 0 0 -0.00222778
42 1 0.13926 0.657205 0.305813 0 0 -0.00235176
43 1 0.821697 0.865528 0.182141 0 0 0.0165462
44 1 0.586487 0.750371 0.285298 0 0 -0.00563622
45 1 0.26971 0.958677 0.162616 0 0 0.0117455
46 1 0.45638 0.782193 0.428814 0 0 0.0044384
47 1 0.220538 0.000350167 0.531016 0 0 -0.00443268
48 1 0.139261 0.990539 0.305813 0 0 -0.00234985
ITEM: TIMESTEP
7
ITEM: NUMBER OF ATOMS
48
ITEM: BOX BOUNDS xy xz yz pp pp pp
-4.8132069110870361e+00 8.6067802309989929e+00 2.5094206929206848e+00
-9.4973444938659668e-03 9.3236122131347656e+00 -4.8011698126792908e+00
-2.8691649436950684e-02 1.9545819282531738e+01 7.1304261684417725e-02
ITEM: ATOMS id type xs ys zs fx fy fz
1 1 0.957474 0.166925 0.0455954 0 0 0.00235748
2 1 0.498751 0.0738836 0.0515551 0 0 -0.00148392
3 1 0.537657 0.125338 0.654015 0 0 -0.00447464
4 1 0.719444 0.948951 0.914235 0 0 -0.00236511
5 1 0.40709 0.157201 0.797064 0 0 -0.00149536
6 1 0.178167 0.0419929 0.908275 0 0 0.00148773
7 1 0.855041 0.25035 0.777461 0 0 -0.00328255
8 1 0.903432 0.208704 0.408082 0 0 -0.00477028
9 1 0.0904633 0.0321714 0.674572 0 0 -0.00274277
10 1 0.773487 0.240506 0.551748 0 0 0.00475883
11 1 0.821877 0.19886 0.18237 0 0 0.00329018
12 1 0.586455 0.0837048 0.285258 0 0 0.00273514
13 1 0.269829 0.292009 0.162766 0 0 0.0015049
14 1 0.456472 0.115525 0.42893 0 0 -0.00339508
15 1 0.957475 0.500258 0.0455955 0 0 0.00235939
16 1 0.498752 0.407217 0.0515551 0 0 -0.00148582
17 1 0.537657 0.458671 0.654015 0 0 -0.00447845
18 1 0.719443 0.282285 0.914235 0 0 -0.00235939
19 1 0.40709 0.490534 0.797064 0 0 -0.00149727
20 1 0.178167 0.375326 0.908275 0 0 0.00148773
21 1 0.855041 0.583683 0.777461 0 0 -0.00328636
22 1 0.220447 0.333684 0.5309 0 0 0.00340271
23 1 0.903432 0.542037 0.408082 0 0 -0.00476646
24 1 0.0904634 0.365505 0.674573 0 0 -0.00273705
25 1 0.773486 0.573839 0.551748 0 0 0.00476837
26 1 0.139262 0.323872 0.305815 0 0 0.00447273
27 1 0.821877 0.532193 0.18237 0 0 0.00328636
28 1 0.586455 0.417038 0.285258 0 0 0.00273132
29 1 0.269829 0.625342 0.162766 0 0 0.00149727
30 1 0.456472 0.448859 0.42893 0 0 -0.0033989
31 1 0.957475 0.833592 0.0455956 0 0 0.00235367
32 1 0.498752 0.74055 0.0515551 0 0 -0.00148964
33 1 0.537656 0.792004 0.654015 0 0 -0.00446892
34 1 0.719443 0.615618 0.914235 0 0 -0.00235558
35 1 0.40709 0.823867 0.797064 0 0 -0.00149155
36 1 0.178167 0.70866 0.908275 0 0 0.00148773
37 1 0.855041 0.917017 0.777461 0 0 -0.00328636
38 1 0.220447 0.667018 0.5309 0 0 0.00339699
39 1 0.903432 0.875371 0.408082 0 0 -0.00476646
40 1 0.090463 0.698838 0.674573 0 0 -0.00274467
41 1 0.773486 0.907172 0.551748 0 0 0.00477028
42 1 0.139262 0.657205 0.305815 0 0 0.00447083
43 1 0.821877 0.865526 0.182369 0 0 0.00328827
44 1 0.586455 0.750372 0.285258 0 0 0.00273514
45 1 0.269829 0.958676 0.162766 0 0 0.00149727
46 1 0.456472 0.782192 0.42893 0 0 -0.00339127
47 1 0.220447 0.000351059 0.5309 0 0 0.0034008
48 1 0.139262 0.990539 0.305815 0 0 0.00447273
ITEM: TIMESTEP
8
ITEM: NUMBER OF ATOMS
48
ITEM: BOX BOUNDS xy xz yz pp pp pp
-4.8132069110870361e+00 8.6067802309989929e+00 2.5094206929206848e+00
-9.4973444938659668e-03 9.3236122131347656e+00 -4.8011698126792908e+00
-2.8691649436950684e-02 1.9545819282531738e+01 7.1304261684417725e-02
ITEM: ATOMS id type xs ys zs fx fy fz
1 1 0.957498 0.166925 0.0456253 0 0 0.00198936
2 1 0.498724 0.0738839 0.0515206 0 0 0.00174141
3 1 0.537592 0.125338 0.653933 0 0 -0.00133705
4 1 0.71942 0.948952 0.914205 0 0 -0.00196838
5 1 0.407045 0.157201 0.797007 0 0 -0.000272751
6 1 0.178194 0.0419927 0.90831 0 0 -0.00174141
7 1 0.854959 0.250351 0.777356 0 0 0.000352859
8 1 0.903377 0.208705 0.408012 0 0 0.001091
9 1 0.0904299 0.0321717 0.67453 0 0 -0.00106239
10 1 0.773542 0.240505 0.551818 0 0 -0.00108337
11 1 0.82196 0.198859 0.182474 0 0 -0.000366211
12 1 0.586489 0.0837045 0.2853 0 0 0.00107193
13 1 0.269874 0.292009 0.162823 0 0 0.000265121
14 1 0.456441 0.115526 0.42889 0 0 0.00144196
15 1 0.957498 0.500258 0.0456254 0 0 0.00197411
16 1 0.498724 0.407217 0.0515205 0 0 0.00174713
17 1 0.537592 0.458672 0.653933 0 0 -0.00133324
18 1 0.71942 0.282285 0.914205 0 0 -0.00197601
19 1 0.407045 0.490535 0.797007 0 0 -0.000274658
20 1 0.178194 0.375326 0.90831 0 0 -0.00174522
21 1 0.854959 0.583684 0.777356 0 0 0.000356674
22 1 0.220478 0.333684 0.53094 0 0 -0.00144577
23 1 0.903377 0.542038 0.408012 0 0 0.00108719
24 1 0.0904301 0.365505 0.67453 0 0 -0.00107384
25 1 0.773542 0.573838 0.551818 0 0 -0.001091
26 1 0.139327 0.323871 0.305897 0 0 0.00133514
27 1 0.821959 0.532192 0.182474 0 0 -0.000362396
28 1 0.586489 0.417038 0.2853 0 0 0.00107765
29 1 0.269874 0.625342 0.162823 0 0 0.000267029
30 1 0.45644 0.448859 0.42889 0 0 0.00144196
31 1 0.957498 0.833591 0.0456254 0 0 0.00197601
32 1 0.498724 0.740551 0.0515205 0 0 0.00174713
33 1 0.537592 0.792005 0.653933 0 0 -0.00133133
34 1 0.71942 0.615618 0.914205 0 0 -0.0019722
35 1 0.407045 0.823868 0.797007 0 0 -0.000274658
36 1 0.178194 0.708659 0.90831 0 0 -0.00174522
37 1 0.854959 0.917017 0.777356 0 0 0.000356674
38 1 0.220478 0.667017 0.53094 0 0 -0.00144386
39 1 0.903377 0.875371 0.408012 0 0 0.00109291
40 1 0.0904296 0.698838 0.67453 0 0 -0.00106812
41 1 0.773542 0.907172 0.551818 0 0 -0.001091
42 1 0.139327 0.657205 0.305897 0 0 0.00133705
43 1 0.82196 0.865526 0.182474 0 0 -0.000364304
44 1 0.586489 0.750371 0.2853 0 0 0.00107193
45 1 0.269874 0.958675 0.162823 0 0 0.000272751
46 1 0.456441 0.782192 0.42889 0 0 0.00144196
47 1 0.220478 0.000350754 0.53094 0 0 -0.00144768
48 1 0.139327 0.990538 0.305897 0 0 0.00133514
ITEM: TIMESTEP
9
ITEM: NUMBER OF ATOMS
48
ITEM: BOX BOUNDS xy xz yz pp pp pp
-4.8132069110870361e+00 8.6067802309989929e+00 2.5094206929206848e+00
-9.4973444938659668e-03 9.3236122131347656e+00 -4.8011698126792908e+00
-2.8691649436950684e-02 1.9545819282531738e+01 7.1304261684417725e-02
ITEM: ATOMS id type xs ys zs fx fy fz
1 1 0.957529 0.166925 0.0456643 0 0 -0.0022583
2 1 0.498744 0.0738837 0.0515454 0 0 0.000535965
3 1 0.537564 0.125339 0.653897 0 0 -0.000299454
4 1 0.71939 0.948952 0.914166 0 0 0.00224495
5 1 0.407034 0.157201 0.796994 0 0 -0.00124931
6 1 0.178174 0.0419928 0.908285 0 0 -0.000537872
7 1 0.854951 0.250351 0.777346 0 0 -0.000766754
8 1 0.903383 0.208705 0.40802 0 0 0.000995636
9 1 0.0904103 0.0321719 0.674505 0 0 -0.000484467
10 1 0.773536 0.240505 0.55181 0 0 -0.000988007
11 1 0.821967 0.198859 0.182484 0 0 0.000774384
12 1 0.586508 0.0837043 0.285325 0 0 0.000478745
13 1 0.269884 0.292008 0.162836 0 0 0.00124931
14 1 0.456456 0.115526 0.428909 0 0 0.00100708
15 1 0.957529 0.500258 0.0456641 0 0 -0.00224113
16 1 0.498744 0.407217 0.0515455 0 0 0.000526428
17 1 0.537564 0.458672 0.653897 0 0 -0.000301361
18 1 0.719389 0.282285 0.914166 0 0 0.00225067
19 1 0.407034 0.490535 0.796994 0 0 -0.0012455
20 1 0.178174 0.375326 0.908285 0 0 -0.000530243
21 1 0.854951 0.583684 0.777346 0 0 -0.000761032
22 1 0.220463 0.333684 0.530921 0 0 -0.00100708
23 1 0.903383 0.542038 0.40802 0 0 0.000991821
24 1 0.0904104 0.365505 0.674505 0 0 -0.000482559
25 1 0.773535 0.573838 0.55181 0 0 -0.000995636
26 1 0.139355 0.323871 0.305933 0 0 0.000301361
27 1 0.821967 0.532192 0.182484 0 0 0.000770569
28 1 0.586508 0.417038 0.285325 0 0 0.000478745
29 1 0.269884 0.625342 0.162836 0 0 0.00125122
30 1 0.456455 0.448859 0.428909 0 0 0.00101089
31 1 0.957529 0.833591 0.0456641 0 0 -0.00224495
32 1 0.498744 0.74055 0.0515454 0 0 0.000535965
33 1 0.537564 0.792005 0.653897 0 0 -0.000305176
34 1 0.719389 0.615619 0.914166 0 0 0.00223351
35 1 0.407034 0.823868 0.796994 0 0 -0.00124741
36 1 0.178174 0.70866 0.908285 0 0 -0.000535965
37 1 0.854951 0.917017 0.777346 0 0 -0.000764847
38 1 0.220463 0.667018 0.530921 0 0 -0.00100708
39 1 0.903383 0.875371 0.40802 0 0 0.000988007
40 1 0.0904099 0.698839 0.674505 0 0 -0.000478745
41 1 0.773535 0.907172 0.55181 0 0 -0.000995636
42 1 0.139355 0.657204 0.305933 0 0 0.000299454
43 1 0.821967 0.865526 0.182484 0 0 0.000768661
44 1 0.586508 0.750371 0.285325 0 0 0.000484467
45 1 0.269884 0.958675 0.162837 0 0 0.00124931
46 1 0.456456 0.782192 0.428909 0 0 0.00100136
47 1 0.220463 0.0003509 0.530921 0 0 -0.00100327
48 1 0.139355 0.990538 0.305933 0 0 0.000303268
ITEM: TIMESTEP
10
ITEM: NUMBER OF ATOMS
48
ITEM: BOX BOUNDS xy xz yz pp pp pp
-4.8132069110870361e+00 8.6067802309989929e+00 2.5094206929206848e+00
-9.4973444938659668e-03 9.3236122131347656e+00 -4.8011698126792908e+00
-2.8691649436950684e-02 1.9545819282531738e+01 7.1304261684417725e-02
ITEM: ATOMS id type xs ys zs fx fy fz
1 1 0.95752 0.166925 0.045653 0 0 9.53674e-06
2 1 0.498767 0.0738834 0.051575 0 0 -0.000415802
3 1 0.537537 0.125339 0.653864 0 0 -4.00543e-05
4 1 0.719398 0.948952 0.914177 0 0 -2.47955e-05
5 1 0.407008 0.157201 0.79696 0 0 -0.000179291
6 1 0.178151 0.0419931 0.908255 0 0 0.000411987
7 1 0.854934 0.250351 0.777325 0 0 -0.00053215
8 1 0.903403 0.208704 0.408045 0 0 -0.000188828
9 1 0.0903878 0.0321721 0.674477 0 0 -0.000448227
10 1 0.773516 0.240505 0.551786 0 0 0.000181198
11 1 0.821984 0.198859 0.182506 0 0 0.000547409
12 1 0.586531 0.0837041 0.285353 0 0 0.000448227
13 1 0.269911 0.292008 0.16287 0 0 0.000185013
14 1 0.456482 0.115525 0.428943 0 0 -0.00043869
15 1 0.95752 0.500258 0.0456529 0 0 9.53674e-06
16 1 0.498767 0.407217 0.0515749 0 0 -0.00041008
17 1 0.537537 0.458672 0.653864 0 0 -4.3869e-05
18 1 0.719398 0.282285 0.914177 0 0 -1.90735e-05
19 1 0.407008 0.490535 0.79696 0 0 -0.000175476
20 1 0.178151 0.375326 0.908255 0 0 0.00041008
21 1 0.854934 0.583684 0.777325 0 0 -0.000541687
22 1 0.220437 0.333684 0.530887 0 0 0.00043869
23 1 0.903403 0.542038 0.408045 0 0 -0.000183105
24 1 0.0903878 0.365505 0.674477 0 0 -0.000448227
25 1 0.773516 0.573838 0.551785 0 0 0.000198364
26 1 0.139381 0.323871 0.305966 0 0 4.3869e-05
27 1 0.821984 0.532192 0.182506 0 0 0.000543594
28 1 0.586531 0.417037 0.285354 0 0 0.000444412
29 1 0.269911 0.625342 0.16287 0 0 0.000175476
30 1 0.456482 0.448859 0.428943 0 0 -0.000448227
31 1 0.95752 0.833591 0.0456528 0 0 1.52588e-05
32 1 0.498767 0.74055 0.051575 0 0 -0.000415802
33 1 0.537537 0.792005 0.653864 0 0 -4.3869e-05
34 1 0.719398 0.615619 0.914177 0 0 -7.62939e-06
35 1 0.407008 0.823868 0.79696 0 0 -0.000169754
36 1 0.178151 0.70866 0.908255 0 0 0.000413895
37 1 0.854934 0.917018 0.777325 0 0 -0.00053978
38 1 0.220436 0.667018 0.530887 0 0 0.000440598
39 1 0.903403 0.875371 0.408045 0 0 -0.000188828
40 1 0.0903874 0.698839 0.674477 0 0 -0.000453949
41 1 0.773516 0.907172 0.551785 0 0 0.000192642
42 1 0.139381 0.657204 0.305966 0 0 4.19617e-05
43 1 0.821984 0.865525 0.182505 0 0 0.000541687
44 1 0.586531 0.750371 0.285354 0 0 0.000444412
45 1 0.269911 0.958675 0.16287 0 0 0.000177383
46 1 0.456482 0.782192 0.428943 0 0 -0.000442505
47 1 0.220436 0.000351159 0.530887 0 0 0.000440598
48 1 0.139382 0.990537 0.305966 0 0 4.3869e-05
ITEM: TIMESTEP
11
ITEM: NUMBER OF ATOMS
48
ITEM: BOX BOUNDS xy xz yz pp pp pp
-4.8132069110870361e+00 8.6067802309989929e+00 2.5094206929206848e+00
-9.4973444938659668e-03 9.3236122131347656e+00 -4.8011698126792908e+00
-2.8691649436950684e-02 1.9545819282531738e+01 7.1304261684417725e-02
ITEM: ATOMS id type xs ys zs fx fy fz
1 1 0.957519 0.166925 0.0456521 0 0 0.0004673
2 1 0.498763 0.0738835 0.0515702 0 0 7.62939e-06
3 1 0.537534 0.125339 0.65386 0 0 7.62939e-06
4 1 0.719399 0.948952 0.914178 0 0 -0.000452042
5 1 0.407003 0.157202 0.796954 0 0 3.8147e-06
6 1 0.178155 0.041993 0.90826 0 0 -7.62939e-06
7 1 0.854925 0.250351 0.777313 0 0 -2.28882e-05
8 1 0.903402 0.208704 0.408044 0 0 0.000131607
9 1 0.0903792 0.0321722 0.674466 0 0 -4.19617e-05
10 1 0.773517 0.240505 0.551787 0 0 -0.000135422
11 1 0.821994 0.198859 0.182518 0 0 1.71661e-05
12 1 0.58654 0.083704 0.285364 0 0 4.3869e-05
13 1 0.269916 0.292008 0.162877 0 0 -7.62939e-06
14 1 0.456478 0.115525 0.428938 0 0 7.62939e-06
15 1 0.957519 0.500258 0.0456521 0 0 0.000459671
16 1 0.498764 0.407217 0.0515702 0 0 1.90735e-06
17 1 0.537534 0.458672 0.65386 0 0 1.14441e-05
18 1 0.719399 0.282285 0.914178 0 0 -0.000465393
19 1 0.407003 0.490535 0.796954 0 0 0
20 1 0.178155 0.375326 0.90826 0 0 -7.62939e-06
21 1 0.854925 0.583684 0.777313 0 0 -2.67029e-05
22 1 0.220441 0.333684 0.530892 0 0 1.90735e-06
23 1 0.903402 0.542038 0.408044 0 0 0.000133514
24 1 0.0903792 0.365505 0.674466 0 0 -3.24249e-05
25 1 0.773517 0.573838 0.551787 0 0 -0.000133514
26 1 0.139385 0.323871 0.30597 0 0 -1.33514e-05