ITEM: TIMESTEP
0
ITEM: NUMBER OF ATOMS
32
ITEM: BOX BOUNDS xy xz yz pp pp pp
0.0000000000000000e+00 6.3968321681022644e+00 0.0000000000000000e+00
0.0000000000000000e+00 5.5204311609268188e+00 0.0000000000000000e+00
0.0000000000000000e+00 2.0725386440753937e+01 0.0000000000000000e+00
ITEM: ATOMS id type xs ys zs fx fy fz
1 1 0.999986 0.666284 0.0597554 0 -0.00102389 -0.000114322
2 1 0.499986 0.666284 0.0597554 0 -0.00102365 -0.000114322
3 1 0.249986 0.166284 0.0597529 0 -0.0010221 -2.18153e-05
4 1 0.749986 0.166284 0.0597529 0 -0.0010221 -2.18153e-05
5 1 0.999986 0.666297 0.309761 0 -0.0010438 -0.000201583
6 1 0.249986 0.50039 0.18476 0 0.00102079 -0.000184774
7 1 0.749986 0.50039 0.18476 0 0.00102079 -0.000184774
8 1 0.499986 0.666297 0.309761 0 -0.0010438 -0.000201583
9 1 0.999986 0.000391002 0.184759 0 0.00101721 -0.000128746
10 1 0.249986 0.166295 0.309759 0 -0.0010277 -0.000125408
11 1 0.499986 0.000391002 0.184759 0 0.00101721 -0.000128746
12 1 0.749986 0.166295 0.309759 0 -0.0010277 -0.000125408
13 1 0.999986 0.666278 0.559747 0 -0.000994325 7.05719e-05
14 1 0.499986 0.666278 0.559747 0 -0.000994325 7.05719e-05
15 1 0.249986 0.16628 0.559747 0 -0.00101709 6.12736e-05
16 1 0.749986 0.16628 0.559747 0 -0.00101709 6.12736e-05
17 1 0.249986 0.500393 0.434755 0 0.00100958 -6.68764e-05
18 1 0.749986 0.500393 0.434755 0 0.00100958 -6.68764e-05
19 1 0.999986 0.000395418 0.434755 0 0.000984192 -8.21352e-05
20 1 0.499986 0.000395418 0.434755 0 0.000984192 -8.21352e-05
21 1 0.999986 0.666272 0.809742 0 -0.00101066 0.00014472
22 1 0.249986 0.500372 0.684743 0 0.00103128 0.000126243
23 1 0.499986 0.666272 0.809742 0 -0.00101066 0.00014472
24 1 0.749986 0.500372 0.684743 0 0.00103128 0.000126243
25 1 0.999986 0.000371505 0.684741 0 0.00103748 0.00018394
26 1 0.249986 0.166272 0.809741 0 -0.00101638 0.000174642
27 1 0.749986 0.166272 0.809741 0 -0.00101638 0.000174642
28 1 0.499986 0.000371505 0.684741 0 0.00103748 0.00018394
29 1 0.249986 0.500377 0.934747 0 0.00102127 5.126e-05
30 1 0.749986 0.500377 0.934747 0 0.00102127 5.126e-05
31 1 0.999986 0.000375504 0.934746 0 0.00103402 0.00011301
32 1 0.499986 0.000375505 0.934746 0 0.00103402 0.00011301
ITEM: TIMESTEP
1
ITEM: NUMBER OF ATOMS
32
ITEM: BOX BOUNDS xy xz yz pp pp pp
-3.1983852386474609e-04 6.3971520066261292e+00 0.0000000000000000e+00
-2.7602910995483398e-04 5.5207071900367737e+00 0.0000000000000000e+00
-1.0362863540649414e-03 2.0726422727108002e+01 0.0000000000000000e+00
ITEM: ATOMS id type xs ys zs fx fy fz
1 1 0.999986 0.666284 0.0597554 0 -0.00102282 -0.00011456
2 1 0.499986 0.666284 0.0597554 0 -0.00102282 -0.00011456
3 1 0.249986 0.166284 0.0597529 0 -0.00101912 -2.22921e-05
4 1 0.749986 0.166284 0.0597529 0 -0.00101912 -2.22921e-05
5 1 0.999986 0.666297 0.309761 0 -0.00104058 -0.000201344
6 1 0.249986 0.50039 0.18476 0 0.00101852 -0.000185251
7 1 0.749986 0.50039 0.18476 0 0.00101852 -0.000185251
8 1 0.499986 0.666297 0.309761 0 -0.00104058 -0.000201344
9 1 0.999986 0.000391005 0.184759 0 0.00101507 -0.000128746
10 1 0.249986 0.166295 0.309759 0 -0.00102568 -0.000125051
11 1 0.499986 0.000391006 0.184759 0 0.00101507 -0.000128746
12 1 0.749986 0.166295 0.309759 0 -0.00102568 -0.000125051
13 1 0.999986 0.666278 0.559747 0 -0.000992417 7.06911e-05
14 1 0.499986 0.666278 0.559747 0 -0.000992417 7.06911e-05
15 1 0.249986 0.16628 0.559747 0 -0.00101602 6.06775e-05
16 1 0.749986 0.16628 0.559747 0 -0.00101602 6.05583e-05
17 1 0.249986 0.500393 0.434755 0 0.00100803 -6.6638e-05
18 1 0.749986 0.500393 0.434755 0 0.00100803 -6.6638e-05
19 1 0.999986 0.000395422 0.434755 0 0.000981688 -8.24928e-05
20 1 0.499986 0.000395422 0.434755 0 0.000981688 -8.24928e-05
21 1 0.999986 0.666272 0.809742 -1.19209e-07 -0.00100863 0.000144601
22 1 0.249986 0.500372 0.684743 0 0.00103009 0.000126362
23 1 0.499986 0.666272 0.809742 0 -0.00100863 0.000144601
24 1 0.749986 0.500372 0.684743 0 0.00103009 0.000126362
25 1 0.999986 0.000371509 0.684741 0 0.00103533 0.000184894
26 1 0.249986 0.166272 0.809741 1.19209e-07 -0.00101471 0.000174284
27 1 0.749986 0.166272 0.809741 0 -0.00101471 0.000174284
28 1 0.499986 0.000371508 0.684741 0 0.00103533 0.000185013
29 1 0.249986 0.500377 0.934747 0 0.00102007 5.16176e-05
30 1 0.749986 0.500377 0.934747 0 0.00102007 5.16176e-05
31 1 0.999986 0.000375508 0.934746 0 0.00103116 0.000113249
32 1 0.499986 0.000375508 0.934746 0 0.00103116 0.000113249
ITEM: TIMESTEP
2
ITEM: NUMBER OF ATOMS
32
ITEM: BOX BOUNDS xy xz yz pp pp pp
-6.3967704772949219e-04 6.3974718451499939e+00 0.0000000000000000e+00
-5.5205821990966797e-04 5.5209832191467285e+00 0.0000000000000000e+00
-2.0725727081298828e-03 2.0727459013462067e+01 0.0000000000000000e+00
ITEM: ATOMS id type xs ys zs fx fy fz
1 1 0.999986 0.666284 0.0597554 0 -0.00102115 -0.00011456
2 1 0.499986 0.666284 0.0597554 0 -0.00102115 -0.00011456
3 1 0.249986 0.166284 0.0597529 0 -0.00101852 -2.20537e-05
4 1 0.749986 0.166284 0.0597529 0 -0.00101852 -2.20537e-05
5 1 0.999986 0.666297 0.309761 0 -0.00103903 -0.000200987
6 1 0.249986 0.50039 0.18476 0 0.00101733 -0.000184655
7 1 0.749986 0.50039 0.18476 0 0.00101733 -0.000184655
8 1 0.499986 0.666297 0.309761 0 -0.00103903 -0.000200987
9 1 0.999986 0.000391009 0.184759 0 0.00101268 -0.000128388
10 1 0.249986 0.166295 0.309759 0 -0.00102365 -0.000124812
11 1 0.499986 0.000391009 0.184759 0 0.00101268 -0.000128388
12 1 0.749986 0.166295 0.309759 0 -0.00102365 -0.000124812
13 1 0.999986 0.666278 0.559747 0 -0.000989914 7.09295e-05
14 1 0.499986 0.666278 0.559747 0 -0.000989914 7.09295e-05
15 1 0.249986 0.16628 0.559747 0 -0.00101233 6.12736e-05
16 1 0.749986 0.16628 0.559747 0 -0.00101233 6.12736e-05
17 1 0.249986 0.500393 0.434755 0 0.00100446 -6.74725e-05
18 1 0.749986 0.500393 0.434755 0 0.00100446 -6.74725e-05
19 1 0.999986 0.000395425 0.434755 0 0.000980139 -8.23736e-05
20 1 0.499986 0.000395425 0.434755 0 0.000980139 -8.23736e-05
21 1 0.999986 0.666272 0.809742 0 -0.00100648 0.000144601
22 1 0.249986 0.500372 0.684743 0 0.00102711 0.000126481
23 1 0.499986 0.666272 0.809742 0 -0.00100648 0.000144601
24 1 0.749986 0.500372 0.684743 0 0.00102711 0.000126481
25 1 0.999986 0.000371513 0.684741 0 0.00103271 0.000183463
26 1 0.249986 0.166272 0.809741 0 -0.00101185 0.000174284
27 1 0.749986 0.166272 0.809741 0 -0.00101185 0.000174284
28 1 0.499986 0.000371512 0.684741 0 0.00103271 0.000183463
29 1 0.249986 0.500377 0.934747 0 0.00101769 5.10216e-05
30 1 0.749986 0.500377 0.934747 0 0.00101769 5.10216e-05
31 1 0.999986 0.000375511 0.934746 0 0.0010308 0.000113249
32 1 0.499986 0.000375512 0.934746 0 0.0010308 0.000113249
ITEM: TIMESTEP
3
ITEM: NUMBER OF ATOMS
32
ITEM: BOX BOUNDS xy xz yz pp pp pp
-9.5951557159423828e-04 6.3977916836738586e+00 0.0000000000000000e+00
-8.2808732986450195e-04 5.5212592482566833e+00 0.0000000000000000e+00
-3.1088590621948242e-03 2.0728495299816132e+01 0.0000000000000000e+00
ITEM: ATOMS id type xs ys zs fx fy fz
1 1 0.999986 0.666284 0.0597554 0 -0.00101793 -0.000114441
2 1 0.499986 0.666284 0.0597554 0 -0.00101793 -0.000114441
3 1 0.249986 0.166284 0.0597529 0 -0.00101769 -2.14577e-05
4 1 0.749986 0.166284 0.0597529 0 -0.00101769 -2.14577e-05
5 1 0.999986 0.666297 0.309761 0 -0.00103784 -0.000200391
6 1 0.249986 0.50039 0.18476 0 0.00101542 -0.000184059
7 1 0.749986 0.50039 0.18476 0 0.00101542 -0.000184059
8 1 0.499986 0.666297 0.309761 0 -0.00103784 -0.000200391
9 1 0.999986 0.000391013 0.184759 0 0.00101101 -0.000128269
10 1 0.249986 0.166295 0.309759 0 -0.0010215 -0.000125289
11 1 0.499986 0.000391013 0.184759 0 0.00101101 -0.000128269
12 1 0.749986 0.166295 0.309759 0 -0.0010215 -0.000125289
13 1 0.999986 0.666278 0.559747 0 -0.000987053 7.06911e-05
14 1 0.499986 0.666278 0.559747 0 -0.000987053 7.06911e-05
15 1 0.249986 0.16628 0.559747 0 -0.00101149 6.03199e-05
16 1 0.749986 0.16628 0.559747 0 -0.00101149 6.03199e-05
17 1 0.249986 0.500393 0.434755 0 0.00100386 -6.71148e-05
18 1 0.749986 0.500393 0.434755 0 0.00100386 -6.71148e-05
19 1 0.999986 0.000395429 0.434755 0 0.000976682 -8.27312e-05
20 1 0.499986 0.000395429 0.434755 0 0.000976682 -8.27312e-05
21 1 0.999986 0.666272 0.809742 0 -0.00100362 0.000144839
22 1 0.249986 0.500372 0.684743 0 0.00102437 0.000126362
23 1 0.499986 0.666272 0.809742 0 -0.00100362 0.000144839
24 1 0.749986 0.500372 0.684743 0 0.00102437 0.000126362
25 1 0.999986 0.000371517 0.684741 0 0.00103176 0.000184059
26 1 0.249986 0.166272 0.809741 0 -0.00101054 0.000173926
27 1 0.749986 0.166272 0.809741 0 -0.00101054 0.000173926
28 1 0.499986 0.000371516 0.684741 0 0.00103176 0.000184059
29 1 0.249986 0.500377 0.934747 0 0.00101542 5.11408e-05
30 1 0.749986 0.500377 0.934747 0 0.00101542 5.11408e-05
31 1 0.999986 0.000375515 0.934746 0 0.00102913 0.000112414
32 1 0.499986 0.000375516 0.934746 0 0.00102913 0.000112414
ITEM: TIMESTEP
4
ITEM: NUMBER OF ATOMS
32
ITEM: BOX BOUNDS xy xz yz pp pp pp
-1.2793540954589844e-03 6.3981115221977234e+00 0.0000000000000000e+00
-1.1041164398193359e-03 5.5215352773666382e+00 0.0000000000000000e+00
-4.1451454162597656e-03 2.0729531586170197e+01 0.0000000000000000e+00
ITEM: ATOMS id type xs ys zs fx fy fz
1 1 0.999986 0.666284 0.0597554 -1.19209e-07 -0.00101674 -0.000114679
2 1 0.499986 0.666284 0.0597554 0 -0.00101674 -0.000114679
3 1 0.249986 0.166284 0.0597529 1.19209e-07 -0.00101519 -2.13385e-05
4 1 0.749986 0.166284 0.0597529 0 -0.00101519 -2.13385e-05
5 1 0.999986 0.666297 0.309761 0 -0.00103545 -0.000200868
6 1 0.249986 0.50039 0.18476 0 0.00101435 -0.00018394
7 1 0.749986 0.50039 0.18476 0 0.00101435 -0.00018394
8 1 0.499986 0.666297 0.309761 0 -0.00103545 -0.000200868
9 1 0.999986 0.000391017 0.184759 0 0.00100923 -0.000127673
10 1 0.249986 0.166295 0.309759 0 -0.00102007 -0.000125289
11 1 0.499986 0.000391017 0.184759 0 0.00100923 -0.000127673
12 1 0.749986 0.166295 0.309759 0 -0.00102007 -0.000125289
13 1 0.999986 0.666278 0.559747 0 -0.000986099 7.04527e-05
14 1 0.499986 0.666278 0.559747 0 -0.000986099 7.04527e-05
15 1 0.249986 0.16628 0.559747 0 -0.00100946 6.09159e-05
16 1 0.749986 0.16628 0.559747 0 -0.00100946 6.09159e-05
17 1 0.249986 0.500393 0.434755 0 0.00100148 -6.68764e-05
18 1 0.749986 0.500393 0.434755 0 0.00100148 -6.68764e-05
19 1 0.999986 0.000395433 0.434755 0 0.000975728 -8.27312e-05
20 1 0.499986 0.000395433 0.434755 0 0.000975728 -8.27312e-05
21 1 0.999986 0.666272 0.809742 0 -0.00100338 0.000144601
22 1 0.249986 0.500372 0.684743 0 0.00102341 0.000126362
23 1 0.499986 0.666272 0.809742 0 -0.00100338 0.000144601
24 1 0.749986 0.500372 0.684743 0 0.00102341 0.000126362
25 1 0.999986 0.000371521 0.684741 0 0.00103056 0.000183105
26 1 0.249986 0.166272 0.809741 0 -0.00100899 0.000174284
27 1 0.749986 0.166272 0.809741 0 -0.00100899 0.000174284
28 1 0.499986 0.00037152 0.684741 0 0.00103056 0.000183105
29 1 0.249986 0.500377 0.934747 0 0.00101376 5.06639e-05
30 1 0.749986 0.500377 0.934747 0 0.00101376 5.06639e-05
31 1 0.999986 0.00037552 0.934746 0 0.00102687 0.00011301
32 1 0.499986 0.00037552 0.934746 0 0.00102687 0.00011301
ITEM: TIMESTEP
5
ITEM: NUMBER OF ATOMS
32
ITEM: BOX BOUNDS xy xz yz pp pp pp
-1.5991926193237305e-03 6.3984313607215881e+00 0.0000000000000000e+00
-1.3801455497741699e-03 5.5218113064765930e+00 0.0000000000000000e+00
-5.1814317703247070e-03 2.0730567872524261e+01 0.0000000000000000e+00
ITEM: ATOMS id type xs ys zs fx fy fz
1 1 0.999986 0.666284 0.0597554 0 -0.00101542 -0.000114799
2 1 0.499986 0.666284 0.0597554 0 -0.00101542 -0.000114799
3 1 0.249986 0.166284 0.0597529 0 -0.00101352 -2.19345e-05
4 1 0.749986 0.166284 0.0597529 0 -0.00101352 -2.19345e-05
5 1 0.999986 0.666297 0.309761 0 -0.00103259 -0.00020051
6 1 0.249986 0.50039 0.18476 0 0.00101173 -0.00018394
7 1 0.749986 0.50039 0.18476 0 0.00101173 -0.00018394
8 1 0.499986 0.666297 0.309761 0 -0.00103259 -0.00020051
9 1 0.999986 0.000391021 0.184759 0 0.00100684 -0.000127673
10 1 0.249986 0.166295 0.309759 0 -0.00101733 -0.000125051
11 1 0.499986 0.000391021 0.184759 0 0.00100684 -0.000127673
12 1 0.749986 0.166295 0.309759 0 -0.00101733 -0.000125051
13 1 0.999986 0.666278 0.559747 0 -0.000984192 7.03335e-05
14 1 0.499986 0.666278 0.559747 0 -0.000984192 7.02143e-05
15 1 0.249986 0.16628 0.559747 0 -0.00100744 6.07967e-05
16 1 0.749986 0.16628 0.559747 0 -0.00100744 6.07967e-05
17 1 0.249986 0.500393 0.434755 0 0.000999689 -6.59227e-05
18 1 0.749986 0.500393 0.434755 0 0.000999689 -6.58035e-05
19 1 0.999986 0.000395437 0.434755 0 0.000973105 -8.29697e-05
20 1 0.499986 0.000395437 0.434755 0 0.000973105 -8.29697e-05
21 1 0.999986 0.666272 0.809742 0 -0.000999928 0.000144124
22 1 0.249986 0.500372 0.684743 0 0.00102162 0.000125885
23 1 0.499986 0.666272 0.809742 0 -0.000999928 0.000144124
24 1 0.749986 0.500372 0.684743 0 0.00102162 0.000125885
25 1 0.999986 0.000371525 0.684741 0 0.0010277 0.000183225
26 1 0.249986 0.166272 0.809741 0 -0.00100791 0.000174284
27 1 0.749986 0.166272 0.809741 0 -0.00100791 0.000174284
28 1 0.499986 0.000371524 0.684741 0 0.0010277 0.000183225
29 1 0.249986 0.500377 0.934747 0 0.00101173 5.17368e-05
30 1 0.749986 0.500377 0.934747 0 0.00101173 5.17368e-05
31 1 0.999986 0.000375524 0.934746 0 0.00102592 0.000112414
32 1 0.499986 0.000375524 0.934746 0 0.00102592 0.000112414
ITEM: TIMESTEP
6
ITEM: NUMBER OF ATOMS
32
ITEM: BOX BOUNDS xy xz yz pp pp pp
-1.9190311431884766e-03 6.3987511992454529e+00 0.0000000000000000e+00
-1.6561746597290039e-03 5.5220873355865479e+00 0.0000000000000000e+00
-6.2177181243896484e-03 2.0731604158878326e+01 0.0000000000000000e+00
ITEM: ATOMS id type xs ys zs fx fy fz
1 1 0.999986 0.666284 0.0597554 0 -0.00101316 -0.000114083
2 1 0.499986 0.666284 0.0597554 0 -0.00101316 -0.000114083
3 1 0.249986 0.166284 0.0597529 0 -0.00101137 -2.16961e-05
4 1 0.749986 0.166284 0.0597529 0 -0.00101137 -2.16961e-05
5 1 0.999986 0.666297 0.309761 0 -0.00103176 -0.000200629
6 1 0.249986 0.50039 0.18476 -1.19209e-07 0.00100982 -0.000185013
7 1 0.749986 0.50039 0.18476 1.19209e-07 0.00100982 -0.000185013
8 1 0.499986 0.666297 0.309761 0 -0.00103176 -0.000200629
9 1 0.999986 0.000391026 0.184759 0 0.00100589 -0.000127554
10 1 0.249986 0.166295 0.309759 -1.19209e-07 -0.0010165 -0.000124454
11 1 0.499986 0.000391026 0.184759 0 0.00100589 -0.000127554
12 1 0.749986 0.166295 0.309759 1.19209e-07 -0.0010165 -0.000124454
13 1 0.999986 0.666278 0.559747 0 -0.000981331 7.08103e-05
14 1 0.499986 0.666278 0.559747 0 -0.000981331 7.08103e-05
15 1 0.249986 0.16628 0.559747 0 -0.00100505 6.02007e-05
16 1 0.749986 0.16628 0.559747 0 -0.00100505 6.02007e-05
17 1 0.249986 0.500393 0.434755 0 0.000997543 -6.59227e-05
18 1 0.749986 0.500393 0.434755 0 0.000997543 -6.59227e-05
19 1 0.999986 0.000395441 0.434755 0 0.000971437 -8.29697e-05
20 1 0.499986 0.000395441 0.434755 0 0.000971437 -8.29697e-05
21 1 0.999986 0.666272 0.809742 0 -0.000998855 0.000143051
22 1 0.249986 0.500372 0.684743 0 0.00101948 0.000126362
23 1 0.499986 0.666272 0.809742 0 -0.000998855 0.000143051
24 1 0.749986 0.500372 0.684743 0 0.00101948 0.000126362
25 1 0.999986 0.000371529 0.684741 0 0.0010252 0.000183821
26 1 0.249986 0.166272 0.809741 0 -0.00100505 0.000173807
27 1 0.749986 0.166272 0.809741 0 -0.00100505 0.000173807
28 1 0.499986 0.000371529 0.684741 0 0.0010252 0.000183821
29 1 0.249986 0.500377 0.934747 0 0.00100994 5.14984e-05
30 1 0.749986 0.500377 0.934747 0 0.00100994 5.14984e-05
31 1 0.999986 0.000375528 0.934746 0 0.00102377 0.000112772
32 1 0.499986 0.000375529 0.934746 0 0.00102377 0.000112772
ITEM: TIMESTEP
7
ITEM: NUMBER OF ATOMS
32
ITEM: BOX BOUNDS xy xz yz pp pp pp
-2.2388696670532227e-03 6.3990710377693176e+00 0.0000000000000000e+00
-1.9322037696838379e-03 5.5223633646965027e+00 0.0000000000000000e+00
-7.2540044784545898e-03 2.0732640445232391e+01 0.0000000000000000e+00
ITEM: ATOMS id type xs ys zs fx fy fz
1 1 0.999986 0.666284 0.0597554 0 -0.00101089 -0.000113487
2 1 0.499986 0.666284 0.0597554 0 -0.00101089 -0.000113487
3 1 0.249986 0.166284 0.0597529 0 -0.0010097 -2.18153e-05
4 1 0.749986 0.166284 0.0597529 0 -0.0010097 -2.18153e-05
5 1 0.999986 0.666297 0.309761 0 -0.00102961 -0.000200272
6 1 0.249986 0.50039 0.18476 0 0.00100875 -0.000184298
7 1 0.749986 0.50039 0.18476 0 0.00100875 -0.000184298
8 1 0.499986 0.666297 0.309761 0 -0.00102961 -0.000200272
9 1 0.999986 0.00039103 0.184759 0 0.00100338 -0.00012815
10 1 0.249986 0.166295 0.309759 0 -0.00101423 -0.000123739
11 1 0.499986 0.00039103 0.184759 0 0.00100338 -0.00012815
12 1 0.749986 0.166295 0.309759 0 -0.00101423 -0.000123739
13 1 0.999986 0.666278 0.559747 0 -0.000979066 7.06911e-05
14 1 0.499986 0.666278 0.559747 0 -0.000979066 7.05719e-05
15 1 0.249986 0.16628 0.559747 0 -0.00100422 6.06775e-05
16 1 0.749986 0.16628 0.559747 0 -0.00100422 6.06775e-05
17 1 0.249986 0.500393 0.434755 0 0.000996113 -6.65188e-05
18 1 0.749986 0.500393 0.434755 0 0.000996113 -6.63996e-05
19 1 0.999986 0.000395446 0.434755 0 0.000968575 -8.24928e-05
20 1 0.499986 0.000395446 0.434755 0 0.000968575 -8.24928e-05
21 1 0.999986 0.666272 0.809742 0 -0.000997543 0.000144124
22 1 0.249986 0.500372 0.684743 0 0.00101745 0.000125408
23 1 0.499986 0.666272 0.809742 0 -0.000997543 0.000144124
24 1 0.749986 0.500372 0.684743 0 0.00101745 0.000125408
25 1 0.999986 0.000371534 0.684741 0 0.0010246 0.000183225
26 1 0.249986 0.166272 0.809741 0 -0.00100338 0.000173926
27 1 0.749986 0.166272 0.809741 0 -0.00100338 0.000173926
28 1 0.499986 0.000371533 0.684741 0 0.0010246 0.000183225
29 1 0.249986 0.500377 0.934747 0 0.00100851 5.07832e-05
30 1 0.749986 0.500377 0.934747 0 0.00100851 5.07832e-05
31 1 0.999986 0.000375533 0.934746 0 0.00102127 0.000111938
32 1 0.499986 0.000375533 0.934746 0 0.00102127 0.000111938
ITEM: TIMESTEP
8
ITEM: NUMBER OF ATOMS
32
ITEM: BOX BOUNDS xy xz yz pp pp pp
-2.5587081909179688e-03 6.3993908762931824e+00 0.0000000000000000e+00
-2.2082328796386719e-03 5.5226393938064575e+00 0.0000000000000000e+00
-8.2902908325195312e-03 2.0733676731586456e+01 0.0000000000000000e+00
ITEM: ATOMS id type xs ys zs fx fy fz
1 1 0.999986 0.666284 0.0597554 0 -0.00100935 -0.000113487
2 1 0.499986 0.666284 0.0597554 0 -0.00100946 -0.000113487
3 1 0.249986 0.166284 0.0597529 0 -0.0010072 -2.18153e-05
4 1 0.749986 0.166284 0.0597529 0 -0.00100708 -2.18153e-05
5 1 0.999986 0.666297 0.309761 0 -0.00102782 -0.000200033
6 1 0.249986 0.50039 0.18476 0 0.00100541 -0.000183821
7 1 0.749986 0.50039 0.18476 0 0.00100541 -0.000183821
8 1 0.499986 0.666297 0.309761 0 -0.00102782 -0.000200033
9 1 0.999986 0.000391035 0.184759 0 0.00100219 -0.000127196
10 1 0.249986 0.166295 0.309759 0 -0.00101173 -0.000124931
11 1 0.499986 0.000391035 0.184759 0 0.00100219 -0.000127077
12 1 0.749986 0.166295 0.309759 0 -0.00101173 -0.000124812
13 1 0.999986 0.666278 0.559747 0 -0.000978827 7.02143e-05
14 1 0.499986 0.666278 0.559747 0 -0.000978827 7.02143e-05
15 1 0.249986 0.16628 0.559747 0 -0.00100088 6.05583e-05
16 1 0.749986 0.16628 0.559747 0 -0.00100088 6.05583e-05
17 1 0.249986 0.500393 0.434755 0 0.000993729 -6.61612e-05
18 1 0.749986 0.500393 0.434755 0 0.000993729 -6.61612e-05
19 1 0.999986 0.00039545 0.434755 0 0.000967979 -8.2016e-05
20 1 0.499986 0.00039545 0.434755 0 0.000967979 -8.2016e-05
21 1 0.999986 0.666272 0.809742 0 -0.000994444 0.000144124
22 1 0.249986 0.500372 0.684743 0 0.00101542 0.000125408
23 1 0.499986 0.666272 0.809742 0 -0.000994444 0.000144124
24 1 0.749986 0.500372 0.684743 0 0.00101542 0.000125408
25 1 0.999986 0.000371539 0.684741 0 0.00102198 0.000182629
26 1 0.249986 0.166272 0.809741 0 -0.00100183 0.000173569
27 1 0.749986 0.166272 0.809741 0 -0.00100183 0.000173569
28 1 0.499986 0.000371538 0.684741 0 0.00102198 0.000182629
29 1 0.249986 0.500377 0.934747 0 0.00100625 5.04255e-05
30 1 0.749986 0.500377 0.934747 0 0.00100625 5.04255e-05
31 1 0.999986 0.000375537 0.934746 0 0.00101912 0.000112414
32 1 0.499986 0.000375538 0.934746 0 0.00101912 0.000112414
ITEM: TIMESTEP
9
ITEM: NUMBER OF ATOMS
32
ITEM: BOX BOUNDS xy xz yz pp pp pp
-2.8785467147827148e-03 6.3997107148170471e+00 0.0000000000000000e+00
-2.4842619895935059e-03 5.5229154229164124e+00 0.0000000000000000e+00
-9.3265771865844727e-03 2.0734713017940521e+01 0.0000000000000000e+00
ITEM: ATOMS id type xs ys zs fx fy fz
1 1 0.999986 0.666284 0.0597554 0 -0.00100768 -0.00011313
2 1 0.499986 0.666284 0.0597554 0 -0.0010078 -0.00011313
3 1 0.249986 0.166284 0.0597529 0 -0.00100601 -2.14577e-05
4 1 0.749986 0.166284 0.0597529 0 -0.00100601 -2.14577e-05
5 1 0.999986 0.666297 0.309761 0 -0.00102544 -0.000200033
6 1 0.249986 0.50039 0.18476 0 0.00100422 -0.000183463
7 1 0.749986 0.50039 0.18476 0 0.00100422 -0.000183463
8 1 0.499986 0.666297 0.309761 0 -0.00102544 -0.000200033
9 1 0.999986 0.00039104 0.184759 0 0.000999331 -0.000128269
10 1 0.249986 0.166295 0.309759 0 -0.0010097 -0.000124335
11 1 0.499986 0.00039104 0.184759 0 0.000999331 -0.000128269
12 1 0.749986 0.166295 0.309759 0 -0.0010097 -0.000124335
13 1 0.999986 0.666278 0.559747 0 -0.000975609 6.96182e-05
14 1 0.499986 0.666278 0.559747 0 -0.000975609 6.96182e-05
15 1 0.249986 0.16628 0.559747 0 -0.00099957 6.05583e-05
16 1 0.749986 0.16628 0.559747 0 -0.00099957 6.05583e-05
17 1 0.249986 0.500393 0.434755 0 0.000991583 -6.58035e-05
18 1 0.749986 0.500393 0.434755 0 0.000991583 -6.58035e-05
19 1 0.999986 0.000395455 0.434755 0 0.000965238 -8.11815e-05
20 1 0.499986 0.000395455 0.434755 0 0.000965238 -8.11815e-05
21 1 0.999986 0.666272 0.809742 0 -0.00099194 0.00014329
22 1 0.249986 0.500372 0.684743 0 0.00101304 0.00012517
23 1 0.499986 0.666272 0.809742 0 -0.00099194 0.00014329
24 1 0.749986 0.500372 0.684743 0 0.00101304 0.00012517
25 1 0.999986 0.000371544 0.684741 0 0.00102043 0.000182033
26 1 0.249986 0.166272 0.809741 0 -0.00100005 0.00017345
27 1 0.749986 0.166272 0.809741 0 -0.00100005 0.00017345
28 1 0.499986 0.000371543 0.684741 0 0.00102043 0.000182033
29 1 0.249986 0.500377 0.934747 0 0.00100374 5.04255e-05
30 1 0.749986 0.500377 0.934747 0 0.00100386 5.04255e-05
31 1 0.999986 0.000375542 0.934746 -2.38419e-07 0.0010184 0.00011313
32 1 0.499986 0.000375543 0.934746 2.38419e-07 0.0010184 0.00011313
ITEM: TIMESTEP
10
ITEM: NUMBER OF ATOMS
32
ITEM: BOX BOUNDS xy xz yz pp pp pp
-3.1983852386474609e-03 6.4000305533409119e+00 0.0000000000000000e+00
-2.7602910995483398e-03 5.5231914520263672e+00 0.0000000000000000e+00
-1.0362863540649414e-02 2.0735749304294586e+01 0.0000000000000000e+00
ITEM: ATOMS id type xs ys zs fx fy fz
1 1 0.999986 0.666284 0.0597554 0 -0.00100505 -0.000113845
2 1 0.499986 0.666284 0.0597554 0 -0.00100505 -0.000113845
3 1 0.249986 0.166284 0.0597529 0 -0.00100374 -2.11e-05
4 1 0.749986 0.166284 0.0597529 0 -0.00100374 -2.11e-05
5 1 0.999986 0.666297 0.309761 0 -0.00102448 -0.000199318
6 1 0.249986 0.50039 0.18476 0 0.00100243 -0.000183582
7 1 0.749986 0.50039 0.18476 0 0.00100243 -0.000183582
8 1 0.499986 0.666297 0.309761 0 -0.00102448 -0.000199318
9 1 0.999986 0.000391045 0.184759 0 0.000997066 -0.000127196
10 1 0.249986 0.166295 0.309759 0 -0.00100756 -0.000124335
11 1 0.499986 0.000391045 0.184759 0 0.000997066 -0.000127196
12 1 0.749986 0.166295 0.309759 0 -0.00100756 -0.000124335
13 1 0.999986 0.666278 0.559747 0 -0.000973344 6.90222e-05
14 1 0.499986 0.666278 0.559747 0 -0.000973344 6.90222e-05
15 1 0.249986 0.16628 0.559747 0 -0.00099802 5.97239e-05
16 1 0.749986 0.16628 0.559747 0 -0.00099802 5.98431e-05
17 1 0.249986 0.500393 0.434755 0 0.00099051 -6.49691e-05
18 1 0.749986 0.500393 0.434755 0 0.00099051 -6.49691e-05
19 1 0.999986 0.00039546 0.434755 0 0.000962973 -8.13007e-05
20 1 0.499986 0.00039546 0.434755 0 0.000962973 -8.13007e-05
21 1 0.999986 0.666272 0.809742 0 -0.00099194 0.000143051
22 1 0.249986 0.500372 0.684743 0 0.00101161 0.000125289
23 1 0.499986 0.666272 0.809742 0 -0.00099194 0.000143051
24 1 0.749986 0.500372 0.684743 0 0.00101161 0.000125289
25 1 0.999986 0.000371549 0.684741 0 0.001019 0.000182748
26 1 0.249986 0.166272 0.809741 0 -0.000997663 0.000172734
27 1 0.749986 0.166272 0.809741 0 -0.000997663 0.000172734
28 1 0.499986 0.000371548 0.684741 0 0.001019 0.000182629
29 1 0.249986 0.500377 0.934747 0 0.00100219 5.09024e-05
30 1 0.749986 0.500377 0.934747 0 0.00100219 5.09024e-05
31 1 0.999986 0.000375548 0.934746 0 0.00101602 0.000112176
32 1 0.499986 0.000375548 0.934746 0 0.00101602 0.000112176
ITEM: TIMESTEP
11
ITEM: NUMBER OF ATOMS
32
ITEM: BOX BOUNDS xy xz yz pp pp pp
-3.5182237625122070e-03 6.4003503918647766e+00 0.0000000000000000e+00
-3.0363202095031738e-03 5.5234674811363220e+00 0.0000000000000000e+00
-1.1399149894714355e-02 2.0736785590648651e+01 0.0000000000000000e+00
ITEM: ATOMS id type xs ys zs fx fy fz
1 1 0.999986 0.666284 0.0597554 0 -0.00100243 -0.000113964
2 1 0.499986 0.666284 0.0597554 0 -0.00100243 -0.000114083
3 1 0.249986 0.166284 0.0597529 0 -0.00100088 -2.11e-05
4 1 0.749986 0.166284 0.0597529 0 -0.00100088 -2.11e-05
5 1 0.999986 0.666297 0.309761 0 -0.00102115 -0.000199318
6 1 0.249986 0.50039 0.18476 0 0.001001 -0.000183582
7 1 0.749986 0.50039 0.18476 0 0.001001 -0.000183582
8 1 0.499986 0.666297 0.309761 0 -0.00102115 -0.000199318
9 1 0.999986 0.00039105 0.184759 0 0.000994563 -0.000126719
10 1 0.249986 0.166295 0.309759 0 -0.00100648 -0.000123858
11 1 0.499986 0.00039105 0.184759 0 0.000994563 -0.000126719
12 1 0.749986 0.166295 0.309759 0 -0.00100648 -0.000123858
13 1 0.999986 0.666278 0.559747 -1.19209e-07 -0.000971794 6.98566e-05
14 1 0.499986 0.666278 0.559747 0 -0.000971794 6.98566e-05
15 1 0.249986 0.16628 0.559747 0 -0.000995398 6.04391e-05
16 1 0.749986 0.16628 0.559747 0 -0.000995398 6.04391e-05
17 1 0.249986 0.500393 0.434755 1.19209e-07 0.000988007 -6.55651e-05
18 1 0.749986 0.500393 0.434755 0 0.000988007 -6.55651e-05
19 1 0.999986 0.000395465 0.434755 0 0.000960827 -8.2016e-05
20 1 0.499986 0.000395465 0.434755 0 0.000960827 -8.2016e-05
21 1 0.999986 0.666272 0.809742 0 -0.000988603 0.000143051
22 1 0.249986 0.500372 0.684743 0 0.0010097 0.000124574
23 1 0.499986 0.666272 0.809742 0 -0.000988603 0.000143051
24 1 0.749986 0.500372 0.684743 0 0.0010097 0.000124574
25 1 0.999986 0.000371554 0.684741 -1.19209e-07 0.00101602 0.000182271
26 1 0.249986 0.166272 0.809741 1.19209e-07 -0.000996351 0.000173092
27 1 0.749986 0.166272 0.809741 0 -0.000996351 0.000173092
28 1 0.499986 0.000371554 0.684741 0 0.00101602 0.000182271
29 1 0.249986 0.500377 0.934747 0 0.000999689 5.07832e-05
30 1 0.749986 0.500377 0.934747 0 0.000999689 5.07832e-05
31 1 0.999986 0.000375553 0.934746 0 0.00101328 0.000112057
32 1 0.499986 0.000375554 0.934746 0 0.00101328 0.000112176
ITEM: TIMESTEP
12
ITEM: NUMBER OF ATOMS
32
ITEM: BOX BOUNDS xy xz yz pp pp pp
-3.8380622863769531e-03 6.4006702303886414e+00 0.0000000000000000e+00
-3.3123493194580078e-03 5.5237435102462769e+00 0.0000000000000000e+00
-1.2435436248779297e-02 2.0737821877002716e+01 0.0000000000000000e+00
ITEM: ATOMS id type xs ys zs fx fy fz
1 1 0.999986 0.666284 0.0597554 0 -0.000999928 -0.000113249
2 1 0.499986 0.666284 0.0597554 0 -0.000999928 -0.000113249
3 1 0.249986 0.166284 0.0597529 0 -0.000999331 -2.12193e-05
4 1 0.749986 0.166284 0.0597529 0 -0.000999331 -2.12193e-05
5 1 0.999986 0.666297 0.309761 0 -0.00101912 -0.00019908
6 1 0.249986 0.50039 0.18476 0 0.000997066 -0.000182867
7 1 0.749986 0.50039 0.18476 0 0.000997066 -0.000182867
8 1 0.499986 0.666297 0.309761 0 -0.00101912 -0.00019908
9 1 0.999986 0.000391055 0.184759 0 0.000993133 -0.000127077
10 1 0.249986 0.166295 0.309759 0 -0.00100338 -0.000123501
11 1 0.499986 0.000391056 0.184759 0 0.000993133 -0.000127077
12 1 0.749986 0.166295 0.309759 0 -0.00100338 -0.000123501
13 1 0.999986 0.666278 0.559747 0 -0.000970244 6.97374e-05
14 1 0.499986 0.666278 0.559747 0 -0.000970244 6.97374e-05
15 1 0.249986 0.16628 0.559747 0 -0.000993967 6.02007e-05
16 1 0.749986 0.16628 0.559747 0 -0.000993967 6.02007e-05
17 1 0.249986 0.500393 0.434755 0 0.000986576 -6.58035e-05
18 1 0.749986 0.500393 0.434755 0 0.000986576 -6.58035e-05
19 1 0.999986 0.00039547 0.434755 0 0.00095892 -8.18968e-05
20 1 0.499986 0.00039547 0.434755 0 0.00095892 -8.18968e-05
21 1 0.999986 0.666272 0.809742 0 -0.000986457 0.000143647
22 1 0.249986 0.500372 0.684743 0 0.00100648 0.000124454
23 1 0.499986 0.666272 0.809742 0 -0.000986457 0.000143647
24 1 0.749986 0.500372 0.684743 0 0.00100648 0.000124454
25 1 0.999986 0.00037156 0.684741 0 0.00101483 0.00018239
26 1 0.249986 0.166272 0.809741 0 -0.000993133 0.000172615
27 1 0.749986 0.166272 0.809741 0 -0.000993133 0.000172615
28 1 0.499986 0.000371559 0.684741 0 0.00101483 0.00018239
29 1 0.249986 0.500377 0.934747 0 0.00099802 5.04255e-05
30 1 0.749986 0.500377 0.934747 0 0.00099802 5.04255e-05
31 1 0.999986 0.000375559 0.934746 0 0.00101054 0.000111222
32 1 0.499986 0.000375559 0.934746 0 0.00101054 0.000111222
ITEM: TIMESTEP
13
ITEM: NUMBER OF ATOMS
32
ITEM: BOX BOUNDS xy xz yz pp pp pp
-4.1579008102416992e-03 6.4009900689125061e+00 0.0000000000000000e+00
-3.5883784294128418e-03 5.5240195393562317e+00 0.0000000000000000e+00
-1.3471722602844238e-02 2.0738858163356781e+01 0.0000000000000000e+00
ITEM: ATOMS id type xs ys zs fx fy fz
1 1 0.999986 0.666284 0.0597554 0 -0.000997901 -0.00011301
2 1 0.499986 0.666284 0.0597554 0 -0.000997901 -0.000112891
3 1 0.249986 0.166284 0.0597529 0 -0.000996828 -2.18153e-05
4 1 0.749986 0.166284 0.0597529 0 -0.000996828 -2.18153e-05
5 1 0.999986 0.666297 0.309761 0 -0.00101781 -0.000198364
6 1 0.249986 0.500391 0.18476 0 0.000995398 -0.000182033
7 1 0.749986 0.500391 0.18476 0 0.000995398 -0.000182152
8 1 0.499986 0.666297 0.309761 0 -0.00101781 -0.000198364
9 1 0.999986 0.000391061 0.184759 -1.19209e-07 0.000991344 -0.000126958
10 1 0.249986 0.166295 0.309759 0 -0.00100207 -0.000124931
11 1 0.499986 0.000391061 0.184759 1.19209e-07 0.000991344 -0.000126958
12 1 0.749986 0.166295 0.309759 0 -0.00100207 -0.000124931
13 1 0.999986 0.666278 0.559747 0 -0.000968695 6.97374e-05
14 1 0.499986 0.666278 0.559747 0 -0.000968695 6.97374e-05
15 1 0.249986 0.16628 0.559747 0 -0.000992179 6.05583e-05
16 1 0.749986 0.16628 0.559747 0 -0.000992179 6.05583e-05