LAMMPS (4 May 2022)
## variable
variable        temp            equal 300
variable        eql_step        equal 500000
variable        rd_seed         equal 3

variable        temp_damp       equal 0.2 # tau_NVT = timestep * 100
variable        t_step          equal 0.002
variable        rlx_step        equal 20000

variable        thermo_freq     equal 100
variable        dump_freq       equal 100

## units
dimension       3
boundary        p p p
units           metal
atom_style      atomic
neighbor        1.0 bin
neigh_modify    every 10 delay 0 check no

## data.lmp, potential
read_data       data.lmp
Reading data file ...
  orthogonal box = (0 0 0) to (26.08221 26.08221 25.1988)
  1 by 1 by 1 MPI processor grid
  reading atoms ...
  900 atoms
  read_data CPU = 0.001 seconds
pair_style      mdpu model.pb
pair_coeff * *

## velocity, timestep
velocity        all create ${temp} ${rd_seed} loop geom
velocity        all create 300 ${rd_seed} loop geom
velocity        all create 300 3 loop geom
timestep        ${t_step}
timestep        0.002

## nvt-relax
fix             equil all nvt temp ${temp} ${temp} ${temp_damp}
fix             equil all nvt temp 300 ${temp} ${temp_damp}
fix             equil all nvt temp 300 300 ${temp_damp}
fix             equil all nvt temp 300 300 0.2
run             ${rlx_step}
run             20000
Generated 0 of 6 mixed pair_coeff terms from geometric mixing rule
Neighbor list info ...
  update every 10 steps, delay 0 steps, check no
  max neighbors/atom: 2000, page size: 100000
  master list distance cutoff = 8
  ghost atom cutoff = 8
  binsize = 4, bins = 7 7 7
  1 neighbor lists, perpetual/occasional/extra = 1 0 0
  (1) pair mdpu, perpetual
      attributes: full, newton on
      pair build: full/bin/atomonly
      stencil: full/bin/3d
      bin: standard
Per MPI rank memory allocation (min/avg/max) = 3.057 | 3.057 | 3.057 Mbytes
   Step          Temp          E_pair         E_mol          TotEng         Press     
         0   300            202.4658       0              237.32726      18562.085    
     20000   295.68536      227.93775      0              262.29783      18084.473    
Loop time of 13.4058 on 1 procs for 20000 steps with 900 atoms

Performance: 257.800 ns/day, 0.093 hours/ns, 1491.897 timesteps/s
58.0% CPU use with 1 MPI tasks x no OpenMP threads

MPI task timing breakdown:
Section |  min time  |  avg time  |  max time  |%varavg| %total
---------------------------------------------------------------
Pair    | 8.443      | 8.443      | 8.443      |   0.0 | 62.98
Neigh   | 4.6105     | 4.6105     | 4.6105     |   0.0 | 34.39
Comm    | 0.16484    | 0.16484    | 0.16484    |   0.0 |  1.23
Output  | 1.5981e-05 | 1.5981e-05 | 1.5981e-05 |   0.0 |  0.00
Modify  | 0.15512    | 0.15512    | 0.15512    |   0.0 |  1.16
Other   |            | 0.03225    |            |       |  0.24

Nlocal:            900 ave         900 max         900 min
Histogram: 1 0 0 0 0 0 0 0 0 0
Nghost:           2802 ave        2802 max        2802 min
Histogram: 1 0 0 0 0 0 0 0 0 0
Neighs:              0 ave           0 max           0 min
Histogram: 1 0 0 0 0 0 0 0 0 0
FullNghs:       101446 ave      101446 max      101446 min
Histogram: 1 0 0 0 0 0 0 0 0 0

Total # of neighbors = 101446
Ave neighs/atom = 112.71778
Neighbor list builds = 2000
Dangerous builds not checked
unfix           equil

## nvt-equal
reset_timestep  0
fix             equil all nvt temp ${temp} ${temp} ${temp_damp}
fix             equil all nvt temp 300 ${temp} ${temp_damp}
fix             equil all nvt temp 300 300 ${temp_damp}
fix             equil all nvt temp 300 300 0.2
fix             com all recenter INIT INIT INIT

## thermo_style
thermo_style    custom step time temp ke etotal press
thermo          ${thermo_freq}
thermo          100
thermo_modify   flush yes
dump            1 all custom ${dump_freq} dump.lammpstraj id type x y z
dump            1 all custom 100 dump.lammpstraj id type x y z
run             500000
Generated 0 of 6 mixed pair_coeff terms from geometric mixing rule
Per MPI rank memory allocation (min/avg/max) = 4.341 | 4.341 | 4.341 Mbytes
   Step          Time           Temp          KinEng         TotEng         Press     
         0   0              295.68536      34.360079      262.29783      18084.473    
       100   0.2            295.02009      34.282771      262.53679      17182.781    
       200   0.4            312.89085      36.359441      262.9761       17183.35     
       300   0.6            303.67772      35.28883       263.35742      17427.667    
       400   0.8            307.03062      35.678453      262.70984      17070.223    
       500   1              295.17457      34.300723      261.32064      18702.758    
       600   1.2            303.52133      35.270657      260.65103      16104.455    
       700   1.4            292.47772      33.987336      260.63813      18647.47     
       800   1.6            303.8345       35.307048      262.92128      15587.076    
       900   1.8            301.39415      35.023468      263.95822      17750.273    
      1000   2              304.90792      35.431785      262.90125      16933.93     
      1100   2.2            300.52843      34.922867      261.295        16111.35     
      1200   2.4            298.46382      34.682949      261.08159      16681.546    
      1300   2.6            301.56967      35.043864      261.51704      15581.447    
      1400   2.8            303.32106      35.247385      261.92025      17520.546    
      1500   3              302.66547      35.171202      262.55714      15726.274    
      1600   3.2            311.15417      36.15763       263.04833      17298.203    
      1700   3.4            308.5041       35.849679      263.47712      16366.003    
      1800   3.6            294.19317      34.186679      262.71306      17180.952    
      1900   3.8            301.46502      35.031704      261.46407      16774.566    
      2000   4              286.8901       33.338027      260.74995      18061.126    
      2100   4.2            298.87926      34.731226      261.77703      16102.253    
      2200   4.4            301.60847      35.048373      264.01365      17763.545    
      2300   4.6            307.65121      35.750569      264.0683       16742.33     
      2400   4.8            298.83271      34.725817      262.73047      16010.237    
      2500   5              298.27855      34.661421      261.96576      17631.762    
      2600   5.2            305.57241      35.509002      261.91151      16557.827    
      2700   5.4            292.54081      33.994667      261.90133      16047.298    
      2800   5.6            301.75085      35.064919      261.91414      17329.605    
      2900   5.8            295.73379      34.365707      262.32123      16241.76     
      3000   6              314.49673      36.546051      264.23803      16690.784    
      3100   6.2            307.8497       35.773635      264.70836      17262.401    
      3200   6.4            301.80974      35.071762      262.85122      16988.765    
      3300   6.6            303.21264      35.234785      261.30009      16739.821    
      3400   6.8            293.17703      34.068599      261.01829      17952.935    
      3500   7              289.68225      33.662488      261.84521      17045.925    
      3600   7.2            317.3998       36.883403      264.00157      18738.931    
      3700   7.4            315.47177      36.659356      265.40088      16577.767    
      3800   7.6            312.69484      36.336664      264.00398      17670.279    
      3900   7.8            312.64989      36.33144       262.99604      17020.657    
      4000   8              294.12177      34.178382      261.73525      16726.902    
      4100   8.2            298.72916      34.713783      260.65114      16285.903    
      4200   8.4            299.06204      34.752465      260.66531      17468.175    
      4300   8.6            300.37544      34.905089      262.3502       15789.848    
      4400   8.8            312.22379      36.281925      264.00723      17310.218    
      4500   9              308.46093      35.844663      263.6811       15370.665    
      4600   9.2            296.54081      34.459487      262.36528      15157.815    
      4700   9.4            303.57156      35.276493      262.08245      16619.12     
      4800   9.6            297.01702      34.514824      261.64858      14155.202    
      4900   9.8            291.48446      33.871914      261.83049      15414        
      5000   10             304.33467      35.365171      263.29427      17893.532    
      5100   10.2           318.17481      36.973463      264.45845      15928.776    
      5200   10.4           304.00345      35.326681      262.93598      15674.58     
      5300   10.6           301.69795      35.058771      261.02508      17127.384    
      5400   10.8           302.3673       35.136553      261.19772      15582.067    
      5500   11             299.24547      34.773781      262.39346      17437.58     
      5600   11.2           299.6278       34.81821       263.58071      17520.726    
      5700   11.4           306.30418      35.594037      264.78538      16110.402    
      5800   11.6           316.05552      36.727191      265.07156      16709.367    
      5900   11.8           307.8448       35.773065      262.80021      16116.472    
      6000   12             304.32138      35.363627      261.2084       16290.215    
      6100   12.2           294.5511       34.228272      261.07518      16242.615    
      6200   12.4           293.29715      34.082558      262.15362      16300.86     
      6300   12.6           307.30606      35.710461      264.11515      16006.446    
      6400   12.8           314.3487       36.52885       264.27709      17241.31     
      6500   13             295.73842      34.366244      262.2021       15313.107    
      6600   13.2           299.07397      34.753851      261.43744      17626.393    
      6700   13.4           290.24643      33.728048      261.40459      14778.339    
      6800   13.6           305.93867      35.551564      262.22848      16730.376    
      6900   13.8           298.25103      34.658222      263.061        17383.697    
      7000   14             306.78446      35.649848      262.93185      15614.673    
      7100   14.2           293.12244      34.062256      261.16945      17270.627    
      7200   14.4           308.18121      35.812158      260.14243      15984.499    
      7300   14.6           301.59697      35.047037      260.59774      16253.119    
      7400   14.8           312.11713      36.26953       263.26209      17116.886    
      7500   15             300.88075      34.963808      263.58772      17061.014    
      7600   15.2           313.12224      36.38633       262.91832      15096.215    
      7700   15.4           295.33292      34.319124      261.34393      18211.343    
      7800   15.6           293.02782      34.05126       260.30994      14762.065    
      7900   15.8           304.57795      35.393442      260.99741      15584.863    
      8000   16             309.37654      35.951061      264.15955      15977.334    
      8100   16.2           306.69167      35.639065      264.07111      17249.472    
      8200   16.4           298.04475      34.634251      262.21686      15140.377    
      8300   16.6           300.36873      34.90431       261.03731      17552.252    
      8400   16.8           296.60171      34.466563      260.91958      15528.973    
      8500   17             301.43915      35.028697      262.50194      15566.437    
      8600   17.2           323.05981      37.541123      264.92139      17744.265    
      8700   17.4           300.78688      34.9529        264.15802      15351.986    
      8800   17.6           299.97989      34.859124      262.66648      16561.662    
      8900   17.8           285.84926      33.217076      261.31226      16548.402    
      9000   18             300.9014       34.966209      260.88292      15543.804    
      9100   18.2           311.16826      36.159267      261.41577      17482.204    
      9200   18.4           288.88103      33.569383      263.8409       15792.001    
      9300   18.6           313.22524      36.398298      264.5961       16986.837    
      9400   18.8           305.85572      35.541924      262.88624      16600.531    
      9500   19             296.14444      34.413427      261.57965      15520.388    
      9600   19.2           295.32852      34.318612      261.30593      17217.573    
      9700   19.4           309.17659      35.927825      261.40847      15640.249    
      9800   19.6           289.20998      33.607608      262.77361      14802.413    
      9900   19.8           308.04348      35.796153      264.4155       17908.003    
     10000   20             298.95061      34.739517      263.27957      16136.242    
     10100   20.2           294.56638      34.230048      261.39327      17210.321    
     10200   20.4           297.66863      34.590544      261.29953      16689.827    
     10300   20.6           298.03127      34.632686      261.64785      17302.077    
     10400   20.8           303.6394       35.284377      262.20205      17253.216    
     10500   21             319.56557      37.135076      264.41439      17277.32     
     10600   21.2           310.43444      36.073994      264.42427      16536.65     
     10700   21.4           305.54699      35.506048      262.39349      16879.885    
     10800   21.6           296.4996       34.454698      261.6469       15314.568    
     10900   21.8           302.7594       35.182117      261.61891      16652.996    
     11000   22             311.46225      36.19343       261.87235      16427.983    
     11100   22.2           302.90491      35.199025      262.32488      15009.842    
     11200   22.4           301.71531      35.060788      262.97728      15507.748    
     11300   22.6           307.17161      35.694837      263.16112      16636.099    
     11400   22.8           299.7722       34.83499       261.62994      16581.959    
     11500   23             289.73761      33.668922      260.09576      16824.489    
     11600   23.2           291.95642      33.926758      260.35248      16201.709    
     11700   23.4           295.72594      34.364795      262.37605      15756.141    
     11800   23.6           305.30096      35.477458      263.22591      16355.291    
     11900   23.8           298.94047      34.738339      262.67504      15895.44     
     12000   24             299.07556      34.754036      261.31482      17049.85     
     12100   24.2           295.48135      34.336372      260.53122      15669.325    
     12200   24.4           294.47299      34.219196      261.10514      15871.565    
     12300   24.6           313.47609      36.427449      263.84856      16378.251    
     12400   24.8           294.42461      34.213574      263.69265      16513.749    
     12500   25             295.77426      34.37041       262.33775      15840.265    
     12600   25.2           302.66394      35.171023      261.24936      17373.834    
     12700   25.4           302.41153      35.141693      260.88099      15700.822    
     12800   25.6           299.44673      34.797168      261.25627      17057.983    
     12900   25.8           294.10216      34.176103      261.48201      16952.316    
     13000   26             307.49692      35.73264       261.65661      17403.789    
     13100   26.2           304.48974      35.383191      261.65363      17479.031    
     13200   26.4           300.83332      34.958297      261.85344      17343.634    
     13300   26.6           308.72701      35.875582      261.82112      16231.966    
     13400   26.8           305.50643      35.501336      261.69199      18121.705    
     13500   27             304.7868       35.417711      261.42009      16167.672    
     13600   27.2           305.85095      35.54137       261.41456      17390.849    
     13700   27.4           286.96939      33.347241      261.30492      16978.479    
     13800   27.6           295.61304      34.351675      261.86101      16080.738    
     13900   27.8           304.36164      35.368305      262.40733      17360.097    
     14000   28             304.37412      35.369756      262.39626      16895.18     
     14100   28.2           296.14089      34.413014      261.37994      17634.245    
     14200   28.4           284.10519      33.014407      259.97393      17820.108    
     14300   28.6           287.42167      33.399798      259.51568      17183.858    
     14400   28.8           296.11304      34.409777      261.81862      17189.321    
     14500   29             320.53387      37.247597      263.24443      16775.147    
     14600   29.2           303.23395      35.237262      262.84091      16599.449    
     14700   29.4           289.93073      33.691363      261.50752      17095.21     
     14800   29.6           290.73607      33.784947      259.878        15913.029    
     14900   29.8           297.22366      34.538836      259.68819      16575.823    
     15000   30             306.32613      35.596588      262.68316      17291.516    
     15100   30.2           303.8752       35.311778      263.58018      16427.878    
     15200   30.4           309.83905      36.004807      262.12764      18369.564    
     15300   30.6           301.0716       34.985987      260.74384      14776.641    
     15400   30.8           295.16448      34.29955       260.52919      17485.123    
     15500   31             300.02482      34.864345      261.75627      16558.358    
     15600   31.2           315.79792      36.697257      264.20921      16169.239    
     15700   31.4           308.85069      35.889955      263.88669      16706.925    
     15800   31.6           311.70006      36.221065      262.42429      16556.394    
     15900   31.8           306.02435      35.56152       261.4414       14245.244    
     16000   32             301.53695      35.040062      261.10891      16888.17     
     16100   32.2           300.58073      34.928944      261.6807       15810.856    
     16200   32.4           305.21311      35.46725       263.18954      16336.202    
     16300   32.6           315.02025      36.606887      265.05559      16899.515    
     16400   32.8           289.70425      33.665044      263.46139      15351.755    
     16500   33             304.1295       35.341329      261.86809      17229.381    
     16600   33.2           290.41906      33.748109      261.26752      15872.343    
     16700   33.4           294.08572      34.174193      260.87499      16934.292    
     16800   33.6           299.74455      34.831776      261.32982      16526.966    
     16900   33.8           307.83438      35.771855      263.20104      16864.984    
     17000   34             307.64534      35.749887      263.62848      17188.974    
     17100   34.2           298.17253      34.6491        261.588        15687.122    
     17200   34.4           296.38374      34.441234      260.39835      16971.798    
     17300   34.6           304.3987       35.372611      260.76837      15755.626    
     17400   34.8           301.07564      34.986456      261.58515      16727.571    
     17500   35             314.27299      36.520052      262.99795      17083.396    
     17600   35.2           317.78818      36.928534      265.07909      16507.274    
     17700   35.4           318.18376      36.974502      264.97825      19036.607    
     17800   35.6           297.39881      34.55919       261.77627      16286.584    
     17900   35.8           303.39767      35.256286      260.55572      18364.912    
     18000   36             288.93692      33.575877      260.07766      16717.445    
     18100   36.2           294.66107      34.241051      260.37832      16386.425    
     18200   36.4           301.71221      35.060428      261.85378      16863.657    
     18300   36.6           323.42329      37.583362      263.29256      17958.418    
     18400   36.8           306.25621      35.588463      262.45747      14964.919    
     18500   37             293.5766       34.115031      259.77404      17488.449    
     18600   37.2           292.15312      33.949616      259.82596      16122.039    
     18700   37.4           302.94895      35.204144      260.91159      16160.03     
     18800   37.6           312.72492      36.340159      262.42466      18349.365    
     18900   37.8           301.39014      35.023002      262.69971      15139.47     
     19000   38             294.02156      34.166737      261.14382      16766.747    
     19100   38.2           294.73971      34.250189      259.03309      16622.488    
     19200   38.4           291.96201      33.927408      259.61341      16542.941    
     19300   38.6           303.77344      35.299953      261.29331      16395.101    
     19400   38.8           308.18262      35.812321      262.38833      18114.604    
     19500   39             308.87051      35.892257      262.24016      15940.309    
     19600   39.2           302.09799      35.105258      261.4075       18444.501    
     19700   39.4           296.70752      34.478859      261.00459      16948.119    
     19800   39.6           308.32014      35.828301      261.14066      16456.092    
     19900   39.8           291.89756      33.919918      260.93322      18075.722    
     20000   40             288.26035      33.497256      261.57723      16384.085    
     20100   40.2           313.49455      36.429594      263.6053       17818.954    
     20200   40.4           322.28609      37.451214      264.02432      17980.918    
     20300   40.6           304.42148      35.375258      261.85184      16100.304    
     20400   40.8           292.60072      34.001629      260.84512      16707.493    
     20500   41             300.15056      34.878957      260.81509      17670.764    
     20600   41.2           290.14069      33.715761      261.31429      15949.58     
     20700   41.4           300.35539      34.902759      262.59433      17959.292    
     20800   41.6           315.66635      36.681968      264.04584      17618.386    
     20900   41.8           310.59039      36.092116      262.75883      16420.19     
     21000   42             288.72801      33.5516        260.51757      18181.973    
     21100   42.2           295.43119      34.330543      260.19301      16527.189    
     21200   42.4           308.50465      35.849743      260.9108       16489.494    
     21300   42.6           315.88224      36.707054      262.63701      16923.591    
     21400   42.8           305.95945      35.553979      263.28806      15490.47     
     21500   43             303.3952       35.255999      261.0935       16116.5      
     21600   43.2           297.11549      34.526267      259.23966      16647.674    
     21700   43.4           302.42912      35.143737      259.81511      15411.956    
     21800   43.6           298.00032      34.629089      261.56182      15824.501    
     21900   43.8           313.51732      36.43224       262.37964      17904.473    
     22000   44             294.93575      34.27297       261.66005      15897.677    
     22100   44.2           294.71634      34.247474      259.49139      16627.255    
     22200   44.4           294.01542      34.166023      258.18076      16843.91     
     22300   44.6           288.4098       33.514624      258.96388      15291.46     
     22400   44.8           296.60039      34.46641       260.46898      17073.637    
     22500   45             303.5167       35.270119      261.82255      16503.147    
     22600   45.2           295.44029      34.3316        262.39798      17034.954    
     22700   45.4           302.50042      35.152022      261.7477       16965.098    
     22800   45.6           300.89767      34.965774      259.29499      17741.706    
     22900   45.8           293.77127      34.137652      259.17871      16001.741    
     23000   46             295.23039      34.307209      260.71524      17607.516    
     23100   46.2           306.17971      35.579573      261.6728       17204.351    
     23200   46.4           304.3483       35.366754      261.61877      15767.776    
     23300   46.6           298.45266      34.681652      261.23665      15607.6      
     23400   46.8           288.63569      33.540873      260.53447      15746.972    
     23500   47             297.78772      34.604384      259.17452      15069.777    
     23600   47.2           288.77679      33.557269      258.51555      17500.863    
     23700   47.4           305.42329      35.491674      260.35731      16485.393    
     23800   47.6           297.05434      34.519161      261.75093      16347.391    
     23900   47.8           297.8083       34.606775      262.13982      17397.34     
     24000   48             303.87968      35.312299      261.32383      17062.588    
     24100   48.2           299.29174      34.779158      259.22374      15098.095    
     24200   48.4           294.3786       34.208227      257.92056      17227.835    
     24300   48.6           290.36129      33.741396      259.01349      17294.145    
     24400   48.8           300.81592      34.956274      259.9893       16673.832    
     24500   49             288.45749      33.520166      261.21877      17854.923    
     24600   49.2           304.34636      35.366529      262.12434      16463.392    
     24700   49.4           308.91166      35.897039      262.25789      17366.908    
     24800   49.6           295.97852      34.394146      261.00497      16719.764    
     24900   49.8           296.99612      34.512395      259.27705      17129.412    
     25000   50             289.17797      33.603889      259.20219      16633.839    
     25100   50.2           310.41805      36.072089      261.12839      17049.662    
     25200   50.4           312.35952      36.297697      262.2816       15908.356    
     25300   50.6           301.40718      35.024982      262.06572      15706.209    
     25400   50.8           315.26314      36.635112      261.35288      15398.343    
     25500   51             295.88881      34.383721      260.33035      17435.338    
     25600   51.2           280.81618      32.632208      258.65039      14894.788    
     25700   51.4           291.89247      33.919326      257.46158      17405.509    
     25800   51.6           293.4959       34.105653      259.44808      16829.761    
     25900   51.8           293.85425      34.147295      261.00085      15652.829    
     26000   52             301.7431       35.064018      261.87099      18410.714    
     26100   52.2           319.60145      37.139245      262.27107      15462.597    
     26200   52.4           290.17685      33.719964      261.29493      18167.895    
     26300   52.6           302.17031      35.113662      259.6344       16461.478    
     26400   52.8           303.32216      35.247512      259.28314      16153.086    
     26500   53             301.00857      34.978662      261.64397      16457.302    
     26600   53.2           310.35501      36.064764      262.97848      17611.397    
     26700   53.4           308.94356      35.900746      262.05608      15691.292    
     26800   53.6           301.31582      35.014366      260.53168      17122.807    
     26900   53.8           292.08551      33.941759      260.09522      17043.285    
     27000   54             293.33638      34.087116      260.8917       16537.364    
     27100   54.2           317.68246      36.91625       263.87674      17334.053    
     27200   54.4           311.90714      36.245129      263.42742      17543.173    
     27300   54.6           300.85374      34.96067       261.61563      15634.606    
     27400   54.8           295.64421      34.355297      260.6588       17303.094    
     27500   55             301.60632      35.048124      260.8678       15033.274    
     27600   55.2           300.10896      34.874123      261.79408      15760.339    
     27700   55.4           317.04137      36.841751      264.49105      17277.387    
     27800   55.6           310.13063      36.038689      264.58047      15547.457    
     27900   55.8           299.09213      34.755963      262.54121      16276.891    
     28000   56             300.48851      34.918229      261.51513      16411.514    
     28100   56.2           308.23978      35.818964      260.70037      17678.518    
     28200   56.4           299.71782      34.82867       260.30198      14853.549    
     28300   56.6           295.76401      34.369219      260.43462      18256.946    
     28400   56.8           298.53538      34.691265      261.63428      16355.864    
     28500   57             318.00178      36.953356      262.99165      16775.696    
     28600   57.2           301.49202      35.034841      262.13098      17132.722    
     28700   57.4           295.74229      34.366694      260.0328       17598.996    
     28800   57.6           292.18882      33.953764      259.53397      16650.832    
     28900   57.8           290.30017      33.734293      260.19028      17210.353    
     29000   58             313.36691      36.414761      261.02408      17133.118    
     29100   58.2           298.12709      34.64382       261.71953      15810.705    
     29200   58.4           308.51418      35.85085       263.12574      17453.515    
     29300   58.6           322.77014      37.507462      264.81264      15928.407    
     29400   58.8           307.13421      35.690491      263.35268      16865.314    
     29500   59             297.78968      34.604611      261.30582      15748.385    
     29600   59.2           299.42241      34.794342      260.7244       15926.528    
     29700   59.4           300.96665      34.97379       260.47675      16981.414    
     29800   59.6           296.30211      34.431749      260.72219      15492.755    
     29900   59.8           300.02166      34.863978      262.08278      15711.456    
     30000   60             307.10281      35.686842      263.2209       16603.824    
     30100   60.2           299.47045      34.799925      262.43457      16098.589    
     30200   60.4           295.3932       34.326128      260.1325       15906.807    
     30300   60.6           288.44381      33.518575      259.95793      17759.598    
     30400   60.8           296.89878      34.501085      260.68423      16216.159    
     30500   61             308.72853      35.875759      261.92357      16600.588    
     30600   61.2           302.10275      35.105811      262.38658      17715.285    
     30700   61.4           296.24774      34.42543       261.01473      15908.274    
     30800   61.6           282.23358      32.796916      259.06854      16713.755    
     30900   61.8           286.69103      33.314894      259.3372       17206.248    
     31000   62             296.27053      34.428079      261.21428      16978.366    
     31100   62.2           307.4332       35.725235      262.6105       16503.913    
     31200   62.4           308.65031      35.86667       262.23901      17082.833    
     31300   62.6           300.7207       34.94521       261.03619      17198.714    
     31400   62.8           286.88869      33.337862      259.89712      17401.818    
     31500   63             282.6996       32.85107       257.92769      16560.869    
     31600   63.2           285.95062      33.228855      257.91373      17380.071    
     31700   63.4           296.4789       34.452292      260.33531      16527.507    
     31800   63.6           298.89819      34.733425      261.49321      16911.351    
     31900   63.8           309.69507      35.988075      261.89038      16587.239    
     32000   64             299.72456      34.829453      261.69004      17075.889    
     32100   64.2           299.82688      34.841343      260.35751      16974.802    
     32200   64.4           282.11432      32.783058      258.81574      16572.152    
     32300   64.6           290.33508      33.738351      259.39832      17758.97     
     32400   64.8           307.15559      35.692976      261.93088      15632.742    
     32500   65             304.96912      35.438898      262.26674      17421.605    
     32600   65.2           292.60395      34.002004      261.56904      17205.519    
     32700   65.4           300.65581      34.937669      260.42889      16138.849    
     32800   65.6           292.79965      34.024745      259.18543      16342.371    
     32900   65.8           301.07151      34.985976      259.0014       17330.919    
     33000   66             309.36693      35.949944      261.28331      15595.495    
     33100   66.2           309.23785      35.934945      262.37669      17239.074    
     33200   66.4           301.8204       35.073         261.95606      17492.511    
     33300   66.6           303.85212      35.309097      260.31163      16002.158    
     33400   66.8           293.98627      34.162636      258.72277      16341.985    
     33500   67             291.30657      33.851242      259.2206       17713.247    
     33600   67.2           315.21327      36.629317      262.32402      15196.91     
     33700   67.4           303.85159      35.309035      262.35799      17050.02     
     33800   67.6           302.0411       35.098647      261.45166      16639.415    
     33900   67.8           289.74171      33.669398      260.05588      15196.934    
     34000   68             286.06691      33.242368      259.31959      16706.052    
     34100   68.2           304.8818       35.42875       260.42595      15925.981    
     34200   68.4           304.7082       35.408577      262.76114      15107.769    
     34300   68.6           305.30597      35.478041      262.564        17237.623    
     34400   68.8           303.14242      35.226625      261.01105      16174.99     
     34500   69             311.67422      36.218062      259.96726      16511.813    
     34600   69.2           300.17443      34.88173       259.98321      16920.982    
     34700   69.4           308.15793      35.809453      260.50612      15710.29     
     34800   69.6           297.87552      34.614586      261.01054      16992.268    
     34900   69.8           303.788        35.301645      262.01133      17259.573    
     35000   70             315.21251      36.629229      264.20025      16430.037    
     35100   70.2           325.25116      37.795769      264.37365      17446.986    
     35200   70.4           299.56155      34.810511      261.87048      17445.301    
     35300   70.6           294.81955      34.259468      260.9899       16091.08     
     35400   70.8           297.45446      34.565656      260.47483      16270.565    
     35500   71             296.31531      34.433282      260.32091      17833.497    
     35600   71.2           303.09035      35.220575      261.18637      15014.895    
     35700   71.4           296.58283      34.464369      262.8038       17507.152    
     35800   71.6           320.18271      37.20679       263.33067      16441.528    
     35900   71.8           295.51518      34.340303      260.88209      16202.676    
     36000   72             303.45138      35.262529      259.96471      17850.79     
     36100   72.2           295.06144      34.287577      260.08115      16215.656    
     36200   72.4           305.95404      35.55335       261.16573      16607.079    
     36300   72.6           300.02677      34.864572      263.05808      18371.252    
     36400   72.8           300.53577      34.923721      262.89567      16292.922    
     36500   73             303.27426      35.241946      259.76195      15246.956    
     36600   73.2           300.46832      34.915882      259.29902      17693.569    
     36700   73.4           301.48178      35.033651      260.47267      17093.88     
     36800   73.6           297.58316      34.580612      261.92927      17869.471    
     36900   73.8           299.61001      34.816142      262.4563       18621.907    
     37000   74             311.53872      36.202317      261.63271      15691.467    
     37100   74.2           283.85236      32.985026      259.03111      17583.495    
     37200   74.4           295.04649      34.285839      259.11332      16788.57     
     37300   74.6           288.02073      33.469412      260.68161      16097.865    
     37400   74.8           304.57334      35.392905      261.72529      17137.932    
     37500   75             310.79822      36.116267      261.78631      15451.686    
     37600   75.2           303.08172      35.219572      261.39537      16034.764    
     37700   75.4           298.16192      34.647868      259.55781      18239.287    
     37800   75.6           285.40969      33.165996      257.73342      15294.569    
     37900   75.8           295.09795      34.291819      258.71855      16249.81     
     38000   76             290.92422      33.806811      260.03028      17255.16     
     38100   76.2           302.53841      35.156437      260.84461      15642.443    
     38200   76.4           297.76975      34.602295      261.84116      17343.155    
     38300   76.6           300.09486      34.872484      262.41575      18958.454    
     38400   76.8           308.10247      35.803008      263.66067      15261.333    
     38500   77             317.04217      36.841844      263.56438      18875.04     
     38600   77.2           301.59579      35.0469        261.08624      17079.01     
     38700   77.4           289.08771      33.5934        260.32017      14999.319    
     38800   77.6           300.06793      34.869355      260.67469      17426.099    
     38900   77.8           298.6227       34.701412      261.86985      15779.094    
     39000   78             310.18323      36.044802      263.7999       19036.233    
     39100   78.2           321.1531       37.319554      263.19122      16911.174    
     39200   78.4           298.79658      34.721617      260.57424      16130.55     
     39300   78.6           304.68941      35.406393      260.32055      17468.251    
     39400   78.8           308.16259      35.809994      260.68599      17193.915    
     39500   79             312.68264      36.335245      261.56137      14822.641    
     39600   79.2           315.62372      36.677014      263.03587      16892.799    
     39700   79.4           306.52139      35.619279      263.95593      16342.59     
     39800   79.6           310.41011      36.071166      262.99933      16162.451    
     39900   79.8           289.88077      33.685558      260.49984      17243.981    
     40000   80             283.20756      32.910098      260.01393      15605.611    
     40100   80.2           287.46968      33.405377      260.60756      17149.49     
     40200   80.4           306.61519      35.630178      262.50595      16124.904    
     40300   80.6           317.5045       36.895569      263.61428      16431.004    
     40400   80.8           305.07773      35.451518      262.57052      17776.506    
     40500   81             303.02862      35.213402      261.42747      16659.947    
     40600   81.2           305.95065      35.552956      261.24285      16747.875    
     40700   81.4           292.79586      34.024305      261.06151      15792.708    
     40800   81.6           293.60616      34.118466      260.88237      17423.149    
     40900   81.8           299.22583      34.771498      261.7338       16660.72     
     41000   82             305.39576      35.488475      263.18722      16341.95     
     41100   82.2           304.56328      35.391737      263.4042       17755.183    
     41200   82.4           304.44061      35.377481      261.06345      15447.691    
     41300   82.6           303.30739      35.245796      259.96698      16597.559    
     41400   82.8           289.25237      33.612534      260.30519      15538.504    
     41500   83             308.11781      35.80479       262.09209      16809.14     
     41600   83.2           296.35956      34.438425      262.54947      15764.72     
     41700   83.4           311.3806       36.183942      262.08069      18005.815    
     41800   83.6           300.19574      34.884207      261.36415      16018.564    
     41900   83.8           301.26429      35.008378      260.93253      16325.503    
     42000   84             292.53568      33.994071      259.64293      16932.7      
     42100   84.2           269.82113      31.354529      257.82351      15780.66     
     42200   84.4           293.65699      34.124372      258.89387      17108.254    
     42300   84.6           299.52656      34.806445      260.90294      16056.868    
     42400   84.8           303.6532       35.285981      261.76274      17282.516    
     42500   85             309.16416      35.926381      262.00096      15983.861    
     42600   85.2           296.42618      34.446166      260.95088      16544.423    
     42700   85.4           293.59481      34.117147      259.04606      16787.47     
     42800   85.6           283.68451      32.965522      258.52309      17026.42     
     42900   85.8           301.6011       35.047517      261.06164      15917.294    
     43000   86             300.82122      34.956891      262.01799      15837.186    
     43100   86.2           310.09377      36.034407      261.80904      17267.834    
     43200   86.4           294.24977      34.193256      260.674        16352.795    
     43300   86.6           292.59011      34.000396      259.48234      16982.303    
     43400   86.8           296.66136      34.473495      259.56754      15663.678    
     43500   87             296.63305      34.470205      262.17853      16976.206    
     43600   87.2           304.40621      35.373484      263.01579      17490.922    
     43700   87.4           296.2631       34.427215      261.79135      16978.209    
     43800   87.6           298.46456      34.683036      260.27927      16758.475    
     43900   87.8           295.66955      34.358242      259.99787      16121.765    
     44000   88             304.76288      35.414931      260.54375      16601.59     
     44100   88.2           305.45027      35.494809      261.60527      17575.286    
     44200   88.4           322.7249       37.502205      264.24829      16231.619    
     44300   88.6           329.84328      38.329395      265.41453      17263.783    
     44400   88.8           313.32565      36.409966      263.03615      15238.091    
     44500   89             299.46765      34.7996        261.43849      16377.436    
     44600   89.2           296.62056      34.468753      260.50074      16790.533    
     44700   89.4           300.34651      34.901727      260.00805      15668.215    
     44800   89.6           290.67609      33.777977      260.41865      17209.991    
     44900   89.8           303.54516      35.273426      262.17797      17808.785    
     45000   90             312.09538      36.267003      263.05144      15412.905    
     45100   90.2           297.32827      34.550993      261.68807      17309.689    
     45200   90.4           285.03147      33.122045      259.58889      15570.879    
     45300   90.6           302.29179      35.127779      259.69352      16815.336    
     45400   90.8           294.36931      34.207147      260.7801       16567.242    
     45500   91             300.77442      34.951452      261.96078      16402.186    
     45600   91.2           295.50052      34.338599      262.04325      16211.584    
     45700   91.4           316.83504      36.817774      261.71057      17402.743    
     45800   91.6           295.99209      34.395723      261.2628       15820.456    
     45900   91.8           293.97147      34.160916      260.87683      17549.511    
     46000   92             311.22771      36.166176      260.95089      16842.192    
     46100   92.2           298.23793      34.6567        260.82612      16475.576    
     46200   92.4           297.02928      34.516249      260.69562      16462.397    
     46300   92.6           308.40164      35.837773      261.57754      17664.653    
     46400   92.8           309.01266      35.908776      262.70947      16537.044    
     46500   93             308.43839      35.842044      262.74207      16079.849    
     46600   93.2           299.60597      34.815672      260.60416      17758.609    
     46700   93.4           287.86352      33.451143      259.27543      16185.699    
     46800   93.6           298.98017      34.742952      260.13396      16248.981    
     46900   93.8           299.94006      34.854496      261.79838      16137.487    
     47000   94             303.29215      35.244025      262.08754      16014.086    
     47100   94.2           297.09849      34.524292      261.64394      17575.086    
     47200   94.4           304.52174      35.38691       260.92621      16634.186    
     47300   94.6           288.44326      33.518512      259.68108      16932.304    
     47400   94.8           284.60223      33.072165      257.49843      16163.028    
     47500   95             287.46696      33.40506       258.24259      16652.982    
     47600   95.2           283.94498      32.99579       260.29435      16515.486    
     47700   95.4           292.47782      33.987348      261.33887      17187.51     
     47800   95.6           306.06724      35.566504      262.34153      15969.906    
     47900   95.8           306.9491       35.66898       262.45281      16704.026    
     48000   96             303.43589      35.260728      260.83273      15906.114    
     48100   96.2           287.91884      33.457571      259.11686      15232.107    
     48200   96.4           293.52111      34.108582      259.49307      15462.406    
     48300   96.6           293.63488      34.121804      261.25436      15971.889    
     48400   96.8           297.1441       34.529591      261.91382      15178.422    
     48500   97             300.03228      34.865212      261.7272       16396.108    
     48600   97.2           299.16206      34.764088      260.74581      15077.982    
     48700   97.4           294.98121      34.278253      259.41057      15853.236    
     48800   97.6           292.53046      33.993464      258.90267      15541.937    
     48900   97.8           297.61253      34.584026      260.38442      14083.673    
     49000   98             310.16837      36.043075      262.30492      16144.852    
     49100   98.2           298.80013      34.722031      262.71327      15043.616    
     49200   98.4           295.66344      34.357532      261.51284      15368.435    
     49300   98.6           293.1954       34.070734      259.45099      16845.066    
     49400   98.8           294.63468      34.237985      259.17292      14538.637    
     49500   99             312.49029      36.312894      260.0596       16399.83     
     49600   99.2           296.53535      34.458852      260.83178      16362.332    
     49700   99.4           300.34771      34.901867      261.76316      15806.701    
     49800   99.6           303.84209      35.307931      261.96421      15768.406    
     49900   99.8           297.47774      34.568362      260.22695      16311.53     
     50000   100            294.34304      34.204094      258.58342      15511.124    
     50100   100.2          301.78286      35.068639      259.71999      17672.478    
     50200   100.4          299.1538       34.763129      261.3315       14783.526    
     50300   100.6          300.49719      34.919237      262.03252      16015.047    
     50400   100.8          291.30936      33.851566      261.56633      16889.175    
     50500   101            297.96123      34.624546      260.45035      15474.925    
     50600   101.2          305.98946      35.557466      257.86152      16372.815    
     50700   101.4          290.74198      33.785634      257.14156      15588.575    
     50800   101.6          287.65203      33.426566      259.10886      15004.041    
     50900   101.8          302.32553      35.131699      260.6384       18127.554    
     51000   102            308.22185      35.81688       261.63606      16115.625    
     51100   102.2          297.95106      34.623364      262.14268      15392.955    
     51200   102.4          303.51235      35.269614      261.99273      17760.487    
     51300   102.6          290.99295      33.814798      259.83152      16344.686    
     51400   102.8          282.16781      32.789274      259.15427      16013.949    
     51500   103            301.21704      35.002887      260.54004      16630.037    
     51600   103.2          293.1727       34.068095      261.88388      16153.251    
     51700   103.4          296.57966      34.464001      261.97523      16893.144    
     51800   103.6          299.76355      34.833984      261.50695      16953.354    
     51900   103.8          300.24086      34.88945       260.30861      15321.877    
     52000   104            298.57749      34.696158      258.6506       16735.481    
     52100   104.2          290.15432      33.717345      258.31727      17732.81     
     52200   104.4          287.65977      33.427466      260.98955      15480.772    
     52300   104.6          308.28777      35.82454       262.41506      18326.02     
     52400   104.8          302.30578      35.129404      262.24525      16898.38     
     52500   105            289.61916      33.655156      260.65034      16548.947    
     52600   105.2          290.50832      33.758482      259.54023      16759.12     
     52700   105.4          289.29344      33.617306      260.20433      16917.347    
     52800   105.6          294.57503      34.231053      263.18569      17536.287    
     52900   105.8          310.34685      36.063816      263.31023      16027.319    
     53000   106            300.15714      34.879721      261.92825      17219.126    
     53100   106.2          296.90364      34.501649      260.46401      15519.338    
     53200   106.4          291.26532      33.846448      260.32926      16653.191    
     53300   106.6          297.6535       34.588786      261.41999      16518.103    
     53400   106.8          308.22098      35.816779      262.73685      17348.106    
     53500   107            315.9716       36.717439      266.00533      15313.992    
     53600   107.2          313.17475      36.392431      264.62921      17280.696    
     53700   107.4          309.74791      35.994215      262.30512      16775.553    
     53800   107.6          292.24197      33.95994       260.96212      16022.586    
     53900   107.8          303.31279      35.246423      260.39599      17836.155    
     54000   108            301.36896      35.020541      260.38212      15672.133    
     54100   108.2          302.86651      35.194563      261.75697      16551.092    
     54200   108.4          308.92875      35.899025      263.52611      17931.878    
     54300   108.6          307.32369      35.71251       263.05452      16142.465    
     54400   108.8          301.98616      35.092262      260.60888      16783.27     
     54500   109            294.60622      34.234677      260.18103      17257.379    
     54600   109.2          293.51585      34.107972      261.0033       16228.208    
     54700   109.4          294.03085      34.167816      262.33976      18113.378    
     54800   109.6          309.3491       35.947873      262.70797      17674.119    
     54900   109.8          303.79568      35.302538      261.78936      16895.308    
     55000   110            295.0685       34.288397      259.51107      18716.533    
     55100   110.2          278.69929      32.386214      259.55686      17029.533    
     55200   110.4          297.80401      34.606277      261.58415      17339.088    
     55300   110.6          305.07897      35.451662      262.12806      17303.432    
     55400   110.8          309.786        35.998642      261.94607      17254.822    
     55500   111            296.46299      34.450444      260.44216      16327.284    
     55600   111.2          285.48767      33.175057      258.3235       17881.425    
     55700   111.4          299.36856      34.788084      259.15724      16361.379    
     55800   111.6          291.4736       33.870652      260.6443       16636.659    
     55900   111.8          299.19705      34.768154      261.30665      18114.508    
     56000   112            297.6811       34.591993      261.29642      16919.639    
     56100   112.2          297.47203      34.567699      260.44303      15073.299    
     56200   112.4          290.16441      33.718518      258.73743      17064.471    
     56300   112.6          281.13469      32.669221      258.54628      15052.672    
     56400   112.8          298.819        34.724223      260.87205      15502.391    
     56500   113            292.41705      33.980285      261.72374      17758.024    
     56600   113.2          296.57952      34.463985      261.68671      15733.308    
     56700   113.4          304.75061      35.413505      260.6529       15987.529    
     56800   113.6          294.98625      34.278839      258.9191       16634.058    
     56900   113.8          290.95383      33.810253      257.87279      16912.325    
     57000   114            295.31976      34.317594      259.64074      15995.085    
     57100   114.2          306.85094      35.657574      261.70724      15601.308    
     57200   114.4          308.65061      35.866704      262.27678      16238.329    
     57300   114.6          298.48763      34.685716      261.58014      16338.095    
     57400   114.8          291.89042      33.919088      260.32743      16336.28     
     57500   115            295.25441      34.31          259.41086      14824.416    
     57600   115.2          297.50456      34.571478      260.10369      17674.837    
     57700   115.4          309.35443      35.948491      262.52539      15869.871    
     57800   115.6          315.15011      36.621978      262.79034      17534.282    
     57900   115.8          304.33115      35.364761      261.40635      16705.522    
     58000   116            300.74668      34.948229      259.86265      16468.611    
     58100   116.2          291.34972      33.856257      259.90244      17822.13     
     58200   116.4          300.84966      34.960196      260.62937      16602.318    
     58300   116.6          298.899        34.73352       261.17925      16143.491    
     58400   116.8          295.30009      34.315309      261.30255      17700.059    
     58500   117            299.87626      34.847082      261.86269      17249.5      
     58600   117.2          314.42592      36.537823      263.72487      16171.54     
     58700   117.4          314.33638      36.527418      263.72328      16771.471    
     58800   117.6          305.10447      35.454626      261.56216      17463.635    
     58900   117.8          304.35065      35.367028      260.60861      15751.229    
     59000   118            302.18793      35.115709      260.49596      17271.578    
     59100   118.2          295.07221      34.288828      260.97538      15294.418    
     59200   118.4          319.60274      37.139396      263.21072      16397.723    
     59300   118.6          298.49521      34.686597      263.8505       16339.347    
     59400   118.8          303.12618      35.224739      262.27333      16425.26     
     59500   119            311.92605      36.247327      261.2939       17055.222    
     59600   119.2          293.79801      34.14076       260.97047      16613.369    
     59700   119.4          301.36033      35.019538      261.33716      16792.286    
     59800   119.6          300.52311      34.922249      262.75586      16496.053    
     59900   119.8          310.93262      36.131884      264.59977      16735.279    
     60000   120            305.56521      35.508166      263.37242      18025.411    
     60100   120.2          300.0905       34.871978      261.68299      17008.058    
     60200   120.4          297.61842      34.58471       261.31983      16799.899    
     60300   120.6          290.16857      33.719         260.81681      16631.174    
     60400   120.8          306.46449      35.612667      261.31268      16465.013    
     60500   121            300.96829      34.973982      263.00582      16810.45     
     60600   121.2          311.69306      36.220252      263.95249      16348.922    
     60700   121.4          289.69738      33.664246      261.96585      16572.083    
     60800   121.6          299.19114      34.767468      260.36377      15965.774    
     60900   121.8          286.73545      33.320056      260.47771      17536.395    
     61000   122            302.7938       35.186114      261.68317      15890.952    
     61100   122.2          309.87371      36.008834      262.96755      17620.225    
     61200   122.4          298.90273      34.733953      263.66669      15846.185    
     61300   122.6          316.22964      36.747424      263.36796      16634.433    
     61400   122.8          302.87864      35.195974      261.25127      17416.703    
     61500   123            299.75943      34.833505      260.04867      15555.875    
     61600   123.2          289.90508      33.688383      260.35691      17299.739    
     61700   123.4          307.20123      35.698279      262.1406       17674.362    
     61800   123.6          302.85634      35.193382      263.47402      16184.383    
     61900   123.8          309.40063      35.95386       262.83904      16485.532    
     62000   124            299.76301      34.833922      262.14893      16558.123    
     62100   124.2          311.25425      36.169259      261.91092      15894.559    
     62200   124.4          306.80217      35.651906      261.19043      15874.264    
     62300   124.6          307.1551       35.692919      260.5208       16346.622    
     62400   124.8          297.12519      34.527394      259.6622       15566.809    
     62500   125            289.67837      33.662038      259.4985       17013.319    
     62600   125.2          292.78573      34.023128      261.62926      15476.825    
     62700   125.4          309.52923      35.968804      262.69159      16867.05     
     62800   125.6          304.17508      35.346625      262.30797      16356.478    
     62900   125.8          295.342        34.320178      260.62795      16080.287    
     63000   126            288.96363      33.578981      258.5622       16234.597    
     63100   126.2          286.50927      33.293773      258.72332      15759.829    
     63200   126.4          281.82047      32.748911      259.59924      16442.213    
     63300   126.6          299.50963      34.804478      261.17715      17601.443    
     63400   126.8          304.45551      35.379213      262.33291      16397.422    
     63500   127            306.77181      35.648379      262.93305      16676.318    
     63600   127.2          299.95004      34.855656      261.87555      17217.019    
     63700   127.4          290.67         33.777269      259.41321      15737.327    
     63800   127.6          290.51325      33.759054      259.48181      17219.291    
     63900   127.8          286.78371      33.325663      261.22693      17903.061    
     64000   128            306.00047      35.558745      262.10934      16405.026    
     64100   128.2          298.01263      34.63052       262.03681      17041.004    
     64200   128.4          306.82615      35.654693      261.56544      17733.071    
     64300   128.6          298.7191       34.712614      260.15901      15920.204    
     64400   128.8          292.49869      33.989772      258.35129      17782.046    
     64500   129            284.05167      33.008187      259.15278      17232.681    
     64600   129.2          294.77075      34.253796      261.14015      16186.686    
     64700   129.4          296.81956      34.491879      261.70046      16507.241    
     64800   129.6          310.91529      36.129871      261.64318      15657.591    
     64900   129.8          299.249        34.774191      261.63997      15200.806    
     65000   130            287.80417      33.444247      261.23915      15617.682    
     65100   130.2          294.02625      34.167282      260.40943      16443.743    
     65200   130.4          289.79259      33.675311      259.90178      15633.802    
     65300   130.6          299.05352      34.751476      260.5471       17572.279    
     65400   130.8          309.10618      35.919644      262.64324      16376.656    
     65500   131            316.0381       36.725166      262.78697      15894.874    
     65600   131.2          308.49725      35.848883      261.6889       16867.897    
     65700   131.4          298.59857      34.698608      259.06609      16917.479    
     65800   131.6          292.95071      34.042299      258.90119      16434.593    
     65900   131.8          301.062        34.984871      260.50141      16024.102    
     66000   132            301.34585      35.017855      261.80877      17599.921    
     66100   132.2          300.81577      34.956258      262.34534      17082.739    
     66200   132.4          300.74472      34.948001      261.60668      16018.894    
     66300   132.6          290.13005      33.714524      259.09734      15919.152    
     66400   132.8          303.16423      35.22916       259.10477      16449.183    
     66500   133            293.15799      34.066386      260.59179      16463.847    
     66600   133.2          307.94939      35.785219      261.52493      16543.232    
     66700   133.4          296.64672      34.471794      261.73456      16612.839    
     66800   133.6          295.08118      34.28987       261.42815      16730.371    
     66900   133.8          305.18309      35.463761      260.6692       16268.228    
     67000   134            302.91832      35.200584      259.06315      15955.282    
     67100   134.2          299.81358      34.839799      259.24704      16897.593    
     67200   134.4          308.45858      35.844389      261.45597      16614.077    
     67300   134.6          299.74799      34.832176      262.32066      16034.557    
     67400   134.8          309.70854      35.989641      262.23192      16668.564    
     67500   135            297.57216      34.579334      261.12404      16926.49     
     67600   135.2          286.999        33.350682      259.0473       15910.168    
     67700   135.4          275.13497      31.972023      257.93019      17221.165    
     67800   135.6          292.15365      33.949677      260.68309      17136.719    
     67900   135.8          301.48304      35.033797      261.79647      17112.104    
     68000   136            304.82282      35.421897      261.78122      16636.238    
     68100   136.2          295.60978      34.351296      260.92676      16878.915    
     68200   136.4          288.11056      33.47985       260.00964      17251.769    
     68300   136.6          292.65897      34.008397      260.27819      16169.703    
     68400   136.8          307.47757      35.730391      262.13168      17873.241    
     68500   137            317.2256       36.86316       263.33312      15697.043    
     68600   137.2          305.00714      35.443315      262.53591      17242.412    
     68700   137.4          295.75157      34.367773      260.10918      16757.038    
     68800   137.6          294.57044      34.23052       259.94508      16724.955    
     68900   137.8          290.14913      33.716742      260.71017      15640.263    
     69000   138            306.12354      35.573047      262.12161      16887.074    
     69100   138.2          305.39092      35.487912      262.8487       16394.696    
     69200   138.4          299.47444      34.800388      261.56061      15969.581    
     69300   138.6          289.68226      33.66249       259.30217      15811.481    
     69400   138.8          295.60904      34.35121       259.76987      15888.009    
     69500   139            300.83637      34.958651      261.52956      15786.947    
     69600   139.2          299.54742      34.808869      262.16498      18087.136    
     69700   139.4          297.65415      34.588862      261.7851       14605.667    
     69800   139.6          293.59985      34.117732      260.43917      17645.7      
     69900   139.8          285.96718      33.230779      258.07704      15651.058    
     70000   140            303.57665      35.277086      259.11596      16432.129    
     70100   140.2          308.02668      35.7942        260.77633      18062.84     
     70200   140.4          297.67179      34.590912      261.46209      17607.565    
     70300   140.6          302.81611      35.188707      261.60206      17182.64     
     70400   140.8          303.53605      35.272368      261.85253      17159.069    
     70500   141            304.79228      35.418347      262.36358      16890.647    
     70600   141.2          305.53388      35.504525      262.52216      16898.861    
     70700   141.4          294.39158      34.209735      261.20441      15888.452    
     70800   141.6          300.28289      34.894334      259.63493      15548.692    
     70900   141.8          288.67329      33.545242      259.60989      15984.124    
     71000   142            305.74134      35.528633      261.59501      16324.722    
     71100   142.2          294.6511       34.239893      262.59362      15948.386    
     71200   142.4          305.85631      35.541992      262.09674      17050.21     
     71300   142.6          292.85801      34.031527      260.87199      16370.655    
     71400   142.8          287.79144      33.442767      259.91615      16044.336    
     71500   143            293.49855      34.105961      260.1461       16492.784    
     71600   143.2          311.58144      36.207281      262.80866      16880.933    
     71700   143.4          305.74558      35.529125      263.20749      15261.324    
     71800   143.6          299.31045      34.781332      261.88719      16807.932    
     71900   143.8          293.8572       34.147638      260.66904      15479.224    
     72000   144            285.2658       33.149275      260.30777      16394.929    
     72100   144.2          291.99068      33.930739      260.71242      15507.867    
     72200   144.4          309.36659      35.949905      261.43844      16514.695    
     72300   144.6          310.54299      36.086608      262.18993      15097.779    
     72400   144.8          300.93251      34.969824      262.48733      17401.828    
     72500   145            293.32446      34.085731      262.29692      17568.318    
     72600   145.2          301.30679      35.013317      260.83778      15635.848    
     72700   145.4          285.01219      33.119804      259.66353      18322.377    
     72800   145.6          300.0236       34.864203      260.14196      16084.197    
     72900   145.8          313.48681      36.428694      262.61563      16944.683    
     73000   146            305.36088      35.484421      263.07854      16645.643    
     73100   146.2          298.34647      34.669313      262.17917      17492.106    
     73200   146.4          307.01324      35.676434      260.94232      17328.529    
     73300   146.6          304.42923      35.376159      260.57875      17269.354    
     73400   146.8          294.81851      34.259346      260.83101      15871.874    
     73500   147            295.42468      34.329787      261.09217      17107.593    
     73600   147.2          300.45284      34.914083      261.42838      16923.621    
     73700   147.4          305.11225      35.45553       261.87351      14188.567    
     73800   147.6          315.59563      36.67375       262.92335      17399.625    
     73900   147.8          310.5494       36.087352      263.70408      16618.433    
     74000   148            299.92075      34.852252      262.40732      15565.336    
     74100   148.2          297.17317      34.53297       260.59792      17477.657    
     74200   148.4          296.67894      34.475537      260.33671      15864.62     
     74300   148.6          285.79925      33.211264      261.0969       16319.699    
     74400   148.8          306.23257      35.585716      263.65571      16762.372    
     74500   149            310.46865      36.077969      263.90553      15688.325    
     74600   149.2          308.07616      35.79995       262.59208      16552.25     
     74700   149.4          302.20631      35.117845      261.31067      15646.853    
     74800   149.6          298.67586      34.70759       260.49019      17322.962    
     74900   149.8          294.36208      34.206307      260.21119      14216.323    
     75000   150            288.66497      33.544275      261.70051      17134.264    
     75100   150.2          310.99609      36.13926       263.45049      16904.787    
     75200   150.4          303.86914      35.311074      262.78727      15144.389    
     75300   150.6          307.3854       35.71968       261.08256      16902.088    
     75400   150.8          293.43514      34.098592      260.08939      15608.414    
     75500   151            301.63458      35.051407      260.46979      16603.848    
     75600   151.2          297.63798      34.586983      260.90442      15987.217    
     75700   151.4          293.26626      34.078968      261.15689      16319.746    
     75800   151.6          300.45743      34.914617      261.57695      16485.252    
     75900   151.8          297.58291      34.580583      262.43134      17024.433    
     76000   152            320.36003      37.227396      264.0286       17211.725    
     76100   152.2          306.49157      35.615813      263.82246      16594.686    
     76200   152.4          311.65182      36.21546       261.63645      16993.458    
     76300   152.6          297.42075      34.56174       260.46023      16012.889    
     76400   152.8          296.13345      34.412149      260.61307      17700.713    
     76500   153            297.00132      34.513         261.7414       16289.154    
     76600   153.2          323.13687      37.550079      263.50207      16286.555    
     76700   153.4          304.80688      35.420044      265.28503      17365.035    
     76800   153.6          306.40464      35.605712      264.32863      15175.097    
     76900   153.8          307.7415       35.761061      261.5316       18231.404    
     77000   154            296.3997       34.443089      260.74764      16330.02     
     77100   154.2          296.22605      34.42291       260.89426      15338.707    
     77200   154.4          318.07366      36.961709      262.28443      16967.969    
     77300   154.6          311.75361      36.227287      263.35421      14890.677    
     77400   154.8          313.35612      36.413507      262.38708      16362.343    
     77500   155            299.70464      34.827139      259.92296      16768.039    
     77600   155.2          291.66099      33.892427      259.8967       14019.26     
     77700   155.4          297.91185      34.618808      261.38104      17996.666    
     77800   155.6          302.26314      35.124449      262.30964      14715.217    
     77900   155.8          308.48146      35.847048      262.39777      16422.144    
     78000   156            300.29935      34.896248      261.97886      16826.364    
     78100   156.2          304.36045      35.368167      261.76588      15401.163    
     78200   156.4          300.41454      34.909633      261.19306      16977.892    
     78300   156.6          298.85589      34.72851       260.63091      16080.483    
     78400   156.8          296.04552      34.401932      260.50758      15515.801    
     78500   157            287.56212      33.416118      261.22453      16750.96     
     78600   157.2          309.22851      35.933859      262.76009      18157.722    
     78700   157.4          309.8699       36.008391      263.42358      15008.993    
     78800   157.6          301.80737      35.071486      262.21294      18536.782    
     78900   157.8          286.47274      33.289528      260.00718      15476.257    
     79000   158            295.63712      34.354473      260.01543      17572.811    
     79100   158.2          299.61024      34.816169      261.03255      16414.804    
     79200   158.4          300.58904      34.929911      261.99484      18350.761    
     79300   158.6          310.96099      36.135182      262.17729      14706.504    
     79400   158.8          311.2981       36.174356      261.84784      17722.027    
     79500   159            291.31442      33.852155      261.50848      15476.835    
     79600   159.2          294.35347      34.205307      261.4432       16518.542    
     79700   159.4          302.29113      35.127701      261.05767      16516.247    
     79800   159.6          288.62397      33.539511      260.51476      15197.33     
     79900   159.8          297.72106      34.596637      260.24754      16938.558    
     80000   160            297.45223      34.565398      261.11968      14433.326    
     80100   160.2          303.19753      35.23303       262.677        18019.611    
     80200   160.4          303.27067      35.241529      263.0406       15884.378    
     80300   160.6          298.18919      34.651036      261.21863      16651.48     
     80400   160.8          286.32549      33.272416      259.41059      16590.074    
     80500   161            292.6079       34.002463      260.0974       15796.755    
     80600   161.2          308.63206      35.864549      261.82043      16952.036    
     80700   161.4          313.28331      36.405046      262.32506      16571.451    
     80800   161.6          296.18831      34.418524      261.84298      16374.95     
     80900   161.8          301.56493      35.043313      261.51259      16697.62     
     81000   162            304.72291      35.410286      261.43178      16747.439    
     81100   162.2          298.40484      34.676096      261.39165      16267.02     
     81200   162.4          300.98047      34.975397      261.34509      16161.268    
     81300   162.6          287.26277      33.381333      261.58258      16464.147    
     81400   162.8          302.52452      35.154823      262.84806      15983.564    
     81500   163            314.99053      36.603433      264.7117       16561.484    
     81600   163.2          311.11447      36.153016      263.71909      16703.648    
     81700   163.4          296.89488      34.500631      261.51619      16890.915    
     81800   163.6          303.3655       35.252548      261.13137      16606.309    
     81900   163.8          299.21318      34.770029      261.25421      17707.772    
     82000   164            293.48916      34.10487       262.02759      16186.952    
     82100   164.2          318.53133      37.014892      263.60438      16513.724    
     82200   164.4          305.16395      35.461538      264.34961      18724.27     
     82300   164.6          297.06692      34.520623      262.15111      15925.609    
     82400   164.8          305.06053      35.449519      260.7007       17657.001    
     82500   165            299.9564       34.856394      260.874        16759.904    
     82600   165.2          307.49547      35.732471      261.8525       16305.604    
     82700   165.4          312.05727      36.262575      262.87458      18000.777    
     82800   165.6          312.80697      36.349694      264.21986      17843.128    
     82900   165.8          307.89973      35.779449      263.61081      17056.204    
     83000   166            301.65969      35.054325      261.08695      18251.139    
     83100   166.2          289.94179      33.692648      260.34869      16031.575    
     83200   166.4          294.70951      34.24668       261.04143      17941.076    
     83300   166.6          300.92662      34.969139      262.8328       17134.267    
     83400   166.8          309.58326      35.975082      263.83537      17054.896    
     83500   167            308.00316      35.791468      263.05151      15660.503    
     83600   167.2          301.46966      35.032243      262.38799      18195.545    
     83700   167.4          302.81635      35.188734      261.44881      15481.097    
     83800   167.6          293.22832      34.074559      260.79565      17151.312    
     83900   167.8          302.3057       35.129395      261.58981      18188.4      
     84000   168            307.2831       35.707793      263.72644      16351.062    
     84100   168.2          303.79092      35.301984      263.73287      17588.255    
     84200   168.4          296.74733      34.483485      261.87613      17032.493    
     84300   168.6          295.37389      34.323884      261.19083      16484.727    
     84400   168.8          302.51633      35.153871      261.29325      16904.748    
     84500   169            297.72197      34.596743      261.76753      16535.029    
     84600   169.2          310.50788      36.082528      262.84048      16958.849    
     84700   169.4          300.02492      34.864357      263.85588      19124.862    
     84800   169.6          295.83329      34.377269      262.87322      16685.123    
     84900   169.8          306.30546      35.594186      260.56446      16229.82     
     85000   170            306.6008       35.628506      260.12962      16843.921    
     85100   170.2          292.33475      33.970721      261.26314      17456.095    
     85200   170.4          315.68742      36.684416      262.80473      15800.311    
     85300   170.6          306.88833      35.661919      262.73226      18210.503    
     85400   170.8          304.01864      35.328447      262.19994      16659.698    
     85500   171            305.17043      35.46229       261.53193      16346.959    
     85600   171.2          296.07888      34.405808      260.50906      16620.896    
     85700   171.4          290.15294      33.717185      259.26217      16968.999    
     85800   171.6          281.8431       32.751541      258.19075      16619.404    
     85900   171.8          291.98152      33.929675      259.999        16860.866    
     86000   172            295.16127      34.299177      261.67253      16256.896    
     86100   172.2          298.19089      34.651234      262.20648      16188.553    
     86200   172.4          299.00369      34.745686      262.31737      17787.058    
     86300   172.6          296.9084       34.502202      260.84688      16183.537    
     86400   172.8          294.39656      34.210314      259.1173       17095.148    
     86500   173            298.14506      34.645908      259.54457      15799.419    
     86600   173.2          291.31443      33.852156      262.02653      16482.178    
     86700   173.4          300.41139      34.909266      262.56547      16261.051    
     86800   173.6          302.84169      35.191679      261.78397      16546.605    
     86900   173.8          297.73758      34.598556      260.4254       17984.773    
     87000   174            297.63059      34.586124      259.54232      15912.022    
[...]
    478600   957.2          286.1082       33.247166      259.99328      16455.521    
    478700   957.4          289.4454       33.634966      259.50492      17070.146    
    478800   957.6          310.63977      36.097855      261.3445       15633.693    
    478900   957.8          299.95606      34.856355      263.10967      16804.768    
    479000   958            290.9552       33.810412      262.56771      16471.296    
    479100   958.2          291.88705      33.918697      261.20771      14814.725    
    479200   958.4          293.38778      34.093089      260.30441      17528.463    
    479300   958.6          300.43135      34.911587      260.48933      15873.184    
    479400   958.8          295.06142      34.287574      262.94681      15698.01     
    479500   959            320.46107      37.239137      264.08877      18211.375    
    479600   959.2          297.44193      34.564201      262.22673      15476.244    
    479700   959.4          304.04914      35.331991      260.98198      18840.929    
    479800   959.6          298.19652      34.651888      260.25939      15964.036    
    479900   959.8          298.14246      34.645606      260.25417      16782.178    
    480000   960            297.73267      34.597987      262.47702      17171.542    
    480100   960.2          308.57173      35.857538      263.54624      16638.74     
    480200   960.4          302.06851      35.101832      262.10701      16764.471    
    480300   960.6          292.23389      33.959001      260.6028       16649.017    
    480400   960.8          292.24644      33.96046       260.40066      17149.681    
    480500   961            301.95455      35.088589      260.62507      16530.425    
    480600   961.2          294.69463      34.244951      261.35652      16875.686    
    480700   961.4          310.19979      36.046727      263.07862      17731.155    
    480800   961.6          305.15008      35.459926      263.71733      16133.509    
    480900   961.8          304.23972      35.354137      261.90488      17141.603    
    481000   962            290.85266      33.798495      260.02379      16139.832    
    481100   962.2          290.50683      33.758308      259.77492      15669.223    
    481200   962.4          314.54692      36.551885      260.72018      16038.664    
    481300   962.6          306.81066      35.652893      262.30526      16178.928    
    481400   962.8          297.67644      34.591453      262.71666      17676.328    
    481500   963            288.48667      33.523557      260.37888      15219.745    
    481600   963.2          291.84892      33.914266      259.22994      16801.942    
    481700   963.4          291.06431      33.82309       260.25826      16809.619    
    481800   963.6          297.08721      34.522981      261.60422      15317.758    
    481900   963.8          300.53243      34.923333      261.95024      18988.292    
    482000   964            303.61717      35.281794      260.64968      15263.598    
    482100   964.2          296.95792      34.507956      258.37081      15815.713    
    482200   964.4          292.05971      33.93876       259.00864      17300.812    
    482300   964.6          301.05337      34.983868      260.95877      15775.472    
    482400   964.8          303.35536      35.25137       261.72805      17214.057    
    482500   965            292.52378      33.992687      261.44391      17146.27     
    482600   965.2          308.74241      35.877372      260.11445      16110.263    
    482700   965.4          278.98941      32.419928      257.85611      16823.977    
    482800   965.6          298.94064      34.738358      258.62285      17662.489    
    482900   965.8          305.86468      35.542966      260.04534      17523.009    
    483000   966            303.39846      35.256379      261.02948      17077.113    
    483100   966.2          308.25312      35.820514      261.54991      17914.549    
    483200   966.4          297.33826      34.552154      261.06026      16235.96     
    483300   966.6          288.82943      33.563387      258.82181      17878.898    
    483400   966.8          284.95778      33.113482      258.09769      15519.28     
    483500   967            296.23325      34.423747      259.81305      15396.127    
    483600   967.2          301.0178       34.979735      260.97058      16376.888    
    483700   967.4          296.25098      34.425806      261.20997      16178.041    
    483800   967.6          298.69408      34.709707      260.91687      15676.731    
    483900   967.8          302.11788      35.107569      259.54982      17610.086    
    484000   968            277.10754      32.201246      257.99794      16868.324    
    484100   968.2          286.6464       33.309707      258.5863       15169.625    
    484200   968.4          295.58207      34.348076      261.37655      17229.909    
    484300   968.6          294.60424      34.234448      261.85897      16564.555    
    484400   968.8          317.50871      36.896058      261.13612      15477.913    
    484500   969            295.56673      34.346294      259.65196      16818.279    
    484600   969.2          292.69938      34.013094      259.37388      16184.77     
    484700   969.4          296.0559       34.403138      261.54967      16887.239    
    484800   969.6          312.92646      36.363579      263.04611      18145.291    
    484900   969.8          306.07149      35.566997      261.88154      16824.309    
    485000   970            300.20344      34.885102      260.36956      15933.929    
    485100   970.2          303.80791      35.303959      259.92761      17096.082    
    485200   970.4          303.51172      35.26954       260.29603      16145.874    
    485300   970.6          296.06781      34.404521      260.77864      16375.66     
    485400   970.8          300.50943      34.920659      262.64431      17698.393    
    485500   971            312.50245      36.314307      264.57497      17964.296    
    485600   971.2          299.85142      34.844196      262.93847      14203.674    
    485700   971.4          296.58372      34.464473      261.42028      17156.416    
    485800   971.6          310.56408      36.089059      260.7298       15772.84     
    485900   971.8          298.15875      34.647499      259.87654      15907.078    
    486000   972            289.76703      33.67234       259.96213      14589.325    
    486100   972.2          295.87898      34.382578      261.53292      17756.046    
    486200   972.4          306.62913      35.631798      262.84846      17864.877    
    486300   972.6          305.7439       35.52893       262.26157      16439.367    
    486400   972.8          307.00923      35.675967      259.92963      18274.451    
    486500   973            295.20626      34.304405      259.38605      16586.541    
    486600   973.2          293.55722      34.112779      260.24742      17253.457    
    486700   973.4          318.536        37.015435      261.39844      18278.398    
    486800   973.6          304.8385       35.423719      261.99365      16522.445    
    486900   973.8          299.97508      34.858565      260.95223      16257.905    
    487000   974            304.37294      35.369618      258.3278       16801.352    
    487100   974.2          291.57583      33.882532      258.72198      15361.565    
    487200   974.4          287.95299      33.46154       260.63242      16048.82     
    487300   974.6          301.40131      35.0243        261.5218       17205.368    
    487400   974.8          298.22368      34.655044      261.40179      17676.41     
    487500   975            293.33922      34.087446      260.17896      17065.343    
    487600   975.2          280.60006      32.607094      257.77124      16956.508    
    487700   975.4          289.29077      33.616997      258.04599      16185.759    
    487800   975.6          292.20666      33.955836      259.66946      16687.199    
    487900   975.8          301.18094      34.998693      260.53954      17215.529    
    488000   976            301.74294      35.063999      261.45864      16987.262    
    488100   976.2          309.53241      35.969173      262.22527      15369.101    
    488200   976.4          307.00896      35.675936      262.23348      17331.322    
    488300   976.6          301.8472       35.076114      260.09614      16234.83     
    488400   976.8          288.1347       33.482656      258.96854      16117.888    
    488500   977            297.36812      34.555624      259.59887      16175.612    
    488600   977.2          302.5909       35.162536      261.64749      15547.009    
    488700   977.4          306.08753      35.568862      262.07601      16874.152    
    488800   977.6          303.45803      35.263301      261.53776      14816.481    
    488900   977.8          295.06331      34.287794      260.69876      15902.274    
    489000   978            289.10848      33.595813      259.82896      14083.193    
    489100   978.2          285.44732      33.170368      258.54526      16940.988    
    489200   978.4          289.57223      33.649704      257.84102      17287.443    
    489300   978.6          292.59983      34.001525      259.8234       16013.068    
    489400   978.8          306.92103      35.665719      261.52798      16915.078    
    489500   979            304.15542      35.344341      261.89922      17023.834    
    489600   979.2          303.51707      35.270162      261.53765      16236.258    
    489700   979.4          294.46422      34.218177      259.40757      17357.654    
    489800   979.6          306.56265      35.624072      258.48644      16789.929    
    489900   979.8          292.6645       34.00904       259.59221      15167.719    
    490000   980            298.51004      34.68832       260.6364       17969.069    
    490100   980.2          298.12031      34.643032      261.15629      15924.727    
    490200   980.4          316.46133      36.774348      261.87413      16316.353    
    490300   980.6          319.782        37.160226      262.14846      17730.223    
    490400   980.8          298.0708       34.637279      261.64384      16754.243    
    490500   981            299.38507      34.790003      260.23863      16288.771    
    490600   981.2          294.44585      34.216042      259.45668      16423.93     
    490700   981.4          288.04245      33.471935      260.18381      17035.158    
    490800   981.6          297.77657      34.603088      262.70054      16290.344    
    490900   981.8          305.17929      35.46332       262.74165      16975.23     
    491000   982            300.52258      34.922188      261.37708      15878.122    
    491100   982.2          292.90586      34.037088      260.5423       17281.12     
    491200   982.4          287.7135       33.43371       260.49192      16374.476    
    491300   982.6          293.53364      34.110038      260.82904      16576.081    
    491400   982.8          302.06804      35.101777      261.14395      15280.38     
    491500   983            304.7056       35.408275      261.23292      17202.109    
    491600   983.2          298.53785      34.691553      261.31063      16129.967    
    491700   983.4          305.88835      35.545716      262.0234       16561.946    
    491800   983.6          308.14756      35.808247      262.82888      15464.25     
    491900   983.8          308.56242      35.856456      262.70118      18430.911    
    492000   984            298.17038      34.64885       260.48775      15345.788    
    492100   984.2          291.27961      33.848109      259.70628      16859.746    
    492200   984.4          290.41727      33.747901      260.1748       16199.702    
    492300   984.6          306.56617      35.624482      262.36058      18688.117    
    492400   984.8          308.26004      35.821318      263.35614      15841.907    
    492500   985            306.90629      35.664006      262.50127      19348.552    
    492600   985.2          302.22621      35.120157      261.34451      15365.039    
    492700   985.4          299.13902      34.761411      260.32293      17458.693    
    492800   985.6          297.67676      34.591489      260.11001      16674.128    
    492900   985.8          288.66602      33.544397      260.85233      15442.92     
    493000   986            307.02833      35.678188      262.52896      17214.082    
    493100   986.2          301.02704      34.980808      262.80886      18091.895    
    493200   986.4          299.35316      34.786295      261.11263      14877.001    
    493300   986.6          290.49897      33.757395      259.56196      18329.025    
    493400   986.8          303.09749      35.221405      259.77898      16696.513    
    493500   987            290.99613      33.815168      260.54136      15589.802    
    493600   987.2          298.89539      34.7331        262.25733      17733.701    
    493700   987.4          321.39562      37.347737      264.6342       16449.081    
    493800   987.6          318.32324      36.990711      264.92732      17571.885    
    493900   987.8          311.61974      36.211731      261.52895      16914.304    
    494000   988            296.085        34.406519      260.22008      16101.049    
    494100   988.2          293.13008      34.063142      259.60428      17056.86     
    494200   988.4          295.42874      34.330258      260.2294       16881.322    
    494300   988.6          303.00038      35.21012       262.0473       15958.318    
    494400   988.8          300.70339      34.943198      262.58804      16228.777    
    494500   989            306.23309      35.585776      261.49978      15926.521    
    494600   989.2          296.12903      34.411635      258.76139      15025.7      
    494700   989.4          300.16698      34.880865      259.29793      17028.104    
    494800   989.6          304.65797      35.40274       260.83342      15873.258    
    494900   989.8          304.75586      35.414116      261.77168      14708.046    
    495000   990            311.88192      36.242198      261.85933      16428.22     
    495100   990.2          296.51839      34.456882      259.60228      15440.221    
    495200   990.4          288.4737       33.522048      258.10776      15002.876    
    495300   990.6          287.2553       33.380465      259.29649      15870.744    
    495400   990.8          297.36954      34.555789      260.85866      16490.271    
    495500   991            304.20872      35.350535      261.61478      16065.413    
    495600   991.2          308.42647      35.840658      261.52636      18253.556    
    495700   991.4          293.06324      34.055376      260.49052      17027.193    
    495800   991.6          287.94189      33.46025       257.95859      15898.182    
    495900   991.8          303.49204      35.267253      258.36931      16866.918    
    496000   992            292.86372      34.03219       259.98961      15666.917    
    496100   992.2          306.58351      35.626497      260.86893      16672.394    
    496200   992.4          304.43623      35.376973      261.4662       17083.684    
    496300   992.6          299.33115      34.783738      261.68155      17496.982    
    496400   992.8          298.90746      34.734502      261.50651      16527.704    
    496500   993            313.23023      36.398879      260.69454      17124.112    
    496600   993.2          306.9093       35.664355      259.77244      16251.411    
    496700   993.4          290.52421      33.760328      259.35722      16366.688    
    496800   993.6          300.80266      34.954734      260.72887      17006.685    
    496900   993.8          291.4098       33.863238      262.54572      17074.93     
    497000   994            305.42319      35.491662      262.48881      17184.531    
    497100   994.2          304.91219      35.432281      260.90835      15458.955    
    497200   994.4          293.8076       34.141874      260.4062       17471.649    
    497300   994.6          294.41755      34.212753      260.73028      16029.111    
    497400   994.8          292.5298       33.993388      260.95903      15936.61     
    497500   995            301.48375      35.03388       261.19405      16416.336    
    497600   995.2          306.79057      35.650559      261.62377      15992.865    
    497700   995.4          304.00024      35.326308      261.75346      15725.52     
    497800   995.6          293.44342      34.099555      261.28369      16992.403    
    497900   995.8          285.94683      33.228414      260.14869      17311.577    
    498000   996            296.41269      34.444599      259.42629      15588.654    
    498100   996.2          306.98362      35.672992      259.24637      17516.563    
    498200   996.4          292.01497      33.933562      261.02836      17286.717    
    498300   996.6          305.83486      35.5395        262.48526      16457.362    
    498400   996.8          309.40988      35.954934      261.95763      17944.695    
    498500   997            295.22541      34.306631      260.16795      15686.47     
    498600   997.2          300.56818      34.927486      259.47479      17303.108    
    498700   997.4          295.3649       34.32284       259.91779      16732.97     
    498800   997.6          291.32601      33.853501      260.66361      16663.573    
    498900   997.8          301.29409      35.01184       261.7306       16334.956    
    499000   998            312.16912      36.275572      262.68613      16722.756    
    499100   998.2          311.64145      36.214254      262.9983       16521.988    
    499200   998.4          305.61505      35.513957      261.41319      17122.121    
    499300   998.6          305.36761      35.485204      259.70545      16541.72     
    499400   998.8          298.52386      34.689926      259.57674      15471.711    
    499500   999            301.40045      35.024201      261.05053      17976.426    
    499600   999.2          314.87063      36.589501      263.00163      17292.685    
    499700   999.4          306.73318      35.643889      262.52754      16590.653    
    499800   999.6          308.78839      35.882715      261.7737       17295.82     
    499900   999.8          284.7096       33.084642      260.84821      16996.271    
    500000   1000           294.36671      34.206845      260.19266      17234.871    
Loop time of 329.276 on 1 procs for 500000 steps with 900 atoms

Performance: 262.394 ns/day, 0.091 hours/ns, 1518.484 timesteps/s
55.6% CPU use with 1 MPI tasks x no OpenMP threads

MPI task timing breakdown:
Section |  min time  |  avg time  |  max time  |%varavg| %total
---------------------------------------------------------------
Pair    | 205.39     | 205.39     | 205.39     |   0.0 | 62.38
Neigh   | 111.71     | 111.71     | 111.71     |   0.0 | 33.93
Comm    | 3.8671     | 3.8671     | 3.8671     |   0.0 |  1.17
Output  | 2.2184     | 2.2184     | 2.2184     |   0.0 |  0.67
Modify  | 5.4033     | 5.4033     | 5.4033     |   0.0 |  1.64
Other   |            | 0.6902     |            |       |  0.21

Nlocal:            900 ave         900 max         900 min
Histogram: 1 0 0 0 0 0 0 0 0 0
Nghost:           2807 ave        2807 max        2807 min
Histogram: 1 0 0 0 0 0 0 0 0 0
Neighs:              0 ave           0 max           0 min
Histogram: 1 0 0 0 0 0 0 0 0 0
FullNghs:       101398 ave      101398 max      101398 min
Histogram: 1 0 0 0 0 0 0 0 0 0

Total # of neighbors = 101398
Ave neighs/atom = 112.66444
Neighbor list builds = 50000
Dangerous builds not checked

Total wall time: 0:05:49
