ITEM: TIMESTEP
0
ITEM: NUMBER OF ATOMS
32
ITEM: BOX BOUNDS xy xz yz pp pp pp
-4.7826766967773438e-03 6.3993316888809204e+00 0.0000000000000000e+00
-3.7661075592041016e-02 2.2120539069175720e+01 0.0000000000000000e+00
-1.1393904685974121e-02 5.1938598752021790e+00 0.0000000000000000e+00
ITEM: ATOMS id type xs ys zs fx fy fz
1 1 0.0192136 0.336542 0.593597 0 0.000894547 5.72205e-06
2 1 0.519214 0.336542 0.593597 0 0.000890732 5.72205e-06
3 1 0.269214 0.295033 0.0935973 0 -0.00082016 -5.72205e-06
4 1 0.769214 0.295033 0.0935973 0 -0.00082016 -1.90735e-06
5 1 0.269214 0.461543 0.593597 0 0.000997543 0
6 1 0.769214 0.461543 0.593597 0 0.00100136 5.72205e-06
7 1 0.0192136 0.420037 0.0935973 0 -0.000925064 -7.62939e-06
8 1 0.519214 0.420037 0.0935973 0 -0.000925064 -3.8147e-06
9 1 0.0192136 0.586543 0.593597 0 0.000865936 0
10 1 0.519214 0.586543 0.593597 0 0.000864029 0
11 1 0.269214 0.711539 0.593597 0 0.000909805 7.62939e-06
12 1 0.769214 0.711539 0.593597 0 0.000907898 3.8147e-06
13 1 0.0192136 0.670042 0.0935972 0 -0.00112724 -3.8147e-06
14 1 0.269214 0.545043 0.0935972 0 -0.00110245 0
15 1 0.769214 0.545043 0.0935972 0 -0.00109863 0
16 1 0.519214 0.670042 0.0935972 0 -0.00113106 -7.62939e-06
17 1 0.0192136 0.836533 0.593597 0 0.00109673 0
18 1 0.519214 0.836533 0.593597 0 0.00109673 0
19 1 0.269214 0.961533 0.593597 0 0.00109863 3.8147e-06
20 1 0.769214 0.961533 0.593597 0 0.00109673 1.90735e-06
21 1 0.269214 0.795035 0.0935971 0 -0.000852585 0
22 1 0.769214 0.795035 0.0935971 0 -0.000854492 0
23 1 0.0192136 0.920032 0.0935971 0 -0.000928879 -3.8147e-06
24 1 0.519214 0.920032 0.0935971 0 -0.000928879 -1.90735e-06
25 1 0.0192136 0.0865377 0.593597 0 0.000875473 0
26 1 0.519214 0.0865377 0.593597 0 0.000875473 0
27 1 0.269214 0.045031 0.093597 0 -0.000944138 0
28 1 0.769214 0.045031 0.093597 0 -0.000946045 0
29 1 0.269214 0.211541 0.593597 0 0.000846863 1.90735e-06
30 1 0.769214 0.211541 0.593597 0 0.000850677 0
31 1 0.0192136 0.170031 0.093597 0 -0.000879288 0
32 1 0.519214 0.170031 0.093597 0 -0.00088501 0
ITEM: TIMESTEP
1
ITEM: NUMBER OF ATOMS
32
ITEM: BOX BOUNDS xy xz yz pp pp pp
-4.7826766967773438e-03 6.3993316888809204e+00 0.0000000000000000e+00
-3.7661075592041016e-02 2.2120539069175720e+01 0.0000000000000000e+00
-1.1393904685974121e-02 5.1938598752021790e+00 0.0000000000000000e+00
ITEM: ATOMS id type xs ys zs fx fy fz
1 1 0.0192136 0.336578 0.593598 0 4.95911e-05 -1.71661e-05
2 1 0.519214 0.336578 0.593598 0 5.91278e-05 -1.33514e-05
3 1 0.269214 0.295 0.0935963 0 -0.000114441 1.52588e-05
4 1 0.769214 0.295 0.093597 0 -0.000123978 9.53674e-06
5 1 0.269214 0.461582 0.593597 0 -0.000240326 -5.72205e-06
6 1 0.769214 0.461583 0.593598 0 -0.000246048 -1.90735e-05
7 1 0.0192136 0.42 0.093596 0 -7.05719e-05 2.09808e-05
8 1 0.519214 0.42 0.0935966 0 -7.43866e-05 1.14441e-05
9 1 0.0192136 0.586578 0.593597 0 2.86102e-05 0
10 1 0.519214 0.586578 0.593597 0 2.09808e-05 0
11 1 0.269214 0.711575 0.593598 0 0.000114441 -2.28882e-05
12 1 0.769214 0.711575 0.593598 0 0.000120163 -1.14441e-05
13 1 0.0192136 0.669997 0.0935965 0 0.000110626 1.33514e-05
14 1 0.269214 0.544999 0.0935972 0 3.24249e-05 -1.90735e-06
15 1 0.769214 0.544999 0.0935972 0 3.05176e-05 1.90735e-06
16 1 0.519214 0.669997 0.0935959 0 0.000112534 1.71661e-05
17 1 0.0192136 0.836577 0.593597 0 -4.19617e-05 -1.90735e-06
18 1 0.519214 0.836577 0.593597 0 -4.3869e-05 0
19 1 0.269214 0.961576 0.593598 0 -9.72748e-05 -1.14441e-05
20 1 0.769214 0.961576 0.593597 0 -7.82013e-05 -3.8147e-06
21 1 0.269214 0.795 0.0935971 0 -0.000234604 5.72205e-06
22 1 0.769214 0.795 0.0935971 0 -0.000242233 -1.90735e-06
23 1 0.0192136 0.919995 0.0935964 0 0.000114441 1.14441e-05
24 1 0.519214 0.919995 0.0935968 0 0.000116348 3.8147e-06
25 1 0.0192136 0.0865727 0.593597 0 0.000152588 0
26 1 0.519214 0.0865727 0.593597 0 0.000143051 0
27 1 0.269214 0.0449933 0.093597 0 0.00012207 1.90735e-06
28 1 0.769214 0.0449932 0.093597 0 0.000123978 0
29 1 0.269214 0.211575 0.593597 0 9.53674e-05 -1.90735e-06
30 1 0.769214 0.211575 0.593597 0 7.62939e-05 0
31 1 0.0192136 0.169996 0.093597 0 -1.90735e-05 0
32 1 0.519214 0.169996 0.093597 0 3.8147e-06 0
ITEM: TIMESTEP
2
ITEM: NUMBER OF ATOMS
32
ITEM: BOX BOUNDS xy xz yz pp pp pp
-4.7826766967773438e-03 6.3993316888809204e+00 0.0000000000000000e+00
-3.7661075592041016e-02 2.2120539069175720e+01 0.0000000000000000e+00
-1.1393904685974121e-02 5.1938598752021790e+00 0.0000000000000000e+00
ITEM: ATOMS id type xs ys zs fx fy fz
1 1 0.0192136 0.336578 0.593598 0 4.95911e-05 -1.71661e-05
2 1 0.519214 0.336578 0.593598 0 5.91278e-05 -1.33514e-05
3 1 0.269214 0.295 0.0935963 0 -0.000114441 1.52588e-05
4 1 0.769214 0.295 0.093597 0 -0.000123978 9.53674e-06
5 1 0.269214 0.461582 0.593597 0 -0.000240326 -5.72205e-06
6 1 0.769214 0.461583 0.593598 0 -0.000246048 -1.90735e-05
7 1 0.0192136 0.42 0.093596 0 -7.05719e-05 2.09808e-05
8 1 0.519214 0.42 0.0935966 0 -7.43866e-05 1.14441e-05
9 1 0.0192136 0.586578 0.593597 0 2.86102e-05 0
10 1 0.519214 0.586578 0.593597 0 2.09808e-05 0
11 1 0.269214 0.711575 0.593598 0 0.000114441 -2.28882e-05
12 1 0.769214 0.711575 0.593598 0 0.000120163 -1.14441e-05
13 1 0.0192136 0.669997 0.0935965 0 0.000110626 1.33514e-05
14 1 0.269214 0.544999 0.0935972 0 3.24249e-05 -1.90735e-06
15 1 0.769214 0.544999 0.0935972 0 3.05176e-05 1.90735e-06
16 1 0.519214 0.669997 0.0935959 0 0.000112534 1.71661e-05
17 1 0.0192136 0.836577 0.593597 0 -4.19617e-05 -1.90735e-06
18 1 0.519214 0.836577 0.593597 0 -4.3869e-05 0
19 1 0.269214 0.961576 0.593598 0 -9.72748e-05 -1.14441e-05
20 1 0.769214 0.961576 0.593597 0 -7.82013e-05 -3.8147e-06
21 1 0.269214 0.795 0.0935971 0 -0.000234604 5.72205e-06
22 1 0.769214 0.795 0.0935971 0 -0.000242233 -1.90735e-06
23 1 0.0192136 0.919995 0.0935964 0 0.000114441 1.14441e-05
24 1 0.519214 0.919995 0.0935968 0 0.000116348 3.8147e-06
25 1 0.0192136 0.0865727 0.593597 0 0.000152588 0
26 1 0.519214 0.0865727 0.593597 0 0.000143051 0
27 1 0.269214 0.0449933 0.093597 0 0.00012207 1.90735e-06
28 1 0.769214 0.0449932 0.093597 0 0.000123978 0
29 1 0.269214 0.211575 0.593597 0 9.53674e-05 -1.90735e-06
30 1 0.769214 0.211575 0.593597 0 7.62939e-05 0
31 1 0.0192136 0.169996 0.093597 0 -1.90735e-05 0
32 1 0.519214 0.169996 0.093597 0 3.8147e-06 0
