ITEM: TIMESTEP
0
ITEM: NUMBER OF ATOMS
48
ITEM: BOX BOUNDS xy xz yz pp pp pp
-2.3742631077766418e+00 8.6067802309989929e+00 2.5094206929206848e+00
-9.4973444938659668e-03 9.3236122131347656e+00 -2.3622260093688965e+00
-2.8691649436950684e-02 1.9545819282531738e+01 7.1304261684417725e-02
ITEM: ATOMS id type xs ys zs fx fy fz
1 1 0.933981 0.16703 0.0320218 0 0 0.375067
2 1 0.478659 0.0738739 0.0528103 0 0 0.473017
3 1 0.277738 0.125314 0.657023 0 0 0.00060463
4 1 0.359762 0.948847 0.927808 0 0 -0.375065
5 1 0.0911302 0.157156 0.802805 0 0 0.00441742
6 1 0.815083 0.0420026 0.90702 0 0 -0.473017
7 1 0.546447 0.250315 0.78202 0 0 -0.00590706
8 1 0.74011 0.208712 0.407029 0 0 0.000606537
9 1 0.822425 0.0321465 0.677802 0 0 0.00157928
10 1 0.553632 0.240498 0.552801 0 0 -0.000598907
11 1 0.747296 0.198895 0.17781 0 0 0.00590324
12 1 0.471318 0.0837297 0.282028 0 0 -0.00158119
13 1 0.202613 0.292053 0.157025 0 0 -0.00441933
14 1 0.284799 0.115534 0.427803 0 0 -0.000427246
15 1 0.933981 0.500363 0.0320219 0 0 0.375055
16 1 0.478659 0.407207 0.0528103 0 0 0.473019
17 1 0.277738 0.458648 0.657023 0 0 0.000606537
18 1 0.359761 0.28218 0.927808 0 0 -0.375065
19 1 0.0911301 0.49049 0.802805 0 0 0.00441742
20 1 0.815083 0.375336 0.90702 0 0 -0.473007
21 1 0.546447 0.583648 0.78202 0 0 -0.00590515
22 1 0.00894444 0.333676 0.532027 0 0 0.000423431
23 1 0.740111 0.542046 0.407029 0 0 0.000600815
24 1 0.822425 0.36548 0.677802 0 0 0.00158501
25 1 0.553632 0.573831 0.552801 0 0 -0.000602722
26 1 0.0160045 0.323895 0.302807 0 0 -0.000600815
27 1 0.747296 0.532228 0.17781 0 0 0.00590706
28 1 0.471318 0.417063 0.282028 0 0 -0.00157547
29 1 0.202613 0.625387 0.157025 0 0 -0.00441933
30 1 0.284799 0.448867 0.427803 0 0 -0.000427246
31 1 0.933981 0.833696 0.0320219 0 0 0.375063
32 1 0.478659 0.740541 0.0528104 0 0 0.473017
33 1 0.277738 0.791981 0.657023 0 0 0.000602722
34 1 0.359761 0.615514 0.927808 0 0 -0.375067
35 1 0.0911302 0.823823 0.802805 0 0 0.00442314
36 1 0.815083 0.708669 0.90702 0 0 -0.473019
37 1 0.546447 0.916981 0.78202 0 0 -0.00590515
38 1 0.0089442 0.667009 0.532027 0 0 0.000421524
39 1 0.74011 0.875379 0.407029 0 0 0.000600815
40 1 0.822425 0.698813 0.677802 0 0 0.00157738
41 1 0.553632 0.907164 0.552801 0 0 -0.000597
42 1 0.0160044 0.657228 0.302807 0 0 -0.00060463
43 1 0.747296 0.865562 0.17781 0 0 0.00590706
44 1 0.471318 0.750396 0.282028 0 0 -0.00157928
45 1 0.202613 0.95872 0.157026 0 0 -0.00442886
46 1 0.284799 0.782201 0.427803 0 0 -0.000421524
47 1 0.00894394 0.000342385 0.532027 0 0 0.000421524
48 1 0.0160046 0.990562 0.302807 0 0 -0.000602722
ITEM: TIMESTEP
1
ITEM: NUMBER OF ATOMS
48
ITEM: BOX BOUNDS xy xz yz pp pp pp
-2.3742631077766418e+00 8.6067802309989929e+00 2.5094206929206848e+00
-9.4973444938659668e-03 9.3236122131347656e+00 -2.3622260093688965e+00
-2.8691649436950684e-02 1.9545819282531738e+01 7.1304261684417725e-02
ITEM: ATOMS id type xs ys zs fx fy fz
1 1 0.935406 0.167001 0.0356774 0 0 -0.0495625
2 1 0.480456 0.0738384 0.0574205 0 0 0.029705
3 1 0.277741 0.125314 0.657029 0 0 -0.00457382
4 1 0.358337 0.948875 0.924153 0 0 0.0495625
5 1 0.091147 0.157156 0.802848 0 0 -0.0945892
6 1 0.813286 0.0420381 0.90241 0 0 -0.0296974
7 1 0.546425 0.250315 0.781963 0 0 -0.108519
8 1 0.740113 0.208712 0.407035 0 0 -0.00218391
9 1 0.822431 0.0321464 0.677817 0 0 -0.00088501
10 1 0.55363 0.240498 0.552795 0 0 0.00218391
11 1 0.747318 0.198894 0.177868 0 0 0.108517
12 1 0.471312 0.0837298 0.282013 0 0 0.000888824
13 1 0.202596 0.292054 0.156982 0 0 0.0945873
14 1 0.284797 0.115534 0.427799 0 0 -0.00186729
15 1 0.935406 0.500335 0.0356774 0 0 -0.0495605
16 1 0.480457 0.407172 0.0574206 0 0 0.0297012
17 1 0.277741 0.458648 0.657029 0 0 -0.00456238
18 1 0.358336 0.282208 0.924153 0 0 0.0495605
19 1 0.0911469 0.49049 0.802848 0 0 -0.0945892
20 1 0.813286 0.375371 0.90241 0 0 -0.0297031
21 1 0.546425 0.583649 0.781963 0 0 -0.108517
22 1 0.00894605 0.333676 0.532031 0 0 0.0018692
23 1 0.740113 0.542045 0.407035 0 0 -0.00218964
24 1 0.822431 0.36548 0.677817 0 0 -0.00088501
25 1 0.55363 0.573831 0.552795 0 0 0.00218773
26 1 0.0160022 0.323895 0.302801 0 0 0.00456619
27 1 0.747318 0.532228 0.177868 0 0 0.108517
28 1 0.471312 0.417063 0.282013 0 0 0.000886917
29 1 0.202596 0.625387 0.156982 0 0 0.0945892
30 1 0.284797 0.448867 0.427799 0 0 -0.0018692
31 1 0.935406 0.833668 0.0356775 0 0 -0.0495625
32 1 0.480457 0.740505 0.0574206 0 0 0.0296993
33 1 0.277741 0.791981 0.657029 0 0 -0.00456429
34 1 0.358336 0.615542 0.924153 0 0 0.0495605
35 1 0.091147 0.823823 0.802848 0 0 -0.0945854
36 1 0.813286 0.708705 0.90241 0 0 -0.0297012
37 1 0.546425 0.916982 0.781963 0 0 -0.108515
38 1 0.0089458 0.667009 0.532031 0 0 0.00186729
39 1 0.740113 0.875379 0.407035 0 0 -0.00218582
40 1 0.82243 0.698813 0.677817 0 0 -0.00088501
41 1 0.55363 0.907164 0.552795 0 0 0.00218391
42 1 0.0160021 0.657229 0.302801 0 0 0.00457191
43 1 0.747318 0.865561 0.177868 0 0 0.108509
44 1 0.471312 0.750397 0.282013 0 0 0.000886917
45 1 0.202596 0.95872 0.156982 0 0 0.0945911
46 1 0.284797 0.782201 0.427799 0 0 -0.00187683
47 1 0.00894554 0.000342354 0.532031 0 0 0.00187111
48 1 0.0160023 0.990562 0.302801 0 0 0.00456619
ITEM: TIMESTEP
2
ITEM: NUMBER OF ATOMS
48
ITEM: BOX BOUNDS xy xz yz pp pp pp
-2.3742631077766418e+00 8.6067802309989929e+00 2.5094206929206848e+00
-9.4973444938659668e-03 9.3236122131347656e+00 -2.3622260093688965e+00
-2.8691649436950684e-02 1.9545819282531738e+01 7.1304261684417725e-02
ITEM: ATOMS id type xs ys zs fx fy fz
1 1 0.93521 0.167005 0.0351738 0 0 -0.0106182
2 1 0.4811 0.0738257 0.0590703 0 0 0.0179501
3 1 0.277697 0.125315 0.656917 0 0 -0.0571136
4 1 0.358533 0.948871 0.924656 0 0 0.0106239
5 1 0.0902367 0.157174 0.800513 0 0 0.0126972
6 1 0.812643 0.0420508 0.90076 0 0 -0.0179596
7 1 0.545372 0.250336 0.779262 0 0 0.00584221
8 1 0.740092 0.208713 0.406982 0 0 0.00323296
9 1 0.822423 0.0321465 0.677798 0 0 -0.0519485
10 1 0.553651 0.240497 0.552848 0 0 -0.00322914
11 1 0.748371 0.198874 0.180568 0 0 -0.00583649
12 1 0.47132 0.0837296 0.282032 0 0 0.051939
13 1 0.203506 0.292036 0.159318 0 0 -0.0126953
14 1 0.284779 0.115534 0.427752 0 0 0.00575256
15 1 0.93521 0.500339 0.0351738 0 0 -0.0106125
16 1 0.4811 0.407159 0.0590702 0 0 0.0179539
17 1 0.277697 0.458649 0.656917 0 0 -0.0571251
18 1 0.358533 0.282205 0.924656 0 0 0.010622
19 1 0.0902366 0.490508 0.800512 0 0 0.0126953
20 1 0.812643 0.375384 0.90076 0 0 -0.0179634
21 1 0.545372 0.583669 0.779262 0 0 0.00583839
22 1 0.00896442 0.333675 0.532078 0 0 -0.00575256
23 1 0.740092 0.542046 0.406982 0 0 0.00323486
24 1 0.822424 0.36548 0.677798 0 0 -0.0519505
25 1 0.553651 0.57383 0.552848 0 0 -0.00323296
26 1 0.0160459 0.323894 0.302913 0 0 0.0571194
27 1 0.748371 0.532207 0.180568 0 0 -0.00583267
28 1 0.47132 0.417063 0.282032 0 0 0.0519447
29 1 0.203506 0.625369 0.159318 0 0 -0.0126972
30 1 0.284779 0.448868 0.427752 0 0 0.00575638
31 1 0.93521 0.833672 0.0351739 0 0 -0.0106277
32 1 0.4811 0.740492 0.0590702 0 0 0.0179558
33 1 0.277697 0.791982 0.656917 0 0 -0.0571136
34 1 0.358533 0.615538 0.924656 0 0 0.010622
35 1 0.0902367 0.823841 0.800513 0 0 0.0126934
36 1 0.812643 0.708717 0.90076 0 0 -0.0179577
37 1 0.545372 0.917003 0.779262 0 0 0.00583839
38 1 0.00896415 0.667009 0.532078 0 0 -0.00575066
39 1 0.740092 0.875379 0.406982 0 0 0.00323105
40 1 0.822423 0.698813 0.677798 0 0 -0.0519447
41 1 0.55365 0.907164 0.552848 0 0 -0.00323296
42 1 0.0160458 0.657228 0.302913 0 0 0.0571117
43 1 0.748371 0.86554 0.180568 0 0 -0.00582886
44 1 0.47132 0.750396 0.282032 0 0 0.0519371
45 1 0.203506 0.958702 0.159318 0 0 -0.0126953
46 1 0.284779 0.782201 0.427752 0 0 0.00576401
47 1 0.00896393 0.000341991 0.532078 0 0 -0.00575447
48 1 0.016046 0.990561 0.302913 0 0 0.0571175
ITEM: TIMESTEP
3
ITEM: NUMBER OF ATOMS
48
ITEM: BOX BOUNDS xy xz yz pp pp pp
-2.3742631077766418e+00 8.6067802309989929e+00 2.5094206929206848e+00
-9.4973444938659668e-03 9.3236122131347656e+00 -2.3622260093688965e+00
-2.8691649436950684e-02 1.9545819282531738e+01 7.1304261684417725e-02
ITEM: ATOMS id type xs ys zs fx fy fz
1 1 0.93503 0.167009 0.0347125 0 0 -0.00245667
2 1 0.481507 0.0738177 0.0601143 0 0 -0.010643
3 1 0.277065 0.125328 0.655295 0 0 0.00107574
4 1 0.358713 0.948868 0.925118 0 0 0.00244713
5 1 0.0900728 0.157177 0.800092 0 0 -0.00691414
6 1 0.812236 0.0420588 0.899716 0 0 0.0106525
7 1 0.545087 0.250342 0.778531 0 0 -0.00585175
8 1 0.74012 0.208712 0.407054 0 0 0.028553
9 1 0.821859 0.0321577 0.676351 0 0 0.00087738
10 1 0.553623 0.240498 0.552776 0 0 -0.0285511
11 1 0.748656 0.198868 0.1813 0 0 0.00584412
12 1 0.471884 0.0837185 0.283479 0 0 -0.000871658
13 1 0.20367 0.292032 0.159738 0 0 0.00691032
14 1 0.284835 0.115533 0.427896 0 0 0.0314255
15 1 0.93503 0.500342 0.0347127 0 0 -0.00246811
16 1 0.481507 0.407151 0.0601143 0 0 -0.010643
17 1 0.277065 0.458661 0.655295 0 0 0.00107002
18 1 0.358713 0.282201 0.925118 0 0 0.00246048
19 1 0.0900726 0.490511 0.800092 0 0 -0.0069046
20 1 0.812236 0.375392 0.899716 0 0 0.0106678
21 1 0.545087 0.583675 0.778531 0 0 -0.00585556
22 1 0.00890828 0.333676 0.531934 0 0 -0.0314236
23 1 0.74012 0.542045 0.407054 0 0 0.0285549
24 1 0.821859 0.365491 0.676351 0 0 0.000879288
25 1 0.553623 0.573831 0.552776 0 0 -0.0285549
26 1 0.0166781 0.323882 0.304535 0 0 -0.00107574
27 1 0.748656 0.532201 0.1813 0 0 0.00583649
28 1 0.471884 0.417052 0.283479 0 0 -0.000879288
29 1 0.20367 0.625366 0.159738 0 0 0.00689888
30 1 0.284835 0.448867 0.427896 0 0 0.0314198
31 1 0.93503 0.833676 0.0347123 0 0 -0.00244331
32 1 0.481507 0.740484 0.0601144 0 0 -0.0106468
33 1 0.277065 0.791994 0.655295 0 0 0.00107002
34 1 0.358712 0.615534 0.925118 0 0 0.00245667
35 1 0.0900728 0.823844 0.800092 0 0 -0.00690269
36 1 0.812236 0.708725 0.899716 0 0 0.0106506
37 1 0.545087 0.917008 0.778531 0 0 -0.00585556
38 1 0.00890803 0.66701 0.531934 0 0 -0.0314178
39 1 0.74012 0.875379 0.407054 0 0 0.0285549
40 1 0.821859 0.698824 0.676351 0 0 0.00087738
41 1 0.553622 0.907164 0.552776 0 0 -0.0285549
42 1 0.016678 0.657215 0.304535 0 0 -0.00106239
43 1 0.748656 0.865535 0.1813 0 0 0.0058403
44 1 0.471884 0.750385 0.283479 0 0 -0.000869751
45 1 0.20367 0.958699 0.159738 0 0 0.00690079
46 1 0.284835 0.7822 0.427896 0 0 0.0314159
47 1 0.00890778 0.0003431 0.531934 0 0 -0.0314236
48 1 0.0166782 0.990548 0.304535 0 0 -0.00107002
ITEM: TIMESTEP
4
ITEM: NUMBER OF ATOMS
48
ITEM: BOX BOUNDS xy xz yz pp pp pp
-2.3742631077766418e+00 8.6067802309989929e+00 2.5094206929206848e+00
-9.4973444938659668e-03 9.3236122131347656e+00 -2.3622260093688965e+00
-2.8691649436950684e-02 1.9545819282531738e+01 7.1304261684417725e-02
ITEM: ATOMS id type xs ys zs fx fy fz
1 1 0.934977 0.16701 0.0345774 0 0 0.00912476
2 1 0.481516 0.0738175 0.0601389 0 0 -0.00210762
3 1 0.276945 0.12533 0.654988 0 0 -0.00214958
4 1 0.358765 0.948867 0.925253 0 0 -0.00912285
5 1 0.0899931 0.157179 0.799888 0 0 -0.00253296
6 1 0.812226 0.042059 0.899691 0 0 0.00210762
7 1 0.54499 0.250344 0.778282 0 0 0.000148773
8 1 0.740319 0.208708 0.407564 0 0 -0.000102997
9 1 0.821752 0.0321598 0.676076 0 0 -0.00306892
10 1 0.553424 0.240502 0.552266 0 0 9.53674e-05
11 1 0.748753 0.198866 0.181548 0 0 -0.000143051
12 1 0.471991 0.0837164 0.283754 0 0 0.00307274
13 1 0.20375 0.292031 0.159942 0 0 0.00253296
14 1 0.285059 0.115529 0.42847 0 0 0.000873566
15 1 0.934977 0.500343 0.0345774 0 0 0.00912285
16 1 0.481516 0.407151 0.0601389 0 0 -0.00210381
17 1 0.276945 0.458663 0.654988 0 0 -0.00213814
18 1 0.358765 0.2822 0.925253 0 0 -0.00913048
19 1 0.089993 0.490512 0.799888 0 0 -0.00254059
20 1 0.812226 0.375392 0.899691 0 0 0.00210571
21 1 0.54499 0.583677 0.778282 0 0 0.000148773
22 1 0.00868439 0.333681 0.53136 0 0 -0.000883102
23 1 0.740319 0.542041 0.407564 0 0 -9.72748e-05
24 1 0.821752 0.365493 0.676076 0 0 -0.00306511
25 1 0.553424 0.573835 0.552266 0 0 9.91821e-05
26 1 0.0167976 0.32388 0.304842 0 0 0.00214958
27 1 0.748753 0.532199 0.181548 0 0 -0.000144958
28 1 0.471991 0.41705 0.283754 0 0 0.00306702
29 1 0.20375 0.625364 0.159942 0 0 0.0025444
30 1 0.285059 0.448862 0.42847 0 0 0.000881195
31 1 0.934977 0.833677 0.0345773 0 0 0.00912476
32 1 0.481516 0.740484 0.0601389 0 0 -0.00210762
33 1 0.276945 0.791997 0.654988 0 0 -0.00215149
34 1 0.358765 0.615533 0.925253 0 0 -0.00912666
35 1 0.0899932 0.823846 0.799888 0 0 -0.00254059
36 1 0.812226 0.708726 0.899691 0 0 0.00210762
37 1 0.54499 0.91701 0.778282 0 0 0.000148773
38 1 0.00868418 0.667014 0.53136 0 0 -0.000883102
39 1 0.740319 0.875375 0.407564 0 0 -9.72748e-05
40 1 0.821752 0.698827 0.676076 0 0 -0.00306702
41 1 0.553423 0.907168 0.552266 0 0 0.000106812
42 1 0.0167975 0.657213 0.304842 0 0 0.00214005
43 1 0.748753 0.865533 0.181548 0 0 -0.000144958
44 1 0.471991 0.750383 0.283754 0 0 0.00306702
45 1 0.20375 0.958697 0.159942 0 0 0.00253487
46 1 0.285059 0.782196 0.42847 0 0 0.000875473
47 1 0.00868388 0.000347521 0.53136 0 0 -0.00087738
48 1 0.0167977 0.990546 0.304842 0 0 0.00214767
ITEM: TIMESTEP
5
ITEM: NUMBER OF ATOMS
48
ITEM: BOX BOUNDS xy xz yz pp pp pp
-2.3742631077766418e+00 8.6067802309989929e+00 2.5094206929206848e+00
-9.4973444938659668e-03 9.3236122131347656e+00 -2.3622260093688965e+00
-2.8691649436950684e-02 1.9545819282531738e+01 7.1304261684417725e-02
ITEM: ATOMS id type xs ys zs fx fy fz
1 1 0.935086 0.167008 0.0348563 0 0 -0.00261688
2 1 0.481491 0.073818 0.060074 0 0 -0.00556564
3 1 0.276911 0.125331 0.6549 0 0 -0.000455856
4 1 0.358657 0.948869 0.924974 0 0 0.00262451
5 1 0.0899567 0.15718 0.799794 0 0 -0.00325394
6 1 0.812252 0.0420585 0.899756 0 0 0.00556183
7 1 0.544986 0.250344 0.778271 0 0 -0.00282669
8 1 0.740331 0.208708 0.407595 0 0 -0.000331879
9 1 0.821707 0.0321607 0.675961 0 0 -0.000501633
10 1 0.553412 0.240502 0.552235 0 0 0.000341415
11 1 0.748757 0.198866 0.18156 0 0 0.00281906
12 1 0.472036 0.0837155 0.283869 0 0 0.000497818
13 1 0.203786 0.29203 0.160036 0 0 0.00325584
14 1 0.285084 0.115528 0.428536 0 0 -0.000875473
15 1 0.935086 0.500341 0.0348563 0 0 -0.00261497
16 1 0.481491 0.407151 0.0600742 0 0 -0.0055809
17 1 0.276911 0.458664 0.654901 0 0 -0.000463486
18 1 0.358656 0.282202 0.924974 0 0 0.00262833
19 1 0.0899565 0.490513 0.799794 0 0 -0.00324059
20 1 0.812252 0.375392 0.899756 0 0 0.00556374
21 1 0.544986 0.583677 0.778271 0 0 -0.00282097
22 1 0.00865883 0.333681 0.531294 0 0 0.000883102
23 1 0.740331 0.542041 0.407595 0 0 -0.000339508
24 1 0.821707 0.365494 0.675961 0 0 -0.000509262
25 1 0.553412 0.573835 0.552235 0 0 0.000335693
26 1 0.0168319 0.323879 0.30493 0 0 0.000452042
27 1 0.748757 0.532199 0.181559 0 0 0.00282097
28 1 0.472036 0.417049 0.283869 0 0 0.000513077
29 1 0.203786 0.625363 0.160036 0 0 0.00324631
30 1 0.285084 0.448862 0.428536 0 0 -0.000886917
31 1 0.935086 0.833674 0.0348563 0 0 -0.00262642
32 1 0.481491 0.740485 0.060074 0 0 -0.00556755
33 1 0.276911 0.791997 0.6549 0 0 -0.000459671
34 1 0.358656 0.615536 0.924974 0 0 0.00261879
35 1 0.0899567 0.823846 0.799794 0 0 -0.00324249
36 1 0.812252 0.708725 0.899756 0 0 0.00557137
37 1 0.544986 0.91701 0.778271 0 0 -0.00282097
38 1 0.00865862 0.667015 0.531294 0 0 0.000883102
39 1 0.740331 0.875374 0.407595 0 0 -0.000333786
40 1 0.821707 0.698827 0.675961 0 0 -0.000507355
41 1 0.553412 0.907168 0.552236 0 0 0.000329971
42 1 0.0168317 0.657212 0.30493 0 0 0.000463486
43 1 0.748757 0.865533 0.181559 0 0 0.00282097
44 1 0.472036 0.750382 0.283869 0 0 0.000511169
45 1 0.203786 0.958697 0.160036 0 0 0.00325584
46 1 0.285084 0.782195 0.428536 0 0 -0.000883102
47 1 0.00865839 0.000348025 0.531294 0 0 0.000873566
48 1 0.016832 0.990545 0.30493 0 0 0.000453949
ITEM: TIMESTEP
6
ITEM: NUMBER OF ATOMS
48
ITEM: BOX BOUNDS xy xz yz pp pp pp
-2.3742631077766418e+00 8.6067802309989929e+00 2.5094206929206848e+00
-9.4973444938659668e-03 9.3236122131347656e+00 -2.3622260093688965e+00
-2.8691649436950684e-02 1.9545819282531738e+01 7.1304261684417725e-02
ITEM: ATOMS id type xs ys zs fx fy fz
1 1 0.935099 0.167007 0.0348894 0 0 -0.00022316
2 1 0.481453 0.0738187 0.0599768 0 0 0.000282288
3 1 0.2769 0.125331 0.654871 0 0 -0.000406265
4 1 0.358644 0.948869 0.924941 0 0 0.000213623
5 1 0.0899291 0.15718 0.799723 0 0 7.62939e-06
6 1 0.812289 0.0420578 0.899853 0 0 -0.000278473
7 1 0.544969 0.250344 0.778227 0 0 -0.000162125
8 1 0.740332 0.208708 0.407598 0 0 0.000228882
9 1 0.821693 0.0321609 0.675924 0 0 -0.000341415
10 1 0.553411 0.240502 0.552233 0 0 -0.000226974
11 1 0.748774 0.198866 0.181603 0 0 0.00015831
12 1 0.47205 0.0837152 0.283906 0 0 0.000341415
13 1 0.203814 0.292029 0.160107 0 0 -7.62939e-06
14 1 0.285086 0.115528 0.42854 0 0 -0.000349045
15 1 0.935099 0.500341 0.0348893 0 0 -0.000219345
16 1 0.481453 0.407152 0.0599768 0 0 0.00028038
17 1 0.2769 0.458664 0.654872 0 0 -0.000415802
18 1 0.358644 0.282202 0.924941 0 0 0.000219345
19 1 0.0899289 0.490514 0.799723 0 0 1.33514e-05
20 1 0.81229 0.375391 0.899853 0 0 -0.00028038
21 1 0.544969 0.583677 0.778227 0 0 -0.000165939
22 1 0.00865732 0.333681 0.53129 0 0 0.000360489
23 1 0.740332 0.542041 0.407598 0 0 0.000226974
24 1 0.821693 0.365494 0.675924 0 0 -0.000343323
25 1 0.553411 0.573835 0.552233 0 0 -0.000234604
26 1 0.0168432 0.323879 0.304959 0 0 0.00041008
27 1 0.748774 0.532199 0.181603 0 0 0.000160217
28 1 0.47205 0.417049 0.283906 0 0 0.000349045
29 1 0.203814 0.625363 0.160107 0 0 -1.14441e-05
30 1 0.285086 0.448862 0.42854 0 0 -0.000354767
31 1 0.935099 0.833674 0.0348892 0 0 -0.00021553
32 1 0.481453 0.740485 0.0599768 0 0 0.00028038
33 1 0.2769 0.791998 0.654871 0 0 -0.000402451
34 1 0.358644 0.615536 0.924941 0 0 0.000228882
35 1 0.0899291 0.823847 0.799723 0 0 1.33514e-05
36 1 0.81229 0.708724 0.899853 0 0 -0.00028801
37 1 0.544969 0.917011 0.778227 0 0 -0.000165939
38 1 0.00865711 0.667015 0.531291 0 0 0.000350952
39 1 0.740332 0.875374 0.407598 0 0 0.000226974
40 1 0.821693 0.698828 0.675924 0 0 -0.000349045
41 1 0.553411 0.907168 0.552233 0 0 -0.000236511
42 1 0.016843 0.657212 0.304959 0 0 0.000413895
43 1 0.748774 0.865532 0.181603 0 0 0.000162125
44 1 0.47205 0.750382 0.283906 0 0 0.000343323
45 1 0.203814 0.958696 0.160107 0 0 -7.62939e-06
46 1 0.285086 0.782195 0.428539 0 0 -0.000343323
47 1 0.00865684 0.000348055 0.531291 0 0 0.000350952
48 1 0.0168433 0.990545 0.304959 0 0 0.000406265
ITEM: TIMESTEP
7
ITEM: NUMBER OF ATOMS
48
ITEM: BOX BOUNDS xy xz yz pp pp pp
-2.3742631077766418e+00 8.6067802309989929e+00 2.5094206929206848e+00
-9.4973444938659668e-03 9.3236122131347656e+00 -2.3622260093688965e+00
-2.8691649436950684e-02 1.9545819282531738e+01 7.1304261684417725e-02
ITEM: ATOMS id type xs ys zs fx fy fz
1 1 0.935097 0.167008 0.0348844 0 0 -4.95911e-05
2 1 0.481455 0.0738187 0.0599821 0 0 0.000211716
3 1 0.276896 0.125331 0.654861 0 0 7.43866e-05
4 1 0.358646 0.948869 0.924946 0 0 5.91278e-05
5 1 0.0899287 0.15718 0.799722 0 0 -0.000160217
6 1 0.812287 0.0420578 0.899848 0 0 -0.000221252
7 1 0.544967 0.250344 0.778222 0 0 -0.000188828
8 1 0.740334 0.208708 0.407603 0 0 0.000230789
9 1 0.821689 0.032161 0.675915 0 0 2.86102e-05
10 1 0.553409 0.240502 0.552227 0 0 -0.000228882
11 1 0.748776 0.198866 0.181608 0 0 0.000192642
12 1 0.472054 0.0837151 0.283915 0 0 -3.43323e-05
13 1 0.203814 0.292029 0.160108 0 0 0.000160217
14 1 0.285083 0.115528 0.428531 0 0 0.000291824
15 1 0.935097 0.500341 0.0348845 0 0 -5.34058e-05
16 1 0.481455 0.407152 0.059982 0 0 0.000217438
17 1 0.276896 0.458664 0.654861 0 0 8.2016e-05
18 1 0.358645 0.282202 0.924946 0 0 5.34058e-05
19 1 0.0899286 0.490514 0.799722 0 0 -0.000160217
20 1 0.812288 0.375391 0.899848 0 0 -0.000221252
21 1 0.544967 0.583677 0.778222 0 0 -0.000185013
22 1 0.00866077 0.333681 0.531299 0 0 -0.000299454
23 1 0.740334 0.542041 0.407603 0 0 0.000228882
24 1 0.821689 0.365494 0.675915 0 0 3.43323e-05
25 1 0.553409 0.573835 0.552227 0 0 -0.000221252
26 1 0.0168473 0.323879 0.304969 0 0 -8.01086e-05
27 1 0.748776 0.532199 0.181608 0 0 0.000190735
28 1 0.472054 0.417049 0.283915 0 0 -3.43323e-05
29 1 0.203814 0.625363 0.160108 0 0 0.000160217
30 1 0.285082 0.448862 0.428531 0 0 0.000293732
31 1 0.935097 0.833674 0.0348845 0 0 -5.72205e-05
32 1 0.481455 0.740485 0.059982 0 0 0.00022316
33 1 0.276895 0.791998 0.654861 0 0 6.48499e-05
34 1 0.358646 0.615536 0.924946 0 0 4.3869e-05
35 1 0.0899288 0.823847 0.799723 0 0 -0.000169754
36 1 0.812287 0.708724 0.899848 0 0 -0.000213623
37 1 0.544967 0.917011 0.778222 0 0 -0.000183105
38 1 0.00866047 0.667015 0.531299 0 0 -0.000293732
39 1 0.740334 0.875374 0.407603 0 0 0.000225067
40 1 0.821689 0.698828 0.675915 0 0 3.43323e-05
41 1 0.553408 0.907169 0.552227 0 0 -0.000226974
42 1 0.0168472 0.657212 0.304969 0 0 -7.62939e-05
43 1 0.748776 0.865532 0.181608 0 0 0.00018692
44 1 0.472054 0.750382 0.283915 0 0 -2.86102e-05
45 1 0.203814 0.958696 0.160108 0 0 0.000164032
46 1 0.285082 0.782195 0.428531 0 0 0.000289917
47 1 0.0086602 0.000347989 0.531299 0 0 -0.000284195
48 1 0.0168474 0.990545 0.304969 0 0 -7.05719e-05
ITEM: TIMESTEP
8
ITEM: NUMBER OF ATOMS
48
ITEM: BOX BOUNDS xy xz yz pp pp pp
-2.3742631077766418e+00 8.6067802309989929e+00 2.5094206929206848e+00
-9.4973444938659668e-03 9.3236122131347656e+00 -2.3622260093688965e+00
-2.8691649436950684e-02 1.9545819282531738e+01 7.1304261684417725e-02
ITEM: ATOMS id type xs ys zs fx fy fz
1 1 0.935096 0.167008 0.0348813 0 0 3.8147e-06
2 1 0.481458 0.0738187 0.0599892 0 0 6.86646e-05
3 1 0.276895 0.125331 0.654859 0 0 -6.10352e-05
4 1 0.358647 0.948869 0.924949 0 0 -7.62939e-06
5 1 0.089927 0.15718 0.799718 0 0 -5.72205e-05
6 1 0.812285 0.0420579 0.899841 0 0 -6.10352e-05
7 1 0.544964 0.250344 0.778216 0 0 -1.52588e-05
8 1 0.740337 0.208708 0.407611 0 0 -0.000179291
9 1 0.821688 0.032161 0.675912 0 0 -9.15527e-05
10 1 0.553406 0.240502 0.552219 0 0 0.000183105
11 1 0.748779 0.198866 0.181614 0 0 1.33514e-05
12 1 0.472055 0.0837151 0.283918 0 0 9.53674e-05
13 1 0.203816 0.292029 0.160112 0 0 6.10352e-05
14 1 0.285084 0.115528 0.428535 0 0 4.3869e-05
15 1 0.935096 0.500341 0.0348813 0 0 1.14441e-05
16 1 0.481458 0.407152 0.0599892 0 0 6.48499e-05
17 1 0.276895 0.458664 0.654859 0 0 -6.29425e-05
18 1 0.358647 0.282202 0.924949 0 0 -7.62939e-06
19 1 0.089927 0.490514 0.799718 0 0 -6.67572e-05
20 1 0.812285 0.375391 0.899841 0 0 -6.29425e-05
21 1 0.544964 0.583678 0.778216 0 0 -1.33514e-05
22 1 0.00865931 0.333681 0.531296 0 0 -4.19617e-05
23 1 0.740337 0.542041 0.407611 0 0 -0.000183105
24 1 0.821688 0.365494 0.675913 0 0 -9.34601e-05
25 1 0.553406 0.573835 0.552219 0 0 0.000179291
26 1 0.0168482 0.323879 0.304972 0 0 6.10352e-05
27 1 0.748779 0.532199 0.181614 0 0 1.52588e-05
28 1 0.472055 0.417049 0.283918 0 0 8.01086e-05
29 1 0.203816 0.625363 0.160112 0 0 6.10352e-05
30 1 0.285084 0.448862 0.428535 0 0 4.95911e-05
31 1 0.935096 0.833674 0.0348813 0 0 7.62939e-06
32 1 0.481458 0.740485 0.0599894 0 0 5.72205e-05
33 1 0.276895 0.791998 0.654858 0 0 -5.72205e-05
34 1 0.358647 0.615536 0.924949 0 0 -7.62939e-06
35 1 0.0899271 0.823847 0.799718 0 0 -5.91278e-05
36 1 0.812285 0.708725 0.899841 0 0 -5.91278e-05
37 1 0.544964 0.917011 0.778216 0 0 -1.71661e-05
38 1 0.00865903 0.667015 0.531295 0 0 -3.8147e-05
39 1 0.740337 0.875374 0.407611 0 0 -0.000179291
40 1 0.821688 0.698828 0.675912 0 0 -8.58307e-05
41 1 0.553405 0.907169 0.552219 0 0 0.000185013
42 1 0.0168481 0.657212 0.304972 0 0 5.72205e-05
43 1 0.748779 0.865532 0.181614 0 0 1.52588e-05
44 1 0.472055 0.750382 0.283918 0 0 8.96454e-05
45 1 0.203816 0.958696 0.160112 0 0 5.34058e-05
46 1 0.285084 0.782195 0.428535 0 0 4.00543e-05
47 1 0.00865885 0.000348016 0.531296 0 0 -4.95911e-05
48 1 0.0168483 0.990545 0.304972 0 0 6.10352e-05
ITEM: TIMESTEP
9
ITEM: NUMBER OF ATOMS
48
ITEM: BOX BOUNDS xy xz yz pp pp pp
-2.3742631077766418e+00 8.6067802309989929e+00 2.5094206929206848e+00
-9.4973444938659668e-03 9.3236122131347656e+00 -2.3622260093688965e+00
-2.8691649436950684e-02 1.9545819282531738e+01 7.1304261684417725e-02
ITEM: ATOMS id type xs ys zs fx fy fz
1 1 0.935096 0.167008 0.0348813 0 0 3.8147e-06
2 1 0.481458 0.0738187 0.0599892 0 0 6.86646e-05
3 1 0.276895 0.125331 0.654859 0 0 -6.10352e-05
4 1 0.358647 0.948869 0.924949 0 0 -7.62939e-06
5 1 0.089927 0.15718 0.799718 0 0 -5.72205e-05
6 1 0.812285 0.0420579 0.899841 0 0 -6.10352e-05
7 1 0.544964 0.250344 0.778216 0 0 -1.52588e-05
8 1 0.740337 0.208708 0.407611 0 0 -0.000179291
9 1 0.821688 0.032161 0.675912 0 0 -9.15527e-05
10 1 0.553406 0.240502 0.552219 0 0 0.000183105
11 1 0.748779 0.198866 0.181614 0 0 1.33514e-05
12 1 0.472055 0.0837151 0.283918 0 0 9.53674e-05
13 1 0.203816 0.292029 0.160112 0 0 6.10352e-05
14 1 0.285084 0.115528 0.428535 0 0 4.3869e-05
15 1 0.935096 0.500341 0.0348813 0 0 1.14441e-05
16 1 0.481458 0.407152 0.0599892 0 0 6.48499e-05
17 1 0.276895 0.458664 0.654859 0 0 -6.29425e-05
18 1 0.358647 0.282202 0.924949 0 0 -7.62939e-06
19 1 0.089927 0.490514 0.799718 0 0 -6.67572e-05
20 1 0.812285 0.375391 0.899841 0 0 -6.29425e-05
21 1 0.544964 0.583678 0.778216 0 0 -1.33514e-05
22 1 0.00865931 0.333681 0.531296 0 0 -4.19617e-05
23 1 0.740337 0.542041 0.407611 0 0 -0.000183105
24 1 0.821688 0.365494 0.675913 0 0 -9.34601e-05
25 1 0.553406 0.573835 0.552219 0 0 0.000179291
26 1 0.0168482 0.323879 0.304972 0 0 6.10352e-05
27 1 0.748779 0.532199 0.181614 0 0 1.52588e-05
28 1 0.472055 0.417049 0.283918 0 0 8.01086e-05
29 1 0.203816 0.625363 0.160112 0 0 6.10352e-05
30 1 0.285084 0.448862 0.428535 0 0 4.95911e-05
31 1 0.935096 0.833674 0.0348813 0 0 7.62939e-06
32 1 0.481458 0.740485 0.0599894 0 0 5.72205e-05
33 1 0.276895 0.791998 0.654858 0 0 -5.72205e-05
34 1 0.358647 0.615536 0.924949 0 0 -7.62939e-06
35 1 0.0899271 0.823847 0.799718 0 0 -5.91278e-05
36 1 0.812285 0.708725 0.899841 0 0 -5.91278e-05
37 1 0.544964 0.917011 0.778216 0 0 -1.71661e-05
38 1 0.00865903 0.667015 0.531295 0 0 -3.8147e-05
39 1 0.740337 0.875374 0.407611 0 0 -0.000179291
40 1 0.821688 0.698828 0.675912 0 0 -8.58307e-05
41 1 0.553405 0.907169 0.552219 0 0 0.000185013
42 1 0.0168481 0.657212 0.304972 0 0 5.72205e-05
43 1 0.748779 0.865532 0.181614 0 0 1.52588e-05
44 1 0.472055 0.750382 0.283918 0 0 8.96454e-05
45 1 0.203816 0.958696 0.160112 0 0 5.34058e-05
46 1 0.285084 0.782195 0.428535 0 0 4.00543e-05
47 1 0.00865885 0.000348016 0.531296 0 0 -4.95911e-05
48 1 0.0168483 0.990545 0.304972 0 0 6.10352e-05
