ITEM: TIMESTEP
0
ITEM: NUMBER OF ATOMS
32
ITEM: BOX BOUNDS xy xz yz pp pp pp
0.0000000000000000e+00 6.3945490121841431e+00 0.0000000000000000e+00
0.0000000000000000e+00 2.2082877993583679e+01 0.0000000000000000e+00
0.0000000000000000e+00 5.1824659705162048e+00 0.0000000000000000e+00
ITEM: ATOMS id type xs ys zs fx fy fz
1 1 0.0192136 0.336543 0.593597 6.19888e-06 -0.00104988 3.57628e-06
2 1 0.519214 0.336543 0.593597 -2.98023e-06 -0.00104988 3.33786e-06
3 1 0.269214 0.295033 0.0935973 -1.66893e-06 0.00113523 -3.69549e-06
4 1 0.769214 0.295033 0.0935973 -1.66893e-06 0.00113392 -3.57628e-06
5 1 0.269214 0.461543 0.593597 -2.14577e-06 -0.000947952 3.21865e-06
6 1 0.769214 0.461543 0.593597 -1.90735e-06 -0.000947118 3.09944e-06
7 1 0.0192136 0.420037 0.0935973 6.79493e-06 0.00102079 -3.57628e-06
8 1 0.519214 0.420037 0.0935973 -2.74181e-06 0.00102067 -3.57628e-06
9 1 0.0192136 0.586543 0.593597 6.67572e-06 -0.00108898 2.5034e-06
10 1 0.519214 0.586543 0.593597 -2.6226e-06 -0.00108886 2.5034e-06
11 1 0.269214 0.711539 0.593597 -1.78814e-06 -0.00103307 1.90735e-06
12 1 0.769214 0.711539 0.593597 -1.43051e-06 -0.00103223 2.02656e-06
13 1 0.0192136 0.670042 0.0935972 6.55651e-06 0.000766397 -2.5034e-06
14 1 0.269214 0.545043 0.0935972 -2.5034e-06 0.000804305 -2.26498e-06
15 1 0.769214 0.545043 0.0935972 -1.78814e-06 0.000802755 -2.26498e-06
16 1 0.519214 0.670042 0.0935972 -2.98023e-06 0.000766039 -2.5034e-06
17 1 0.0192136 0.836533 0.593597 6.55651e-06 -0.000804782 9.53674e-07
18 1 0.519214 0.836533 0.593597 -2.98023e-06 -0.000804543 1.07288e-06
19 1 0.269214 0.961532 0.593597 -1.90735e-06 -0.000827909 8.34465e-07
20 1 0.769214 0.961532 0.593597 -1.66893e-06 -0.000826716 5.96046e-07
21 1 0.269214 0.795034 0.0935971 -1.66893e-06 0.00110483 -1.07288e-06
22 1 0.769214 0.795034 0.0935971 -2.14577e-06 0.00110471 -1.3113e-06
23 1 0.0192136 0.920032 0.0935971 6.19888e-06 0.00102258 -9.53674e-07
24 1 0.519214 0.920032 0.0935971 -2.5034e-06 0.00102246 -9.53674e-07
25 1 0.0192136 0.0865378 0.593597 6.91414e-06 -0.00107455 0
26 1 0.519214 0.0865378 0.593597 -2.74181e-06 -0.00107503 0
27 1 0.269214 0.045031 0.093597 -2.14577e-06 0.000999808 0
28 1 0.769214 0.045031 0.093597 -2.02656e-06 0.000999331 0
29 1 0.269214 0.211541 0.593597 -1.54972e-06 -0.00109899 1.3113e-06
30 1 0.769214 0.211541 0.593597 -2.14577e-06 -0.00109732 1.3113e-06
31 1 0.0192136 0.170031 0.093597 6.67572e-06 0.00107193 0
32 1 0.519214 0.170031 0.093597 -2.86102e-06 0.00107205 0
ITEM: TIMESTEP
1
ITEM: NUMBER OF ATOMS
32
ITEM: BOX BOUNDS xy xz yz pp pp pp
-3.1971931457519531e-04 6.3948687314987183e+00 0.0000000000000000e+00
-1.1041164398193359e-03 2.2083982110023499e+01 0.0000000000000000e+00
-2.5910139083862305e-04 5.1827250719070435e+00 0.0000000000000000e+00
ITEM: ATOMS id type xs ys zs fx fy fz
1 1 0.0192136 0.336543 0.593597 6.07967e-06 -0.00104904 3.45707e-06
2 1 0.519214 0.336543 0.593597 -2.38419e-06 -0.00104892 3.33786e-06
3 1 0.269214 0.295033 0.0935973 -1.90735e-06 0.00113356 -3.57628e-06
4 1 0.769214 0.295033 0.0935973 -1.90735e-06 0.0011332 -3.57628e-06
5 1 0.269214 0.461543 0.593597 -2.26498e-06 -0.00094521 3.09944e-06
6 1 0.769214 0.461543 0.593597 -1.90735e-06 -0.000944614 2.86102e-06
7 1 0.0192136 0.420037 0.0935973 6.55651e-06 0.001019 -3.45707e-06
8 1 0.519214 0.420037 0.0935973 -2.5034e-06 0.00101912 -3.45707e-06
9 1 0.0192136 0.586543 0.593597 6.07967e-06 -0.001086 2.38419e-06
10 1 0.519214 0.586543 0.593597 -2.38419e-06 -0.00108612 2.26498e-06
11 1 0.269214 0.711539 0.593597 -1.78814e-06 -0.00103343 2.02656e-06
12 1 0.769214 0.711539 0.593597 -2.02656e-06 -0.00103188 2.02656e-06
13 1 0.0192136 0.670042 0.0935972 6.31809e-06 0.000764966 -2.38419e-06
14 1 0.269214 0.545043 0.0935972 -1.90735e-06 0.000801563 -2.5034e-06
15 1 0.769214 0.545043 0.0935972 -1.78814e-06 0.000801563 -2.26498e-06
16 1 0.519214 0.670042 0.0935972 -2.5034e-06 0.000764966 -2.38419e-06
17 1 0.0192136 0.836533 0.593597 7.15256e-06 -0.000804067 1.3113e-06
18 1 0.519214 0.836533 0.593597 -2.98023e-06 -0.000803709 1.19209e-06
19 1 0.269214 0.961532 0.593597 -1.43051e-06 -0.000826359 7.15256e-07
20 1 0.769214 0.961532 0.593597 -1.78814e-06 -0.000825047 7.15256e-07
21 1 0.269214 0.795034 0.0935971 -2.14577e-06 0.00110364 -1.3113e-06
22 1 0.769214 0.795034 0.0935971 -1.90735e-06 0.00110292 -1.19209e-06
23 1 0.0192136 0.920032 0.0935971 6.19888e-06 0.00102055 -1.19209e-06
24 1 0.519214 0.920032 0.0935971 -2.5034e-06 0.00102079 -1.19209e-06
25 1 0.0192136 0.0865378 0.593597 5.48363e-06 -0.00107181 0
26 1 0.519214 0.0865378 0.593597 -1.90735e-06 -0.00107205 -1.19209e-07
27 1 0.269214 0.045031 0.093597 -2.02656e-06 0.000999689 2.38419e-07
28 1 0.769214 0.045031 0.093597 -2.02656e-06 0.000997663 1.19209e-07
29 1 0.269214 0.211541 0.593597 -2.02656e-06 -0.00109816 1.43051e-06
30 1 0.769214 0.211541 0.593597 -2.02656e-06 -0.00109744 1.43051e-06
31 1 0.0192136 0.170031 0.093597 6.67572e-06 0.0010705 0
32 1 0.519214 0.170031 0.093597 -2.5034e-06 0.00107014 0
ITEM: TIMESTEP
2
ITEM: NUMBER OF ATOMS
32
ITEM: BOX BOUNDS xy xz yz pp pp pp
-6.3943862915039062e-04 6.3951884508132935e+00 0.0000000000000000e+00
-2.2082328796386719e-03 2.2085086226463318e+01 0.0000000000000000e+00
-5.1820278167724609e-04 5.1829841732978821e+00 0.0000000000000000e+00
ITEM: ATOMS id type xs ys zs fx fy fz
1 1 0.0192136 0.336543 0.593597 6.07967e-06 -0.00104797 3.69549e-06
2 1 0.519214 0.336543 0.593597 -2.6226e-06 -0.00104809 3.33786e-06
3 1 0.269214 0.295033 0.0935973 -1.43051e-06 0.00113249 -3.57628e-06
4 1 0.769214 0.295033 0.0935973 -1.90735e-06 0.00113142 -3.57628e-06
5 1 0.269214 0.461543 0.593597 -2.02656e-06 -0.000944138 3.21865e-06
6 1 0.769214 0.461543 0.593597 -2.02656e-06 -0.000943065 3.21865e-06
7 1 0.0192136 0.420037 0.0935973 6.79493e-06 0.00101769 -3.45707e-06
8 1 0.519214 0.420037 0.0935973 -3.21865e-06 0.00101769 -3.69549e-06
9 1 0.0192136 0.586543 0.593597 6.67572e-06 -0.00108433 2.38419e-06
10 1 0.519214 0.586543 0.593597 -2.74181e-06 -0.00108397 2.38419e-06
11 1 0.269214 0.711539 0.593597 -2.14577e-06 -0.00103104 1.78814e-06
12 1 0.769214 0.711539 0.593597 -1.78814e-06 -0.00102997 1.90735e-06
13 1 0.0192136 0.670042 0.0935972 7.03335e-06 0.000763416 -2.38419e-06
14 1 0.269214 0.545043 0.0935972 -1.66893e-06 0.000800371 -2.26498e-06
15 1 0.769214 0.545043 0.0935972 -2.26498e-06 0.000799298 -2.38419e-06
16 1 0.519214 0.670042 0.0935972 -2.6226e-06 0.000763416 -2.38419e-06
17 1 0.0192136 0.836533 0.593597 5.72205e-06 -0.000801563 9.53674e-07
18 1 0.519214 0.836533 0.593597 -2.26498e-06 -0.000801682 1.07288e-06
19 1 0.269214 0.961532 0.593597 -2.02656e-06 -0.000825047 8.34465e-07
20 1 0.769214 0.961532 0.593597 -1.90735e-06 -0.000824094 5.96046e-07
21 1 0.269214 0.795034 0.0935971 -1.54972e-06 0.00110161 -9.53674e-07
22 1 0.769214 0.795034 0.0935971 -2.26498e-06 0.0011009 -9.53674e-07
23 1 0.0192136 0.920032 0.0935971 6.4373e-06 0.00101912 -9.53674e-07
24 1 0.519214 0.920032 0.0935971 -2.38419e-06 0.001019 -1.07288e-06
25 1 0.0192136 0.0865378 0.593597 6.4373e-06 -0.00107145 -1.19209e-07
26 1 0.519214 0.0865378 0.593597 -2.98023e-06 -0.00107121 -1.19209e-07
27 1 0.269214 0.045031 0.093597 -1.90735e-06 0.00099802 0
28 1 0.769214 0.045031 0.093597 -1.66893e-06 0.000996828 0
29 1 0.269214 0.211541 0.593597 -1.78814e-06 -0.00109696 9.53674e-07
30 1 0.769214 0.211541 0.593597 -1.78814e-06 -0.00109637 1.07288e-06
31 1 0.0192136 0.170031 0.093597 6.4373e-06 0.0010699 2.38419e-07
32 1 0.519214 0.170031 0.093597 -2.6226e-06 0.00106978 2.38419e-07
ITEM: TIMESTEP
3
ITEM: NUMBER OF ATOMS
32
ITEM: BOX BOUNDS xy xz yz pp pp pp
-9.5915794372558594e-04 6.3955081701278687e+00 0.0000000000000000e+00
-3.3123493194580078e-03 2.2086190342903137e+01 0.0000000000000000e+00
-7.7730417251586914e-04 5.1832432746887207e+00 0.0000000000000000e+00
ITEM: ATOMS id type xs ys zs fx fy fz
1 1 0.0192136 0.336543 0.593597 6.67572e-06 -0.00104499 3.45707e-06
2 1 0.519214 0.336543 0.593597 -2.74181e-06 -0.00104499 3.69549e-06
3 1 0.269214 0.295033 0.0935973 -2.02656e-06 0.00112975 -3.8147e-06
4 1 0.769214 0.295033 0.0935973 -1.90735e-06 0.00112879 -3.8147e-06
5 1 0.269214 0.461543 0.593597 -1.66893e-06 -0.00094223 3.09944e-06
6 1 0.769214 0.461543 0.593597 -1.90735e-06 -0.000941992 2.98023e-06
7 1 0.0192136 0.420037 0.0935973 6.31809e-06 0.00101566 -3.33786e-06
8 1 0.519214 0.420037 0.0935973 -2.86102e-06 0.0010159 -3.33786e-06
9 1 0.0192136 0.586543 0.593597 6.55651e-06 -0.00108254 2.5034e-06
10 1 0.519214 0.586543 0.593597 -2.86102e-06 -0.00108278 2.5034e-06
11 1 0.269214 0.711539 0.593597 -1.54972e-06 -0.00102866 1.78814e-06
12 1 0.769214 0.711539 0.593597 -1.90735e-06 -0.0010277 2.14577e-06
13 1 0.0192136 0.670042 0.0935972 5.84126e-06 0.000761986 -2.38419e-06
14 1 0.269214 0.545043 0.0935972 -1.78814e-06 0.000798225 -2.14577e-06
15 1 0.769214 0.545043 0.0935972 -1.66893e-06 0.000797033 -2.6226e-06
16 1 0.519214 0.670042 0.0935972 -2.74181e-06 0.000761986 -2.6226e-06
17 1 0.0192136 0.836533 0.593597 6.4373e-06 -0.000798821 1.19209e-06
18 1 0.519214 0.836533 0.593597 -2.5034e-06 -0.000798941 1.07288e-06
19 1 0.269214 0.961532 0.593597 -1.3113e-06 -0.000823379 7.15256e-07
20 1 0.769214 0.961532 0.593597 -2.02656e-06 -0.000821829 8.34465e-07
21 1 0.269214 0.795034 0.0935971 -1.90735e-06 0.00109875 -9.53674e-07
22 1 0.769214 0.795034 0.0935971 -1.78814e-06 0.00109828 -1.19209e-06
23 1 0.0192136 0.920032 0.0935971 6.07967e-06 0.00101781 -1.19209e-06
24 1 0.519214 0.920032 0.0935971 -2.86102e-06 0.00101793 -1.3113e-06
25 1 0.0192136 0.0865378 0.593597 6.55651e-06 -0.00106931 0
26 1 0.519214 0.0865378 0.593597 -2.98023e-06 -0.00106895 1.19209e-07
27 1 0.269214 0.045031 0.093597 -2.02656e-06 0.000994205 1.19209e-07
28 1 0.769214 0.045031 0.093597 -1.54972e-06 0.000994444 1.19209e-07
29 1 0.269214 0.211541 0.593597 -1.78814e-06 -0.00109398 1.19209e-06
30 1 0.769214 0.211541 0.593597 -1.66893e-06 -0.00109375 9.53674e-07
31 1 0.0192136 0.170031 0.093597 6.67572e-06 0.00106704 1.19209e-07
32 1 0.519214 0.170031 0.093597 -3.09944e-06 0.00106704 1.19209e-07
ITEM: TIMESTEP
4
ITEM: NUMBER OF ATOMS
32
ITEM: BOX BOUNDS xy xz yz pp pp pp
-1.2788772583007812e-03 6.3958278894424438e+00 0.0000000000000000e+00
-4.4164657592773438e-03 2.2087294459342957e+01 0.0000000000000000e+00
-1.0364055633544922e-03 5.1835023760795593e+00 0.0000000000000000e+00
ITEM: ATOMS id type xs ys zs fx fy fz
1 1 0.0192136 0.336543 0.593597 6.31809e-06 -0.00104308 3.57628e-06
2 1 0.519214 0.336543 0.593597 -2.86102e-06 -0.00104308 3.69549e-06
3 1 0.269214 0.295033 0.0935973 -1.78814e-06 0.00112784 -3.69549e-06
4 1 0.769214 0.295033 0.0935973 -1.90735e-06 0.00112736 -3.69549e-06
5 1 0.269214 0.461543 0.593597 -1.90735e-06 -0.000941515 3.09944e-06
6 1 0.769214 0.461543 0.593597 -1.66893e-06 -0.000940561 3.09944e-06
7 1 0.0192136 0.420037 0.0935973 6.4373e-06 0.00101447 -3.45707e-06
8 1 0.519214 0.420037 0.0935973 -2.98023e-06 0.00101459 -3.45707e-06
9 1 0.0192136 0.586543 0.593597 6.07967e-06 -0.00108123 2.5034e-06
10 1 0.519214 0.586543 0.593597 -2.38419e-06 -0.00108135 2.5034e-06
11 1 0.269214 0.711539 0.593597 -1.54972e-06 -0.00102758 1.90735e-06
12 1 0.769214 0.711539 0.593597 -2.02656e-06 -0.00102651 2.02656e-06
13 1 0.0192136 0.670042 0.0935972 5.96046e-06 0.000761151 -2.74181e-06
14 1 0.269214 0.545043 0.0935972 -1.43051e-06 0.000796914 -2.14577e-06
15 1 0.769214 0.545043 0.0935972 -1.78814e-06 0.00079608 -2.26498e-06
16 1 0.519214 0.670042 0.0935972 -2.38419e-06 0.00076139 -2.5034e-06
17 1 0.0192136 0.836533 0.593597 5.96046e-06 -0.000798345 9.53674e-07
18 1 0.519214 0.836533 0.593597 -2.6226e-06 -0.000798583 1.19209e-06
19 1 0.269214 0.961532 0.593597 -1.3113e-06 -0.000822544 5.96046e-07
20 1 0.769214 0.961532 0.593597 -1.90735e-06 -0.000820875 5.96046e-07
21 1 0.269214 0.795034 0.0935971 -1.78814e-06 0.00109804 -1.19209e-06
22 1 0.769214 0.795034 0.0935971 -1.90735e-06 0.00109696 -1.19209e-06
23 1 0.0192136 0.920032 0.0935971 6.19888e-06 0.00101674 -9.53674e-07
24 1 0.519214 0.920032 0.0935971 -2.86102e-06 0.00101662 -1.07288e-06
25 1 0.0192136 0.0865378 0.593597 6.07967e-06 -0.00106752 -1.19209e-07
26 1 0.519214 0.0865378 0.593597 -2.5034e-06 -0.00106728 0
27 1 0.269214 0.045031 0.093597 -2.02656e-06 0.000993609 0
28 1 0.769214 0.045031 0.093597 -1.54972e-06 0.000992894 2.38419e-07
29 1 0.269214 0.211541 0.593597 -2.38419e-06 -0.00109267 1.19209e-06
30 1 0.769214 0.211541 0.593597 -1.66893e-06 -0.00109196 1.19209e-06
31 1 0.0192136 0.170031 0.093597 6.79493e-06 0.00106514 0
32 1 0.519214 0.170031 0.093597 -2.6226e-06 0.0010649 1.19209e-07
ITEM: TIMESTEP
5
ITEM: NUMBER OF ATOMS
32
ITEM: BOX BOUNDS xy xz yz pp pp pp
-1.5985965728759766e-03 6.3961476087570190e+00 0.0000000000000000e+00
-5.5205821990966797e-03 2.2088398575782776e+01 0.0000000000000000e+00
-1.2955069541931152e-03 5.1837614774703979e+00 0.0000000000000000e+00
ITEM: ATOMS id type xs ys zs fx fy fz
1 1 0.0192136 0.336543 0.593597 6.67572e-06 -0.00104237 3.45707e-06
2 1 0.519214 0.336543 0.593597 -2.86102e-06 -0.00104237 3.33786e-06
3 1 0.269214 0.295033 0.0935973 -2.14577e-06 0.00112689 -3.57628e-06
4 1 0.769214 0.295033 0.0935973 -2.02656e-06 0.00112569 -3.8147e-06
5 1 0.269214 0.461543 0.593597 -1.54972e-06 -0.000939846 2.86102e-06
6 1 0.769214 0.461543 0.593597 -1.90735e-06 -0.000938416 3.33786e-06
7 1 0.0192136 0.420037 0.0935973 6.07967e-06 0.00101304 -3.57628e-06
8 1 0.519214 0.420037 0.0935973 -2.38419e-06 0.00101304 -3.45707e-06
9 1 0.0192136 0.586543 0.593597 6.55651e-06 -0.0010798 2.5034e-06
10 1 0.519214 0.586543 0.593597 -2.74181e-06 -0.00107956 2.38419e-06
11 1 0.269214 0.711539 0.593597 -1.78814e-06 -0.00102556 1.90735e-06
12 1 0.769214 0.711539 0.593597 -1.90735e-06 -0.00102437 2.14577e-06
13 1 0.0192136 0.670042 0.0935972 6.4373e-06 0.000759244 -2.26498e-06
14 1 0.269214 0.545043 0.0935972 -1.78814e-06 0.000794768 -2.6226e-06
15 1 0.769214 0.545043 0.0935972 -1.78814e-06 0.000794649 -2.14577e-06
16 1 0.519214 0.670042 0.0935972 -2.98023e-06 0.000759363 -2.02656e-06
17 1 0.0192136 0.836533 0.593597 5.84126e-06 -0.000795603 1.19209e-06
18 1 0.519214 0.836533 0.593597 -2.38419e-06 -0.000795484 1.19209e-06
19 1 0.269214 0.961532 0.593597 -2.26498e-06 -0.000819921 9.53674e-07
20 1 0.769214 0.961532 0.593597 -1.66893e-06 -0.000818729 9.53674e-07
21 1 0.269214 0.795034 0.0935971 -1.43051e-06 0.00109541 -1.19209e-06
22 1 0.769214 0.795034 0.0935971 -1.66893e-06 0.00109398 -1.3113e-06
23 1 0.0192136 0.920032 0.0935971 6.4373e-06 0.00101435 -1.3113e-06
24 1 0.519214 0.920032 0.0935971 -2.6226e-06 0.00101435 -1.43051e-06
25 1 0.0192136 0.0865378 0.593597 6.4373e-06 -0.00106645 0
26 1 0.519214 0.0865378 0.593597 -2.74181e-06 -0.00106621 1.19209e-07
27 1 0.269214 0.045031 0.093597 -1.78814e-06 0.000992417 -1.19209e-07
28 1 0.769214 0.045031 0.093597 -2.02656e-06 0.000991464 0
29 1 0.269214 0.211541 0.593597 -1.90735e-06 -0.00109088 1.07288e-06
30 1 0.769214 0.211541 0.593597 -1.90735e-06 -0.00109041 9.53674e-07
31 1 0.0192136 0.170031 0.093597 6.19888e-06 0.00106382 2.38419e-07
32 1 0.519214 0.170031 0.093597 -2.38419e-06 0.00106347 2.38419e-07
ITEM: TIMESTEP
6
ITEM: NUMBER OF ATOMS
32
ITEM: BOX BOUNDS xy xz yz pp pp pp
-1.9183158874511719e-03 6.3964673280715942e+00 0.0000000000000000e+00
-6.6246986389160156e-03 2.2089502692222595e+01 0.0000000000000000e+00
-1.5546083450317383e-03 5.1840205788612366e+00 0.0000000000000000e+00
ITEM: ATOMS id type xs ys zs fx fy fz
1 1 0.0192136 0.336543 0.593597 6.79493e-06 -0.00103951 3.33786e-06
2 1 0.519214 0.336543 0.593597 -2.74181e-06 -0.00103927 3.33786e-06
3 1 0.269214 0.295033 0.0935973 -2.02656e-06 0.00112414 -3.45707e-06
4 1 0.769214 0.295033 0.0935973 -2.5034e-06 0.00112331 -3.57628e-06
5 1 0.269214 0.461543 0.593597 -1.43051e-06 -0.000938416 3.21865e-06
6 1 0.769214 0.461543 0.593597 -2.14577e-06 -0.000937462 3.33786e-06
7 1 0.0192136 0.420037 0.0935973 6.55651e-06 0.00101089 -3.69549e-06
8 1 0.519214 0.420037 0.0935973 -2.98023e-06 0.00101089 -3.69549e-06
9 1 0.0192136 0.586543 0.593597 6.19888e-06 -0.00107789 2.14577e-06
10 1 0.519214 0.586543 0.593597 -2.74181e-06 -0.00107789 2.14577e-06
11 1 0.269214 0.711539 0.593597 -1.78814e-06 -0.00102198 2.14577e-06
12 1 0.769214 0.711539 0.593597 -1.54972e-06 -0.00102139 1.90735e-06
13 1 0.0192136 0.670042 0.0935972 5.96046e-06 0.000756621 -2.38419e-06
14 1 0.269214 0.545043 0.0935972 -2.02656e-06 0.000793099 -2.26498e-06
15 1 0.769214 0.545043 0.0935972 -1.54972e-06 0.000791669 -2.26498e-06
16 1 0.519214 0.670042 0.0935972 -2.26498e-06 0.000756383 -2.5034e-06
17 1 0.0192136 0.836533 0.593597 6.31809e-06 -0.000793695 1.3113e-06
18 1 0.519214 0.836533 0.593597 -3.09944e-06 -0.000793576 1.3113e-06
19 1 0.269214 0.961532 0.593597 -1.90735e-06 -0.000817299 7.15256e-07
20 1 0.769214 0.961532 0.593597 -1.66893e-06 -0.000816703 9.53674e-07
21 1 0.269214 0.795034 0.0935971 -1.78814e-06 0.0010941 -1.54972e-06
22 1 0.769214 0.795034 0.0935971 -1.66893e-06 0.0010922 -1.07288e-06
23 1 0.0192136 0.920032 0.0935971 5.96046e-06 0.00101173 -1.3113e-06
24 1 0.519214 0.920032 0.0935971 -2.38419e-06 0.00101185 -1.19209e-06
25 1 0.0192136 0.0865378 0.593597 6.19888e-06 -0.00106514 -1.19209e-07
26 1 0.519214 0.0865378 0.593597 -2.74181e-06 -0.00106502 0
27 1 0.269214 0.045031 0.093597 -1.78814e-06 0.000990272 1.19209e-07
28 1 0.769214 0.045031 0.093597 -1.78814e-06 0.000989437 1.19209e-07
29 1 0.269214 0.211541 0.593597 -1.43051e-06 -0.00108719 1.3113e-06
30 1 0.769214 0.211541 0.593597 -2.02656e-06 -0.00108659 1.43051e-06
31 1 0.0192136 0.170031 0.093597 6.55651e-06 0.0010612 1.19209e-07
32 1 0.519214 0.170031 0.093597 -2.5034e-06 0.0010612 1.19209e-07
ITEM: TIMESTEP
7
ITEM: NUMBER OF ATOMS
32
ITEM: BOX BOUNDS xy xz yz pp pp pp
-2.2380352020263672e-03 6.3967870473861694e+00 0.0000000000000000e+00
-7.7288150787353516e-03 2.2090606808662415e+01 0.0000000000000000e+00
-1.8137097358703613e-03 5.1842796802520752e+00 0.0000000000000000e+00
ITEM: ATOMS id type xs ys zs fx fy fz
1 1 0.0192136 0.336543 0.593597 6.19888e-06 -0.00103807 3.33786e-06
2 1 0.519214 0.336543 0.593597 -2.86102e-06 -0.00103796 3.09944e-06
3 1 0.269214 0.295033 0.0935973 -1.43051e-06 0.00112319 -3.57628e-06
4 1 0.769214 0.295033 0.0935973 -2.14577e-06 0.00112152 -3.45707e-06
5 1 0.269214 0.461543 0.593597 -1.54972e-06 -0.000936747 2.98023e-06
6 1 0.769214 0.461543 0.593597 -1.78814e-06 -0.00093627 3.09944e-06
7 1 0.0192136 0.420037 0.0935973 6.19888e-06 0.00100887 -3.57628e-06
8 1 0.519214 0.420037 0.0935973 -2.38419e-06 0.00100875 -3.33786e-06
9 1 0.0192136 0.586543 0.593597 5.84126e-06 -0.00107622 2.14577e-06
10 1 0.519214 0.586543 0.593597 -2.5034e-06 -0.00107646 2.26498e-06
11 1 0.269214 0.711539 0.593597 -2.26498e-06 -0.00102139 2.02656e-06
12 1 0.769214 0.711539 0.593597 -1.78814e-06 -0.00102055 1.78814e-06
13 1 0.0192136 0.670042 0.0935972 6.67572e-06 0.000755668 -2.38419e-06
14 1 0.269214 0.545043 0.0935972 -1.66893e-06 0.00079155 -2.26498e-06
15 1 0.769214 0.545043 0.0935972 -1.78814e-06 0.000791073 -1.90735e-06
16 1 0.519214 0.670042 0.0935972 -2.98023e-06 0.000755906 -2.02656e-06
17 1 0.0192136 0.836533 0.593597 6.55651e-06 -0.000792265 1.3113e-06
18 1 0.519214 0.836533 0.593597 -2.86102e-06 -0.000792265 1.43051e-06
19 1 0.269214 0.961532 0.593597 -2.02656e-06 -0.000816584 8.34465e-07
20 1 0.769214 0.961532 0.593597 -2.02656e-06 -0.000815034 7.15256e-07
21 1 0.269214 0.795034 0.0935971 -1.66893e-06 0.00109196 -1.43051e-06
22 1 0.769214 0.795034 0.0935971 -1.54972e-06 0.00109112 -1.3113e-06
23 1 0.0192136 0.920032 0.0935971 6.19888e-06 0.00101101 -1.3113e-06
24 1 0.519214 0.920032 0.0935971 -2.5034e-06 0.00101066 -1.07288e-06
25 1 0.0192136 0.0865378 0.593597 5.84126e-06 -0.00106287 -1.19209e-07
26 1 0.519214 0.0865378 0.593597 -2.5034e-06 -0.00106275 -1.19209e-07
27 1 0.269214 0.045031 0.093597 -1.78814e-06 0.000989914 0
28 1 0.769214 0.045031 0.093597 -1.54972e-06 0.000987768 1.19209e-07
29 1 0.269214 0.211541 0.593597 -2.26498e-06 -0.00108659 1.3113e-06
30 1 0.769214 0.211541 0.593597 -1.43051e-06 -0.0010854 1.43051e-06
31 1 0.0192136 0.170031 0.093597 6.79493e-06 0.00105929 0
32 1 0.519214 0.170031 0.093597 -2.98023e-06 0.00105917 0
ITEM: TIMESTEP
8
ITEM: NUMBER OF ATOMS
32
ITEM: BOX BOUNDS xy xz yz pp pp pp
-2.5577545166015625e-03 6.3971067667007446e+00 0.0000000000000000e+00
-8.8329315185546875e-03 2.2091710925102234e+01 0.0000000000000000e+00
-2.0728111267089844e-03 5.1845387816429138e+00 0.0000000000000000e+00
ITEM: ATOMS id type xs ys zs fx fy fz
1 1 0.0192136 0.336543 0.593597 6.31809e-06 -0.00103712 3.33786e-06
2 1 0.519214 0.336543 0.593597 -2.74181e-06 -0.001037 3.57628e-06
3 1 0.269214 0.295033 0.0935973 -2.02656e-06 0.00112128 -3.57628e-06
4 1 0.769214 0.295033 0.0935973 -1.54972e-06 0.00112164 -3.69549e-06
5 1 0.269214 0.461543 0.593597 -1.78814e-06 -0.000934124 2.86102e-06
6 1 0.769214 0.461543 0.593597 -1.78814e-06 -0.000932932 3.21865e-06
7 1 0.0192136 0.420037 0.0935973 5.96046e-06 0.0010066 -3.45707e-06
8 1 0.519214 0.420037 0.0935973 -2.5034e-06 0.00100708 -3.33786e-06
9 1 0.0192136 0.586543 0.593597 6.67572e-06 -0.00107467 2.6226e-06
10 1 0.519214 0.586543 0.593597 -2.86102e-06 -0.00107443 2.26498e-06
11 1 0.269214 0.711539 0.593597 -1.90735e-06 -0.00102043 1.78814e-06
12 1 0.769214 0.711539 0.593597 -1.66893e-06 -0.00101912 2.02656e-06
13 1 0.0192136 0.670042 0.0935972 6.19888e-06 0.00075388 -2.38419e-06
14 1 0.269214 0.545043 0.0935972 -1.78814e-06 0.00079 -2.5034e-06
15 1 0.769214 0.545043 0.0935972 -2.02656e-06 0.000789523 -2.14577e-06
16 1 0.519214 0.670042 0.0935972 -2.86102e-06 0.00075388 -2.5034e-06
17 1 0.0192136 0.836533 0.593597 6.31809e-06 -0.000791192 9.53674e-07
18 1 0.519214 0.836533 0.593597 -2.38419e-06 -0.000790954 8.34465e-07
19 1 0.269214 0.961532 0.593597 -2.6226e-06 -0.000813127 7.15256e-07
20 1 0.769214 0.961532 0.593597 -1.78814e-06 -0.000812411 9.53674e-07
21 1 0.269214 0.795034 0.0935971 -2.26498e-06 0.00109017 -8.34465e-07
22 1 0.769214 0.795034 0.0935971 -1.66893e-06 0.0010891 -1.07288e-06
23 1 0.0192136 0.920032 0.0935971 6.67572e-06 0.00100911 -1.07288e-06
24 1 0.519214 0.920032 0.0935971 -2.5034e-06 0.00100923 -9.53674e-07
25 1 0.0192136 0.0865378 0.593597 6.79493e-06 -0.00106037 -1.19209e-07
26 1 0.519214 0.0865378 0.593597 -2.74181e-06 -0.00106061 -1.19209e-07
27 1 0.269214 0.045031 0.093597 -1.54972e-06 0.000987411 0
28 1 0.769214 0.045031 0.093597 -2.26498e-06 0.000986099 0
29 1 0.269214 0.211541 0.593597 -1.54972e-06 -0.00108635 1.19209e-06
30 1 0.769214 0.211541 0.593597 -1.3113e-06 -0.00108469 1.19209e-06
31 1 0.0192136 0.170031 0.093597 6.19888e-06 0.00105715 1.19209e-07
32 1 0.519214 0.170031 0.093597 -2.98023e-06 0.00105739 1.19209e-07
ITEM: TIMESTEP
9
ITEM: NUMBER OF ATOMS
32
ITEM: BOX BOUNDS xy xz yz pp pp pp
-2.8774738311767578e-03 6.3974264860153198e+00 0.0000000000000000e+00
-9.9370479583740234e-03 2.2092815041542053e+01 0.0000000000000000e+00
-2.3319125175476074e-03 5.1847978830337524e+00 0.0000000000000000e+00
ITEM: ATOMS id type xs ys zs fx fy fz
1 1 0.0192136 0.336543 0.593597 5.96046e-06 -0.00103521 3.21865e-06
2 1 0.519214 0.336543 0.593597 -2.6226e-06 -0.00103474 3.45707e-06
3 1 0.269214 0.295033 0.0935973 -1.66893e-06 0.00112045 -3.8147e-06
4 1 0.769214 0.295033 0.0935973 -2.14577e-06 0.00111902 -3.45707e-06
5 1 0.269214 0.461543 0.593597 -1.54972e-06 -0.000932932 3.09944e-06
6 1 0.769214 0.461543 0.593597 -2.14577e-06 -0.000932693 3.21865e-06
7 1 0.0192136 0.420037 0.0935973 6.19888e-06 0.00100482 -3.45707e-06
8 1 0.519214 0.420037 0.0935973 -2.38419e-06 0.00100482 -3.45707e-06
9 1 0.0192136 0.586543 0.593597 6.4373e-06 -0.00107276 2.02656e-06
10 1 0.519214 0.586543 0.593597 -2.5034e-06 -0.00107265 2.14577e-06
11 1 0.269214 0.711539 0.593597 -2.14577e-06 -0.00101817 1.90735e-06
12 1 0.769214 0.711539 0.593597 -1.78814e-06 -0.00101721 1.78814e-06
13 1 0.0192136 0.670042 0.0935972 6.55651e-06 0.000752687 -2.14577e-06
14 1 0.269214 0.545043 0.0935972 -1.90735e-06 0.000788212 -2.26498e-06
15 1 0.769214 0.545043 0.0935972 -2.02656e-06 0.000786901 -2.14577e-06
16 1 0.519214 0.670042 0.0935972 -2.74181e-06 0.000752687 -1.90735e-06
17 1 0.0192136 0.836533 0.593597 6.07967e-06 -0.000789762 1.07288e-06
18 1 0.519214 0.836533 0.593597 -2.98023e-06 -0.000789642 1.07288e-06
19 1 0.269214 0.961532 0.593597 -2.02656e-06 -0.000812531 7.15256e-07
20 1 0.769214 0.961532 0.593597 -1.66893e-06 -0.000811338 5.96046e-07
21 1 0.269214 0.795034 0.0935971 -1.66893e-06 0.00108886 -1.19209e-06
22 1 0.769214 0.795034 0.0935971 -1.54972e-06 0.0010879 -1.07288e-06
23 1 0.0192136 0.920032 0.0935971 6.07967e-06 0.00100625 -1.07288e-06
24 1 0.519214 0.920032 0.0935971 -2.74181e-06 0.00100636 -9.53674e-07
25 1 0.0192136 0.0865378 0.593597 5.84126e-06 -0.00105882 0
26 1 0.519214 0.0865378 0.593597 -2.5034e-06 -0.00105882 0
27 1 0.269214 0.045031 0.093597 -1.90735e-06 0.000986218 0
28 1 0.769214 0.045031 0.093597 -1.3113e-06 0.000985622 0
29 1 0.269214 0.211541 0.593597 -1.3113e-06 -0.00108373 1.3113e-06
30 1 0.769214 0.211541 0.593597 -1.78814e-06 -0.00108266 1.3113e-06
31 1 0.0192136 0.170031 0.093597 6.19888e-06 0.00105631 0
32 1 0.519214 0.170031 0.093597 -2.26498e-06 0.00105655 0
ITEM: TIMESTEP
10
ITEM: NUMBER OF ATOMS
32
ITEM: BOX BOUNDS xy xz yz pp pp pp
-3.1971931457519531e-03 6.3977462053298950e+00 0.0000000000000000e+00
-1.1041164398193359e-02 2.2093919157981873e+01 0.0000000000000000e+00
-2.5910139083862305e-03 5.1850569844245911e+00 0.0000000000000000e+00
ITEM: ATOMS id type xs ys zs fx fy fz
1 1 0.0192136 0.336542 0.593597 6.19888e-06 -0.00103271 3.33786e-06
2 1 0.519214 0.336542 0.593597 -2.86102e-06 -0.00103283 3.21865e-06
3 1 0.269214 0.295033 0.0935973 -1.90735e-06 0.00111663 -3.45707e-06
4 1 0.769214 0.295033 0.0935973 -1.90735e-06 0.00111651 -3.45707e-06
5 1 0.269214 0.461543 0.593597 -1.78814e-06 -0.000931501 3.21865e-06
6 1 0.769214 0.461543 0.593597 -1.66893e-06 -0.000930429 2.6226e-06
7 1 0.0192136 0.420037 0.0935973 6.91414e-06 0.00100386 -3.33786e-06
8 1 0.519214 0.420037 0.0935973 -2.98023e-06 0.00100386 -3.21865e-06
9 1 0.0192136 0.586543 0.593597 5.72205e-06 -0.00107193 2.02656e-06
10 1 0.519214 0.586543 0.593597 -2.86102e-06 -0.00107217 2.02656e-06
11 1 0.269214 0.711539 0.593597 -1.3113e-06 -0.00101483 1.90735e-06
12 1 0.769214 0.711539 0.593597 -1.78814e-06 -0.00101435 2.02656e-06
13 1 0.0192136 0.670042 0.0935972 6.4373e-06 0.000750542 -2.38419e-06
14 1 0.269214 0.545043 0.0935972 -1.78814e-06 0.000786781 -1.90735e-06
15 1 0.769214 0.545043 0.0935972 -1.78814e-06 0.000785589 -2.14577e-06
16 1 0.519214 0.670042 0.0935972 -2.26498e-06 0.000750661 -2.38419e-06
17 1 0.0192136 0.836533 0.593597 6.07967e-06 -0.000787854 1.3113e-06
18 1 0.519214 0.836533 0.593597 -2.86102e-06 -0.000787854 1.19209e-06
19 1 0.269214 0.961532 0.593597 -1.66893e-06 -0.000810146 8.34465e-07
20 1 0.769214 0.961532 0.593597 -2.02656e-06 -0.000809312 8.34465e-07
21 1 0.269214 0.795034 0.0935971 -1.78814e-06 0.00108624 -1.3113e-06
22 1 0.769214 0.795034 0.0935971 -1.78814e-06 0.00108504 -1.07288e-06
23 1 0.0192136 0.920032 0.0935971 6.4373e-06 0.00100577 -1.3113e-06
24 1 0.519214 0.920032 0.0935971 -2.86102e-06 0.00100553 -1.07288e-06
25 1 0.0192136 0.0865377 0.593597 6.4373e-06 -0.00105751 1.19209e-07
26 1 0.519214 0.0865377 0.593597 -3.09944e-06 -0.00105751 1.19209e-07
27 1 0.269214 0.045031 0.093597 -1.66893e-06 0.000983715 0
28 1 0.769214 0.045031 0.093597 -1.90735e-06 0.000983238 0
29 1 0.269214 0.211541 0.593597 -2.14577e-06 -0.00108159 8.34465e-07
30 1 0.769214 0.211541 0.593597 -1.3113e-06 -0.00108075 1.19209e-06
31 1 0.0192136 0.170031 0.093597 6.55651e-06 0.00105476 1.19209e-07
32 1 0.519214 0.170031 0.093597 -2.74181e-06 0.00105453 1.19209e-07
ITEM: TIMESTEP
11
ITEM: NUMBER OF ATOMS
32
ITEM: BOX BOUNDS xy xz yz pp pp pp
-3.5169124603271484e-03 6.3980659246444702e+00 0.0000000000000000e+00
-1.2145280838012695e-02 2.2095023274421692e+01 0.0000000000000000e+00
-2.8501152992248535e-03 5.1853160858154297e+00 0.0000000000000000e+00
ITEM: ATOMS id type xs ys zs fx fy fz
1 1 0.0192136 0.336542 0.593597 6.07967e-06 -0.00103104 3.45707e-06
2 1 0.519214 0.336542 0.593597 -2.74181e-06 -0.00103104 3.57628e-06
3 1 0.269214 0.295033 0.0935973 -1.66893e-06 0.00111461 -3.45707e-06
4 1 0.769214 0.295033 0.0935973 -1.54972e-06 0.00111389 -3.57628e-06
5 1 0.269214 0.461543 0.593597 -1.90735e-06 -0.000929713 3.09944e-06
6 1 0.769214 0.461543 0.593597 -1.43051e-06 -0.00092864 3.33786e-06
7 1 0.0192136 0.420037 0.0935973 6.19888e-06 0.00100112 -3.57628e-06
8 1 0.519214 0.420037 0.0935973 -2.74181e-06 0.00100136 -3.33786e-06
9 1 0.0192136 0.586543 0.593597 6.4373e-06 -0.00106978 2.02656e-06
10 1 0.519214 0.586543 0.593597 -2.74181e-06 -0.00106978 2.26498e-06
11 1 0.269214 0.711539 0.593597 -1.66893e-06 -0.0010128 1.78814e-06
12 1 0.769214 0.711539 0.593597 -1.78814e-06 -0.00101244 1.90735e-06
13 1 0.0192136 0.670042 0.0935972 6.31809e-06 0.000749707 -2.26498e-06
14 1 0.269214 0.545043 0.0935972 -1.90735e-06 0.000785112 -2.5034e-06
15 1 0.769214 0.545043 0.0935972 -1.90735e-06 0.000784039 -2.26498e-06
16 1 0.519214 0.670042 0.0935972 -2.98023e-06 0.000749707 -2.14577e-06
17 1 0.0192136 0.836533 0.593597 6.55651e-06 -0.000787139 1.07288e-06
18 1 0.519214 0.836533 0.593597 -2.26498e-06 -0.00078702 8.34465e-07
19 1 0.269214 0.961532 0.593597 -2.38419e-06 -0.000809669 8.34465e-07
20 1 0.769214 0.961532 0.593597 -1.43051e-06 -0.000808597 8.34465e-07
21 1 0.269214 0.795034 0.0935971 -2.02656e-06 0.00108516 -9.53674e-07
22 1 0.769214 0.795034 0.0935971 -1.90735e-06 0.00108409 -8.34465e-07
23 1 0.0192136 0.920032 0.0935971 6.79493e-06 0.00100291 -1.19209e-06
24 1 0.519214 0.920032 0.0935971 -2.98023e-06 0.00100303 -1.19209e-06
25 1 0.0192136 0.0865377 0.593597 6.67572e-06 -0.00105417 -1.19209e-07
26 1 0.519214 0.0865377 0.593597 -2.98023e-06 -0.00105417 -1.19209e-07
27 1 0.269214 0.045031 0.093597 -1.54972e-06 0.000981569 1.19209e-07
28 1 0.769214 0.045031 0.093597 -2.26498e-06 0.000980973 1.19209e-07
29 1 0.269214 0.211541 0.593597 -2.02656e-06 -0.00107908 1.43051e-06
30 1 0.769214 0.211541 0.593597 -1.3113e-06 -0.00107884 1.07288e-06