ITEM: TIMESTEP
0
ITEM: NUMBER OF ATOMS
32
ITEM: BOX BOUNDS xy xz yz pp pp pp
0.0000000000000000e+00 6.3945489999999996e+00 0.0000000000000000e+00
0.0000000000000000e+00 2.2082878000000001e+01 0.0000000000000000e+00
0.0000000000000000e+00 5.1824659999999998e+00 0.0000000000000000e+00
ITEM: ATOMS id type xs ys zs fx fy fz
1 1 0.0192136 0.336543 0.593597 6.83374e-06 -0.000392599 3.84138e-06
2 1 0.519214 0.336543 0.593597 -3.55375e-06 -0.000393086 3.97258e-06
3 1 0.269214 0.295033 0.0935973 -1.74877e-06 0.000478178 -4.34871e-06
4 1 0.769214 0.295033 0.0935973 -1.7063e-06 0.00047669 -4.1766e-06
5 1 0.269214 0.461543 0.593597 -1.83738e-06 -0.000283831 3.26729e-06
6 1 0.769214 0.461543 0.593597 -1.26847e-06 -0.00028251 3.72774e-06
7 1 0.0192136 0.420037 0.0935973 7.12688e-06 0.000362616 -3.58672e-06
8 1 0.519214 0.420037 0.0935973 -3.71144e-06 0.000363014 -3.52609e-06
9 1 0.0192136 0.586543 0.593597 7.18697e-06 -0.000426043 2.85333e-06
10 1 0.519214 0.586543 0.593597 -4.0509e-06 -0.000425923 3.01633e-06
11 1 0.269214 0.711539 0.593597 -1.58053e-06 -0.00037507 1.81731e-06
12 1 0.769214 0.711539 0.593597 -1.42875e-06 -0.000373594 1.2809e-06
13 1 0.0192136 0.670042 0.0935972 6.95962e-06 0.000110594 -2.72922e-06
14 1 0.269214 0.545043 0.0935972 -1.34297e-06 0.000147245 -2.82321e-06
15 1 0.769214 0.545043 0.0935972 -2.15861e-06 0.000145716 -2.941e-06
16 1 0.519214 0.670042 0.0935972 -3.60899e-06 0.000110215 -2.51551e-06
17 1 0.0192136 0.836533 0.593597 7.03866e-06 -0.000149946 1.33379e-06
18 1 0.519214 0.836533 0.593597 -3.65254e-06 -0.000149655 1.12655e-06
19 1 0.269214 0.961532 0.593597 -1.39276e-06 -0.000168824 4.37572e-07
20 1 0.769214 0.961532 0.593597 -1.99098e-06 -0.000167187 4.04853e-07
21 1 0.269214 0.795034 0.0935971 -1.92082e-06 0.000449306 -3.87815e-07
22 1 0.769214 0.795034 0.0935971 -1.34316e-06 0.000447852 -6.84053e-07
23 1 0.0192136 0.920032 0.0935971 6.97478e-06 0.000355727 -1.06865e-06
24 1 0.519214 0.920032 0.0935971 -3.67172e-06 0.000355349 -1.13704e-06
25 1 0.0192136 0.0865378 0.593597 7.20534e-06 -0.000418343 -2.1511e-07
26 1 0.519214 0.0865378 0.593597 -3.91418e-06 -0.000418539 -9.29585e-08
27 1 0.269214 0.045031 0.093597 -1.91199e-06 0.000339864 3.29923e-07
28 1 0.769214 0.045031 0.093597 -1.42358e-06 0.000338557 9.96935e-08
29 1 0.269214 0.211541 0.593597 -1.85156e-06 -0.000442365 1.27001e-06
30 1 0.769214 0.211541 0.593597 -1.39686e-06 -0.000440524 1.36167e-06
31 1 0.0192136 0.170031 0.093597 6.73786e-06 0.000413261 2.04999e-07
32 1 0.519214 0.170031 0.093597 -3.56886e-06 0.000413673 1.7965e-07
ITEM: TIMESTEP
10
ITEM: NUMBER OF ATOMS
32
ITEM: BOX BOUNDS xy xz yz pp pp pp
2.5279404850012243e-03 6.3920210595149980e+00 0.0000000000000000e+00
8.7299669330148048e-03 2.2074148033066979e+01 0.0000000000000000e+00
2.0487708536665148e-03 5.1804172291463315e+00 0.0000000000000000e+00
ITEM: ATOMS id type xs ys zs fx fy fz
1 1 0.0192143 0.33653 0.593597 -1.00335e-05 -4.16337e-06 -9.39363e-06
2 1 0.519214 0.33653 0.593598 7.27526e-06 -2.17313e-06 -9.96218e-06
3 1 0.269214 0.295048 0.0935968 2.10188e-06 -7.22345e-05 8.44678e-06
4 1 0.769214 0.295048 0.0935968 1.03696e-06 -6.78339e-05 8.62372e-06
5 1 0.269214 0.461533 0.593598 2.71643e-06 -0.000231495 -1.05433e-05
6 1 0.769214 0.461533 0.593597 1.63149e-07 -0.000236425 -9.70684e-06
7 1 0.0192143 0.420049 0.0935968 -9.72146e-06 -5.37748e-05 1.01839e-05
8 1 0.519214 0.420049 0.0935968 6.72289e-06 -5.40939e-05 1.01481e-05
9 1 0.0192143 0.58653 0.593597 -1.00624e-05 -1.97359e-05 -8.34308e-06
10 1 0.519214 0.58653 0.593597 6.72561e-06 -2.18538e-05 -9.07503e-06
11 1 0.269214 0.711527 0.593597 2.03701e-06 9.87156e-05 -6.35994e-06
12 1 0.769214 0.711527 0.593597 9.753e-07 9.70239e-05 -6.29184e-06
13 1 0.0192143 0.670046 0.0935968 -1.00687e-05 0.000130923 6.77445e-06
14 1 0.269214 0.545048 0.0935968 2.41166e-06 5.64882e-05 9.43911e-06
15 1 0.769214 0.545048 0.0935967 6.61381e-07 6.15169e-05 9.73004e-06
16 1 0.519214 0.670046 0.0935968 7.33298e-06 0.00013144 7.21466e-06
17 1 0.0192143 0.836528 0.593597 -9.65565e-06 -8.2558e-05 -4.33752e-06
18 1 0.519214 0.836528 0.593597 7.29781e-06 -8.24426e-05 -4.3431e-06
19 1 0.269214 0.961527 0.593597 2.33775e-06 -8.54766e-05 -3.18234e-06
20 1 0.769214 0.961527 0.593597 6.07602e-07 -9.3015e-05 -3.65703e-06
21 1 0.269214 0.795049 0.0935969 2.01059e-06 -0.000205413 4.55959e-06
22 1 0.769214 0.795049 0.0935969 2.36309e-07 -0.000203165 4.82208e-06
23 1 0.0192143 0.920043 0.0935969 -9.97076e-06 0.000141147 4.2062e-06
24 1 0.519214 0.920043 0.0935969 7.28279e-06 0.000141228 3.88504e-06
25 1 0.0192143 0.0865242 0.593597 -9.47937e-06 0.000122228 -1.89365e-06
26 1 0.519214 0.0865241 0.593597 6.03823e-06 0.00012232 -8.06509e-07
27 1 0.269214 0.0450421 0.093597 2.17263e-06 0.000149497 1.70204e-06
28 1 0.769214 0.0450421 0.0935969 7.56001e-07 0.000153248 2.00266e-06
29 1 0.269214 0.211527 0.593597 2.02782e-06 3.10528e-05 -4.52189e-06
30 1 0.769214 0.211527 0.593597 1.15402e-06 2.60891e-05 -5.71515e-06
31 1 0.0192143 0.170045 0.0935969 -9.96744e-06 2.72836e-05 3.45074e-06
32 1 0.519214 0.170045 0.093597 6.98218e-06 2.57566e-05 3.0745e-06
ITEM: TIMESTEP
40
ITEM: NUMBER OF ATOMS
32
ITEM: BOX BOUNDS xy xz yz pp pp pp
2.3402176666958421e-03 6.3922087823333040e+00 0.0000000000000000e+00
-1.8700970345103249e-02 2.2101578970345098e+01 0.0000000000000000e+00
8.6472273715375633e-03 5.1738187726284668e+00 0.0000000000000000e+00
ITEM: ATOMS id type xs ys zs fx fy fz
1 1 0.0192143 0.336531 0.593597 -9.60963e-06 0.00221542 -9.14757e-06
2 1 0.519214 0.336531 0.593597 6.79363e-06 0.00221699 -9.07307e-06
3 1 0.269214 0.295047 0.0935968 2.03435e-06 -0.00229055 7.57648e-06
4 1 0.769214 0.295047 0.0935968 6.8975e-07 -0.00228711 8.49726e-06
5 1 0.269214 0.461534 0.593597 2.2066e-06 0.00200167 -9.87192e-06
6 1 0.769214 0.461534 0.593597 6.37154e-07 0.00199661 -9.12591e-06
7 1 0.0192143 0.420048 0.0935968 -8.8093e-06 -0.00227211 9.26247e-06
8 1 0.519214 0.420048 0.0935968 5.86803e-06 -0.00227458 9.15437e-06
9 1 0.0192143 0.586531 0.593597 -9.6544e-06 0.00220173 -7.7766e-06
10 1 0.519214 0.586531 0.593597 6.83052e-06 0.00220153 -8.60027e-06
11 1 0.269214 0.711528 0.593597 2.04789e-06 0.00231547 -6.0064e-06
12 1 0.769214 0.711528 0.593597 7.27298e-07 0.00231042 -6.51727e-06
13 1 0.0192143 0.670045 0.0935969 -9.95891e-06 -0.00210026 6.13669e-06
14 1 0.269214 0.545047 0.0935968 1.96941e-06 -0.002169 8.86078e-06
15 1 0.769214 0.545047 0.0935968 1.02132e-06 -0.00216354 9.64412e-06
16 1 0.519214 0.670045 0.0935969 7.03238e-06 -0.00210049 6.69157e-06
17 1 0.0192143 0.836529 0.593597 -8.73897e-06 0.00214386 -3.89645e-06
18 1 0.519214 0.836529 0.593597 6.24089e-06 0.00214393 -3.83673e-06
19 1 0.269214 0.961528 0.593597 2.37929e-06 0.00214319 -3.29227e-06
20 1 0.769214 0.961528 0.593597 3.2877e-07 0.00213625 -3.65977e-06
21 1 0.269214 0.795048 0.0935969 2.16456e-06 -0.0024141 4.46152e-06
22 1 0.769214 0.795048 0.0935969 6.08631e-07 -0.00241145 5.04554e-06
23 1 0.0192143 0.920043 0.0935969 -9.2564e-06 -0.00208859 4.40543e-06
24 1 0.519214 0.920043 0.0935969 6.38922e-06 -0.0020879 3.37469e-06
25 1 0.0192143 0.0865253 0.593597 -8.56409e-06 0.002337 -1.76987e-06
26 1 0.519214 0.0865253 0.593597 5.87711e-06 0.00233771 -1.54629e-07
27 1 0.269214 0.0450412 0.093597 2.15571e-06 -0.00207883 1.30493e-06
28 1 0.769214 0.0450411 0.0935969 5.74401e-07 -0.00207437 1.72277e-06
29 1 0.269214 0.211528 0.593597 1.54539e-06 0.00225292 -4.27704e-06
30 1 0.769214 0.211528 0.593597 8.81484e-07 0.0022496 -5.22384e-06
31 1 0.0192143 0.170044 0.0935969 -9.52563e-06 -0.00219512 3.43815e-06
32 1 0.519214 0.170044 0.093597 7.09939e-06 -0.00219634 2.75247e-06
ITEM: TIMESTEP
41
ITEM: NUMBER OF ATOMS
32
ITEM: BOX BOUNDS xy xz yz pp pp pp
2.3402176666958421e-03 6.3922087823333040e+00 0.0000000000000000e+00
-1.8700970345103249e-02 2.2101578970345098e+01 0.0000000000000000e+00
8.6472273715375633e-03 5.1738187726284668e+00 0.0000000000000000e+00
ITEM: ATOMS id type xs ys zs fx fy fz
1 1 0.0192143 0.336531 0.593597 -9.60963e-06 0.00221542 -9.14757e-06
2 1 0.519214 0.336531 0.593597 6.79363e-06 0.00221699 -9.07307e-06
3 1 0.269214 0.295047 0.0935968 2.03435e-06 -0.00229055 7.57648e-06
4 1 0.769214 0.295047 0.0935968 6.8975e-07 -0.00228711 8.49726e-06
5 1 0.269214 0.461534 0.593597 2.2066e-06 0.00200167 -9.87192e-06
6 1 0.769214 0.461534 0.593597 6.37154e-07 0.00199661 -9.12591e-06
7 1 0.0192143 0.420048 0.0935968 -8.8093e-06 -0.00227211 9.26247e-06
8 1 0.519214 0.420048 0.0935968 5.86803e-06 -0.00227458 9.15437e-06
9 1 0.0192143 0.586531 0.593597 -9.6544e-06 0.00220173 -7.7766e-06
10 1 0.519214 0.586531 0.593597 6.83052e-06 0.00220153 -8.60027e-06
11 1 0.269214 0.711528 0.593597 2.04789e-06 0.00231547 -6.0064e-06
12 1 0.769214 0.711528 0.593597 7.27298e-07 0.00231042 -6.51727e-06
13 1 0.0192143 0.670045 0.0935969 -9.95891e-06 -0.00210026 6.13669e-06
14 1 0.269214 0.545047 0.0935968 1.96941e-06 -0.002169 8.86078e-06
15 1 0.769214 0.545047 0.0935968 1.02132e-06 -0.00216354 9.64412e-06
16 1 0.519214 0.670045 0.0935969 7.03238e-06 -0.00210049 6.69157e-06
17 1 0.0192143 0.836529 0.593597 -8.73897e-06 0.00214386 -3.89645e-06
18 1 0.519214 0.836529 0.593597 6.24089e-06 0.00214393 -3.83673e-06
19 1 0.269214 0.961528 0.593597 2.37929e-06 0.00214319 -3.29227e-06
20 1 0.769214 0.961528 0.593597 3.2877e-07 0.00213625 -3.65977e-06
21 1 0.269214 0.795048 0.0935969 2.16456e-06 -0.0024141 4.46152e-06
22 1 0.769214 0.795048 0.0935969 6.08631e-07 -0.00241145 5.04554e-06
23 1 0.0192143 0.920043 0.0935969 -9.2564e-06 -0.00208859 4.40543e-06
24 1 0.519214 0.920043 0.0935969 6.38922e-06 -0.0020879 3.37469e-06
25 1 0.0192143 0.0865253 0.593597 -8.56409e-06 0.002337 -1.76987e-06
26 1 0.519214 0.0865253 0.593597 5.87711e-06 0.00233771 -1.54629e-07
27 1 0.269214 0.0450412 0.093597 2.15571e-06 -0.00207883 1.30493e-06
28 1 0.769214 0.0450411 0.0935969 5.74401e-07 -0.00207437 1.72277e-06
29 1 0.269214 0.211528 0.593597 1.54539e-06 0.00225292 -4.27704e-06
30 1 0.769214 0.211528 0.593597 8.81484e-07 0.0022496 -5.22384e-06
31 1 0.0192143 0.170044 0.0935969 -9.52563e-06 -0.00219512 3.43815e-06
32 1 0.519214 0.170044 0.093597 7.09939e-06 -0.00219634 2.75247e-06
