ITEM: TIMESTEP
0
ITEM: NUMBER OF ATOMS
32
ITEM: BOX BOUNDS xy xz yz pp pp pp
-4.0532350540161133e-03 6.4008854031562805e+00 0.0000000000000000e+00
-9.1640949249267578e-03 6.2207946777343750e+00 0.0000000000000000e+00
-4.7960281372070312e-02 2.0773346722126007e+01 6.9119942188262939e-01
ITEM: ATOMS id type xs ys zs fx fy fz
1 1 0.999986 0.658702 0.0597509 0 0 0.252207
2 1 0.499986 0.658702 0.0597509 0 0 0.252207
3 1 0.249986 0.158703 0.0597519 0 0 0.25211
4 1 0.749986 0.158703 0.0597519 0 0 0.25211
5 1 0.999986 0.627517 0.309753 0 0 -7.82013e-05
6 1 0.249986 0.477459 0.184753 0 0 -0.00344658
7 1 0.749986 0.477459 0.184753 0 0 -0.00344658
8 1 0.499986 0.627517 0.309753 0 0 -7.82013e-05
9 1 0.999986 0.977457 0.184753 0 0 -0.00341988
10 1 0.249986 0.127517 0.309753 0 0 -0.000127792
11 1 0.499986 0.977457 0.184753 0 0 -0.00341988
12 1 0.749986 0.127517 0.309753 0 0 -0.000127792
13 1 0.999986 0.596306 0.559749 0 0 6.48499e-05
14 1 0.499986 0.596306 0.559749 0 0 6.48499e-05
15 1 0.249986 0.096304 0.55975 0 0 5.34058e-05
16 1 0.749986 0.096304 0.55975 0 0 5.34058e-05
17 1 0.249986 0.446261 0.434752 0 0 -6.48499e-05
18 1 0.749986 0.446261 0.434752 0 0 -6.48499e-05
19 1 0.999986 0.94626 0.434752 0 0 -4.19617e-05
20 1 0.499986 0.94626 0.434752 0 0 -4.19617e-05
21 1 0.999986 0.565099 0.809748 0 0 0.00342751
22 1 0.249986 0.415044 0.684748 0 0 9.91821e-05
23 1 0.499986 0.565099 0.809748 0 0 0.00342751
24 1 0.749986 0.415044 0.684748 0 0 9.91821e-05
25 1 0.999986 0.915044 0.684749 0 0 7.82013e-05
26 1 0.249986 0.0650988 0.809748 0 0 0.00344467
27 1 0.749986 0.0650988 0.809748 0 0 0.00344467
28 1 0.499986 0.915044 0.684749 0 0 7.82013e-05
29 1 0.249986 0.383851 0.934749 0 0 -0.25211
30 1 0.749986 0.383851 0.934749 0 0 -0.25211
31 1 0.999986 0.883851 0.93475 0 0 -0.252195
32 1 0.499986 0.883851 0.93475 0 0 -0.252195
ITEM: TIMESTEP
1
ITEM: NUMBER OF ATOMS
32
ITEM: BOX BOUNDS xy xz yz pp pp pp
-4.0532350540161133e-03 6.4008854031562805e+00 0.0000000000000000e+00
-9.1640949249267578e-03 6.2207946777343750e+00 0.0000000000000000e+00
-4.7960281372070312e-02 2.0773346722126007e+01 6.9119942188262939e-01
ITEM: ATOMS id type xs ys zs fx fy fz
1 1 0.999986 0.658387 0.0622746 0 0 -0.0135975
2 1 0.499986 0.658387 0.0622746 0 0 -0.0135975
3 1 0.249986 0.158388 0.0622746 0 0 -0.0135937
4 1 0.749986 0.158388 0.0622746 0 0 -0.0135937
5 1 0.999986 0.627517 0.309752 0 0 0.00331688
6 1 0.249986 0.477463 0.184719 0 0 0.0670013
7 1 0.749986 0.477463 0.184719 0 0 0.0670013
8 1 0.499986 0.627517 0.309752 0 0 0.00331688
9 1 0.999986 0.977461 0.184719 0 0 0.0670033
10 1 0.249986 0.127517 0.309752 0 0 0.00329971
11 1 0.499986 0.977461 0.184719 0 0 0.0670033
12 1 0.749986 0.127517 0.309752 0 0 0.00329971
13 1 0.999986 0.596306 0.55975 0 0 0.00031662
14 1 0.499986 0.596306 0.55975 0 0 0.00031662
15 1 0.249986 0.096304 0.55975 0 0 0.000307083
16 1 0.749986 0.096304 0.55975 0 0 0.000307083
17 1 0.249986 0.446261 0.434752 0 0 -0.000318527
18 1 0.749986 0.446261 0.434752 0 0 -0.000318527
19 1 0.999986 0.94626 0.434751 0 0 -0.000310898
20 1 0.499986 0.94626 0.434751 0 0 -0.000310898
21 1 0.999986 0.565094 0.809782 0 0 -0.0669975
22 1 0.249986 0.415044 0.684749 0 0 -0.00330925
23 1 0.499986 0.565094 0.809782 0 0 -0.0669975
24 1 0.749986 0.415044 0.684749 0 0 -0.00330925
25 1 0.999986 0.915044 0.68475 0 0 -0.00330925
26 1 0.249986 0.0650945 0.809782 0 0 -0.067009
27 1 0.749986 0.0650945 0.809782 0 0 -0.067009
28 1 0.499986 0.915044 0.68475 0 0 -0.00330925
29 1 0.249986 0.384166 0.932227 0 0 0.0135994
30 1 0.749986 0.384166 0.932227 0 0 0.0135994
31 1 0.999986 0.884166 0.932227 0 0 0.0136013
32 1 0.499986 0.884166 0.932227 0 0 0.0136013
ITEM: TIMESTEP
2
ITEM: NUMBER OF ATOMS
32
ITEM: BOX BOUNDS xy xz yz pp pp pp
-4.0532350540161133e-03 6.4008854031562805e+00 0.0000000000000000e+00
-9.1640949249267578e-03 6.2207946777343750e+00 0.0000000000000000e+00
-4.7960281372070312e-02 2.0773346722126007e+01 6.9119942188262939e-01
ITEM: ATOMS id type xs ys zs fx fy fz
1 1 0.999986 0.658336 0.0626869 0 0 -0.0122662
2 1 0.499986 0.658336 0.0626869 0 0 -0.0122662
3 1 0.249986 0.158336 0.0626868 0 0 -0.0122566
4 1 0.749986 0.158336 0.0626868 0 0 -0.0122566
5 1 0.999986 0.627508 0.309822 0 0 0.0349331
6 1 0.249986 0.477287 0.186126 0 0 0.00237274
7 1 0.749986 0.477287 0.186126 0 0 0.00237274
8 1 0.499986 0.627508 0.309822 0 0 0.0349331
9 1 0.999986 0.977285 0.186127 0 0 0.00235939
10 1 0.249986 0.127509 0.309822 0 0 0.0349388
11 1 0.499986 0.977285 0.186127 0 0 0.00235939
12 1 0.749986 0.127509 0.309822 0 0 0.0349388
13 1 0.999986 0.596305 0.559757 0 0 -0.00405693
14 1 0.499986 0.596305 0.559757 0 0 -0.00405693
15 1 0.249986 0.0963031 0.559757 0 0 -0.00405693
16 1 0.749986 0.0963031 0.559757 0 0 -0.00405693
17 1 0.249986 0.446262 0.434745 0 0 0.00406075
18 1 0.749986 0.446262 0.434745 0 0 0.00406075
19 1 0.999986 0.946261 0.434745 0 0 0.00405884
20 1 0.499986 0.946261 0.434745 0 0 0.00405884
21 1 0.999986 0.56527 0.808375 0 0 -0.00236511
22 1 0.249986 0.415053 0.68468 0 0 -0.0349407
23 1 0.499986 0.56527 0.808375 0 0 -0.00236511
24 1 0.749986 0.415053 0.68468 0 0 -0.0349407
25 1 0.999986 0.915053 0.68468 0 0 -0.0349483
26 1 0.249986 0.0652702 0.808375 0 0 -0.0023632
27 1 0.749986 0.0652702 0.808375 0 0 -0.0023632
28 1 0.499986 0.915053 0.68468 0 0 -0.0349483
29 1 0.249986 0.384217 0.931815 0 0 0.012249
30 1 0.749986 0.384217 0.931815 0 0 0.012249
31 1 0.999986 0.884218 0.931814 0 0 0.0122814
32 1 0.499986 0.884218 0.931814 0 0 0.0122814
ITEM: TIMESTEP
3
ITEM: NUMBER OF ATOMS
32
ITEM: BOX BOUNDS xy xz yz pp pp pp
-4.0532350540161133e-03 6.4008854031562805e+00 0.0000000000000000e+00
-9.1640949249267578e-03 6.2207946777343750e+00 0.0000000000000000e+00
-4.7960281372070312e-02 2.0773346722126007e+01 6.9119942188262939e-01
ITEM: ATOMS id type xs ys zs fx fy fz
1 1 0.999986 0.65836 0.0624972 0 0 0.0164871
2 1 0.499986 0.65836 0.0624972 0 0 0.0164871
3 1 0.249986 0.15836 0.0624973 0 0 0.0164814
4 1 0.749986 0.15836 0.0624973 0 0 0.0164814
5 1 0.999986 0.627406 0.310636 0 0 0.00305176
6 1 0.249986 0.477242 0.18649 0 0 -0.00209236
7 1 0.749986 0.477242 0.18649 0 0 -0.00209236
8 1 0.499986 0.627406 0.310636 0 0 0.00305176
9 1 0.999986 0.97724 0.18649 0 0 -0.00209045
10 1 0.249986 0.127407 0.310636 0 0 0.00306702
11 1 0.499986 0.97724 0.18649 0 0 -0.00209045
12 1 0.749986 0.127407 0.310636 0 0 0.00306702
13 1 0.999986 0.596316 0.559666 0 0 -0.0163097
14 1 0.499986 0.596316 0.559666 0 0 -0.0163097
15 1 0.249986 0.0963145 0.559666 0 0 -0.0163097
16 1 0.749986 0.0963145 0.559666 0 0 -0.0163097
17 1 0.249986 0.44625 0.434836 0 0 0.016304
18 1 0.749986 0.44625 0.434836 0 0 0.016304
19 1 0.999986 0.94625 0.434836 0 0 0.0162926
20 1 0.499986 0.94625 0.434836 0 0 0.0162926
21 1 0.999986 0.565315 0.808011 0 0 0.00207329
22 1 0.249986 0.415154 0.683865 0 0 -0.00303078
23 1 0.499986 0.565315 0.808011 0 0 0.00207329
24 1 0.749986 0.415154 0.683865 0 0 -0.00303078
25 1 0.999986 0.915154 0.683865 0 0 -0.00303459
26 1 0.249986 0.0653156 0.808011 0 0 0.00208855
27 1 0.749986 0.0653156 0.808011 0 0 0.00208855
28 1 0.499986 0.915154 0.683865 0 0 -0.00303459
29 1 0.249986 0.384193 0.932004 0 0 -0.0164738
30 1 0.749986 0.384193 0.932004 0 0 -0.0164738
31 1 0.999986 0.884194 0.932004 0 0 -0.0165043
32 1 0.499986 0.884194 0.932004 0 0 -0.0165043
ITEM: TIMESTEP
4
ITEM: NUMBER OF ATOMS
32
ITEM: BOX BOUNDS xy xz yz pp pp pp
-4.0532350540161133e-03 6.4008854031562805e+00 0.0000000000000000e+00
-9.1640949249267578e-03 6.2207946777343750e+00 0.0000000000000000e+00
-4.7960281372070312e-02 2.0773346722126007e+01 6.9119942188262939e-01
ITEM: ATOMS id type xs ys zs fx fy fz
1 1 0.999986 0.658334 0.0627009 0 0 0.000282288
2 1 0.499986 0.658334 0.0627009 0 0 0.000282288
3 1 0.249986 0.158335 0.0627009 0 0 0.000291824
4 1 0.749986 0.158335 0.0627009 0 0 0.000291824
5 1 0.999986 0.627371 0.310919 0 0 -0.00315857
6 1 0.249986 0.477233 0.186563 0 0 0.00694084
7 1 0.749986 0.477233 0.186563 0 0 0.00694084
8 1 0.499986 0.627371 0.310919 0 0 -0.00315857
9 1 0.999986 0.977231 0.186562 0 0 0.00695419
10 1 0.249986 0.127372 0.310918 0 0 -0.00316429
11 1 0.499986 0.977231 0.186562 0 0 0.00695419
12 1 0.749986 0.127372 0.310918 0 0 -0.00316429
13 1 0.999986 0.596351 0.559384 0 0 -0.00138474
14 1 0.499986 0.596351 0.559384 0 0 -0.00138474
15 1 0.249986 0.0963497 0.559384 0 0 -0.00138664
16 1 0.749986 0.0963497 0.559384 0 0 -0.00138664
17 1 0.249986 0.446215 0.435118 0 0 0.00138283
18 1 0.749986 0.446215 0.435118 0 0 0.00138283
19 1 0.999986 0.946214 0.435118 0 0 0.00138855
20 1 0.499986 0.946214 0.435118 0 0 0.00138855
21 1 0.999986 0.565324 0.807939 0 0 -0.0069313
22 1 0.249986 0.415189 0.683583 0 0 0.00314903
23 1 0.499986 0.565324 0.807939 0 0 -0.0069313
24 1 0.749986 0.415189 0.683583 0 0 0.00314903
25 1 0.999986 0.915189 0.683583 0 0 0.00315475
26 1 0.249986 0.0653246 0.807939 0 0 -0.00693893
27 1 0.749986 0.0653246 0.807939 0 0 -0.00693893
28 1 0.499986 0.915189 0.683583 0 0 0.00315475
29 1 0.249986 0.384219 0.9318 0 0 -0.000282288
30 1 0.749986 0.384219 0.9318 0 0 -0.000282288
31 1 0.999986 0.88422 0.931801 0 0 -0.000297546
32 1 0.499986 0.88422 0.931801 0 0 -0.000297546
ITEM: TIMESTEP
5
ITEM: NUMBER OF ATOMS
32
ITEM: BOX BOUNDS xy xz yz pp pp pp
-4.0532350540161133e-03 6.4008854031562805e+00 0.0000000000000000e+00
-9.1640949249267578e-03 6.2207946777343750e+00 0.0000000000000000e+00
-4.7960281372070312e-02 2.0773346722126007e+01 6.9119942188262939e-01
ITEM: ATOMS id type xs ys zs fx fy fz
1 1 0.999986 0.658331 0.0627252 0 0 0.00100136
2 1 0.499986 0.658331 0.0627252 0 0 0.00100136
3 1 0.249986 0.158331 0.0627253 0 0 0.00100899
4 1 0.749986 0.158331 0.0627253 0 0 0.00100899
5 1 0.999986 0.627374 0.310899 0 0 0.00175476
6 1 0.249986 0.477219 0.186673 0 0 0.00123978
7 1 0.749986 0.477219 0.186673 0 0 0.00123978
8 1 0.499986 0.627374 0.310899 0 0 0.00175476
9 1 0.999986 0.977217 0.186673 0 0 0.00123405
10 1 0.249986 0.127374 0.310899 0 0 0.00176239
11 1 0.499986 0.977217 0.186673 0 0 0.00123405
12 1 0.749986 0.127374 0.310899 0 0 0.00176239
13 1 0.999986 0.596357 0.559335 0 0 0.00262833
14 1 0.499986 0.596357 0.559335 0 0 0.00262833
15 1 0.249986 0.0963558 0.559335 0 0 0.00264931
16 1 0.749986 0.0963558 0.559335 0 0 0.00264931
17 1 0.249986 0.446209 0.435166 0 0 -0.00262833
18 1 0.749986 0.446209 0.435166 0 0 -0.00262833
19 1 0.999986 0.946208 0.435166 0 0 -0.00263214
20 1 0.499986 0.946208 0.435166 0 0 -0.00263214
21 1 0.999986 0.565338 0.807828 0 0 -0.00124168
22 1 0.249986 0.415187 0.683602 0 0 -0.00175667
23 1 0.499986 0.565338 0.807828 0 0 -0.00124168
24 1 0.749986 0.415187 0.683602 0 0 -0.00175667
25 1 0.999986 0.915187 0.683602 0 0 -0.00177383
26 1 0.249986 0.0653384 0.807828 0 0 -0.00123596
27 1 0.749986 0.0653384 0.807828 0 0 -0.00123596
28 1 0.499986 0.915187 0.683602 0 0 -0.00177383
29 1 0.249986 0.384222 0.931776 0 0 -0.00100517
30 1 0.749986 0.384222 0.931776 0 0 -0.00100517
31 1 0.999986 0.884223 0.931776 0 0 -0.00100517
32 1 0.499986 0.884223 0.931776 0 0 -0.00100517
ITEM: TIMESTEP
6
ITEM: NUMBER OF ATOMS
32
ITEM: BOX BOUNDS xy xz yz pp pp pp
-4.0532350540161133e-03 6.4008854031562805e+00 0.0000000000000000e+00
-9.1640949249267578e-03 6.2207946777343750e+00 0.0000000000000000e+00
-4.7960281372070312e-02 2.0773346722126007e+01 6.9119942188262939e-01
ITEM: ATOMS id type xs ys zs fx fy fz
1 1 0.999986 0.658328 0.0627483 0 0 0.000267029
2 1 0.499986 0.658328 0.0627483 0 0 0.000267029
3 1 0.249986 0.158329 0.0627486 0 0 0.000263214
4 1 0.749986 0.158329 0.0627486 0 0 0.000263214
5 1 0.999986 0.62737 0.310924 0 0 0.000875473
6 1 0.249986 0.477213 0.186722 0 0 -0.000164032
7 1 0.749986 0.477213 0.186722 0 0 -0.000164032
8 1 0.499986 0.62737 0.310924 0 0 0.000875473
9 1 0.999986 0.977211 0.186722 0 0 -0.000150681
10 1 0.249986 0.127371 0.310924 0 0 0.000869751
11 1 0.499986 0.977211 0.186722 0 0 -0.000150681
12 1 0.749986 0.127371 0.310924 0 0 0.000869751
13 1 0.999986 0.596353 0.559368 0 0 -0.000614166
14 1 0.499986 0.596353 0.559368 0 0 -0.000614166
15 1 0.249986 0.0963516 0.559369 0 0 -0.000629425
16 1 0.749986 0.0963516 0.559369 0 0 -0.000629425
17 1 0.249986 0.446213 0.435133 0 0 0.000610352
18 1 0.749986 0.446213 0.435133 0 0 0.000610352
19 1 0.999986 0.946213 0.435133 0 0 0.000619888
20 1 0.499986 0.946213 0.435133 0 0 0.000619888
21 1 0.999986 0.565344 0.80778 0 0 0.000162125
22 1 0.249986 0.41519 0.683577 0 0 -0.000869751
23 1 0.499986 0.565344 0.80778 0 0 0.000162125
24 1 0.749986 0.41519 0.683577 0 0 -0.000869751
25 1 0.999986 0.91519 0.683577 0 0 -0.0008564
26 1 0.249986 0.0653445 0.80778 0 0 0.000143051
27 1 0.749986 0.0653445 0.80778 0 0 0.000143051
28 1 0.499986 0.91519 0.683577 0 0 -0.0008564
29 1 0.249986 0.384225 0.931753 0 0 -0.000265121
30 1 0.749986 0.384225 0.931753 0 0 -0.000265121
31 1 0.999986 0.884225 0.931753 0 0 -0.000261307
32 1 0.499986 0.884225 0.931753 0 0 -0.000261307
ITEM: TIMESTEP
7
ITEM: NUMBER OF ATOMS
32
ITEM: BOX BOUNDS xy xz yz pp pp pp
-4.0532350540161133e-03 6.4008854031562805e+00 0.0000000000000000e+00
-9.1640949249267578e-03 6.2207946777343750e+00 0.0000000000000000e+00
-4.7960281372070312e-02 2.0773346722126007e+01 6.9119942188262939e-01
ITEM: ATOMS id type xs ys zs fx fy fz
1 1 0.999986 0.658327 0.0627576 0 0 -0.000452042
2 1 0.499986 0.658327 0.0627576 0 0 -0.000452042
3 1 0.249986 0.158327 0.0627579 0 0 -0.000448227
4 1 0.749986 0.158327 0.0627579 0 0 -0.000448227
5 1 0.999986 0.627368 0.310948 0 0 -4.95911e-05
6 1 0.249986 0.477213 0.186725 0 0 0.000528336
7 1 0.749986 0.477213 0.186725 0 0 0.000528336
8 1 0.499986 0.627368 0.310948 0 0 -4.95911e-05
9 1 0.999986 0.977211 0.186725 0 0 0.000518799
10 1 0.249986 0.127368 0.310948 0 0 -4.00543e-05
11 1 0.499986 0.977211 0.186725 0 0 0.000518799
12 1 0.749986 0.127368 0.310948 0 0 -4.00543e-05
13 1 0.999986 0.596354 0.559359 0 0 -0.000406265
14 1 0.499986 0.596354 0.559359 0 0 -0.000406265
15 1 0.249986 0.0963528 0.559359 0 0 -0.000400543
16 1 0.749986 0.0963528 0.559359 0 0 -0.000400543
17 1 0.249986 0.446212 0.435143 0 0 0.000406265
18 1 0.749986 0.446212 0.435143 0 0 0.000406265
19 1 0.999986 0.946211 0.435143 0 0 0.000406265
20 1 0.499986 0.946211 0.435143 0 0 0.000406265
21 1 0.999986 0.565345 0.807777 0 0 -0.000528336
22 1 0.249986 0.415193 0.683553 0 0 4.19617e-05
23 1 0.499986 0.565345 0.807777 0 0 -0.000528336
24 1 0.749986 0.415193 0.683553 0 0 4.19617e-05
25 1 0.999986 0.915193 0.683553 0 0 3.24249e-05
26 1 0.249986 0.0653449 0.807776 0 0 -0.000509262
27 1 0.749986 0.0653449 0.807776 0 0 -0.000509262
28 1 0.499986 0.915193 0.683553 0 0 3.24249e-05
29 1 0.249986 0.384226 0.931744 0 0 0.000455856
30 1 0.749986 0.384226 0.931744 0 0 0.000455856
31 1 0.999986 0.884227 0.931744 0 0 0.000444412
32 1 0.499986 0.884227 0.931744 0 0 0.000444412
ITEM: TIMESTEP
8
ITEM: NUMBER OF ATOMS
32
ITEM: BOX BOUNDS xy xz yz pp pp pp
-4.0532350540161133e-03 6.4008854031562805e+00 0.0000000000000000e+00
-9.1640949249267578e-03 6.2207946777343750e+00 0.0000000000000000e+00
-4.7960281372070312e-02 2.0773346722126007e+01 6.9119942188262939e-01
ITEM: ATOMS id type xs ys zs fx fy fz
1 1 0.999986 0.658328 0.0627541 0 0 9.72748e-05
2 1 0.499986 0.658328 0.0627541 0 0 9.72748e-05
3 1 0.249986 0.158328 0.0627544 0 0 9.15527e-05
4 1 0.749986 0.158328 0.0627544 0 0 9.15527e-05
5 1 0.999986 0.627367 0.310955 0 0 3.8147e-06
6 1 0.249986 0.477211 0.186733 0 0 0.000179291
7 1 0.749986 0.477211 0.186733 0 0 0.000179291
8 1 0.499986 0.627367 0.310955 0 0 3.8147e-06
9 1 0.999986 0.97721 0.186733 0 0 0.000167847
10 1 0.249986 0.127367 0.310955 0 0 5.72205e-06
11 1 0.499986 0.97721 0.186733 0 0 0.000167847
12 1 0.749986 0.127367 0.310955 0 0 5.72205e-06
13 1 0.999986 0.596355 0.55935 0 0 0.000118256
14 1 0.499986 0.596355 0.55935 0 0 0.000118256
15 1 0.249986 0.096354 0.55935 0 0 0.000123978
16 1 0.749986 0.096354 0.55935 0 0 0.000123978
17 1 0.249986 0.446211 0.435152 0 0 -0.000112534
18 1 0.749986 0.446211 0.435152 0 0 -0.000112534
19 1 0.999986 0.94621 0.435152 0 0 -0.000127792
20 1 0.499986 0.94621 0.435152 0 0 -0.000127792
21 1 0.999986 0.565346 0.807768 0 0 -0.000175476
22 1 0.249986 0.415194 0.683547 0 0 -5.72205e-06
23 1 0.499986 0.565346 0.807768 0 0 -0.000175476
24 1 0.749986 0.415194 0.683547 0 0 -5.72205e-06
25 1 0.999986 0.915194 0.683547 0 0 -1.14441e-05
26 1 0.249986 0.0653459 0.807768 0 0 -0.000164032
27 1 0.749986 0.0653459 0.807768 0 0 -0.000164032
28 1 0.499986 0.915194 0.683547 0 0 -1.14441e-05
29 1 0.249986 0.384225 0.931747 0 0 -9.53674e-05
30 1 0.749986 0.384225 0.931747 0 0 -9.53674e-05
31 1 0.999986 0.884226 0.931747 0 0 -9.53674e-05
32 1 0.499986 0.884226 0.931747 0 0 -9.53674e-05
ITEM: TIMESTEP
9
ITEM: NUMBER OF ATOMS
32
ITEM: BOX BOUNDS xy xz yz pp pp pp
-4.0532350540161133e-03 6.4008854031562805e+00 0.0000000000000000e+00
-9.1640949249267578e-03 6.2207946777343750e+00 0.0000000000000000e+00
-4.7960281372070312e-02 2.0773346722126007e+01 6.9119942188262939e-01
ITEM: ATOMS id type xs ys zs fx fy fz
1 1 0.999986 0.658328 0.0627541 0 0 9.72748e-05
2 1 0.499986 0.658328 0.0627541 0 0 9.72748e-05
3 1 0.249986 0.158328 0.0627544 0 0 9.15527e-05
4 1 0.749986 0.158328 0.0627544 0 0 9.15527e-05
5 1 0.999986 0.627367 0.310955 0 0 3.8147e-06
6 1 0.249986 0.477211 0.186733 0 0 0.000179291
7 1 0.749986 0.477211 0.186733 0 0 0.000179291
8 1 0.499986 0.627367 0.310955 0 0 3.8147e-06
9 1 0.999986 0.97721 0.186733 0 0 0.000167847
10 1 0.249986 0.127367 0.310955 0 0 5.72205e-06
11 1 0.499986 0.97721 0.186733 0 0 0.000167847
12 1 0.749986 0.127367 0.310955 0 0 5.72205e-06
13 1 0.999986 0.596355 0.55935 0 0 0.000118256
14 1 0.499986 0.596355 0.55935 0 0 0.000118256
15 1 0.249986 0.096354 0.55935 0 0 0.000123978
16 1 0.749986 0.096354 0.55935 0 0 0.000123978
17 1 0.249986 0.446211 0.435152 0 0 -0.000112534
18 1 0.749986 0.446211 0.435152 0 0 -0.000112534
19 1 0.999986 0.94621 0.435152 0 0 -0.000127792
20 1 0.499986 0.94621 0.435152 0 0 -0.000127792
21 1 0.999986 0.565346 0.807768 0 0 -0.000175476
22 1 0.249986 0.415194 0.683547 0 0 -5.72205e-06
23 1 0.499986 0.565346 0.807768 0 0 -0.000175476
24 1 0.749986 0.415194 0.683547 0 0 -5.72205e-06
25 1 0.999986 0.915194 0.683547 0 0 -1.14441e-05
26 1 0.249986 0.0653459 0.807768 0 0 -0.000164032
27 1 0.749986 0.0653459 0.807768 0 0 -0.000164032
28 1 0.499986 0.915194 0.683547 0 0 -1.14441e-05
29 1 0.249986 0.384225 0.931747 0 0 -9.53674e-05
30 1 0.749986 0.384225 0.931747 0 0 -9.53674e-05
31 1 0.999986 0.884226 0.931747 0 0 -9.53674e-05
32 1 0.499986 0.884226 0.931747 0 0 -9.53674e-05
