ITEM: TIMESTEP
0
ITEM: NUMBER OF ATOMS
48
ITEM: BOX BOUNDS xy xz yz pp pp pp
-6.0893837809562683e+00 8.6109705567359924e+00 2.5110912919044495e+00
-1.0506033897399902e-02 9.6185076832771301e+00 -6.0748269557952881e+00
-2.6944518089294434e-02 1.9544072151184082e+01 3.6519104242324829e-01
ITEM: ATOMS id type xs ys zs fx fy fz
1 1 0.953932 0.165578 0.0319985 0 0 1.90633
2 1 0.511706 0.0752984 0.0528317 0 0 0.232623
3 1 0.687154 0.123911 0.656998 0 0 -0.00182569
4 1 0.938217 0.950298 0.927832 0 0 -1.90633
5 1 0.591573 0.158632 0.802832 0 0 0.00660002
6 1 0.380443 0.040578 0.906998 0 0 -0.232624
7 1 0.0337985 0.248911 0.781998 0 0 0.0157288
8 1 0.993865 0.207245 0.406998 0 0 0.000194788
9 1 0.244928 0.0336318 0.677832 0 0 -0.00523078
10 1 0.898284 0.241965 0.552832 0 0 -0.00019443
11 1 0.858351 0.200298 0.177832 0 0 -0.0157288
12 1 0.647221 0.0822446 0.281998 0 0 0.0052309
13 1 0.300577 0.290578 0.156998 0 0 -0.00660002
14 1 0.551639 0.116965 0.427832 0 0 0.000216365
15 1 0.953932 0.498911 0.0319984 0 0 1.90633
16 1 0.511706 0.408632 0.0528317 0 0 0.232623
17 1 0.687154 0.457245 0.656998 0 0 -0.00182593
18 1 0.938217 0.283632 0.927832 0 0 -1.90633
19 1 0.591573 0.491965 0.802832 0 0 0.00660002
20 1 0.380443 0.373911 0.906998 0 0 -0.232623
21 1 0.0337985 0.582245 0.781998 0 0 0.0157282
22 1 0.34051 0.332245 0.531998 0 0 -0.000215411
23 1 0.993865 0.540578 0.406998 0 0 0.000194788
24 1 0.244928 0.366965 0.677832 0 0 -0.00523078
25 1 0.898284 0.575298 0.552832 0 0 -0.000194907
26 1 0.204995 0.325298 0.302832 0 0 0.00182545
27 1 0.858351 0.533632 0.177832 0 0 -0.0157294
28 1 0.647221 0.415578 0.281998 0 0 0.00523078
29 1 0.300577 0.623911 0.156998 0 0 -0.00659978
30 1 0.551639 0.450298 0.427832 0 0 0.000215769
31 1 0.953932 0.832245 0.0319985 0 0 1.90633
32 1 0.511706 0.741965 0.0528317 0 0 0.232623
33 1 0.687154 0.790578 0.656998 0 0 -0.00182569
34 1 0.938217 0.616965 0.927832 0 0 -1.90633
35 1 0.591573 0.825298 0.802832 0 0 0.00660038
36 1 0.380443 0.707245 0.906998 0 0 -0.232623
37 1 0.0337985 0.915578 0.781998 0 0 0.0157286
38 1 0.34051 0.665578 0.531998 0 0 -0.000216603
39 1 0.993865 0.873911 0.406998 0 0 0.000195026
40 1 0.244928 0.700298 0.677832 0 0 -0.00523007
41 1 0.898284 0.908632 0.552832 0 0 -0.000195742
42 1 0.204995 0.658632 0.302832 0 0 0.00182593
43 1 0.858351 0.866965 0.177832 0 0 -0.0157291
44 1 0.647221 0.748911 0.281998 0 0 0.00523078
45 1 0.300577 0.957245 0.156998 0 0 -0.00660026
46 1 0.55164 0.783632 0.427832 0 0 0.000216365
47 1 0.34051 0.998911 0.531998 0 0 -0.000216126
48 1 0.204995 0.991965 0.302832 0 0 0.00182581
ITEM: TIMESTEP
1
ITEM: NUMBER OF ATOMS
48
ITEM: BOX BOUNDS xy xz yz pp pp pp
-6.0893837809562683e+00 8.6109705567359924e+00 2.5110912919044495e+00
-1.0506033897399902e-02 9.6185076832771301e+00 -6.0748269557952881e+00
-2.6944518089294434e-02 1.9544072151184082e+01 3.6519104242324829e-01
ITEM: ATOMS id type xs ys zs fx fy fz
1 1 0.959092 0.165377 0.037108 0 0 0.881669
2 1 0.512336 0.0752738 0.0534552 0 0 0.16896
3 1 0.687149 0.123912 0.656994 0 0 -0.00710285
4 1 0.933058 0.9505 0.922722 0 0 -0.881669
5 1 0.59159 0.158631 0.802849 0 0 -0.0836523
6 1 0.379813 0.0406026 0.906375 0 0 -0.16896
7 1 0.0338411 0.24891 0.782041 0 0 -0.0564587
8 1 0.993866 0.207245 0.406999 0 0 -0.000940561
9 1 0.244914 0.0336323 0.677818 0 0 -0.0102317
10 1 0.898283 0.241965 0.552831 0 0 0.000940919
11 1 0.858308 0.2003 0.17779 0 0 0.056459
12 1 0.647235 0.0822441 0.282012 0 0 0.0102315
13 1 0.300559 0.290579 0.156981 0 0 0.0836518
14 1 0.55164 0.116965 0.427832 0 0 -0.000841379
15 1 0.959092 0.49871 0.037108 0 0 0.88167
16 1 0.512336 0.408607 0.0534552 0 0 0.16896
17 1 0.687149 0.457245 0.656994 0 0 -0.00710309
18 1 0.933058 0.283833 0.922722 0 0 -0.881669
19 1 0.59159 0.491964 0.802849 0 0 -0.083652
20 1 0.379813 0.373936 0.906375 0 0 -0.16896
21 1 0.0338411 0.582243 0.782041 0 0 -0.0564593
22 1 0.340509 0.332245 0.531998 0 0 0.000841498
23 1 0.993866 0.540578 0.406999 0 0 -0.000940681
24 1 0.244914 0.366966 0.677818 0 0 -0.0102313
25 1 0.898283 0.575298 0.552831 0 0 0.000940681
26 1 0.205 0.325298 0.302837 0 0 0.00710285
27 1 0.858308 0.533633 0.17779 0 0 0.0564587
28 1 0.647235 0.415577 0.282012 0 0 0.0102315
29 1 0.300559 0.623912 0.156981 0 0 0.0836515
30 1 0.55164 0.450298 0.427832 0 0 -0.000841856
31 1 0.959092 0.832043 0.037108 0 0 0.881669
32 1 0.512336 0.74194 0.0534552 0 0 0.16896
33 1 0.687149 0.790578 0.656994 0 0 -0.00710297
34 1 0.933058 0.617167 0.922722 0 0 -0.881669
35 1 0.59159 0.825298 0.802849 0 0 -0.0836517
36 1 0.379813 0.707269 0.906375 0 0 -0.16896
37 1 0.0338411 0.915576 0.782041 0 0 -0.0564597
38 1 0.340509 0.665578 0.531998 0 0 0.000841856
39 1 0.993866 0.873911 0.406999 0 0 -0.000940442
40 1 0.244914 0.700299 0.677818 0 0 -0.0102311
41 1 0.898283 0.908632 0.552831 0 0 0.000939846
42 1 0.205 0.658632 0.302837 0 0 0.00710309
43 1 0.858308 0.866967 0.17779 0 0 0.0564588
44 1 0.647235 0.748911 0.282012 0 0 0.0102323
45 1 0.300559 0.957245 0.156981 0 0 0.083652
46 1 0.55164 0.783632 0.427832 0 0 -0.000841379
47 1 0.340509 0.998911 0.531998 0 0 0.000841379
48 1 0.205 0.991965 0.302837 0 0 0.00710332
ITEM: TIMESTEP
2
ITEM: NUMBER OF ATOMS
48
ITEM: BOX BOUNDS xy xz yz pp pp pp
-6.0893837809562683e+00 8.6109705567359924e+00 2.5110912919044495e+00
-1.0506033897399902e-02 9.6185076832771301e+00 -6.0748269557952881e+00
-2.6944518089294434e-02 1.9544072151184082e+01 3.6519104242324829e-01
ITEM: ATOMS id type xs ys zs fx fy fz
1 1 0.964251 0.165175 0.0422176 0 0 0.114418
2 1 0.513325 0.0752352 0.0544344 0 0 0.0798826
3 1 0.687108 0.123913 0.656952 0 0 -0.0162984
4 1 0.927898 0.950701 0.917613 0 0 -0.114417
5 1 0.591101 0.15865 0.802365 0 0 -0.168326
6 1 0.378825 0.0406412 0.905396 0 0 -0.0798826
7 1 0.0335107 0.248923 0.781713 0 0 -0.135283
8 1 0.99386 0.207245 0.406994 0 0 -7.86781e-05
9 1 0.244854 0.0336346 0.677758 0 0 -0.020947
10 1 0.898289 0.241965 0.552837 0 0 7.85589e-05
11 1 0.858639 0.200287 0.178117 0 0 0.135283
12 1 0.647295 0.0822417 0.282072 0 0 0.0209467
13 1 0.301048 0.29056 0.157466 0 0 0.168326
14 1 0.551635 0.116965 0.427827 0 0 0.000398755
15 1 0.964251 0.498508 0.0422176 0 0 0.114418
16 1 0.513325 0.408569 0.0544344 0 0 0.0798825
17 1 0.687108 0.457246 0.656952 0 0 -0.0162984
18 1 0.927898 0.284035 0.917613 0 0 -0.114417
19 1 0.591101 0.491984 0.802365 0 0 -0.168326
20 1 0.378825 0.373974 0.905396 0 0 -0.0798825
21 1 0.0335107 0.582256 0.781713 0 0 -0.135283
22 1 0.340514 0.332244 0.532003 0 0 -0.000398755
23 1 0.99386 0.540578 0.406994 0 0 -7.9155e-05
24 1 0.244854 0.366968 0.677758 0 0 -0.0209467
25 1 0.898289 0.575298 0.552837 0 0 7.86781e-05
26 1 0.205042 0.325297 0.302878 0 0 0.0162982
27 1 0.858639 0.53362 0.178117 0 0 0.135283
28 1 0.647295 0.415575 0.282072 0 0 0.0209466
29 1 0.301048 0.623893 0.157466 0 0 0.168326
30 1 0.551635 0.450299 0.427827 0 0 0.000399232
31 1 0.964251 0.831842 0.0422176 0 0 0.114418
32 1 0.513325 0.741902 0.0544344 0 0 0.0798825
33 1 0.687108 0.79058 0.656952 0 0 -0.0162983
34 1 0.927898 0.617368 0.917613 0 0 -0.114418
35 1 0.591101 0.825317 0.802365 0 0 -0.168326
36 1 0.378825 0.707308 0.905396 0 0 -0.0798826
37 1 0.0335107 0.915589 0.781713 0 0 -0.135283
38 1 0.340514 0.665578 0.532003 0 0 -0.000398993
39 1 0.99386 0.873911 0.406994 0 0 -7.76052e-05
40 1 0.244854 0.700301 0.677758 0 0 -0.0209467
41 1 0.898289 0.908632 0.552837 0 0 7.84397e-05
42 1 0.205042 0.65863 0.302878 0 0 0.0162981
43 1 0.858639 0.866954 0.178117 0 0 0.135283
44 1 0.647295 0.748908 0.282072 0 0 0.020947
45 1 0.301048 0.957226 0.157466 0 0 0.168326
46 1 0.551635 0.783632 0.427827 0 0 0.000399351
47 1 0.340514 0.998911 0.532003 0 0 -0.000399232
48 1 0.205042 0.991963 0.302878 0 0 0.0162983
ITEM: TIMESTEP
3
ITEM: NUMBER OF ATOMS
48
ITEM: BOX BOUNDS xy xz yz pp pp pp
-6.0893837809562683e+00 8.6109705567359924e+00 2.5110912919044495e+00
-1.0506033897399902e-02 9.6185076832771301e+00 -6.0748269557952881e+00
-2.6944518089294434e-02 1.9544072151184082e+01 3.6519104242324829e-01
ITEM: ATOMS id type xs ys zs fx fy fz
1 1 0.967089 0.165064 0.045028 0 0 -0.0874438
2 1 0.515306 0.0751579 0.0563965 0 0 -0.00632167
3 1 0.686703 0.123929 0.656552 0 0 -0.0905099
4 1 0.925061 0.950812 0.914802 0 0 0.0874435
5 1 0.586926 0.158813 0.79823 0 0 -0.0113937
6 1 0.376844 0.0407185 0.903434 0 0 0.00632131
7 1 0.0301556 0.249054 0.778391 0 0 -0.0328201
8 1 0.993859 0.207245 0.406992 0 0 0.0143516
9 1 0.244335 0.0336549 0.677244 0 0 -0.0892117
10 1 0.898291 0.241965 0.552839 0 0 -0.0143516
11 1 0.861994 0.200156 0.18144 0 0 0.03282
12 1 0.647815 0.0822214 0.282586 0 0 0.0892121
13 1 0.305223 0.290397 0.1616 0 0 0.011394
14 1 0.551645 0.116965 0.427837 0 0 0.0174524
15 1 0.967089 0.498398 0.045028 0 0 -0.0874448
16 1 0.515306 0.408491 0.0563965 0 0 -0.00632155
17 1 0.686703 0.457262 0.656552 0 0 -0.0905101
18 1 0.925061 0.284145 0.914802 0 0 0.0874438
19 1 0.586926 0.492146 0.79823 0 0 -0.0113944
20 1 0.376844 0.374052 0.903434 0 0 0.00632155
21 1 0.0301556 0.582387 0.778391 0 0 -0.0328202
22 1 0.340504 0.332245 0.531993 0 0 -0.0174518
23 1 0.993858 0.540578 0.406992 0 0 0.0143517
24 1 0.244335 0.366988 0.677244 0 0 -0.0892117
25 1 0.898291 0.575298 0.552839 0 0 -0.0143515
26 1 0.205446 0.325281 0.303278 0 0 0.0905102
27 1 0.861994 0.533489 0.18144 0 0 0.0328205
28 1 0.647815 0.415555 0.282586 0 0 0.0892115
29 1 0.305223 0.62373 0.1616 0 0 0.0113939
30 1 0.551645 0.450298 0.427837 0 0 0.0174514
31 1 0.967089 0.831731 0.045028 0 0 -0.0874437
32 1 0.515306 0.741825 0.0563965 0 0 -0.00632167
33 1 0.686703 0.790596 0.656552 0 0 -0.0905102
34 1 0.925061 0.617479 0.914802 0 0 0.0874447
35 1 0.586926 0.82548 0.79823 0 0 -0.0113939
36 1 0.376844 0.707385 0.903434 0 0 0.00632167
37 1 0.0301556 0.91572 0.778391 0 0 -0.0328205
38 1 0.340504 0.665578 0.531993 0 0 -0.0174516
39 1 0.993859 0.873912 0.406992 0 0 0.0143509
40 1 0.244335 0.700322 0.677244 0 0 -0.0892117
41 1 0.898291 0.908631 0.552839 0 0 -0.0143515
42 1 0.205446 0.658614 0.303278 0 0 0.0905106
43 1 0.861994 0.866823 0.18144 0 0 0.0328201
44 1 0.647815 0.748888 0.282586 0 0 0.0892117
45 1 0.305223 0.957063 0.1616 0 0 0.0113945
46 1 0.551645 0.783631 0.427837 0 0 0.0174516
47 1 0.340504 0.998912 0.531993 0 0 -0.0174515
48 1 0.205446 0.991947 0.303278 0 0 0.0905097
ITEM: TIMESTEP
4
ITEM: NUMBER OF ATOMS
48
ITEM: BOX BOUNDS xy xz yz pp pp pp
-6.0893837809562683e+00 8.6109705567359924e+00 2.5110912919044495e+00
-1.0506033897399902e-02 9.6185076832771301e+00 -6.0748269557952881e+00
-2.6944518089294434e-02 1.9544072151184082e+01 3.6519104242324829e-01
ITEM: ATOMS id type xs ys zs fx fy fz
1 1 0.966176 0.1651 0.0441238 0 0 0.078071
2 1 0.515849 0.0751367 0.0569349 0 0 -0.00255501
3 1 0.684611 0.124011 0.65448 0 0 -0.0378692
4 1 0.925974 0.950776 0.915706 0 0 -0.0780709
5 1 0.585247 0.158879 0.796567 0 0 0.0399257
6 1 0.3763 0.0407397 0.902895 0 0 0.00255513
7 1 0.0282956 0.249126 0.776548 0 0 0.0260966
8 1 0.994168 0.207233 0.407298 0 0 0.0371556
9 1 0.242231 0.0337371 0.675161 0 0 -0.0307997
10 1 0.897982 0.241977 0.552532 0 0 -0.0371557
11 1 0.863854 0.200084 0.183282 0 0 -0.0260972
12 1 0.649918 0.0821393 0.28467 0 0 0.0307999
13 1 0.306902 0.290331 0.163263 0 0 -0.0399257
14 1 0.552025 0.11695 0.428214 0 0 0.0421178
15 1 0.966176 0.498433 0.0441238 0 0 0.078072
16 1 0.515849 0.40847 0.0569349 0 0 -0.00255477
17 1 0.684611 0.457344 0.65448 0 0 -0.0378692
18 1 0.925974 0.28411 0.915706 0 0 -0.0780709
19 1 0.585247 0.492212 0.796567 0 0 0.0399257
20 1 0.3763 0.374073 0.902895 0 0 0.00255466
21 1 0.0282956 0.58246 0.776548 0 0 0.0260971
22 1 0.340124 0.33226 0.531617 0 0 -0.042118
23 1 0.994168 0.540566 0.407298 0 0 0.0371563
24 1 0.242231 0.36707 0.675161 0 0 -0.0307995
25 1 0.897982 0.57531 0.552532 0 0 -0.037156
26 1 0.207538 0.325199 0.30535 0 0 0.0378696
27 1 0.863854 0.533417 0.183282 0 0 -0.0260973
28 1 0.649918 0.415473 0.28467 0 0 0.0308
29 1 0.306902 0.623664 0.163263 0 0 -0.0399255
30 1 0.552025 0.450283 0.428214 0 0 0.0421178
31 1 0.966176 0.831767 0.0441238 0 0 0.0780704
32 1 0.515849 0.741803 0.0569349 0 0 -0.00255477
33 1 0.684611 0.790677 0.65448 0 0 -0.0378695
34 1 0.925974 0.617443 0.915706 0 0 -0.0780718
35 1 0.585247 0.825545 0.796567 0 0 0.0399258
36 1 0.3763 0.707406 0.902895 0 0 0.00255454
37 1 0.0282956 0.915793 0.776548 0 0 0.0260967
38 1 0.340124 0.665593 0.531617 0 0 -0.0421178
39 1 0.994168 0.873899 0.407298 0 0 0.0371553
40 1 0.242231 0.700404 0.675161 0 0 -0.0307995
41 1 0.897982 0.908644 0.552532 0 0 -0.0371556
42 1 0.207538 0.658532 0.30535 0 0 0.0378692
43 1 0.863854 0.86675 0.183282 0 0 -0.0260971
44 1 0.649918 0.748806 0.28467 0 0 0.0307997
45 1 0.306902 0.956998 0.163263 0 0 -0.0399252
46 1 0.552025 0.783617 0.428214 0 0 0.0421177
47 1 0.340124 0.998926 0.531617 0 0 -0.042118
48 1 0.207538 0.991866 0.30535 0 0 0.0378696
ITEM: TIMESTEP
5
ITEM: NUMBER OF ATOMS
48
ITEM: BOX BOUNDS xy xz yz pp pp pp
-6.0893837809562683e+00 8.6109705567359924e+00 2.5110912919044495e+00
-1.0506033897399902e-02 9.6185076832771301e+00 -6.0748269557952881e+00
-2.6944518089294434e-02 1.9544072151184082e+01 3.6519104242324829e-01
ITEM: ATOMS id type xs ys zs fx fy fz
1 1 0.966969 0.165069 0.0449097 0 0 -0.00316477
2 1 0.516023 0.0751299 0.0571074 0 0 -0.00825846
3 1 0.683239 0.124064 0.653121 0 0 0.00966632
4 1 0.92518 0.950807 0.91492 0 0 0.00316417
5 1 0.585181 0.158881 0.796502 0 0 -0.00743008
6 1 0.376126 0.0407465 0.902723 0 0 0.0082581
7 1 0.0279552 0.249139 0.776211 0 0 -0.00286901
8 1 0.994835 0.207207 0.407959 0 0 0.015501
9 1 0.240958 0.0337867 0.6739 0 0 0.0140684
10 1 0.897314 0.242003 0.551872 0 0 -0.015501
11 1 0.864194 0.20007 0.183619 0 0 0.00286949
12 1 0.651191 0.0820896 0.28593 0 0 -0.014069
13 1 0.306968 0.290328 0.163328 0 0 0.00743008
14 1 0.552793 0.11692 0.428974 0 0 0.0196083
15 1 0.966969 0.498402 0.0449097 0 0 -0.00316393
16 1 0.516023 0.408463 0.0571074 0 0 -0.0082587
17 1 0.683239 0.457398 0.653121 0 0 0.00966656
18 1 0.92518 0.284141 0.91492 0 0 0.00316465
19 1 0.585181 0.492215 0.796502 0 0 -0.00742972
20 1 0.376126 0.37408 0.902723 0 0 0.00825846
21 1 0.0279553 0.582473 0.776211 0 0 -0.00286877
22 1 0.339356 0.33229 0.530856 0 0 -0.0196084
23 1 0.994835 0.54054 0.407959 0 0 0.015501
24 1 0.240958 0.36712 0.6739 0 0 0.0140682
25 1 0.897314 0.575336 0.551872 0 0 -0.0155015
26 1 0.20891 0.325146 0.306709 0 0 -0.00966692
27 1 0.864194 0.533404 0.183619 0 0 0.00286949
28 1 0.651191 0.415423 0.28593 0 0 -0.0140679
29 1 0.306968 0.623662 0.163328 0 0 0.00743008
30 1 0.552793 0.450253 0.428974 0 0 0.0196086
31 1 0.966969 0.831736 0.0449097 0 0 -0.00316417
32 1 0.516023 0.741797 0.0571074 0 0 -0.00825846
33 1 0.683239 0.790731 0.653121 0 0 0.00966656
34 1 0.92518 0.617474 0.91492 0 0 0.00316393
35 1 0.585181 0.825548 0.796502 0 0 -0.00742984
36 1 0.376126 0.707413 0.902723 0 0 0.00825822
37 1 0.0279552 0.915806 0.776211 0 0 -0.00286853
38 1 0.339356 0.665623 0.530856 0 0 -0.0196083
39 1 0.994835 0.873873 0.407959 0 0 0.0155008
40 1 0.240958 0.700453 0.6739 0 0 0.0140681
41 1 0.897314 0.90867 0.551872 0 0 -0.0155011
42 1 0.20891 0.658479 0.306709 0 0 -0.0096668
43 1 0.864194 0.866737 0.183619 0 0 0.00286889
44 1 0.651191 0.748756 0.28593 0 0 -0.0140684
45 1 0.306968 0.956995 0.163328 0 0 0.0074296
46 1 0.552793 0.783587 0.428974 0 0 0.0196085
47 1 0.339356 0.998956 0.530856 0 0 -0.019608
48 1 0.20891 0.991812 0.306709 0 0 -0.00966585
ITEM: TIMESTEP
6
ITEM: NUMBER OF ATOMS
48
ITEM: BOX BOUNDS xy xz yz pp pp pp
-6.0893837809562683e+00 8.6109705567359924e+00 2.5110912919044495e+00
-1.0506033897399902e-02 9.6185076832771301e+00 -6.0748269557952881e+00
-2.6944518089294434e-02 1.9544072151184082e+01 3.6519104242324829e-01
ITEM: ATOMS id type xs ys zs fx fy fz
1 1 0.966979 0.165069 0.0449194 0 0 -0.00199842
2 1 0.515945 0.0751329 0.0570297 0 0 -0.00176239
3 1 0.683267 0.124063 0.653149 0 0 0.00133049
4 1 0.92517 0.950808 0.914911 0 0 0.0019989
5 1 0.585098 0.158885 0.79642 0 0 -0.00132477
6 1 0.376204 0.0407435 0.9028 0 0 0.00176239
7 1 0.027906 0.249141 0.776163 0 0 0.00134802
8 1 0.995037 0.207199 0.408158 0 0 -0.00190973
9 1 0.241039 0.0337836 0.67398 0 0 0.00289392
10 1 0.897113 0.242011 0.551672 0 0 0.00191009
11 1 0.864243 0.200068 0.183668 0 0 -0.00134802
12 1 0.651111 0.0820928 0.285851 0 0 -0.00289369
13 1 0.307051 0.290325 0.16341 0 0 0.00132442
14 1 0.553044 0.11691 0.429223 0 0 0.000265479
15 1 0.966979 0.498402 0.0449194 0 0 -0.00199914
16 1 0.515945 0.408466 0.0570297 0 0 -0.00176251
17 1 0.683267 0.457396 0.653149 0 0 0.00133073
18 1 0.92517 0.284141 0.914911 0 0 0.00199854
19 1 0.585098 0.492218 0.79642 0 0 -0.00132442
20 1 0.376204 0.374077 0.9028 0 0 0.00176251
21 1 0.0279061 0.582475 0.776163 0 0 0.00134766
22 1 0.339105 0.332299 0.530607 0 0 -0.000265837
23 1 0.995037 0.540532 0.408158 0 0 -0.00190949
24 1 0.241039 0.367117 0.67398 0 0 0.00289381
25 1 0.897113 0.575344 0.551672 0 0 0.00191033
26 1 0.208882 0.325147 0.306681 0 0 -0.00133038
27 1 0.864243 0.533402 0.183668 0 0 -0.00134766
28 1 0.651111 0.415426 0.285851 0 0 -0.00289404
29 1 0.307051 0.623658 0.16341 0 0 0.00132453
30 1 0.553044 0.450244 0.429223 0 0 0.000265837
31 1 0.966979 0.831735 0.0449194 0 0 -0.0019989
32 1 0.515945 0.7418 0.0570297 0 0 -0.00176251
33 1 0.683267 0.79073 0.653149 0 0 0.00133049
34 1 0.92517 0.617474 0.914911 0 0 0.00199902
35 1 0.585098 0.825551 0.79642 0 0 -0.00132465
36 1 0.376204 0.70741 0.9028 0 0 0.00176239
37 1 0.027906 0.915808 0.776163 0 0 0.00134802
38 1 0.339105 0.665633 0.530607 0 0 -0.000266075
39 1 0.995037 0.873866 0.408158 0 0 -0.00190961
40 1 0.241039 0.70045 0.67398 0 0 0.00289404
41 1 0.897113 0.908677 0.551672 0 0 0.00190961
42 1 0.208882 0.65848 0.306681 0 0 -0.00133085
43 1 0.864243 0.866735 0.183668 0 0 -0.00134778
44 1 0.651111 0.748759 0.285851 0 0 -0.00289404
45 1 0.307051 0.956992 0.16341 0 0 0.00132418
46 1 0.553044 0.783577 0.429223 0 0 0.000265718
47 1 0.339105 0.998966 0.530607 0 0 -0.000266075
48 1 0.208882 0.991813 0.306681 0 0 -0.00133014
ITEM: TIMESTEP
7
ITEM: NUMBER OF ATOMS
48
ITEM: BOX BOUNDS xy xz yz pp pp pp
-6.0893837809562683e+00 8.6109705567359924e+00 2.5110912919044495e+00
-1.0506033897399902e-02 9.6185076832771301e+00 -6.0748269557952881e+00
-2.6944518089294434e-02 1.9544072151184082e+01 3.6519104242324829e-01
ITEM: ATOMS id type xs ys zs fx fy fz
1 1 0.966944 0.16507 0.0448853 0 0 0.00181103
2 1 0.515915 0.0751341 0.0569997 0 0 0.000212669
3 1 0.68329 0.124062 0.653171 0 0 0.000539899
4 1 0.925205 0.950806 0.914945 0 0 -0.00181174
5 1 0.585076 0.158885 0.796397 0 0 0.00182033
6 1 0.376235 0.0407423 0.902831 0 0 -0.000213027
7 1 0.0279293 0.24914 0.776186 0 0 0.00181282
8 1 0.995004 0.2072 0.408126 0 0 -0.00078249
9 1 0.241088 0.0337817 0.674029 0 0 0.000650525
10 1 0.897146 0.24201 0.551704 0 0 0.000782371
11 1 0.86422 0.200069 0.183645 0 0 -0.00181222
12 1 0.651061 0.0820947 0.285801 0 0 -0.000650525
13 1 0.307074 0.290324 0.163433 0 0 -0.00182021
14 1 0.553049 0.11691 0.429227 0 0 -0.000380754
15 1 0.966944 0.498403 0.0448853 0 0 0.00181198
16 1 0.515915 0.408467 0.0569997 0 0 0.000213146
17 1 0.68329 0.457396 0.653171 0 0 0.00053966
18 1 0.925205 0.28414 0.914945 0 0 -0.0018115
19 1 0.585076 0.492219 0.796397 0 0 0.00182033
20 1 0.376235 0.374076 0.902831 0 0 -0.000213385
21 1 0.0279293 0.582474 0.776186 0 0 0.00181282
22 1 0.339101 0.3323 0.530603 0 0 0.000380993
23 1 0.995004 0.540534 0.408126 0 0 -0.000782847
24 1 0.241088 0.367115 0.674029 0 0 0.000650406
25 1 0.897146 0.575343 0.551704 0 0 0.000782251
26 1 0.208859 0.325148 0.306659 0 0 -0.000540137
27 1 0.86422 0.533403 0.183645 0 0 -0.00181258
28 1 0.651061 0.415428 0.285801 0 0 -0.000650048
29 1 0.307074 0.623658 0.163433 0 0 -0.00182045
30 1 0.553049 0.450243 0.429227 0 0 -0.000380754
31 1 0.966944 0.831737 0.0448853 0 0 0.00181139
32 1 0.515915 0.741801 0.0569996 0 0 0.000212789
33 1 0.68329 0.790729 0.653171 0 0 0.000540018
34 1 0.925205 0.617473 0.914945 0 0 -0.00181162
35 1 0.585076 0.825552 0.796397 0 0 0.00182033
36 1 0.376235 0.707409 0.902831 0 0 -0.000212908
37 1 0.0279293 0.915807 0.776186 0 0 0.00181258
38 1 0.339101 0.665633 0.530603 0 0 0.000380993
39 1 0.995004 0.873867 0.408126 0 0 -0.000782251
40 1 0.241088 0.700448 0.674029 0 0 0.000650406
41 1 0.897146 0.908676 0.551704 0 0 0.000782728
42 1 0.208859 0.658481 0.306659 0 0 -0.00053966
43 1 0.86422 0.866736 0.183645 0 0 -0.00181234
44 1 0.651061 0.748761 0.285801 0 0 -0.000650287
45 1 0.307074 0.956991 0.163433 0 0 -0.00182021
46 1 0.553049 0.783577 0.429227 0 0 -0.000380993
47 1 0.339101 0.998966 0.530603 0 0 0.000380874
48 1 0.208859 0.991814 0.306659 0 0 -0.000540376
ITEM: TIMESTEP
8
ITEM: NUMBER OF ATOMS
48
ITEM: BOX BOUNDS xy xz yz pp pp pp
-6.0893837809562683e+00 8.6109705567359924e+00 2.5110912919044495e+00
-1.0506033897399902e-02 9.6185076832771301e+00 -6.0748269557952881e+00
-2.6944518089294434e-02 1.9544072151184082e+01 3.6519104242324829e-01
ITEM: ATOMS id type xs ys zs fx fy fz
1 1 0.966961 0.165069 0.044902 0 0 -0.00117624
2 1 0.515903 0.0751346 0.0569882 0 0 0.000166774
3 1 0.683312 0.124061 0.653193 0 0 0.000706434
4 1 0.925188 0.950807 0.914928 0 0 0.00117648
5 1 0.585099 0.158885 0.79642 0 0 0.00118172
6 1 0.376246 0.0407418 0.902842 0 0 -0.000166535
7 1 0.0279758 0.249139 0.776232 0 0 -8.21352e-05
8 1 0.994972 0.207201 0.408094 0 0 0.000523567
9 1 0.241126 0.0337802 0.674067 0 0 -6.05583e-05
10 1 0.897177 0.242008 0.551736 0 0 -0.000523925
11 1 0.864173 0.200071 0.183598 0 0 8.13007e-05
12 1 0.651023 0.0820962 0.285764 0 0 6.05583e-05
13 1 0.307051 0.290325 0.16341 0 0 -0.00118208
14 1 0.553044 0.11691 0.429222 0 0 -0.000403643
15 1 0.966961 0.498403 0.044902 0 0 -0.0011766
16 1 0.515903 0.408468 0.0569882 0 0 0.000166655
17 1 0.683312 0.457395 0.653193 0 0 0.000706315
18 1 0.925188 0.28414 0.914928 0 0 0.00117695
19 1 0.585099 0.492218 0.79642 0 0 0.00118196
20 1 0.376246 0.374075 0.902842 0 0 -0.000166297
21 1 0.0279758 0.582472 0.776232 0 0 -8.15392e-05
22 1 0.339106 0.332299 0.530608 0 0 0.000403881
23 1 0.994972 0.540535 0.408094 0 0 0.000523686
24 1 0.241126 0.367114 0.674067 0 0 -6.07967e-05
25 1 0.897177 0.575342 0.551736 0 0 -0.000523925
26 1 0.208837 0.325148 0.306637 0 0 -0.000706434
27 1 0.864173 0.533404 0.183598 0 0 8.10623e-05
28 1 0.651023 0.41543 0.285764 0 0 6.09159e-05
29 1 0.307051 0.623659 0.16341 0 0 -0.00118184
30 1 0.553044 0.450244 0.429222 0 0 -0.000403881
31 1 0.966961 0.831736 0.044902 0 0 -0.00117624
32 1 0.515903 0.741801 0.0569882 0 0 0.00016737
33 1 0.683312 0.790728 0.653193 0 0 0.000706315
34 1 0.925188 0.617474 0.914928 0 0 0.00117636
35 1 0.585099 0.825551 0.79642 0 0 0.00118196
36 1 0.376246 0.707408 0.902842 0 0 -0.000166774
37 1 0.0279758 0.915805 0.776232 0 0 -8.21352e-05
38 1 0.339106 0.665633 0.530608 0 0 0.000403881
39 1 0.994972 0.873868 0.408094 0 0 0.000523686
40 1 0.241126 0.700447 0.674067 0 0 -6.09159e-05
41 1 0.897177 0.908675 0.551736 0 0 -0.000523686
42 1 0.208837 0.658482 0.306637 0 0 -0.000706315
43 1 0.864173 0.866738 0.183598 0 0 8.11815e-05
44 1 0.651023 0.748763 0.285764 0 0 6.09159e-05
45 1 0.307051 0.956992 0.16341 0 0 -0.00118148
46 1 0.553044 0.783577 0.429222 0 0 -0.000403762
47 1 0.339106 0.998966 0.530608 0 0 0.000404119
48 1 0.208837 0.991815 0.306637 0 0 -0.000706315
ITEM: TIMESTEP
9
ITEM: NUMBER OF ATOMS
48
ITEM: BOX BOUNDS xy xz yz pp pp pp
-6.0893837809562683e+00 8.6109705567359924e+00 2.5110912919044495e+00
-1.0506033897399902e-02 9.6185076832771301e+00 -6.0748269557952881e+00
-2.6944518089294434e-02 1.9544072151184082e+01 3.6519104242324829e-01
ITEM: ATOMS id type xs ys zs fx fy fz
1 1 0.966939 0.16507 0.0448802 0 0 0.000213742
2 1 0.515902 0.0751346 0.0569874 0 0 -0.000344276
3 1 0.683339 0.12406 0.65322 0 0 0.000198483
4 1 0.92521 0.950806 0.91495 0 0 -0.000213742
5 1 0.585138 0.158883 0.796459 0 0 -5.65052e-05
6 1 0.376247 0.0407418 0.902843 0 0 0.000344515
7 1 0.0279938 0.249138 0.77625 0 0 -0.000125885
8 1 0.994971 0.207201 0.408094 0 0 0.000259638
9 1 0.241141 0.0337796 0.674081 0 0 6.41346e-05
10 1 0.897178 0.242008 0.551737 0 0 -0.000258803
11 1 0.864155 0.200072 0.183581 0 0 0.0001266
12 1 0.651008 0.0820968 0.285749 0 0 -6.52075e-05
13 1 0.307011 0.290327 0.163371 0 0 5.71012e-05
14 1 0.553031 0.116911 0.42921 0 0 -0.000235796
15 1 0.966939 0.498403 0.0448802 0 0 0.000213623
16 1 0.515902 0.408468 0.0569874 0 0 -0.000344276
17 1 0.683339 0.457394 0.65322 0 0 0.00019896
18 1 0.92521 0.28414 0.91495 0 0 -0.000214577
19 1 0.585138 0.492216 0.796459 0 0 -5.73397e-05
20 1 0.376247 0.374075 0.902843 0 0 0.000344276
21 1 0.0279938 0.582471 0.77625 0 0 -0.000126719
22 1 0.339118 0.332299 0.53062 0 0 0.0002352
23 1 0.994971 0.540535 0.408094 0 0 0.000259638
24 1 0.241141 0.367113 0.674081 0 0 6.49691e-05
25 1 0.897178 0.575342 0.551737 0 0 -0.000259042
26 1 0.20881 0.325149 0.30661 0 0 -0.000198603
27 1 0.864155 0.533405 0.183581 0 0 0.000126719
28 1 0.651008 0.41543 0.285749 0 0 -6.56843e-05
29 1 0.307011 0.62366 0.163371 0 0 5.71012e-05
30 1 0.553031 0.450244 0.42921 0 0 -0.000235796
31 1 0.966939 0.831737 0.0448802 0 0 0.000213623
32 1 0.515902 0.741801 0.0569874 0 0 -0.000344992
33 1 0.683339 0.790727 0.65322 0 0 0.000198603
34 1 0.92521 0.617473 0.91495 0 0 -0.000213385
35 1 0.585138 0.82555 0.796459 0 0 -5.68628e-05
36 1 0.376247 0.707408 0.902843 0 0 0.000344992
37 1 0.0279938 0.915805 0.77625 0 0 -0.000126004
38 1 0.339118 0.665632 0.53062 0 0 0.000235558
39 1 0.994971 0.873868 0.408094 0 0 0.000258446
40 1 0.241141 0.700446 0.674081 0 0 6.54459e-05
41 1 0.897178 0.908675 0.551737 0 0 -0.00025928
42 1 0.20881 0.658483 0.30661 0 0 -0.000198603
43 1 0.864155 0.866738 0.183581 0 0 0.0001266
44 1 0.651008 0.748763 0.285749 0 0 -6.52075e-05
45 1 0.307011 0.956993 0.163371 0 0 5.67436e-05
46 1 0.553031 0.783577 0.42921 0 0 -0.000235558
47 1 0.339118 0.998966 0.53062 0 0 0.000235677
48 1 0.20881 0.991816 0.30661 0 0 -0.000198245
ITEM: TIMESTEP
10
ITEM: NUMBER OF ATOMS
48
ITEM: BOX BOUNDS xy xz yz pp pp pp
-6.0893837809562683e+00 8.6109705567359924e+00 2.5110912919044495e+00
-1.0506033897399902e-02 9.6185076832771301e+00 -6.0748269557952881e+00
-2.6944518089294434e-02 1.9544072151184082e+01 3.6519104242324829e-01
ITEM: ATOMS id type xs ys zs fx fy fz
1 1 0.966941 0.16507 0.0448823 0 0 -2.38419e-05
2 1 0.515897 0.0751348 0.0569819 0 0 3.33786e-05
3 1 0.683344 0.12406 0.653225 0 0 -5.96046e-06
4 1 0.925208 0.950806 0.914948 0 0 2.3365e-05
5 1 0.585139 0.158883 0.79646 0 0 -5.126e-05
6 1 0.376252 0.0407416 0.902848 0 0 -3.34978e-05
7 1 0.0279928 0.249138 0.776249 0 0 5.31673e-05
8 1 0.994975 0.207201 0.408098 0 0 -5.60284e-06
9 1 0.241143 0.0337795 0.674083 0 0 -3.05176e-05
10 1 0.897174 0.242008 0.551733 0 0 5.00679e-06
11 1 0.864156 0.200072 0.183582 0 0 -5.30481e-05
12 1 0.651006 0.0820968 0.285747 0 0 3.11136e-05
13 1 0.30701 0.290327 0.16337 0 0 5.10216e-05
14 1 0.553027 0.116911 0.429206 0 0 -0.000106812
15 1 0.966941 0.498403 0.0448823 0 0 -2.3365e-05
16 1 0.515897 0.408468 0.0569819 0 0 3.29018e-05
17 1 0.683344 0.457393 0.653225 0 0 -6.31809e-06
18 1 0.925208 0.28414 0.914948 0 0 2.37226e-05
19 1 0.585139 0.492216 0.79646 0 0 -5.07832e-05
20 1 0.376252 0.374075 0.902848 0 0 -3.32594e-05
21 1 0.0279928 0.582471 0.776249 0 0 5.34058e-05
22 1 0.339122 0.332299 0.530624 0 0 0.000107169
23 1 0.994975 0.540535 0.408098 0 0 -5.00679e-06
24 1 0.241143 0.367113 0.674083 0 0 -3.09944e-05
25 1 0.897174 0.575342 0.551733 0 0 5.00679e-06
26 1 0.208805 0.32515 0.306605 0 0 5.96046e-06
27 1 0.864156 0.533405 0.183582 0 0 -5.25713e-05
28 1 0.651006 0.41543 0.285747 0 0 3.12328e-05
29 1 0.30701 0.62366 0.16337 0 0 5.07832e-05
30 1 0.553027 0.450244 0.429206 0 0 -0.000106931
31 1 0.966941 0.831737 0.0448823 0 0 -2.3365e-05
32 1 0.515897 0.741801 0.0569819 0 0 3.34978e-05
33 1 0.683344 0.790727 0.653225 0 0 -6.07967e-06
34 1 0.925208 0.617473 0.914948 0 0 2.32458e-05
35 1 0.585139 0.82555 0.79646 0 0 -5.13792e-05
36 1 0.376252 0.707408 0.902848 0 0 -3.34978e-05
37 1 0.0279928 0.915805 0.776249 0 0 5.34058e-05
38 1 0.339122 0.665632 0.530624 0 0 0.000106931
39 1 0.994975 0.873868 0.408098 0 0 -5.126e-06
40 1 0.241143 0.700446 0.674083 0 0 -3.11136e-05
41 1 0.897174 0.908675 0.551733 0 0 5.126e-06
42 1 0.208805 0.658483 0.306605 0 0 6.19888e-06
43 1 0.864156 0.866738 0.183582 0 0 -5.30481e-05
44 1 0.651006 0.748763 0.285747 0 0 3.0756e-05
45 1 0.30701 0.956993 0.16337 0 0 5.10216e-05
46 1 0.553027 0.783578 0.429206 0 0 -0.000106931
47 1 0.339122 0.998965 0.530624 0 0 0.000106454
48 1 0.208805 0.991816 0.306605 0 0 6.4373e-06
ITEM: TIMESTEP
11
ITEM: NUMBER OF ATOMS
48
ITEM: BOX BOUNDS xy xz yz pp pp pp
-6.0893837809562683e+00 8.6109705567359924e+00 2.5110912919044495e+00
-1.0506033897399902e-02 9.6185076832771301e+00 -6.0748269557952881e+00
-2.6944518089294434e-02 1.9544072151184082e+01 3.6519104242324829e-01
ITEM: ATOMS id type xs ys zs fx fy fz
1 1 0.966941 0.16507 0.044882 0 0 5.60284e-06
2 1 0.515897 0.0751348 0.0569821 0 0 1.56164e-05
3 1 0.683344 0.12406 0.653225 0 0 1.51396e-05
4 1 0.925208 0.950806 0.914948 0 0 -5.00679e-06
5 1 0.585139 0.158883 0.79646 0 0 -9.53674e-06
6 1 0.376252 0.0407416 0.902848 0 0 -1.5378e-05
7 1 0.0279936 0.249138 0.776249 0 0 1.21593e-05
8 1 0.994975 0.207201 0.408098 0 0 1.8239e-05
9 1 0.241143 0.0337795 0.674083 0 0 3.8147e-06
10 1 0.897174 0.242008 0.551732 0 0 -1.8239e-05
11 1 0.864156 0.200072 0.183581 0 0 -1.26362e-05
12 1 0.651006 0.0820968 0.285747 0 0 -3.69549e-06
13 1 0.307011 0.290327 0.16337 0 0 9.65595e-06
14 1 0.553025 0.116911 0.429204 0 0 1.14441e-05
15 1 0.966941 0.498403 0.044882 0 0 5.60284e-06
16 1 0.515897 0.408468 0.0569821 0 0 1.56164e-05
17 1 0.683344 0.457393 0.653225 0 0 1.52588e-05
18 1 0.925208 0.28414 0.914948 0 0 -5.24521e-06
19 1 0.585139 0.492216 0.79646 0 0 -9.65595e-06
20 1 0.376252 0.374075 0.902848 0 0 -1.54972e-05
21 1 0.0279936 0.582471 0.776249 0 0 1.20401e-05
22 1 0.339124 0.332299 0.530626 0 0 -1.18017e-05
23 1 0.994975 0.540535 0.408098 0 0 1.81198e-05
24 1 0.241143 0.367113 0.674083 0 0 3.93391e-06
25 1 0.897174 0.575342 0.551732 0 0 -1.81198e-05
26 1 0.208805 0.32515 0.306605 0 0 -1.51396e-05