ITEM: TIMESTEP
0
ITEM: NUMBER OF ATOMS
32
ITEM: BOX BOUNDS xy xz yz pp pp pp
0.0000000000000000e+00 6.3968321681022644e+00 0.0000000000000000e+00
0.0000000000000000e+00 5.5204311609268188e+00 0.0000000000000000e+00
0.0000000000000000e+00 2.0725386440753937e+01 0.0000000000000000e+00
ITEM: ATOMS id type xs ys zs fx fy fz
1 1 0.999986 0.666284 0.0597554 0 8.01086e-05 -0.000102997
2 1 0.499986 0.666284 0.0597554 0 8.01086e-05 -0.000102997
3 1 0.249986 0.166284 0.0597529 0 9.15527e-05 -1.52588e-05
4 1 0.749986 0.166284 0.0597529 0 9.15527e-05 -1.52588e-05
5 1 0.999986 0.666297 0.309761 0 5.91278e-05 -0.000226974
6 1 0.249986 0.50039 0.18476 0 -7.43866e-05 -0.000177383
7 1 0.749986 0.50039 0.18476 0 -7.43866e-05 -0.000177383
8 1 0.499986 0.666297 0.309761 0 5.91278e-05 -0.000226974
9 1 0.999986 0.000391002 0.184759 0 -0.000102997 -0.000118256
10 1 0.249986 0.166295 0.309759 0 9.15527e-05 -0.000154495
11 1 0.499986 0.000391002 0.184759 0 -0.000102997 -0.000118256
12 1 0.749986 0.166295 0.309759 0 9.15527e-05 -0.000154495
13 1 0.999986 0.666278 0.559747 0 0.000104904 8.58307e-05
14 1 0.499986 0.666278 0.559747 0 0.000104904 8.58307e-05
15 1 0.249986 0.16628 0.559747 0 8.01086e-05 8.39233e-05
16 1 0.749986 0.16628 0.559747 0 8.01086e-05 8.39233e-05
17 1 0.249986 0.500393 0.434755 0 -0.000101089 -8.96454e-05
18 1 0.749986 0.500393 0.434755 0 -0.000101089 -8.96454e-05
19 1 0.999986 0.000395418 0.434755 0 -0.000120163 -0.000101089
20 1 0.499986 0.000395418 0.434755 0 -0.000120163 -0.000101089
21 1 0.999986 0.666272 0.809742 0 0.000110626 0.000135422
22 1 0.249986 0.500372 0.684743 0 -8.01086e-05 0.000154495
23 1 0.499986 0.666272 0.809742 0 0.000110626 0.000135422
24 1 0.749986 0.500372 0.684743 0 -8.01086e-05 0.000154495
25 1 0.999986 0.000371505 0.684741 0 -6.67572e-05 0.000217438
26 1 0.249986 0.166272 0.809741 0 8.01086e-05 0.000167847
27 1 0.749986 0.166272 0.809741 0 8.01086e-05 0.000167847
28 1 0.499986 0.000371505 0.684741 0 -6.67572e-05 0.000217438
29 1 0.249986 0.500377 0.934747 0 -8.7738e-05 3.8147e-05
30 1 0.749986 0.500377 0.934747 0 -8.7738e-05 3.8147e-05
31 1 0.999986 0.000375504 0.934746 0 -6.48499e-05 0.000102997
32 1 0.499986 0.000375505 0.934746 0 -6.48499e-05 0.000102997
ITEM: TIMESTEP
1
ITEM: NUMBER OF ATOMS
32
ITEM: BOX BOUNDS xy xz yz pp pp pp
3.1983852386474609e-04 6.3965123295783997e+00 0.0000000000000000e+00
2.7602910995483398e-04 5.5201551318168640e+00 0.0000000000000000e+00
1.0362863540649414e-03 2.0724350154399872e+01 0.0000000000000000e+00
ITEM: ATOMS id type xs ys zs fx fy fz
1 1 0.999986 0.666284 0.0597554 0 6.48499e-05 -0.000116348
2 1 0.499986 0.666284 0.0597554 0 6.48499e-05 -0.000116348
3 1 0.249986 0.166284 0.0597529 0 6.67572e-05 -1.33514e-05
4 1 0.749986 0.166284 0.0597529 0 6.67572e-05 -1.33514e-05
5 1 0.999986 0.666297 0.309761 0 2.86102e-05 -0.000221252
6 1 0.249986 0.50039 0.18476 0 -5.34058e-05 -0.000213623
7 1 0.749986 0.50039 0.18476 0 -5.34058e-05 -0.000213623
8 1 0.499986 0.666297 0.309761 0 2.86102e-05 -0.000221252
9 1 0.999986 0.000390999 0.184759 0 -7.82013e-05 -0.000162125
10 1 0.249986 0.166295 0.309759 0 5.91278e-05 -0.000120163
11 1 0.499986 0.000390999 0.184759 0 -7.82013e-05 -0.000162125
12 1 0.749986 0.166295 0.309759 0 5.91278e-05 -0.000120163
13 1 0.999986 0.666278 0.559747 0 0.000104904 8.01086e-05
14 1 0.499986 0.666278 0.559747 0 0.000104904 8.01086e-05
15 1 0.249986 0.16628 0.559747 0 7.62939e-05 6.67572e-05
16 1 0.749986 0.16628 0.559747 0 7.62939e-05 6.67572e-05
17 1 0.249986 0.500393 0.434755 0 -8.7738e-05 -7.43866e-05
18 1 0.749986 0.500393 0.434755 0 -8.7738e-05 -7.43866e-05
19 1 0.999986 0.000395415 0.434755 0 -0.000112534 -9.34601e-05
20 1 0.499986 0.000395415 0.434755 0 -0.000112534 -9.34601e-05
21 1 0.999986 0.666272 0.809742 0 7.62939e-05 0.000171661
22 1 0.249986 0.500372 0.684743 0 -4.19617e-05 0.0001297
23 1 0.499986 0.666272 0.809742 0 7.62939e-05 0.000171661
24 1 0.749986 0.500372 0.684743 0 -4.19617e-05 0.0001297
25 1 0.999986 0.000371503 0.684741 0 -4.76837e-05 0.000207901
26 1 0.249986 0.166272 0.809741 0 6.10352e-05 0.000200272
27 1 0.749986 0.166272 0.809741 0 6.10352e-05 0.000200272
28 1 0.499986 0.000371503 0.684741 0 -4.76837e-05 0.000207901
29 1 0.249986 0.500377 0.934747 0 -5.72205e-05 3.62396e-05
30 1 0.749986 0.500377 0.934747 0 -5.72205e-05 3.62396e-05
31 1 0.999986 0.000375502 0.934746 0 -5.91278e-05 0.00012207
32 1 0.499986 0.000375503 0.934746 0 -5.91278e-05 0.00012207
ITEM: TIMESTEP
2
ITEM: NUMBER OF ATOMS
32
ITEM: BOX BOUNDS xy xz yz pp pp pp
6.3967704772949219e-04 6.3961924910545349e+00 0.0000000000000000e+00
5.5205821990966797e-04 5.5198791027069092e+00 0.0000000000000000e+00
2.0725727081298828e-03 2.0723313868045807e+01 0.0000000000000000e+00
ITEM: ATOMS id type xs ys zs fx fy fz
1 1 0.999986 0.666284 0.0597554 0 7.82013e-05 -0.000139236
2 1 0.499986 0.666284 0.0597554 0 7.82013e-05 -0.000139236
3 1 0.249986 0.166284 0.0597529 0 7.62939e-05 -2.47955e-05
4 1 0.749986 0.166284 0.0597529 0 7.62939e-05 -2.47955e-05
5 1 0.999986 0.666297 0.309761 0 6.10352e-05 -0.000198364
6 1 0.249986 0.50039 0.18476 0 -7.24792e-05 -0.00018692
7 1 0.749986 0.50039 0.18476 0 -7.24792e-05 -0.00018692
8 1 0.499986 0.666297 0.309761 0 6.10352e-05 -0.000198364
9 1 0.999986 0.000390996 0.184759 0 -8.58307e-05 -0.0001297
10 1 0.249986 0.166295 0.309759 0 7.62939e-05 -0.000123978
11 1 0.499986 0.000390996 0.184759 0 -8.58307e-05 -0.0001297
12 1 0.749986 0.166295 0.309759 0 7.62939e-05 -0.000123978
13 1 0.999986 0.666278 0.559747 0 9.34601e-05 6.29425e-05
14 1 0.499986 0.666278 0.559747 0 9.34601e-05 6.29425e-05
15 1 0.249986 0.16628 0.559747 0 6.29425e-05 5.72205e-05
16 1 0.749986 0.16628 0.559747 0 6.29425e-05 5.72205e-05
17 1 0.249986 0.500393 0.434755 0 -7.82013e-05 -6.48499e-05
18 1 0.749986 0.500393 0.434755 0 -7.82013e-05 -6.48499e-05
19 1 0.999986 0.000395411 0.434755 0 -0.00012207 -6.67572e-05
20 1 0.499986 0.000395411 0.434755 0 -0.00012207 -6.67572e-05
21 1 0.999986 0.666272 0.809742 0 9.34601e-05 0.000143051
22 1 0.249986 0.500372 0.684743 0 -6.29425e-05 0.000114441
23 1 0.499986 0.666272 0.809742 0 9.34601e-05 0.000143051
24 1 0.749986 0.500372 0.684743 0 -6.29425e-05 0.000114441
25 1 0.999986 0.000371501 0.684741 0 -5.34058e-05 0.000188828
26 1 0.249986 0.166272 0.809741 0 7.24792e-05 0.000177383
27 1 0.749986 0.166272 0.809741 0 7.24792e-05 0.000177383
28 1 0.499986 0.000371501 0.684741 0 -5.34058e-05 0.000188828
29 1 0.249986 0.500377 0.934747 0 -8.58307e-05 5.53131e-05
30 1 0.749986 0.500377 0.934747 0 -8.58307e-05 5.53131e-05
31 1 0.999986 0.0003755 0.934746 0 -5.34058e-05 0.000135422
32 1 0.499986 0.000375501 0.934746 0 -5.34058e-05 0.000135422
ITEM: TIMESTEP
3
ITEM: NUMBER OF ATOMS
32
ITEM: BOX BOUNDS xy xz yz pp pp pp
9.5951557159423828e-04 6.3958726525306702e+00 0.0000000000000000e+00
8.2808732986450195e-04 5.5196030735969543e+00 0.0000000000000000e+00
3.1088590621948242e-03 2.0722277581691742e+01 0.0000000000000000e+00
ITEM: ATOMS id type xs ys zs fx fy fz
1 1 0.999986 0.666284 0.0597554 0 4.76837e-05 -0.000101089
2 1 0.499986 0.666284 0.0597554 0 4.76837e-05 -0.000101089
3 1 0.249986 0.166284 0.0597529 0 6.10352e-05 -9.53674e-06
4 1 0.749986 0.166284 0.0597529 0 6.10352e-05 -9.53674e-06
5 1 0.999986 0.666297 0.309761 0 3.43323e-05 -0.000221252
6 1 0.249986 0.50039 0.18476 0 -5.53131e-05 -0.000179291
7 1 0.749986 0.50039 0.18476 0 -5.53131e-05 -0.000179291
8 1 0.499986 0.666297 0.309761 0 3.43323e-05 -0.000221252
9 1 0.999986 0.000390991 0.184759 0 -6.67572e-05 -0.000116348
10 1 0.249986 0.166295 0.309759 0 4.3869e-05 -0.000125885
11 1 0.499986 0.000390991 0.184759 0 -6.67572e-05 -0.000116348
12 1 0.749986 0.166295 0.309759 0 4.3869e-05 -0.000125885
13 1 0.999986 0.666278 0.559747 0 0.000104904 8.2016e-05
14 1 0.499986 0.666278 0.559747 0 0.000104904 8.2016e-05
15 1 0.249986 0.16628 0.559747 0 8.2016e-05 7.05719e-05
16 1 0.749986 0.16628 0.559747 0 8.2016e-05 7.05719e-05
17 1 0.249986 0.500393 0.434755 0 -7.82013e-05 -7.24792e-05
18 1 0.749986 0.500393 0.434755 0 -7.82013e-05 -7.24792e-05
19 1 0.999986 0.000395403 0.434755 0 -0.0001297 -0.000102997
20 1 0.499986 0.000395403 0.434755 0 -0.0001297 -0.000102997
21 1 0.999986 0.666272 0.809742 0 7.82013e-05 0.000139236
22 1 0.249986 0.500372 0.684743 0 -3.43323e-05 0.000133514
23 1 0.499986 0.666272 0.809742 0 7.82013e-05 0.000139236
24 1 0.749986 0.500372 0.684743 0 -3.43323e-05 0.000133514
25 1 0.999986 0.000371498 0.684741 0 -4.19617e-05 0.000192642
26 1 0.249986 0.166272 0.809741 0 5.72205e-05 0.000173569
27 1 0.749986 0.166272 0.809741 0 5.72205e-05 0.000173569
28 1 0.499986 0.000371498 0.684741 0 -4.19617e-05 0.000192642
29 1 0.249986 0.500377 0.934747 0 -6.10352e-05 4.00543e-05
30 1 0.749986 0.500377 0.934747 0 -6.10352e-05 4.00543e-05
31 1 0.999986 0.000375497 0.934746 0 -4.19617e-05 9.72748e-05
32 1 0.499986 0.000375497 0.934746 0 -4.19617e-05 9.72748e-05
ITEM: TIMESTEP
4
ITEM: NUMBER OF ATOMS
32
ITEM: BOX BOUNDS xy xz yz pp pp pp
1.1408329010009766e-03 6.3956913352012634e+00 0.0000000000000000e+00
9.8454952239990234e-04 5.5194466114044189e+00 0.0000000000000000e+00
3.6963224411010742e-03 2.0721690118312836e+01 0.0000000000000000e+00
ITEM: ATOMS id type xs ys zs fx fy fz
1 1 0.999986 0.666284 0.0597554 0 5.72205e-05 -0.000131607
2 1 0.499986 0.666284 0.0597554 0 5.72205e-05 -0.000131607
3 1 0.249986 0.166284 0.0597529 0 6.86646e-05 -1.90735e-05
4 1 0.749986 0.166284 0.0597529 0 6.86646e-05 -1.90735e-05
5 1 0.999986 0.666297 0.309761 0 4.3869e-05 -0.000207901
6 1 0.249986 0.50039 0.18476 0 -6.29425e-05 -0.000188828
7 1 0.749986 0.50039 0.18476 0 -6.29425e-05 -0.000188828
8 1 0.499986 0.666297 0.309761 0 4.3869e-05 -0.000207901
9 1 0.999986 0.000390984 0.184759 0 -6.67572e-05 -0.000131607
10 1 0.249986 0.166295 0.309759 0 7.05719e-05 -0.0001297
11 1 0.499986 0.000390984 0.184759 0 -6.67572e-05 -0.000131607
12 1 0.749986 0.166295 0.309759 0 7.05719e-05 -0.0001297
13 1 0.999986 0.666278 0.559747 0 9.91821e-05 5.14984e-05
14 1 0.499986 0.666278 0.559747 0 9.91821e-05 5.14984e-05
15 1 0.249986 0.16628 0.559747 0 5.72205e-05 5.91278e-05
16 1 0.749986 0.16628 0.559747 0 5.72205e-05 5.91278e-05
17 1 0.249986 0.500393 0.434755 0 -6.86646e-05 -5.91278e-05
18 1 0.749986 0.500393 0.434755 0 -6.86646e-05 -5.91278e-05
19 1 0.999986 0.000395391 0.434755 0 -0.000120163 -6.67572e-05
20 1 0.499986 0.000395391 0.434755 0 -0.000120163 -6.67572e-05
21 1 0.999986 0.666272 0.809742 0 7.62939e-05 0.000148773
22 1 0.249986 0.500372 0.684743 0 -4.76837e-05 0.000127792
23 1 0.499986 0.666272 0.809742 0 7.62939e-05 0.000148773
24 1 0.749986 0.500372 0.684743 0 -4.76837e-05 0.000127792
25 1 0.999986 0.000371494 0.684741 0 -4.76837e-05 0.000181198
26 1 0.249986 0.166272 0.809741 0 6.67572e-05 0.000192642
27 1 0.749986 0.166272 0.809741 0 6.67572e-05 0.000192642
28 1 0.499986 0.000371494 0.684741 0 -4.76837e-05 0.000181198
29 1 0.249986 0.500377 0.934747 0 -7.24792e-05 4.76837e-05
30 1 0.749986 0.500377 0.934747 0 -7.24792e-05 4.76837e-05
31 1 0.999986 0.000375493 0.934746 0 -5.34058e-05 0.000125885
32 1 0.499986 0.000375493 0.934746 0 -5.34058e-05 0.000125885
ITEM: TIMESTEP
5
ITEM: NUMBER OF ATOMS
32
ITEM: BOX BOUNDS xy xz yz pp pp pp
1.1577010154724121e-03 6.3956744670867920e+00 0.0000000000000000e+00
9.9909305572509766e-04 5.5194320678710938e+00 0.0000000000000000e+00
3.7509799003601074e-03 2.0721635460853577e+01 0.0000000000000000e+00
ITEM: ATOMS id type xs ys zs fx fy fz
1 1 0.999986 0.666285 0.0597548 0 7.05719e-05 -9.53674e-05
2 1 0.499986 0.666285 0.0597548 0 7.05719e-05 -9.53674e-05
3 1 0.249986 0.166285 0.0597528 0 6.67572e-05 -1.14441e-05
4 1 0.749986 0.166285 0.0597528 0 6.67572e-05 -1.14441e-05
5 1 0.999986 0.666298 0.30976 0 4.00543e-05 -0.000179291
6 1 0.249986 0.500389 0.18476 0 -5.91278e-05 -0.000175476
7 1 0.749986 0.500389 0.18476 0 -5.91278e-05 -0.000175476
8 1 0.499986 0.666298 0.30976 0 4.00543e-05 -0.000179291
9 1 0.999986 0.000389765 0.184758 0 -6.86646e-05 -0.000110626
10 1 0.249986 0.166297 0.309758 0 4.00543e-05 -0.000125885
11 1 0.499986 0.000389765 0.184758 0 -6.86646e-05 -0.000110626
12 1 0.749986 0.166297 0.309758 0 4.00543e-05 -0.000125885
13 1 0.999986 0.66628 0.559747 0 8.2016e-05 5.72205e-05
14 1 0.499986 0.66628 0.559747 0 8.2016e-05 5.72205e-05
15 1 0.249986 0.166281 0.559748 0 6.48499e-05 5.34058e-05
16 1 0.749986 0.166281 0.559748 0 6.48499e-05 5.34058e-05
17 1 0.249986 0.500392 0.434754 0 -6.29425e-05 -5.34058e-05
18 1 0.749986 0.500392 0.434754 0 -6.29425e-05 -5.34058e-05
19 1 0.999986 0.000393192 0.434754 0 -8.7738e-05 -6.67572e-05
20 1 0.499986 0.000393192 0.434754 0 -8.7738e-05 -6.67572e-05
21 1 0.999986 0.666273 0.809743 0 7.43866e-05 0.000120163
22 1 0.249986 0.500372 0.684743 0 -5.34058e-05 0.0001297
23 1 0.499986 0.666273 0.809743 0 7.43866e-05 0.000120163
24 1 0.749986 0.500372 0.684743 0 -5.34058e-05 0.0001297
25 1 0.999986 0.000370625 0.684742 0 -4.57764e-05 0.000164032
26 1 0.249986 0.166273 0.809742 0 6.48499e-05 0.000160217
27 1 0.749986 0.166273 0.809742 0 6.48499e-05 0.000160217
28 1 0.499986 0.000370625 0.684742 0 -4.57764e-05 0.000164032
29 1 0.249986 0.500375 0.934748 0 -6.10352e-05 3.43323e-05
30 1 0.749986 0.500375 0.934748 0 -6.10352e-05 3.43323e-05
31 1 0.999986 0.000374522 0.934746 0 -6.48499e-05 9.91821e-05
32 1 0.499986 0.000374522 0.934746 0 -6.48499e-05 9.91821e-05
ITEM: TIMESTEP
6
ITEM: NUMBER OF ATOMS
32
ITEM: BOX BOUNDS xy xz yz pp pp pp
1.1366009712219238e-03 6.3956955671310425e+00 0.0000000000000000e+00
9.8085403442382812e-04 5.5194503068923950e+00 0.0000000000000000e+00
3.6826133728027344e-03 2.0721703827381134e+01 0.0000000000000000e+00
ITEM: ATOMS id type xs ys zs fx fy fz
1 1 0.999986 0.666285 0.0597547 0 5.14984e-05 -0.00012207
2 1 0.499986 0.666285 0.0597547 0 5.14984e-05 -0.00012207
3 1 0.249986 0.166286 0.0597528 0 6.10352e-05 -2.09808e-05
4 1 0.749986 0.166286 0.0597528 0 6.10352e-05 -2.09808e-05
5 1 0.999986 0.666298 0.30976 0 3.8147e-05 -0.000179291
6 1 0.249986 0.500389 0.184759 0 -5.72205e-05 -0.000175476
7 1 0.749986 0.500389 0.184759 0 -5.72205e-05 -0.000175476
8 1 0.499986 0.666298 0.30976 0 3.8147e-05 -0.000179291
9 1 0.999986 0.000389638 0.184758 0 -6.86646e-05 -0.0001297
10 1 0.249986 0.166297 0.309758 0 4.19617e-05 -0.000104904
11 1 0.499986 0.000389638 0.184758 0 -6.86646e-05 -0.0001297
12 1 0.749986 0.166297 0.309758 0 4.19617e-05 -0.000104904
13 1 0.999986 0.66628 0.559747 0 7.62939e-05 4.95911e-05
14 1 0.499986 0.66628 0.559747 0 7.62939e-05 4.95911e-05
15 1 0.249986 0.166281 0.559748 0 5.91278e-05 4.57764e-05
16 1 0.749986 0.166281 0.559748 0 5.91278e-05 4.57764e-05
17 1 0.249986 0.500392 0.434754 0 -6.10352e-05 -5.34058e-05
18 1 0.749986 0.500392 0.434754 0 -6.10352e-05 -5.34058e-05
19 1 0.999986 0.000392966 0.434754 0 -7.24792e-05 -6.86646e-05
20 1 0.499986 0.000392967 0.434754 0 -7.24792e-05 -6.86646e-05
21 1 0.999986 0.666273 0.809743 0 6.67572e-05 0.000135422
22 1 0.249986 0.500371 0.684743 0 -4.95911e-05 0.000127792
23 1 0.499986 0.666273 0.809743 0 6.67572e-05 0.000135422
24 1 0.749986 0.500371 0.684743 0 -4.95911e-05 0.000127792
25 1 0.999986 0.000370535 0.684742 0 -3.62396e-05 0.000162125
26 1 0.249986 0.166274 0.809742 0 6.29425e-05 0.000169754
27 1 0.749986 0.166274 0.809742 0 6.29425e-05 0.000169754
28 1 0.499986 0.000370535 0.684742 0 -3.62396e-05 0.000162125
29 1 0.249986 0.500375 0.934748 0 -5.72205e-05 5.34058e-05
30 1 0.749986 0.500375 0.934748 0 -5.72205e-05 5.34058e-05
31 1 0.999986 0.000374419 0.934746 0 -5.53131e-05 0.000110626
32 1 0.499986 0.00037442 0.934746 0 -5.53131e-05 0.000110626
ITEM: TIMESTEP
7
ITEM: NUMBER OF ATOMS
32
ITEM: BOX BOUNDS xy xz yz pp pp pp
1.1366009712219238e-03 6.3956955671310425e+00 0.0000000000000000e+00
9.8085403442382812e-04 5.5194503068923950e+00 0.0000000000000000e+00
3.6826133728027344e-03 2.0721703827381134e+01 0.0000000000000000e+00
ITEM: ATOMS id type xs ys zs fx fy fz
1 1 0.999986 0.666285 0.0597547 0 5.14984e-05 -0.00012207
2 1 0.499986 0.666285 0.0597547 0 5.14984e-05 -0.00012207
3 1 0.249986 0.166286 0.0597528 0 6.10352e-05 -2.09808e-05
4 1 0.749986 0.166286 0.0597528 0 6.10352e-05 -2.09808e-05
5 1 0.999986 0.666298 0.30976 0 3.8147e-05 -0.000179291
6 1 0.249986 0.500389 0.184759 0 -5.72205e-05 -0.000175476
7 1 0.749986 0.500389 0.184759 0 -5.72205e-05 -0.000175476
8 1 0.499986 0.666298 0.30976 0 3.8147e-05 -0.000179291
9 1 0.999986 0.000389638 0.184758 0 -6.86646e-05 -0.0001297
10 1 0.249986 0.166297 0.309758 0 4.19617e-05 -0.000104904
11 1 0.499986 0.000389638 0.184758 0 -6.86646e-05 -0.0001297
12 1 0.749986 0.166297 0.309758 0 4.19617e-05 -0.000104904
13 1 0.999986 0.66628 0.559747 0 7.62939e-05 4.95911e-05
14 1 0.499986 0.66628 0.559747 0 7.62939e-05 4.95911e-05
15 1 0.249986 0.166281 0.559748 0 5.91278e-05 4.57764e-05
16 1 0.749986 0.166281 0.559748 0 5.91278e-05 4.57764e-05
17 1 0.249986 0.500392 0.434754 0 -6.10352e-05 -5.34058e-05
18 1 0.749986 0.500392 0.434754 0 -6.10352e-05 -5.34058e-05
19 1 0.999986 0.000392966 0.434754 0 -7.24792e-05 -6.86646e-05
20 1 0.499986 0.000392967 0.434754 0 -7.24792e-05 -6.86646e-05
21 1 0.999986 0.666273 0.809743 0 6.67572e-05 0.000135422
22 1 0.249986 0.500371 0.684743 0 -4.95911e-05 0.000127792
23 1 0.499986 0.666273 0.809743 0 6.67572e-05 0.000135422
24 1 0.749986 0.500371 0.684743 0 -4.95911e-05 0.000127792
25 1 0.999986 0.000370535 0.684742 0 -3.62396e-05 0.000162125
26 1 0.249986 0.166274 0.809742 0 6.29425e-05 0.000169754
27 1 0.749986 0.166274 0.809742 0 6.29425e-05 0.000169754
28 1 0.499986 0.000370535 0.684742 0 -3.62396e-05 0.000162125
29 1 0.249986 0.500375 0.934748 0 -5.72205e-05 5.34058e-05
30 1 0.749986 0.500375 0.934748 0 -5.72205e-05 5.34058e-05
31 1 0.999986 0.000374419 0.934746 0 -5.53131e-05 0.000110626
32 1 0.499986 0.00037442 0.934746 0 -5.53131e-05 0.000110626
ITEM: TIMESTEP
8
ITEM: NUMBER OF ATOMS
32
ITEM: BOX BOUNDS xy xz yz pp pp pp
1.0568499565124512e-03 6.3957753181457520e+00 0.0000000000000000e+00
7.7360868453979492e-04 5.5196575522422791e+00 0.0000000000000000e+00
4.7185420989990234e-03 2.0720667898654938e+01 0.0000000000000000e+00
ITEM: ATOMS id type xs ys zs fx fy fz
1 1 0.999986 0.666285 0.0597547 0 0.000141144 -8.01086e-05
2 1 0.499986 0.666285 0.0597547 0 0.000141144 -8.01086e-05
3 1 0.249986 0.166286 0.0597528 0 0.000131607 -1.33514e-05
4 1 0.749986 0.166286 0.0597528 0 0.000131607 -1.33514e-05
5 1 0.999986 0.666298 0.30976 0 7.43866e-05 -0.000183105
6 1 0.249986 0.500389 0.184759 0 -0.000116348 -0.000156403
7 1 0.749986 0.500389 0.184759 0 -0.000116348 -0.000156403
8 1 0.499986 0.666298 0.30976 0 7.43866e-05 -0.000183105
9 1 0.999986 0.000389637 0.184758 0 -0.00012207 -0.000102997
10 1 0.249986 0.166297 0.309758 0 9.91821e-05 -0.000118256
11 1 0.499986 0.000389637 0.184758 0 -0.00012207 -0.000102997
12 1 0.749986 0.166297 0.309758 0 9.91821e-05 -0.000118256
13 1 0.999986 0.66628 0.559747 0 0.000133514 6.29425e-05
14 1 0.499986 0.66628 0.559747 0 0.000133514 6.29425e-05
15 1 0.249986 0.166281 0.559748 0 0.000137329 5.14984e-05
16 1 0.749986 0.166281 0.559748 0 0.000137329 5.14984e-05
17 1 0.249986 0.500392 0.434754 0 -0.000148773 -5.91278e-05
18 1 0.749986 0.500392 0.434754 0 -0.000148773 -5.91278e-05
19 1 0.999986 0.000392965 0.434754 0 -0.000146866 -7.62939e-05
20 1 0.499986 0.000392965 0.434754 0 -0.000146866 -7.62939e-05
21 1 0.999986 0.666273 0.809743 0 0.000133514 0.000110626
22 1 0.249986 0.500371 0.684743 0 -0.000110626 0.000131607
23 1 0.499986 0.666273 0.809743 0 0.000133514 0.000110626
24 1 0.749986 0.500371 0.684743 0 -0.000110626 0.000131607
25 1 0.999986 0.000370535 0.684742 0 -8.96454e-05 0.000167847
26 1 0.249986 0.166274 0.809742 0 0.000141144 0.000139236
27 1 0.749986 0.166274 0.809742 0 0.000141144 0.000139236
28 1 0.499986 0.000370534 0.684742 0 -8.96454e-05 0.000167847
29 1 0.249986 0.500375 0.934748 0 -0.000125885 4.00543e-05
30 1 0.749986 0.500375 0.934748 0 -0.000125885 4.00543e-05
31 1 0.999986 0.000374418 0.934746 0 -0.000131607 8.58307e-05
32 1 0.499986 0.000374419 0.934746 0 -0.000131607 8.58307e-05
ITEM: TIMESTEP
9
ITEM: NUMBER OF ATOMS
32
ITEM: BOX BOUNDS xy xz yz pp pp pp
9.7769498825073242e-04 6.3958544731140137e+00 0.0000000000000000e+00
5.6719779968261719e-04 5.5198639631271362e+00 0.0000000000000000e+00
5.7544708251953125e-03 2.0719631969928741e+01 0.0000000000000000e+00
ITEM: ATOMS id type xs ys zs fx fy fz
1 1 0.999986 0.666285 0.0597547 0 0.000139236 -9.15527e-05
2 1 0.499986 0.666285 0.0597547 0 0.000139236 -9.15527e-05
3 1 0.249986 0.166286 0.0597528 0 0.000135422 -2.09808e-05
4 1 0.749986 0.166286 0.0597528 0 0.000135422 -2.09808e-05
5 1 0.999986 0.666298 0.30976 0 0.000101089 -0.00018692
6 1 0.249986 0.500389 0.184759 0 -0.00012207 -0.000196457
7 1 0.749986 0.500389 0.184759 0 -0.00012207 -0.000196457
8 1 0.499986 0.666298 0.30976 0 0.000101089 -0.00018692
9 1 0.999986 0.000389635 0.184758 0 -0.000133514 -0.000131607
10 1 0.249986 0.166297 0.309758 0 9.53674e-05 -0.000120163
11 1 0.499986 0.000389635 0.184758 0 -0.000133514 -0.000131607
12 1 0.749986 0.166297 0.309758 0 9.53674e-05 -0.000120163
13 1 0.999986 0.66628 0.559747 0 0.0001297 6.29425e-05
14 1 0.499986 0.66628 0.559747 0 0.0001297 6.29425e-05
15 1 0.249986 0.166281 0.559748 0 0.000127792 4.19617e-05
16 1 0.749986 0.166281 0.559748 0 0.000127792 4.19617e-05
17 1 0.249986 0.500392 0.434754 0 -0.000135422 -6.10352e-05
18 1 0.749986 0.500392 0.434754 0 -0.000135422 -6.10352e-05
19 1 0.999986 0.000392963 0.434754 0 -0.000141144 -6.86646e-05
20 1 0.499986 0.000392963 0.434754 0 -0.000141144 -6.86646e-05
21 1 0.999986 0.666273 0.809743 0 0.000133514 0.000143051
22 1 0.249986 0.500371 0.684743 0 -0.000110626 0.000127792
23 1 0.499986 0.666273 0.809743 0 0.000133514 0.000143051
24 1 0.749986 0.500371 0.684743 0 -0.000110626 0.000127792
25 1 0.999986 0.000370533 0.684742 0 -0.000101089 0.000188828
26 1 0.249986 0.166274 0.809742 0 0.000141144 0.000171661
27 1 0.749986 0.166274 0.809742 0 0.000141144 0.000171661
28 1 0.499986 0.000370533 0.684742 0 -0.000101089 0.000188828
29 1 0.249986 0.500375 0.934748 0 -0.000143051 4.19617e-05
30 1 0.749986 0.500375 0.934748 0 -0.000143051 4.19617e-05
31 1 0.999986 0.000374416 0.934746 0 -0.000116348 9.91821e-05
32 1 0.499986 0.000374417 0.934746 0 -0.000116348 9.91821e-05
ITEM: TIMESTEP
10
ITEM: NUMBER OF ATOMS
32
ITEM: BOX BOUNDS xy xz yz pp pp pp
8.9961290359497070e-04 6.3959325551986694e+00 0.0000000000000000e+00
3.6114454269409180e-04 5.5200700163841248e+00 0.0000000000000000e+00
6.7903995513916016e-03 2.0718596041202545e+01 0.0000000000000000e+00
ITEM: ATOMS id type xs ys zs fx fy fz
1 1 0.999986 0.666285 0.0597547 0 0.000192642 -0.000104904
2 1 0.499986 0.666285 0.0597547 0 0.000192642 -0.000104904
3 1 0.249986 0.166286 0.0597528 0 0.000171661 -3.24249e-05
4 1 0.749986 0.166286 0.0597528 0 0.000171661 -3.24249e-05
5 1 0.999986 0.666298 0.30976 0 0.000146866 -0.000177383
6 1 0.249986 0.500389 0.184759 0 -0.000179291 -0.000183105
7 1 0.749986 0.500389 0.184759 0 -0.000179291 -0.000183105
8 1 0.499986 0.666298 0.30976 0 0.000146866 -0.000177383
9 1 0.999986 0.000389633 0.184758 0 -0.000171661 -0.000133514
10 1 0.249986 0.166297 0.309758 0 0.000156403 -0.000114441
11 1 0.499986 0.000389633 0.184758 0 -0.000171661 -0.000133514
12 1 0.749986 0.166297 0.309758 0 0.000156403 -0.000114441
13 1 0.999986 0.66628 0.559747 0 0.00018692 5.72205e-05
14 1 0.499986 0.66628 0.559747 0 0.00018692 5.72205e-05
15 1 0.249986 0.166281 0.559748 0 0.000177383 5.34058e-05
16 1 0.749986 0.166281 0.559748 0 0.000177383 5.34058e-05
17 1 0.249986 0.500392 0.434754 0 -0.000181198 -5.91278e-05
18 1 0.749986 0.500392 0.434754 0 -0.000181198 -5.91278e-05
19 1 0.999986 0.000392961 0.434754 0 -0.000198364 -7.24792e-05
20 1 0.499986 0.000392961 0.434754 0 -0.000198364 -7.24792e-05
21 1 0.999986 0.666273 0.809743 0 0.000185013 0.000139236
22 1 0.249986 0.500371 0.684743 0 -0.00015831 0.000118256
23 1 0.499986 0.666273 0.809743 0 0.000185013 0.000139236
24 1 0.749986 0.500371 0.684743 0 -0.00015831 0.000118256
25 1 0.999986 0.000370532 0.684742 0 -0.000152588 0.000171661
26 1 0.249986 0.166274 0.809742 0 0.000177383 0.000171661
27 1 0.749986 0.166274 0.809742 0 0.000177383 0.000171661
28 1 0.499986 0.000370531 0.684742 0 -0.000152588 0.000171661
29 1 0.249986 0.500375 0.934748 0 -0.000175476 5.34058e-05
30 1 0.749986 0.500375 0.934748 0 -0.000175476 5.34058e-05
31 1 0.999986 0.000374415 0.934746 0 -0.000177383 0.000112534
32 1 0.499986 0.000374415 0.934746 0 -0.000177383 0.000112534
ITEM: TIMESTEP
11
ITEM: NUMBER OF ATOMS
32
ITEM: BOX BOUNDS xy xz yz pp pp pp
8.2159042358398438e-04 6.3960105776786804e+00 0.0000000000000000e+00
1.5532970428466797e-04 5.5202758312225342e+00 0.0000000000000000e+00
7.8263282775878906e-03 2.0717560112476349e+01 0.0000000000000000e+00
ITEM: ATOMS id type xs ys zs fx fy fz
1 1 0.999986 0.666285 0.0597547 0 0.000230789 -7.82013e-05
2 1 0.499986 0.666285 0.0597547 0 0.000230789 -7.82013e-05
3 1 0.249986 0.166286 0.0597528 0 0.000219345 -1.33514e-05
4 1 0.749986 0.166286 0.0597528 0 0.000219345 -1.33514e-05
5 1 0.999986 0.666298 0.30976 0 0.00022316 -0.000198364
6 1 0.249986 0.500389 0.184759 0 -0.000232697 -0.000167847
7 1 0.749986 0.500389 0.184759 0 -0.000232697 -0.000167847
8 1 0.499986 0.666298 0.30976 0 0.00022316 -0.000198364
9 1 0.999986 0.00038963 0.184758 0 -0.000236511 -0.000120163
10 1 0.249986 0.166297 0.309758 0 0.00022316 -0.000141144
11 1 0.499986 0.00038963 0.184758 0 -0.000236511 -0.000120163
12 1 0.749986 0.166297 0.309758 0 0.00022316 -0.000141144
13 1 0.999986 0.66628 0.559747 0 0.000255585 8.39233e-05
14 1 0.499986 0.66628 0.559747 0 0.000255585 8.39233e-05
15 1 0.249986 0.166281 0.559748 0 0.000249863 6.67572e-05
16 1 0.749986 0.166281 0.559748 0 0.000249863 6.67572e-05
17 1 0.249986 0.500392 0.434754 0 -0.000261307 -6.86646e-05
18 1 0.749986 0.500392 0.434754 0 -0.000261307 -6.86646e-05
19 1 0.999986 0.000392958 0.434754 0 -0.000268936 -9.34601e-05
20 1 0.499986 0.000392958 0.434754 0 -0.000268936 -9.34601e-05
21 1 0.999986 0.666273 0.809743 0 0.000247955 0.0001297
22 1 0.249986 0.500371 0.684743 0 -0.000230789 0.000139236
23 1 0.499986 0.666273 0.809743 0 0.000247955 0.0001297
24 1 0.749986 0.500371 0.684743 0 -0.000230789 0.000139236
25 1 0.999986 0.000370529 0.684742 0 -0.000226974 0.00018692
26 1 0.249986 0.166274 0.809742 0 0.000246048 0.000148773
27 1 0.749986 0.166274 0.809742 0 0.000246048 0.000148773
28 1 0.499986 0.000370529 0.684742 0 -0.000226974 0.00018692
29 1 0.249986 0.500375 0.934748 0 -0.000221252 3.62396e-05
30 1 0.749986 0.500375 0.934748 0 -0.000221252 3.62396e-05
31 1 0.999986 0.000374412 0.934746 0 -0.000217438 8.96454e-05
32 1 0.499986 0.000374413 0.934746 0 -0.000217438 8.96454e-05
ITEM: TIMESTEP
12
ITEM: NUMBER OF ATOMS
32
ITEM: BOX BOUNDS xy xz yz pp pp pp
7.4410438537597656e-04 6.3960880637168884e+00 0.0000000000000000e+00
-5.0246715545654297e-05 5.5204814076423645e+00 0.0000000000000000e+00
8.8622570037841797e-03 2.0716524183750153e+01 0.0000000000000000e+00
ITEM: ATOMS id type xs ys zs fx fy fz
1 1 0.999986 0.666285 0.0597547 0 0.000274658 -0.000104904
2 1 0.499986 0.666285 0.0597547 0 0.000274658 -0.000104904
3 1 0.249986 0.166286 0.0597528 0 0.000257492 -1.33514e-05
4 1 0.749986 0.166286 0.0597528 0 0.000257492 -1.33514e-05
5 1 0.999986 0.666298 0.30976 0 0.000270844 -0.000183105
6 1 0.249986 0.500389 0.184759 0 -0.000268936 -0.00019455
7 1 0.749986 0.500389 0.184759 0 -0.000268936 -0.00019455
8 1 0.499986 0.666298 0.30976 0 0.000270844 -0.000183105
9 1 0.999986 0.000389626 0.184758 0 -0.00028038 -0.000137329
10 1 0.249986 0.166297 0.309758 0 0.000267029 -0.000110626
11 1 0.499986 0.000389626 0.184758 0 -0.00028038 -0.000137329
12 1 0.749986 0.166297 0.309758 0 0.000267029 -0.000110626
13 1 0.999986 0.66628 0.559747 0 0.000303268 6.86646e-05
14 1 0.499986 0.66628 0.559747 0 0.000303268 6.86646e-05
15 1 0.249986 0.166281 0.559748 0 0.000293732 4.95911e-05
16 1 0.749986 0.166281 0.559748 0 0.000293732 4.95911e-05
17 1 0.249986 0.500392 0.434754 0 -0.000295639 -5.72205e-05
18 1 0.749986 0.500392 0.434754 0 -0.000295639 -5.72205e-05
19 1 0.999986 0.000392954 0.434754 0 -0.000318527 -7.43866e-05
20 1 0.499986 0.000392954 0.434754 0 -0.000318527 -7.43866e-05
21 1 0.999986 0.666273 0.809743 0 0.000282288 0.000148773
22 1 0.249986 0.500371 0.684743 0 -0.000270844 0.000106812
23 1 0.499986 0.666273 0.809743 0 0.000282288 0.000148773
24 1 0.749986 0.500371 0.684743 0 -0.000270844 0.000106812
25 1 0.999986 0.000370526 0.684742 0 -0.000265121 0.000173569
26 1 0.249986 0.166274 0.809742 0 0.000278473 0.000177383
27 1 0.749986 0.166274 0.809742 0 0.000278473 0.000177383
28 1 0.499986 0.000370525 0.684742 0 -0.000265121 0.000173569
29 1 0.249986 0.500375 0.934748 0 -0.000265121 4.95911e-05
30 1 0.749986 0.500375 0.934748 0 -0.000265121 4.95911e-05
31 1 0.999986 0.000374408 0.934746 0 -0.000263214 0.000101089
32 1 0.499986 0.000374409 0.934746 0 -0.000263214 0.000101089
ITEM: TIMESTEP
13
ITEM: NUMBER OF ATOMS
32
ITEM: BOX BOUNDS xy xz yz pp pp pp
6.6673755645751953e-04 6.3961654305458069e+00 0.0000000000000000e+00
-2.5516748428344727e-04 5.5206863284111023e+00 0.0000000000000000e+00
9.8981857299804688e-03 2.0715488255023956e+01 0.0000000000000000e+00
ITEM: ATOMS id type xs ys zs fx fy fz
1 1 0.999986 0.666285 0.0597547 0 0.000354767 -0.000106812
2 1 0.499986 0.666285 0.0597547 0 0.000354767 -0.000106812
3 1 0.249986 0.166286 0.0597528 0 0.000333786 -2.67029e-05
4 1 0.749986 0.166286 0.0597528 0 0.000333786 -2.67029e-05
5 1 0.999986 0.666298 0.30976 0 0.000312805 -0.000190735
6 1 0.249986 0.500389 0.184759 0 -0.000328064 -0.00019455
7 1 0.749986 0.500389 0.184759 0 -0.000328064 -0.00019455
8 1 0.499986 0.666298 0.30976 0 0.000312805 -0.000190735
9 1 0.999986 0.000389622 0.184758 0 -0.00034523 -0.0001297
10 1 0.249986 0.166297 0.309758 0 0.000324249 -0.000125885
11 1 0.499986 0.000389622 0.184758 0 -0.00034523 -0.0001297
12 1 0.749986 0.166297 0.309758 0 0.000324249 -0.000125885
13 1 0.999986 0.66628 0.559747 0 0.00034523 8.01086e-05
14 1 0.499986 0.66628 0.559747 0 0.00034523 8.01086e-05