LAMMPS (4 May 2022)
clear
units 	metal
dimension	3
boundary	p	p    p
atom_style	atomic
box         tilt large
read_data   input.dat
Reading data file ...
  orthogonal box = (0 0 0) to (6.3968322 5.5204312 20.725386)
  1 by 1 by 1 MPI processor grid
  reading atoms ...
  32 atoms
  read_data CPU = 0.000 seconds
mass            1 24.305
mass            2 65.409
mass            3 88.906
neigh_modify    every 1 delay 0 check no
pair_style mdpu model.pb
pair_coeff * *
change_box  all triclinic
Changing box ...
  triclinic box = (0 0 0) to (6.3968322 5.5204312 20.725386) with tilt (0 0 0)
compute         mype all pe
# thermo          100
thermo          1
thermo_style    custom step pe pxx pyy pzz pxy pxz pyz lx ly lz vol c_mype
# dump            1 all custom 100 dump.relax id type xs ys zs fx fy fz
dump            1 all custom 1 dump.relax id type xs ys zs fx fy fz
min_style       cg
fix             1 all box/relax iso 0.0
minimize        1.000000e-12 1.000000e-06 5000 500000
WARNING: Using 'neigh_modify every 1 delay 0 check yes' setting during minimization (../min.cpp:187)
Generated 0 of 3 mixed pair_coeff terms from geometric mixing rule
Neighbor list info ...
  update every 1 steps, delay 0 steps, check yes
  max neighbors/atom: 2000, page size: 100000
  master list distance cutoff = 8
  ghost atom cutoff = 8
  binsize = 4, bins = 2 2 6
  1 neighbor lists, perpetual/occasional/extra = 1 0 0
  (1) pair mdpu, perpetual
      attributes: full, newton on
      pair build: full/bin/atomonly
      stencil: full/bin/3d
      bin: standard
Per MPI rank memory allocation (min/avg/max) = 5.465 | 5.465 | 5.465 Mbytes
   Step         PotEng          Pxx            Pyy            Pzz            Pxy            Pxz            Pyz             Lx             Ly             Lz           Volume         c_mype    
         0  -21.119884      2264.5791      3242.5119      3976.2996      0              0             -0.058455837    6.3968322      5.5204312      20.725386      731.8812      -21.119884    
         1  -21.120297      2156.8743      3139.0552      3873.8417      0              0              0.041741645    6.3974718      5.5209832      20.727459      732.10079     -21.120297    
         2  -21.120711      2048.9502      3031.2538      3771.7873      0              0             -0.016691651    6.3981115      5.5215353      20.729532      732.32042     -21.120711    
         3  -21.121114      1940.4399      2930.0664      3668.6757      0              0             -0.03337329     6.3987512      5.5220873      20.731604      732.5401      -21.121114    
         4  -21.121501      1833.5293      2822.0333      3566.1263      0              0             -0.025022462    6.3993909      5.5226394      20.733677      732.75982     -21.121501    
         5  -21.121866      1731.1353      2718.2923      3464.2301      0              0              0.14175144     6.4000306      5.5231915      20.735749      732.97958     -21.121866    
         6  -21.122217      1622.7008      2614.8551      3363.3617      0              0             -0.11670148     6.4006702      5.5237435      20.737822      733.19939     -21.122217    
         7  -21.122562      1516.252       2507.6131      3260.1703     -0.012499982    0              0.079166554    6.4013099      5.5242956      20.739894      733.41925     -21.122562    
         8  -21.122897      1407.326       2404.309       3158.2069      0              0              0.19160894     6.4019496      5.5248476      20.741967      733.63914     -21.122897    
         9  -21.123195      1299.4522      2298.5849      3056.6375      0              0              0.14158156     6.4025893      5.5253997      20.74404       733.85908     -21.123195    
        10  -21.123512      1192.8252      2193.5401      2955.8948      0              0             -0.12488747     6.4032289      5.5259517      20.746112      734.07907     -21.123512    
        11  -21.123776      1085.8957      2090.922       2853.7141      0              0              0.1831134      6.4038686      5.5265038      20.748185      734.29909     -21.123776    
        12  -21.124055      980.76107      1985.353       2753.3002      0              0             -0.058245898    6.4045083      5.5270559      20.750257      734.51917     -21.124055    
        13  -21.124296      874.84084      1879.8056      2651.449       0              0              0.091501847    6.405148       5.5276079      20.75233       734.73928     -21.124296    
        14  -21.124544      765.52462      1775.0365      2549.2512      0              0              0.2577916      6.4057876      5.52816        20.754402      734.95944     -21.124544    
        15  -21.124755      660.23099      1669.4571      2449.3009      0              0             -0.074820304    6.4064273      5.528712       20.756475      735.17965     -21.124755    
        16  -21.124987      552.72321      1565.495       2349.3853      0              0              0.42385474     6.407067       5.5292641      20.758548      735.39989     -21.124987    
        17  -21.125182      446.40972      1459.5097      2248.3247      0              0              0.049850331    6.4077067      5.5298162      20.76062       735.62019     -21.125182    
        18  -21.125354      338.8143       1353.5379      2148.3212      0              0             -0.0083059007   6.4083464      5.5303682      20.762693      735.84052     -21.125354    
        19  -21.125517      231.61543      1249.8548      2049.3573      0              0              0.091337553    6.408986       5.5309203      20.764765      736.0609      -21.125517    
        20  -21.125686      123.16917      1143.926       1947.8792      0              0              0.033203712    6.4096257      5.5314723      20.766838      736.28133     -21.125686    
        21  -21.125826      18.621707      1039.7783      1847.8724      0              0              0.13277509     6.4102654      5.5320244      20.76891       736.50179     -21.125826    
        22  -21.12594      -89.529993      935.11224      1745.9842      0              0              0.10784747     6.4109051      5.5325764      20.770983      736.72231     -21.12594     
        23  -21.126062     -195.74263      830.83218      1648.909       0.020733691   -0.033173906   -0.26539125     6.4115447      5.5331285      20.773056      736.94286     -21.126062    
        24  -21.126163     -303.99761      727.02903      1548.7661      0              0             -0.19069288     6.4121844      5.5336806      20.775128      737.16346     -21.126163    
        25  -21.126261     -410.62955      620.88428      1448.7162      0              0             -0.1823473      6.4128241      5.5342326      20.777201      737.38411     -21.126261    
        26  -21.126311     -517.81083      516.73364      1349.3806      0              0              0.099432406    6.4134638      5.5347847      20.779273      737.6048      -21.126311    
        27  -21.12637      -623.47005      411.0797       1249.947       0              0             -0.21537243     6.4141034      5.5353367      20.781346      737.82553     -21.12637     
        28  -21.126399     -731.56691      303.85756      1150.2582      0              0              0.20702693     6.4147431      5.5358888      20.783418      738.0463      -21.126399    
        29  -21.126428     -839.05268      199.00099      1052.0611      0              0              0              6.4153828      5.5364408      20.785491      738.26712     -21.126428    
        30  -21.126454     -944.73613      93.288472      952.17637      0              0              0.033104497    6.4160225      5.5369929      20.787564      738.48799     -21.126454    
        31  -21.126465     -980.93727      59.391813      918.83116      0              0             -0.24825894     6.416236       5.5371772      20.788256      738.56172     -21.126465    
        32  -21.126471     -949.76584     -0.099299418    904.65908      0              0             -0.082749515    6.4163255      5.5372545      20.788546      738.59264     -21.126471    
        33  -21.126471     -949.76584     -0.099299418    904.65908      0              0             -0.082749515    6.4163255      5.5372545      20.788546      738.59264     -21.126471    
Loop time of 0.0159944 on 1 procs for 33 steps with 32 atoms

75.2% CPU use with 1 MPI tasks x no OpenMP threads

Minimization stats:
  Stopping criterion = linesearch alpha is zero
  Energy initial, next-to-last, final = 
     -21.1198840141296  -21.1264708042145  -21.1264708042145
  Force two-norm initial, final = 4.3320568 0.020778458
  Force max component initial, final = 4.3320541 0.020776374
  Final line search alpha, max atom move = 1.9073858e-05 3.9628561e-07
  Iterations, force evaluations = 33 59

MPI task timing breakdown:
Section |  min time  |  avg time  |  max time  |%varavg| %total
---------------------------------------------------------------
Pair    | 0.0091647  | 0.0091647  | 0.0091647  |   0.0 | 57.30
Neigh   | 0          | 0          | 0          |   0.0 |  0.00
Comm    | 0.00035603 | 0.00035603 | 0.00035603 |   0.0 |  2.23
Output  | 0.0049317  | 0.0049317  | 0.0049317  |   0.0 | 30.83
Modify  | 0          | 0          | 0          |   0.0 |  0.00
Other   |            | 0.001542   |            |       |  9.64

Nlocal:             32 ave          32 max          32 min
Histogram: 1 0 0 0 0 0 0 0 0 0
Nghost:            752 ave         752 max         752 min
Histogram: 1 0 0 0 0 0 0 0 0 0
Neighs:              0 ave           0 max           0 min
Histogram: 1 0 0 0 0 0 0 0 0 0
FullNghs:         2944 ave        2944 max        2944 min
Histogram: 1 0 0 0 0 0 0 0 0 0

Total # of neighbors = 2944
Ave neighs/atom = 92
Neighbor list builds = 0
Dangerous builds not checked
fix             1 all box/relax aniso 0.0
minimize        1.000000e-12 1.000000e-06 5000 500000
WARNING: Using 'neigh_modify every 1 delay 0 check yes' setting during minimization (../min.cpp:187)
Generated 0 of 3 mixed pair_coeff terms from geometric mixing rule
Per MPI rank memory allocation (min/avg/max) = 5.465 | 5.465 | 5.465 Mbytes
   Step         PotEng          Pxx            Pyy            Pzz            Pxy            Pxz            Pyz             Lx             Ly             Lz           Volume         c_mype    
        33  -21.126471     -949.76584     -0.099299418    904.65908      0              0             -0.082749515    6.4163255      5.5372545      20.788546      738.59264     -21.126471    
        34  -21.126552     -901.4775       11.518787      856.86703      0              0              0.12412486     6.4156839      5.5372545      20.790526      738.58913     -21.126552    
        35  -21.126628     -852.93958      24.121688      808.56064      0              0              0.14895039     6.4150423      5.5372615      20.792501      738.58638     -21.126628    
        36  -21.126705     -802.39772      33.629771      760.08743      0              0             -0.11585059     6.4144008      5.5372771      20.794471      738.58457     -21.126705    
        37  -21.126755     -757.13415      44.561154      712.56472      0              0              0.0082750519   6.4137592      5.5373003      20.796439      738.58369     -21.126755    
        38  -21.12682      -709.07276      51.247405      665.36393      0              0              0.19860128     6.4131176      5.5373329      20.798394      738.58357     -21.12682     
        39  -21.126891     -659.14051      58.157023      616.57367      0              0             -0.28962661     6.412476       5.5373729      20.800343      738.58422     -21.126891    
        40  -21.126923     -610.82948      65.430648      568.73441      0              0              0.0082750282   6.4118344      5.5374218      20.802285      738.5858      -21.126923    
        41  -21.126996     -567.36702      72.27384       520.19953      0              0             -0.091024987    6.4111928      5.5374811      20.804218      738.58842     -21.126996    
        42  -21.127027     -520.29668      79.216238      473.98171      0              0              0              6.4105512      5.5375515      20.806121      738.59146     -21.127027    
        43  -21.127084     -475.80762      78.868217      425.14032      0              0              0.01654983     6.4099097      5.5376358      20.808012      738.59589     -21.127084    
        44  -21.127117     -427.0329       81.507462      378.79041      0              0             -0.016549738    6.4092681      5.5377275      20.809866      738.59999     -21.127117    
        45  -21.127163     -382.47404      80.877975      332.53144     -0.016549616    0.012412212    0.070335869    6.4086265      5.5378331      20.811706      738.60544     -21.127163    
        46  -21.127178     -340.07547      80.58774       287.85355      0              0              0.03309898     6.4079849      5.53795        20.813509      738.61109     -21.127178    
        47  -21.127208     -295.21575      80.032704      242.15023      0              0              0              6.4073433      5.538081       20.815264      738.61689     -21.127208    
        48  -21.127224     -252.75619      78.443289      199.8318       0              0             -0.18204139     6.4067017      5.5382309      20.816965      738.62326     -21.127224    
        49  -21.127253     -208.98152      71.218876      157.96077      0              0             -0.033098118    6.4060602      5.5384024      20.818604      738.63031     -21.127253    
        50  -21.127267     -185.62995      68.372126      139.1604       0              0             -0.016548984    6.4057394      5.5384966      20.819387      738.63367     -21.127267    
        51  -21.127267     -185.62995      68.372126      139.1604       0              0             -0.016548984    6.4057394      5.5384966      20.819387      738.63367     -21.127267    
Loop time of 0.00454116 on 1 procs for 18 steps with 32 atoms

64.7% CPU use with 1 MPI tasks x no OpenMP threads

Minimization stats:
  Stopping criterion = linesearch alpha is zero
  Energy initial, next-to-last, final = 
     -21.1264708042145  -21.1272671222687  -21.1272671222687
  Force two-norm initial, final = 0.60466853 0.11195733
  Force max component initial, final = 0.43783569 0.085720346
  Final line search alpha, max atom move = 5.6962118e-07 4.8828125e-08
  Iterations, force evaluations = 18 30

MPI task timing breakdown:
Section |  min time  |  avg time  |  max time  |%varavg| %total
---------------------------------------------------------------
Pair    | 0.002933   | 0.002933   | 0.002933   |   0.0 | 64.59
Neigh   | 0          | 0          | 0          |   0.0 |  0.00
Comm    | 8.5629e-05 | 8.5629e-05 | 8.5629e-05 |   0.0 |  1.89
Output  | 0.0010804  | 0.0010804  | 0.0010804  |   0.0 | 23.79
Modify  | 0          | 0          | 0          |   0.0 |  0.00
Other   |            | 0.0004421  |            |       |  9.73

Nlocal:             32 ave          32 max          32 min
Histogram: 1 0 0 0 0 0 0 0 0 0
Nghost:            654 ave         654 max         654 min
Histogram: 1 0 0 0 0 0 0 0 0 0
Neighs:              0 ave           0 max           0 min
Histogram: 1 0 0 0 0 0 0 0 0 0
FullNghs:         2752 ave        2752 max        2752 min
Histogram: 1 0 0 0 0 0 0 0 0 0

Total # of neighbors = 2752
Ave neighs/atom = 86
Neighbor list builds = 0
Dangerous builds not checked
fix             1 all box/relax tri 0.0
minimize        1.000000e-12 1.000000e-06 5000 500000
WARNING: Using 'neigh_modify every 1 delay 0 check yes' setting during minimization (../min.cpp:187)
Generated 0 of 3 mixed pair_coeff terms from geometric mixing rule
Per MPI rank memory allocation (min/avg/max) = 5.465 | 5.465 | 5.465 Mbytes
   Step         PotEng          Pxx            Pyy            Pzz            Pxy            Pxz            Pyz             Lx             Ly             Lz           Volume         c_mype    
        51  -21.127267     -185.62995      68.372126      139.1604       0              0             -0.016548984    6.4057394      5.5384966      20.819387      738.63367     -21.127267    
        52  -21.127275     -140.61506      59.749402      96.975902      0              0              0              6.4050987      5.5387006      20.820948      738.64237     -21.127275    
        53  -21.127284     -129.72559      55.835454      88.014482      0              0             -0.16548742     6.4049386      5.5387594      20.821307      738.64448     -21.127284    
        54  -21.127284     -129.72559      55.835454      88.014482      0              0             -0.16548742     6.4049386      5.5387594      20.821307      738.64448     -21.127284    
Loop time of 0.00192993 on 1 procs for 3 steps with 32 atoms

56.7% CPU use with 1 MPI tasks x no OpenMP threads

Minimization stats:
  Stopping criterion = linesearch alpha is zero
  Energy initial, next-to-last, final = 
     -21.1272671222687  -21.1272842884064  -21.1272842884064
  Force two-norm initial, final = 0.11190554 0.077417738
  Force max component initial, final = 0.085578918 0.059814301
  Final line search alpha, max atom move = 1.6326572e-06 9.765625e-08
  Iterations, force evaluations = 3 15

MPI task timing breakdown:
Section |  min time  |  avg time  |  max time  |%varavg| %total
---------------------------------------------------------------
Pair    | 0.0015145  | 0.0015145  | 0.0015145  |   0.0 | 78.47
Neigh   | 0          | 0          | 0          |   0.0 |  0.00
Comm    | 4.3209e-05 | 4.3209e-05 | 4.3209e-05 |   0.0 |  2.24
Output  | 0.00013546 | 0.00013546 | 0.00013546 |   0.0 |  7.02
Modify  | 0          | 0          | 0          |   0.0 |  0.00
Other   |            | 0.0002368  |            |       | 12.27

Nlocal:             32 ave          32 max          32 min
Histogram: 1 0 0 0 0 0 0 0 0 0
Nghost:            654 ave         654 max         654 min
Histogram: 1 0 0 0 0 0 0 0 0 0
Neighs:              0 ave           0 max           0 min
Histogram: 1 0 0 0 0 0 0 0 0 0
FullNghs:         2752 ave        2752 max        2752 min
Histogram: 1 0 0 0 0 0 0 0 0 0

Total # of neighbors = 2752
Ave neighs/atom = 86
Neighbor list builds = 0
Dangerous builds not checked
variable        N equal count(all)
variable        V equal vol
variable        E equal "c_mype"
variable        tmplx equal lx
variable        tmply equal ly
variable        Pxx equal pxx
variable        Pyy equal pyy
variable        Pzz equal pzz
variable        Pxy equal pxy
variable        Pxz equal pxz
variable        Pyz equal pyz
variable        Epa equal ${E}/${N}
variable        Epa equal -21.1272842884064/${N}
variable        Epa equal -21.1272842884064/32
variable        Vpa equal ${V}/${N}
variable        Vpa equal 738.644481254961/${N}
variable        Vpa equal 738.644481254961/32
variable        AA equal (${tmplx}*${tmply})
variable        AA equal (6.4049386382103*${tmply})
variable        AA equal (6.4049386382103*5.53875935077667)
write_data      min.dat
System init for write_data ...
Generated 0 of 3 mixed pair_coeff terms from geometric mixing rule
print "All done"
All done
print "Total number of atoms = ${N}"
Total number of atoms = 32
print "Final energy per atoms = ${Epa}"
Final energy per atoms = -0.6602276340127
print "Final volume per atoms = ${Vpa}"
Final volume per atoms = 23.0826400392175
print "Final Base area = ${AA}"
Final Base area = 35.4754137735381
print "Final Stress (xx yy zz xy xz yz) = ${Pxx} ${Pyy} ${Pzz} ${Pxy} ${Pxz} ${Pyz}"
ERROR: Compute pressure thermo_press used in variable thermo keyword between runs is not current (../thermo.cpp:1174)
Last command: Final Stress (xx yy zz xy xz yz) = ${Pxx
