ITEM: TIMESTEP
0
ITEM: NUMBER OF ATOMS
48
ITEM: BOX BOUNDS xy xz yz pp pp pp
-4.0510369539260864e+00 8.6067802309989929e+00 2.5094206929206848e+00
-9.4973444938659668e-03 9.3236122131347656e+00 -4.0389998555183411e+00
-2.8691649436950684e-02 1.9545819282531738e+01 7.1304261684417725e-02
ITEM: ATOMS id type xs ys zs fx fy fz
6 1 0.0640221 0.0420026 0.90702 0 0 -0.142891
9 1 0.0084531 0.0321465 0.677802 0 0 -0.00183678
20 1 0.0640222 0.375336 0.90702 0 0 -0.142891
22 1 0.154964 0.333676 0.532027 0 0 0.000154495
24 1 0.00845315 0.36548 0.677802 0 0 -0.00183678
26 1 0.0991124 0.323895 0.302807 0 0 -0.00120926
36 1 0.0640221 0.708669 0.90702 0 0 -0.142885
38 1 0.154963 0.667009 0.532027 0 0 0.000152588
40 1 0.00845274 0.698813 0.677802 0 0 -0.0018425
42 1 0.0991123 0.657228 0.302807 0 0 -0.00121307
47 1 0.154963 0.000342385 0.532027 0 0 0.000152588
48 1 0.0991125 0.990562 0.302807 0 0 -0.00120926
1 1 0.94277 0.16703 0.0320218 0 0 1.08453
2 1 0.493154 0.0738739 0.0528103 0 0 0.142891
3 1 0.458064 0.125314 0.657023 0 0 0.00121307
4 1 0.614406 0.948847 0.927808 0 0 -1.08452
5 1 0.311467 0.157156 0.802805 0 0 0.00494194
7 1 0.761079 0.250315 0.78202 0 0 -0.00637245
8 1 0.851823 0.208712 0.407029 0 0 0.0013485
10 1 0.705353 0.240498 0.552801 0 0 -0.00134087
11 1 0.796097 0.198895 0.17781 0 0 0.00636482
12 1 0.548723 0.0837297 0.282028 0 0 0.00183678
13 1 0.24571 0.292053 0.157025 0 0 -0.00494766
14 1 0.402213 0.115534 0.427803 0 0 -0.00015831
15 1 0.94277 0.500363 0.0320219 0 0 1.08451
16 1 0.493154 0.407207 0.0528103 0 0 0.142895
17 1 0.458064 0.458648 0.657023 0 0 0.00121307
18 1 0.614406 0.28218 0.927808 0 0 -1.08453
19 1 0.311466 0.49049 0.802805 0 0 0.00494766
21 1 0.761079 0.583648 0.78202 0 0 -0.00637436
23 1 0.851823 0.542046 0.407029 0 0 0.00134277
25 1 0.705353 0.573831 0.552801 0 0 -0.00134468
27 1 0.796097 0.532228 0.17781 0 0 0.00636864
28 1 0.548723 0.417063 0.282028 0 0 0.0018425
29 1 0.24571 0.625387 0.157025 0 0 -0.00494957
30 1 0.402213 0.448867 0.427803 0 0 -0.00015831
31 1 0.94277 0.833696 0.0320219 0 0 1.08452
32 1 0.493154 0.740541 0.0528104 0 0 0.142893
33 1 0.458063 0.791981 0.657023 0 0 0.00120926
34 1 0.614406 0.615514 0.927808 0 0 -1.08452
35 1 0.311467 0.823823 0.802805 0 0 0.00495338
37 1 0.761079 0.916981 0.78202 0 0 -0.00637054
39 1 0.851823 0.875379 0.407029 0 0 0.00134277
41 1 0.705353 0.907164 0.552801 0 0 -0.00133896
43 1 0.796097 0.865562 0.17781 0 0 0.00637054
44 1 0.548723 0.750396 0.282028 0 0 0.00184059
45 1 0.24571 0.95872 0.157026 0 0 -0.00495338
46 1 0.402213 0.782201 0.427803 0 0 -0.000152588
ITEM: TIMESTEP
1
ITEM: NUMBER OF ATOMS
48
ITEM: BOX BOUNDS xy xz yz pp pp pp
-4.0510369539260864e+00 8.6067802309989929e+00 2.5094206929206848e+00
-9.4973444938659668e-03 9.3236122131347656e+00 -4.0389998555183411e+00
-2.8691649436950684e-02 1.9545819282531738e+01 7.1304261684417725e-02
ITEM: ATOMS id type xs ys zs fx fy fz
6 1 0.063575 0.0420078 0.906347 0 0 0.0210285
9 1 0.00844735 0.0321466 0.677793 0 0 -0.00566483
20 1 0.0635751 0.375341 0.906347 0 0 0.0210266
22 1 0.154964 0.333676 0.532028 0 0 0.00127411
24 1 0.00844741 0.36548 0.677793 0 0 -0.00566101
26 1 0.0991087 0.323895 0.302802 0 0 0.00104332
36 1 0.063575 0.708674 0.906347 0 0 0.0210247
38 1 0.154964 0.667009 0.532028 0 0 0.00127029
40 1 0.00844698 0.698813 0.677793 0 0 -0.0056591
42 1 0.0991085 0.657229 0.302802 0 0 0.00104713
47 1 0.154964 0.00034238 0.532028 0 0 0.00127602
48 1 0.0991088 0.990562 0.302802 0 0 0.00104904
1 1 0.946163 0.16699 0.0371305 0 0 0.42062
2 1 0.493601 0.0738687 0.0534834 0 0 -0.0210285
3 1 0.458068 0.125314 0.657029 0 0 -0.00104904
4 1 0.611013 0.948886 0.9227 0 0 -0.420616
5 1 0.311482 0.157156 0.802828 0 0 -0.0838299
7 1 0.761059 0.250315 0.78199 0 0 -0.0685425
8 1 0.851827 0.208712 0.407036 0 0 -0.000411987
10 1 0.705349 0.240498 0.552795 0 0 0.000417709
11 1 0.796117 0.198895 0.17784 0 0 0.068552
12 1 0.548729 0.0837296 0.282037 0 0 0.00566292
13 1 0.245694 0.292053 0.157002 0 0 0.083828
14 1 0.402213 0.115534 0.427802 0 0 -0.00127792
15 1 0.946163 0.500324 0.0371305 0 0 0.420618
16 1 0.493601 0.407202 0.0534834 0 0 -0.0210247
17 1 0.458067 0.458648 0.657029 0 0 -0.00103951
18 1 0.611012 0.28222 0.9227 0 0 -0.42062
19 1 0.311482 0.49049 0.802828 0 0 -0.0838242
21 1 0.761059 0.583648 0.78199 0 0 -0.0685558
23 1 0.851827 0.542045 0.407036 0 0 -0.000415802
25 1 0.705349 0.573831 0.552795 0 0 0.000413895
27 1 0.796117 0.532228 0.17784 0 0 0.0685501
28 1 0.548729 0.417063 0.282037 0 0 0.00566673
29 1 0.245694 0.625387 0.157002 0 0 0.0838203
30 1 0.402212 0.448867 0.427802 0 0 -0.00127602
31 1 0.946163 0.833657 0.0371306 0 0 0.420616
32 1 0.493601 0.740535 0.0534835 0 0 -0.0210285
33 1 0.458067 0.791981 0.657029 0 0 -0.00104141
34 1 0.611012 0.615553 0.9227 0 0 -0.420624
35 1 0.311482 0.823823 0.802828 0 0 -0.0838261
37 1 0.761059 0.916982 0.78199 0 0 -0.0685482
39 1 0.851827 0.875379 0.407036 0 0 -0.000413895
41 1 0.705349 0.907164 0.552795 0 0 0.000419617
43 1 0.796117 0.865561 0.17784 0 0 0.0685463
44 1 0.548729 0.750396 0.282037 0 0 0.00566101
45 1 0.245694 0.95872 0.157002 0 0 0.0838242
46 1 0.402212 0.782201 0.427802 0 0 -0.00127792
ITEM: TIMESTEP
2
ITEM: NUMBER OF ATOMS
48
ITEM: BOX BOUNDS xy xz yz pp pp pp
-4.0510369539260864e+00 8.6067802309989929e+00 2.5094206929206848e+00
-9.4973444938659668e-03 9.3236122131347656e+00 -4.0389998555183411e+00
-2.8691649436950684e-02 1.9545819282531738e+01 7.1304261684417725e-02
ITEM: ATOMS id type xs ys zs fx fy fz
6 1 0.0637299 0.042006 0.90658 0 0 0.0875454
9 1 0.00840561 0.032147 0.67773 0 0 -0.0247707
20 1 0.0637301 0.375339 0.90658 0 0 0.0875473
22 1 0.154973 0.333675 0.532042 0 0 -0.000408173
24 1 0.00840569 0.36548 0.67773 0 0 -0.0247631
26 1 0.0991163 0.323895 0.302813 0 0 0.0201054
36 1 0.06373 0.708673 0.90658 0 0 0.0875435
38 1 0.154973 0.667009 0.532042 0 0 -0.000408173
40 1 0.00840528 0.698814 0.67773 0 0 -0.0247688
42 1 0.0991162 0.657228 0.302813 0 0 0.0201073
47 1 0.154973 0.000342271 0.532042 0 0 -0.00041008
48 1 0.0991165 0.990562 0.302813 0 0 0.0201073
1 1 0.949263 0.166954 0.0417965 0 0 -0.0478191
2 1 0.493446 0.0738705 0.0532501 0 0 -0.0875397
3 1 0.45806 0.125314 0.657017 0 0 -0.0201073
4 1 0.607913 0.948922 0.918034 0 0 0.0478153
5 1 0.310864 0.157163 0.801898 0 0 -0.124882
7 1 0.760554 0.250321 0.78123 0 0 -0.0915451
8 1 0.851824 0.208712 0.407031 0 0 0.000482559
10 1 0.705352 0.240498 0.552799 0 0 -0.000482559
11 1 0.796622 0.198889 0.1786 0 0 0.091547
12 1 0.548771 0.0837291 0.2821 0 0 0.0247631
13 1 0.246312 0.292046 0.157932 0 0 0.124882
14 1 0.402203 0.115534 0.427788 0 0 0.000408173
15 1 0.949263 0.500288 0.0417965 0 0 -0.047821
16 1 0.493446 0.407204 0.0532502 0 0 -0.0875454
17 1 0.45806 0.458648 0.657017 0 0 -0.0201054
18 1 0.607913 0.282256 0.918034 0 0 0.0478191
19 1 0.310864 0.490497 0.801898 0 0 -0.124884
21 1 0.760554 0.583654 0.78123 0 0 -0.0915394
23 1 0.851824 0.542046 0.407031 0 0 0.000480652
25 1 0.705352 0.573831 0.552799 0 0 -0.000480652
27 1 0.796622 0.532222 0.1786 0 0 0.0915451
28 1 0.548771 0.417063 0.2821 0 0 0.0247669
29 1 0.246312 0.62538 0.157932 0 0 0.124882
30 1 0.402203 0.448868 0.427788 0 0 0.000408173
31 1 0.949263 0.833621 0.0417965 0 0 -0.0478134
32 1 0.493446 0.740537 0.0532502 0 0 -0.0875454
33 1 0.45806 0.791981 0.657017 0 0 -0.0201054
34 1 0.607913 0.615589 0.918034 0 0 0.0478172
35 1 0.310864 0.82383 0.801898 0 0 -0.124882
37 1 0.760554 0.916988 0.78123 0 0 -0.0915451
39 1 0.851824 0.875379 0.407031 0 0 0.000482559
41 1 0.705352 0.907164 0.552799 0 0 -0.000482559
43 1 0.796622 0.865555 0.1786 0 0 0.0915432
44 1 0.548771 0.750396 0.2821 0 0 0.024765
45 1 0.246312 0.958713 0.157932 0 0 0.124882
46 1 0.402203 0.782201 0.427788 0 0 0.000408173
ITEM: TIMESTEP
3
ITEM: NUMBER OF ATOMS
48
ITEM: BOX BOUNDS xy xz yz pp pp pp
-4.0510369539260864e+00 8.6067802309989929e+00 2.5094206929206848e+00
-9.4973444938659668e-03 9.3236122131347656e+00 -4.0389998555183411e+00
-2.8691649436950684e-02 1.9545819282531738e+01 7.1304261684417725e-02
ITEM: ATOMS id type xs ys zs fx fy fz
6 1 0.064823 0.0419933 0.908225 0 0 -0.0165787
9 1 0.00809698 0.0321506 0.677266 0 0 -0.0554123
20 1 0.0648231 0.375327 0.908225 0 0 -0.0165825
22 1 0.154972 0.333676 0.532039 0 0 -0.0106907
24 1 0.00809716 0.365484 0.677266 0 0 -0.0554161
26 1 0.0993587 0.323892 0.303178 0 0 0.0529861
36 1 0.064823 0.70866 0.908225 0 0 -0.0165749
38 1 0.154971 0.667009 0.532039 0 0 -0.010685
40 1 0.00809668 0.698817 0.677266 0 0 -0.0554199
42 1 0.0993586 0.657226 0.303178 0 0 0.0529823
47 1 0.154971 0.000342294 0.532039 0 0 -0.0106907
48 1 0.0993589 0.990559 0.303178 0 0 0.0529804
1 1 0.949656 0.16695 0.0423884 0 0 0.00486946
2 1 0.492353 0.0738832 0.0516047 0 0 0.0165749
3 1 0.457817 0.125317 0.656652 0 0 -0.0529823
4 1 0.60752 0.948927 0.917442 0 0 -0.00486565
5 1 0.309182 0.157183 0.799365 0 0 0.00700569
7 1 0.759304 0.250335 0.779348 0 0 0.00899887
8 1 0.851829 0.208712 0.407038 0 0 0.0101357
10 1 0.705347 0.240498 0.552792 0 0 -0.0101299
11 1 0.797872 0.198874 0.180482 0 0 -0.0090065
12 1 0.549079 0.0837255 0.282564 0 0 0.0554199
13 1 0.247994 0.292027 0.160465 0 0 -0.0070076
14 1 0.402205 0.115534 0.427791 0 0 0.0106888
15 1 0.949656 0.500283 0.0423883 0 0 0.00486946
16 1 0.492353 0.407216 0.0516047 0 0 0.0165787
17 1 0.457817 0.458651 0.656652 0 0 -0.0529881
18 1 0.60752 0.28226 0.917442 0 0 -0.00486565
19 1 0.309182 0.490516 0.799365 0 0 0.00700569
21 1 0.759304 0.583669 0.779348 0 0 0.00900459
23 1 0.851829 0.542045 0.407038 0 0 0.0101357
25 1 0.705347 0.573831 0.552792 0 0 -0.0101337
27 1 0.797872 0.532208 0.180482 0 0 -0.00900841
28 1 0.549079 0.417059 0.282564 0 0 0.0554142
29 1 0.247994 0.62536 0.160465 0 0 -0.00700188
30 1 0.402205 0.448868 0.427791 0 0 0.0106888
31 1 0.949656 0.833616 0.0423885 0 0 0.00486183
32 1 0.492353 0.74055 0.0516047 0 0 0.0165787
33 1 0.457817 0.791984 0.656652 0 0 -0.0529842
34 1 0.60752 0.615593 0.917442 0 0 -0.00486946
35 1 0.309182 0.82385 0.799365 0 0 0.00700378
37 1 0.759304 0.917002 0.779348 0 0 0.00900841
39 1 0.851829 0.875379 0.407038 0 0 0.0101337
41 1 0.705347 0.907164 0.552792 0 0 -0.0101376
43 1 0.797872 0.865541 0.180482 0 0 -0.00900078
44 1 0.549079 0.750392 0.282564 0 0 0.055418
45 1 0.247995 0.958693 0.160465 0 0 -0.00700188
46 1 0.402205 0.782201 0.427791 0 0 0.0106907
ITEM: TIMESTEP
4
ITEM: NUMBER OF ATOMS
48
ITEM: BOX BOUNDS xy xz yz pp pp pp
-4.0510369539260864e+00 8.6067802309989929e+00 2.5094206929206848e+00
-9.4973444938659668e-03 9.3236122131347656e+00 -4.0389998555183411e+00
-2.8691649436950684e-02 1.9545819282531738e+01 7.1304261684417725e-02
ITEM: ATOMS id type xs ys zs fx fy fz
6 1 0.0648784 0.0419927 0.908309 0 0 -0.02495
9 1 0.00696177 0.0321638 0.675557 0 0 0.00715637
20 1 0.0648785 0.375326 0.908309 0 0 -0.0249462
22 1 0.154772 0.333678 0.531738 0 0 -0.0279064
24 1 0.00696191 0.365497 0.675557 0 0 0.00716019
26 1 0.100427 0.32388 0.304786 0 0 -0.00491714
36 1 0.0648784 0.708659 0.908309 0 0 -0.0249519
38 1 0.154772 0.667011 0.531738 0 0 -0.0279083
40 1 0.00696134 0.698831 0.675557 0 0 0.00717163
42 1 0.100426 0.657213 0.304786 0 0 -0.00491524
47 1 0.154771 0.00034461 0.531738 0 0 -0.0278988
48 1 0.100427 0.990547 0.304786 0 0 -0.00491333
1 1 0.949878 0.166947 0.0427222 0 0 -0.00528526
2 1 0.492297 0.0738838 0.0515213 0 0 0.02495
3 1 0.45675 0.12533 0.655045 0 0 0.00491333
4 1 0.607298 0.948929 0.917108 0 0 0.00528145
5 1 0.308752 0.157188 0.798718 0 0 -0.00494957
7 1 0.759056 0.250338 0.778974 0 0 -0.0129032
8 1 0.852019 0.20871 0.407325 0 0 0.0264492
10 1 0.705157 0.2405 0.552505 0 0 -0.0264549
11 1 0.79812 0.198871 0.180856 0 0 0.012907
12 1 0.550215 0.0837124 0.284273 0 0 -0.00715637
13 1 0.248425 0.292022 0.161113 0 0 0.00495529
14 1 0.402405 0.115532 0.428092 0 0 0.0279045
15 1 0.949878 0.500281 0.0427221 0 0 -0.00529289
16 1 0.492297 0.407217 0.0515213 0 0 0.0249481
17 1 0.45675 0.458663 0.655044 0 0 0.00491905
18 1 0.607298 0.282263 0.917108 0 0 0.00528145
19 1 0.308751 0.490521 0.798718 0 0 -0.00495148
21 1 0.759056 0.583672 0.778974 0 0 -0.0129128
23 1 0.85202 0.542043 0.407325 0 0 0.0264492
25 1 0.705157 0.573833 0.552505 0 0 -0.0264492
27 1 0.79812 0.532205 0.180856 0 0 0.0129128
28 1 0.550214 0.417046 0.284273 0 0 -0.00716019
29 1 0.248425 0.625355 0.161113 0 0 0.00494766
30 1 0.402404 0.448865 0.428092 0 0 0.0279083
31 1 0.949878 0.833614 0.0427221 0 0 -0.00527954
32 1 0.492297 0.74055 0.0515213 0 0 0.0249481
33 1 0.456749 0.791996 0.655045 0 0 0.00491333
34 1 0.607298 0.615596 0.917108 0 0 0.00529671
35 1 0.308751 0.823855 0.798717 0 0 -0.00494385
37 1 0.759056 0.917005 0.778974 0 0 -0.0129128
39 1 0.852019 0.875376 0.407325 0 0 0.0264473
41 1 0.705156 0.907166 0.552505 0 0 -0.026453
43 1 0.798121 0.865538 0.180856 0 0 0.012907
44 1 0.550215 0.750379 0.284273 0 0 -0.00715446
45 1 0.248425 0.958688 0.161113 0 0 0.00494385
46 1 0.402405 0.782199 0.428092 0 0 0.027895
ITEM: TIMESTEP
5
ITEM: NUMBER OF ATOMS
48
ITEM: BOX BOUNDS xy xz yz pp pp pp
-4.0510369539260864e+00 8.6067802309989929e+00 2.5094206929206848e+00
-9.4973444938659668e-03 9.3236122131347656e+00 -4.0389998555183411e+00
-2.8691649436950684e-02 1.9545819282531738e+01 7.1304261684417725e-02
ITEM: ATOMS id type xs ys zs fx fy fz
6 1 0.064574 0.0419962 0.907851 0 0 -0.0119629
9 1 0.00678557 0.0321658 0.675292 0 0 -0.000175476
20 1 0.0645741 0.37533 0.907851 0 0 -0.0119648
22 1 0.15437 0.333682 0.531133 0 0 0.00601006
24 1 0.00678576 0.365499 0.675292 0 0 -0.000183105
26 1 0.100615 0.323878 0.30507 0 0 0.00226593
36 1 0.0645741 0.708663 0.907851 0 0 -0.0119629
38 1 0.154369 0.667016 0.531133 0 0 0.00600815
40 1 0.00678531 0.698833 0.675292 0 0 -0.000183105
42 1 0.100615 0.657211 0.30507 0 0 0.00226593
47 1 0.154369 0.000349268 0.531133 0 0 0.00600243
48 1 0.100616 0.990544 0.30507 0 0 0.00226593
1 1 0.949863 0.166947 0.0426995 0 0 -0.00263214
2 1 0.492602 0.0738803 0.0519794 0 0 0.0119648
3 1 0.456561 0.125332 0.65476 0 0 -0.00226784
4 1 0.607313 0.948929 0.917131 0 0 0.00262833
5 1 0.308587 0.15719 0.79847 0 0 -0.00181961
7 1 0.758833 0.250341 0.778639 0 0 -0.00759125
8 1 0.852401 0.208706 0.407899 0 0 -0.00720596
10 1 0.704776 0.240504 0.551931 0 0 0.00720406
11 1 0.798343 0.198869 0.181191 0 0 0.00759125
12 1 0.550391 0.0837103 0.284539 0 0 0.000175476
13 1 0.248589 0.29202 0.16136 0 0 0.0018177
14 1 0.402807 0.115527 0.428697 0 0 -0.00600624
15 1 0.949863 0.500281 0.0426993 0 0 -0.00261307
16 1 0.492602 0.407214 0.0519795 0 0 0.0119591
17 1 0.456561 0.458665 0.65476 0 0 -0.00226784
18 1 0.607313 0.282263 0.917131 0 0 0.00262833
19 1 0.308587 0.490523 0.79847 0 0 -0.0018158
21 1 0.758833 0.583674 0.778639 0 0 -0.00758553
23 1 0.852401 0.542039 0.407899 0 0 -0.00720787
25 1 0.704775 0.573837 0.551931 0 0 0.00720596
27 1 0.798343 0.532202 0.181191 0 0 0.00758934
28 1 0.550391 0.417044 0.284539 0 0 0.000183105
29 1 0.248589 0.625353 0.16136 0 0 0.0018177
30 1 0.402807 0.448861 0.428697 0 0 -0.00601006
31 1 0.949863 0.833614 0.0426995 0 0 -0.00263214
32 1 0.492602 0.740547 0.0519795 0 0 0.0119629
33 1 0.45656 0.791998 0.65476 0 0 -0.00226402
34 1 0.607313 0.615596 0.917131 0 0 0.0026207
35 1 0.308587 0.823857 0.79847 0 0 -0.00182152
37 1 0.758833 0.917007 0.778639 0 0 -0.00759125
39 1 0.852401 0.875372 0.407899 0 0 -0.00720596
41 1 0.704775 0.907171 0.551931 0 0 0.00721359
43 1 0.798343 0.865535 0.181192 0 0 0.00758743
44 1 0.550391 0.750377 0.284539 0 0 0.000177383
45 1 0.248589 0.958687 0.16136 0 0 0.0018177
46 1 0.402807 0.782194 0.428697 0 0 -0.00599289
ITEM: TIMESTEP
6
ITEM: NUMBER OF ATOMS
48
ITEM: BOX BOUNDS xy xz yz pp pp pp
-4.0510369539260864e+00 8.6067802309989929e+00 2.5094206929206848e+00
-9.4973444938659668e-03 9.3236122131347656e+00 -4.0389998555183411e+00
-2.8691649436950684e-02 1.9545819282531738e+01 7.1304261684417725e-02
ITEM: ATOMS id type xs ys zs fx fy fz
6 1 0.0643119 0.0419992 0.907456 0 0 -0.000743866
9 1 0.00675573 0.0321662 0.675247 0 0 0.000444412
20 1 0.064312 0.375333 0.907456 0 0 -0.000738144
22 1 0.154417 0.333682 0.531205 0 0 -0.00140762
24 1 0.00675578 0.365499 0.675247 0 0 0.000448227
26 1 0.100685 0.323877 0.305175 0 0 2.67029e-05
36 1 0.0643119 0.708666 0.907456 0 0 -0.000743866
38 1 0.154417 0.667015 0.531205 0 0 -0.00140953
40 1 0.00675536 0.698833 0.675247 0 0 0.000450134
42 1 0.100685 0.65721 0.305175 0 0 2.67029e-05
47 1 0.154417 0.000348717 0.531205 0 0 -0.00140572
48 1 0.100685 0.990544 0.305175 0 0 3.05176e-05
1 1 0.949813 0.166948 0.0426245 0 0 0.00216103
2 1 0.492864 0.0738773 0.0523741 0 0 0.000741959
3 1 0.456491 0.125333 0.654656 0 0 -2.47955e-05
4 1 0.607363 0.948929 0.917206 0 0 -0.00215149
5 1 0.30853 0.15719 0.798383 0 0 -0.000478745
7 1 0.758662 0.250343 0.778382 0 0 -0.000114441
8 1 0.852328 0.208706 0.40779 0 0 0.0012455
10 1 0.704848 0.240503 0.55204 0 0 -0.00124168
11 1 0.798514 0.198867 0.181449 0 0 0.000108719
12 1 0.550421 0.08371 0.284584 0 0 -0.000444412
13 1 0.248647 0.292019 0.161447 0 0 0.000478745
14 1 0.402759 0.115528 0.428625 0 0 0.00141335
15 1 0.949813 0.500281 0.0426248 0 0 0.00213623
16 1 0.492864 0.407211 0.052374 0 0 0.000749588
17 1 0.456491 0.458666 0.654656 0 0 -2.28882e-05
18 1 0.607363 0.282262 0.917206 0 0 -0.00215912
19 1 0.308529 0.490524 0.798383 0 0 -0.000478745
21 1 0.758662 0.583676 0.778382 0 0 -0.000112534
23 1 0.852328 0.54204 0.40779 0 0 0.00124359
25 1 0.704848 0.573836 0.55204 0 0 -0.0012455
27 1 0.798514 0.5322 0.181449 0 0 0.000118256
28 1 0.550421 0.417043 0.284584 0 0 -0.000452042
29 1 0.248647 0.625353 0.161447 0 0 0.000482559
30 1 0.402759 0.448861 0.428625 0 0 0.00140953
31 1 0.949813 0.833615 0.0426245 0 0 0.0021553
32 1 0.492864 0.740544 0.0523741 0 0 0.000741959
33 1 0.456491 0.791999 0.654656 0 0 -2.67029e-05
34 1 0.607363 0.615595 0.917206 0 0 -0.00214577
35 1 0.30853 0.823857 0.798383 0 0 -0.000478745
37 1 0.758662 0.917009 0.778382 0 0 -0.000110626
39 1 0.852328 0.875373 0.40779 0 0 0.0012455
41 1 0.704848 0.90717 0.55204 0 0 -0.00125122
43 1 0.798514 0.865533 0.181449 0 0 0.000108719
44 1 0.550421 0.750377 0.284584 0 0 -0.000452042
45 1 0.248647 0.958686 0.161447 0 0 0.000478745
46 1 0.402759 0.782194 0.428626 0 0 0.00139427
ITEM: TIMESTEP
7
ITEM: NUMBER OF ATOMS
48
ITEM: BOX BOUNDS xy xz yz pp pp pp
-4.0510369539260864e+00 8.6067802309989929e+00 2.5094206929206848e+00
-9.4973444938659668e-03 9.3236122131347656e+00 -4.0389998555183411e+00
-2.8691649436950684e-02 1.9545819282531738e+01 7.1304261684417725e-02
ITEM: ATOMS id type xs ys zs fx fy fz
6 1 0.064297 0.0419994 0.907434 0 0 0.000457764
9 1 0.00675847 0.0321661 0.675251 0 0 -0.000310898
20 1 0.0642971 0.375333 0.907434 0 0 0.000459671
22 1 0.154407 0.333682 0.531189 0 0 -0.000406265
24 1 0.00675855 0.365499 0.675251 0 0 -0.00030899
26 1 0.100687 0.323877 0.305178 0 0 0.000400543
36 1 0.0642971 0.708666 0.907434 0 0 0.000455856
38 1 0.154407 0.667016 0.531189 0 0 -0.000404358
40 1 0.00675814 0.698833 0.675251 0 0 -0.000305176
42 1 0.100687 0.65721 0.305178 0 0 0.000404358
47 1 0.154407 0.000348835 0.531189 0 0 -0.000398636
48 1 0.100688 0.990544 0.305178 0 0 0.000402451
1 1 0.949829 0.166948 0.0426493 0 0 -0.00028801
2 1 0.492879 0.0738771 0.0523965 0 0 -0.000463486
3 1 0.456489 0.125333 0.654652 0 0 -0.000402451
4 1 0.607347 0.948929 0.917181 0 0 0.000286102
5 1 0.308524 0.157191 0.798375 0 0 -0.000610352
7 1 0.758655 0.250343 0.778372 0 0 -0.000234604
8 1 0.852336 0.208706 0.407802 0 0 0.000328064
10 1 0.70484 0.240504 0.552028 0 0 -0.000328064
11 1 0.798521 0.198867 0.181458 0 0 0.000242233
12 1 0.550418 0.08371 0.284579 0 0 0.000310898
13 1 0.248653 0.292019 0.161456 0 0 0.000612259
14 1 0.402769 0.115528 0.428641 0 0 0.000402451
15 1 0.949829 0.500281 0.0426493 0 0 -0.000286102
16 1 0.492879 0.40721 0.0523965 0 0 -0.000461578
17 1 0.456489 0.458666 0.654652 0 0 -0.000402451
18 1 0.607346 0.282262 0.917181 0 0 0.00028801
19 1 0.308524 0.490524 0.798375 0 0 -0.000621796
21 1 0.758656 0.583676 0.778372 0 0 -0.000246048
23 1 0.852336 0.54204 0.407802 0 0 0.000337601
25 1 0.70484 0.573837 0.552028 0 0 -0.000333786
27 1 0.798521 0.5322 0.181459 0 0 0.000242233
28 1 0.550418 0.417043 0.284579 0 0 0.000310898
29 1 0.248653 0.625352 0.161456 0 0 0.000617981
30 1 0.402769 0.448861 0.428641 0 0 0.000406265
31 1 0.949829 0.833614 0.0426492 0 0 -0.000284195
32 1 0.492879 0.740544 0.0523965 0 0 -0.000463486
33 1 0.456488 0.791999 0.654652 0 0 -0.000406265
34 1 0.607346 0.615596 0.917181 0 0 0.000286102
35 1 0.308524 0.823857 0.798374 0 0 -0.000614166
37 1 0.758656 0.91701 0.778372 0 0 -0.000242233
39 1 0.852336 0.875373 0.407802 0 0 0.000328064
41 1 0.70484 0.90717 0.552028 0 0 -0.000328064
43 1 0.798521 0.865533 0.181458 0 0 0.000242233
44 1 0.550418 0.750377 0.284579 0 0 0.00030899
45 1 0.248653 0.958686 0.161456 0 0 0.000623703
46 1 0.402769 0.782194 0.428641 0 0 0.000396729
ITEM: TIMESTEP
8
ITEM: NUMBER OF ATOMS
48
ITEM: BOX BOUNDS xy xz yz pp pp pp
-4.0510369539260864e+00 8.6067802309989929e+00 2.5094206929206848e+00
-9.4973444938659668e-03 9.3236122131347656e+00 -4.0389998555183411e+00
-2.8691649436950684e-02 1.9545819282531738e+01 7.1304261684417725e-02
ITEM: ATOMS id type xs ys zs fx fy fz
6 1 0.064301 0.0419994 0.90744 0 0 -3.24249e-05
9 1 0.0067542 0.0321662 0.675244 0 0 -0.000541687
20 1 0.0643011 0.375333 0.90744 0 0 -3.05176e-05
22 1 0.154399 0.333682 0.531176 0 0 0.000209808
24 1 0.00675431 0.365499 0.675244 0 0 -0.000543594
26 1 0.100694 0.323877 0.305189 0 0 0.000457764
36 1 0.064301 0.708666 0.90744 0 0 -3.05176e-05
38 1 0.154398 0.667016 0.531177 0 0 0.000204086
40 1 0.00675397 0.698833 0.675244 0 0 -0.000549316
42 1 0.100694 0.65721 0.305189 0 0 0.000450134
47 1 0.154398 0.000348932 0.531177 0 0 0.000200272
48 1 0.100694 0.990543 0.305189 0 0 0.000448227
1 1 0.949828 0.166948 0.0426478 0 0 0.000368118
2 1 0.492875 0.0738772 0.0523903 0 0 3.8147e-05
3 1 0.456482 0.125333 0.654641 0 0 -0.000444412
4 1 0.607348 0.948929 0.917182 0 0 -0.000371933
5 1 0.308513 0.157191 0.798358 0 0 0.000112534
7 1 0.75865 0.250343 0.778364 0 0 1.71661e-05
8 1 0.852343 0.208706 0.407812 0 0 -0.000234604
10 1 0.704833 0.240504 0.552018 0 0 0.000236511
11 1 0.798526 0.198867 0.181466 0 0 -2.67029e-05
12 1 0.550422 0.08371 0.284586 0 0 0.00053978
13 1 0.248663 0.292019 0.161472 0 0 -0.000123978
14 1 0.402778 0.115527 0.428654 0 0 -0.000205994
15 1 0.949828 0.500281 0.0426478 0 0 0.000375748
16 1 0.492875 0.40721 0.0523904 0 0 3.05176e-05
17 1 0.456482 0.458666 0.654642 0 0 -0.000453949
18 1 0.607347 0.282262 0.917182 0 0 -0.000360489
19 1 0.308513 0.490524 0.798358 0 0 0.000125885
21 1 0.75865 0.583676 0.778364 0 0 2.67029e-05
23 1 0.852343 0.542039 0.407812 0 0 -0.000244141
25 1 0.704833 0.573837 0.552018 0 0 0.000244141
27 1 0.798526 0.5322 0.181466 0 0 -2.67029e-05
28 1 0.550422 0.417043 0.284586 0 0 0.000543594
29 1 0.248663 0.625352 0.161472 0 0 -0.0001297
30 1 0.402778 0.448861 0.428654 0 0 -0.000211716
31 1 0.949828 0.833614 0.0426478 0 0 0.000371933
32 1 0.492875 0.740544 0.0523903 0 0 4.19617e-05
33 1 0.456482 0.791999 0.654641 0 0 -0.000442505
34 1 0.607347 0.615595 0.917182 0 0 -0.00038147
35 1 0.308513 0.823857 0.798358 0 0 0.000125885
37 1 0.75865 0.91701 0.778364 0 0 2.67029e-05
39 1 0.852343 0.875373 0.407812 0 0 -0.000232697
41 1 0.704833 0.90717 0.552018 0 0 0.000232697
43 1 0.798526 0.865533 0.181466 0 0 -2.47955e-05
44 1 0.550422 0.750377 0.284586 0 0 0.000543594
45 1 0.248664 0.958686 0.161472 0 0 -0.000131607
46 1 0.402778 0.782194 0.428654 0 0 -0.000196457
ITEM: TIMESTEP
9
ITEM: NUMBER OF ATOMS
48
ITEM: BOX BOUNDS xy xz yz pp pp pp
-4.0510369539260864e+00 8.6067802309989929e+00 2.5094206929206848e+00
-9.4973444938659668e-03 9.3236122131347656e+00 -4.0389998555183411e+00
-2.8691649436950684e-02 1.9545819282531738e+01 7.1304261684417725e-02
ITEM: ATOMS id type xs ys zs fx fy fz
6 1 0.0643026 0.0419993 0.907442 0 0 -0.000106812
9 1 0.00674509 0.0321663 0.675231 0 0 -5.34058e-05
20 1 0.0643028 0.375333 0.907442 0 0 -0.000104904
22 1 0.154397 0.333682 0.531174 0 0 3.8147e-05
24 1 0.00674519 0.3655 0.675231 0 0 -5.72205e-05
26 1 0.100704 0.323877 0.305203 0 0 -6.29425e-05
36 1 0.0643026 0.708666 0.907442 0 0 -0.000106812
38 1 0.154397 0.667016 0.531174 0 0 4.00543e-05
40 1 0.00674481 0.698833 0.675231 0 0 -6.10352e-05
42 1 0.100703 0.65721 0.305203 0 0 -6.67572e-05
47 1 0.154397 0.000348951 0.531174 0 0 3.62396e-05
48 1 0.100704 0.990543 0.305203 0 0 -6.10352e-05
1 1 0.949832 0.166948 0.0426542 0 0 -7.62939e-06
2 1 0.492873 0.0738772 0.052388 0 0 0.000106812
3 1 0.456473 0.125333 0.654628 0 0 5.53131e-05
4 1 0.607343 0.948929 0.917176 0 0 1.33514e-05
5 1 0.308509 0.157191 0.798352 0 0 1.90735e-06
7 1 0.758648 0.250343 0.77836 0 0 -0.000165939
8 1 0.852344 0.208706 0.407813 0 0 9.53674e-06
10 1 0.704833 0.240504 0.552017 0 0 -9.53674e-06
11 1 0.798528 0.198867 0.18147 0 0 0.000165939
12 1 0.550431 0.0837099 0.2846 0 0 5.34058e-05
13 1 0.248667 0.292019 0.161478 0 0 1.14441e-05
14 1 0.40278 0.115527 0.428656 0 0 -3.62396e-05
15 1 0.949833 0.500281 0.0426543 0 0 -1.52588e-05
16 1 0.492873 0.40721 0.052388 0 0 0.000112534
17 1 0.456473 0.458666 0.654628 0 0 5.53131e-05
18 1 0.607343 0.282262 0.917176 0 0 -5.72205e-06
19 1 0.308509 0.490524 0.798352 0 0 3.8147e-06
21 1 0.758648 0.583676 0.77836 0 0 -0.000162125
23 1 0.852344 0.542039 0.407813 0 0 7.62939e-06
25 1 0.704833 0.573837 0.552017 0 0 -9.53674e-06
27 1 0.798528 0.5322 0.18147 0 0 0.000165939
28 1 0.550431 0.417043 0.2846 0 0 4.76837e-05
29 1 0.248667 0.625352 0.161478 0 0 7.62939e-06
30 1 0.402779 0.448861 0.428656 0 0 -2.67029e-05
31 1 0.949833 0.833614 0.0426543 0 0 -1.90735e-05
32 1 0.492873 0.740544 0.0523881 0 0 0.000104904
33 1 0.456472 0.792 0.654628 0 0 4.76837e-05
34 1 0.607343 0.615596 0.917176 0 0 2.86102e-05
35 1 0.308509 0.823857 0.798352 0 0 -9.53674e-06
37 1 0.758648 0.91701 0.778361 0 0 -0.000167847
39 1 0.852344 0.875373 0.407813 0 0 9.53674e-06
41 1 0.704832 0.90717 0.552017 0 0 -7.62939e-06
43 1 0.798528 0.865533 0.18147 0 0 0.000173569
44 1 0.550431 0.750377 0.2846 0 0 5.14984e-05
45 1 0.248667 0.958686 0.161478 0 0 1.90735e-06
46 1 0.402779 0.782194 0.428656 0 0 -2.67029e-05
ITEM: TIMESTEP
10
ITEM: NUMBER OF ATOMS
48
ITEM: BOX BOUNDS xy xz yz pp pp pp
-4.0510369539260864e+00 8.6067802309989929e+00 2.5094206929206848e+00
-9.4973444938659668e-03 9.3236122131347656e+00 -4.0389998555183411e+00
-2.8691649436950684e-02 1.9545819282531738e+01 7.1304261684417725e-02
ITEM: ATOMS id type xs ys zs fx fy fz
6 1 0.0643009 0.0419994 0.90744 0 0 -4.76837e-05
9 1 0.00674347 0.0321663 0.675228 0 0 3.05176e-05
20 1 0.0643011 0.375333 0.90744 0 0 -4.95911e-05
22 1 0.154398 0.333682 0.531175 0 0 -3.24249e-05
24 1 0.00674351 0.3655 0.675228 0 0 3.62396e-05
26 1 0.100703 0.323877 0.305202 0 0 2.86102e-05
36 1 0.0643009 0.708666 0.90744 0 0 -4.57764e-05
38 1 0.154397 0.667016 0.531175 0 0 -3.05176e-05
40 1 0.00674305 0.698833 0.675228 0 0 3.62396e-05
42 1 0.100703 0.65721 0.305202 0 0 4.00543e-05
47 1 0.154397 0.000348946 0.531175 0 0 -2.86102e-05
48 1 0.100703 0.990543 0.305202 0 0 3.24249e-05
1 1 0.949833 0.166948 0.0426545 0 0 -1.33514e-05
2 1 0.492875 0.0738772 0.0523905 0 0 4.95911e-05
3 1 0.456473 0.125333 0.654628 0 0 -2.67029e-05
4 1 0.607343 0.948929 0.917176 0 0 1.90735e-06
5 1 0.308509 0.157191 0.798352 0 0 -3.8147e-05
7 1 0.758645 0.250343 0.778356 0 0 7.62939e-06
8 1 0.852344 0.208706 0.407813 0 0 2.47955e-05
10 1 0.704833 0.240504 0.552017 0 0 -3.62396e-05
11 1 0.798531 0.198867 0.181474 0 0 -7.62939e-06
12 1 0.550433 0.0837099 0.284602 0 0 -2.47955e-05
13 1 0.248668 0.292019 0.161478 0 0 2.67029e-05
14 1 0.402779 0.115527 0.428655 0 0 2.86102e-05
15 1 0.949833 0.500281 0.0426544 0 0 5.72205e-06
16 1 0.492875 0.40721 0.0523906 0 0 4.19617e-05
17 1 0.456473 0.458666 0.654628 0 0 -1.33514e-05
18 1 0.607343 0.282262 0.917175 0 0 2.28882e-05
19 1 0.308508 0.490524 0.798352 0 0 -3.43323e-05
21 1 0.758645 0.583676 0.778356 0 0 1.14441e-05
23 1 0.852344 0.542039 0.407813 0 0 2.86102e-05
25 1 0.704832 0.573837 0.552017 0 0 -3.62396e-05
27 1 0.798531 0.5322 0.181474 0 0 -1.52588e-05
28 1 0.550433 0.417043 0.284602 0 0 -1.90735e-05
29 1 0.248668 0.625352 0.161478 0 0 1.90735e-05
30 1 0.402779 0.448861 0.428656 0 0 1.71661e-05
31 1 0.949833 0.833614 0.0426543 0 0 9.53674e-06
32 1 0.492875 0.740544 0.0523906 0 0 5.72205e-05
33 1 0.456473 0.792 0.654628 0 0 -1.52588e-05
34 1 0.607343 0.615596 0.917176 0 0 -1.33514e-05
35 1 0.308509 0.823857 0.798352 0 0 -2.86102e-05
37 1 0.758645 0.91701 0.778356 0 0 3.8147e-06
39 1 0.852344 0.875373 0.407813 0 0 2.86102e-05
41 1 0.704832 0.90717 0.552017 0 0 -3.05176e-05
43 1 0.798531 0.865533 0.181474 0 0 -2.28882e-05
44 1 0.550433 0.750377 0.284602 0 0 -1.71661e-05
45 1 0.248668 0.958686 0.161478 0 0 2.09808e-05
46 1 0.402779 0.782194 0.428656 0 0 1.71661e-05
ITEM: TIMESTEP
11
ITEM: NUMBER OF ATOMS
48
ITEM: BOX BOUNDS xy xz yz pp pp pp
-4.0510369539260864e+00 8.6067802309989929e+00 2.5094206929206848e+00
-9.4973444938659668e-03 9.3236122131347656e+00 -4.0389998555183411e+00
-2.8691649436950684e-02 1.9545819282531738e+01 7.1304261684417725e-02
ITEM: ATOMS id type xs ys zs fx fy fz
6 1 0.0643009 0.0419994 0.90744 0 0 -4.76837e-05
9 1 0.00674347 0.0321663 0.675228 0 0 3.05176e-05
20 1 0.0643011 0.375333 0.90744 0 0 -4.95911e-05
22 1 0.154398 0.333682 0.531175 0 0 -3.24249e-05
24 1 0.00674351 0.3655 0.675228 0 0 3.62396e-05
26 1 0.100703 0.323877 0.305202 0 0 2.86102e-05
36 1 0.0643009 0.708666 0.90744 0 0 -4.57764e-05
38 1 0.154397 0.667016 0.531175 0 0 -3.05176e-05
40 1 0.00674305 0.698833 0.675228 0 0 3.62396e-05
42 1 0.100703 0.65721 0.305202 0 0 4.00543e-05
47 1 0.154397 0.000348946 0.531175 0 0 -2.86102e-05
48 1 0.100703 0.990543 0.305202 0 0 3.24249e-05
1 1 0.949833 0.166948 0.0426545 0 0 -1.33514e-05
2 1 0.492875 0.0738772 0.0523905 0 0 4.95911e-05
3 1 0.456473 0.125333 0.654628 0 0 -2.67029e-05
4 1 0.607343 0.948929 0.917176 0 0 1.90735e-06
5 1 0.308509 0.157191 0.798352 0 0 -3.8147e-05
7 1 0.758645 0.250343 0.778356 0 0 7.62939e-06
8 1 0.852344 0.208706 0.407813 0 0 2.47955e-05
10 1 0.704833 0.240504 0.552017 0 0 -3.62396e-05