ITEM: TIMESTEP
0
ITEM: NUMBER OF ATOMS
56
ITEM: BOX BOUNDS xy xz yz pp pp pp
-4.4902396202087402e-01 1.2156271994113922e+01 8.9406967163085938e-07
-8.2894563674926758e-03 5.5346975326538086e+00 -4.7785270214080811e-01
-4.5665502548217773e-03 1.9024526596069336e+01 -5.9604644775390625e-08
ITEM: ATOMS id type xs ys zs fx fy fz
1 1 0.55684 0.999993 0.132369 0 0.0111332 0.0166512
2 1 0.306839 0.166674 0.132369 0 -0.0111217 0.0166473
3 1 0.201473 1 0.275226 0 -0.00019455 -4.3869e-05
4 1 0.951472 0.166667 0.275226 0 0.000198364 -3.8147e-05
5 1 0.846078 1 0.418084 0 -0.000520706 0.000148773
6 1 0.0568385 0.999993 0.132369 0 0.0111256 0.0166512
7 1 0.984508 0.500035 0.0609392 0 -0.0310307 0.0130367
8 1 0.806838 0.166674 0.132369 0 -0.0111256 0.0166512
9 1 0.734508 0.666632 0.0609392 0 0.0310307 0.0130329
10 1 0.701472 1 0.275226 0 -0.000200272 -4.19617e-05
11 1 0.59608 0.166667 0.418084 0 0.000534058 0.000152588
12 1 0.490689 3.67832e-07 0.560938 0 -0.000501633 0.000112534
13 1 0.240688 0.166667 0.560938 0 0.000507355 0.000110626
14 1 0.135286 1 0.703795 0 -0.000305176 0.00028038
15 1 0.885286 0.166667 0.703795 0 0.000314713 0.000274658
16 1 0.779903 0.999999 0.846658 0 0.000610352 -0.00299644
17 1 0.629164 0.499999 0.203795 0 0.000608444 0.00300217
18 1 0.451474 0.166667 0.275226 0 0.000207901 -4.57764e-05
19 1 0.379164 0.666668 0.203795 0 -0.000621796 0.00299263
20 1 0.34608 1 0.418084 0 -0.000514984 0.000150681
21 1 0.273781 0.5 0.346658 0 -0.000312805 -0.000284195
22 1 0.0960788 0.166667 0.418084 0 0.000516891 0.000146866
23 1 0.0237802 0.666667 0.346658 0 0.000303268 -0.000282288
24 1 0.990687 3.50169e-07 0.560938 0 -0.000497818 0.000110626
25 1 0.918378 0.5 0.489515 0 -0.000505447 -0.000108719
26 1 0.740687 0.166667 0.560938 0 0.000509262 0.000110626
27 1 0.668378 0.666667 0.489515 0 0.000507355 -0.000118256
28 1 0.484509 0.500035 0.0609392 0 -0.0310459 0.0130348
29 1 0.234509 0.666632 0.0609392 0 0.0310287 0.0130405
30 1 0.129163 0.499999 0.203795 0 0.000614166 0.00298309
31 1 0.879163 0.666668 0.203795 0 -0.000612259 0.00299454
32 1 0.77378 0.5 0.346658 0 -0.000310898 -0.000284195
33 1 0.529905 0.166668 0.846658 0 -0.000616074 -0.00297928
34 1 0.424559 3.5121e-05 0.989514 0 -0.0310268 -0.0130348
35 1 0.174558 0.166632 0.989514 0 0.0310383 -0.0130386
36 1 0.635287 1 0.703795 0 -0.000312805 0.00028038
37 1 0.562989 0.5 0.632369 0 -0.00053215 -0.000148773
38 1 0.385287 0.166667 0.703795 0 0.000310898 0.000278473
39 1 0.312988 0.666668 0.632369 0 0.000516891 -0.000156403
40 1 0.279904 0.999999 0.846658 0 0.000617981 -0.00298119
41 1 0.207594 0.5 0.775226 0 -0.000198364 4.95911e-05
42 1 0.0299033 0.166668 0.846658 0 -0.000614166 -0.00298691
43 1 0.957593 0.666667 0.775226 0 0.000200272 4.3869e-05
44 1 0.924558 3.50854e-05 0.989514 0 -0.0310383 -0.0130367
45 1 0.852227 0.499993 0.918084 0 0.0111275 -0.0166531
46 1 0.523781 0.666667 0.346658 0 0.000299454 -0.000274658
47 1 0.41838 0.5 0.489515 0 -0.000509262 -0.000112534
48 1 0.168379 0.666667 0.489515 0 0.000507355 -0.000108719
49 1 0.0629875 0.5 0.632369 0 -0.000522614 -0.000150681
50 1 0.812987 0.666667 0.632369 0 0.000518799 -0.000150681
51 1 0.707593 0.5 0.775226 0 -0.000209808 4.00543e-05
52 1 0.67456 0.166632 0.989514 0 0.0310402 -0.0130367
53 1 0.602229 0.666674 0.918084 0 -0.0111294 -0.0166512
54 1 0.457595 0.666667 0.775226 0 0.000205994 4.3869e-05
55 1 0.352229 0.499993 0.918084 0 0.0111237 -0.0166531
56 1 0.102228 0.666674 0.918084 0 -0.0111256 -0.016655
ITEM: TIMESTEP
1
ITEM: NUMBER OF ATOMS
56
ITEM: BOX BOUNDS xy xz yz pp pp pp
-4.4902396202087402e-01 1.2156271994113922e+01 8.9406967163085938e-07
-8.2894563674926758e-03 5.5346975326538086e+00 -4.7785270214080811e-01
-4.5665502548217773e-03 1.9024526596069336e+01 -5.9604644775390625e-08
ITEM: ATOMS id type xs ys zs fx fy fz
1 1 0.556853 1.00075 0.132697 0 -0.0070591 -0.00411987
2 1 0.306852 0.165921 0.132697 0 0.0070343 -0.00411224
3 1 0.201473 0.999987 0.275226 0 -0.00121117 0.00744629
4 1 0.951472 0.166681 0.275226 0 0.00121307 0.00743866
5 1 0.846078 0.999964 0.418087 0 -0.000263214 9.72748e-05
6 1 0.0568515 1.00075 0.132697 0 -0.0070343 -0.00411606
7 1 0.984518 0.497933 0.0611965 0 -0.00602913 -0.00449753
8 1 0.806851 0.16592 0.132697 0 0.00704384 -0.00411987
9 1 0.734518 0.668734 0.0611964 0 0.00602531 -0.00448036
10 1 0.701472 0.999986 0.275226 0 -0.00121307 0.0074501
11 1 0.59608 0.166704 0.418087 0 0.000238419 9.91821e-05
12 1 0.490689 -3.36196e-05 0.560941 0 -0.000221252 8.96454e-05
13 1 0.240688 0.166701 0.56094 0 0.000217438 0.000102997
14 1 0.135286 0.999979 0.7038 0 -0.000484467 -0.0014286
15 1 0.885286 0.166689 0.7038 0 0.000471115 -0.00142288
16 1 0.779901 1.00004 0.846599 0 0.0038166 -0.00359917
17 1 0.629167 0.500041 0.203854 0 0.00382042 0.00358582
18 1 0.451474 0.166681 0.275225 0 0.00119972 0.00744629
19 1 0.379166 0.666626 0.203854 0 -0.00379753 0.00360107
20 1 0.34608 0.999965 0.418087 0 -0.000255585 0.000102997
21 1 0.273781 0.499979 0.346652 0 -0.000473022 0.0014267
22 1 0.0960789 0.166702 0.418087 0 0.000263214 0.000101089
23 1 0.02378 0.666688 0.346652 0 0.000478745 0.0014286
24 1 0.990687 -3.33788e-05 0.560941 0 -0.000226974 0.000101089
25 1 0.918378 0.499966 0.489512 0 -0.00021553 -0.000104904
26 1 0.740687 0.166701 0.560941 0 0.000213623 9.53674e-05
27 1 0.668378 0.666701 0.489512 0 0.00022316 -9.15527e-05
28 1 0.48452 0.497932 0.0611964 0 -0.00601196 -0.00449181
29 1 0.234519 0.668734 0.0611966 0 0.00602531 -0.00449562
30 1 0.129165 0.500041 0.203854 0 0.00381279 0.00361824
31 1 0.879165 0.666627 0.203854 0 -0.00381088 0.00360107
32 1 0.77378 0.499979 0.346652 0 -0.00047493 0.00142288
33 1 0.529902 0.166626 0.846599 0 -0.0038147 -0.0036068
34 1 0.424549 -0.00206706 0.989256 0 -0.00603294 0.00449562
35 1 0.174548 0.168735 0.989256 0 0.00601006 0.00449562
36 1 0.635288 0.999979 0.7038 0 -0.000476837 -0.00140953
37 1 0.562989 0.499964 0.632366 0 -0.000247955 -9.91821e-05
38 1 0.385287 0.166688 0.7038 0 0.00047493 -0.00141907
39 1 0.312988 0.666703 0.632366 0 0.000257492 -9.15527e-05
40 1 0.279902 1.00004 0.846599 0 0.00381279 -0.00361252
41 1 0.207594 0.499987 0.775227 0 -0.00121307 -0.00745201
42 1 0.029901 0.166626 0.846599 0 -0.00380516 -0.00361252
43 1 0.957593 0.666681 0.775227 0 0.00120544 -0.00745392
44 1 0.924548 -0.00206787 0.989256 0 -0.00600815 0.00448227
45 1 0.852214 0.500747 0.917756 0 -0.00704002 0.00411224
46 1 0.523781 0.666688 0.346653 0 0.000488281 0.00141907
47 1 0.41838 0.499966 0.489512 0 -0.000217438 -9.72748e-05
48 1 0.168379 0.666701 0.489512 0 0.000217438 -0.000106812
49 1 0.0629874 0.499964 0.632366 0 -0.000249863 -9.34601e-05
50 1 0.812987 0.666703 0.632366 0 0.000259399 -0.000102997
51 1 0.707593 0.499986 0.775227 0 -0.00120544 -0.0074501
52 1 0.674549 0.168735 0.989256 0 0.00601196 0.0044899
53 1 0.602216 0.66592 0.917756 0 0.00704575 0.00413132
54 1 0.457595 0.666681 0.775227 0 0.00120735 -0.00744247
55 1 0.352216 0.500747 0.917755 0 -0.00704002 0.00412178
56 1 0.102215 0.665921 0.917756 0 0.00704575 0.0041275
ITEM: TIMESTEP
2
ITEM: NUMBER OF ATOMS
56
ITEM: BOX BOUNDS xy xz yz pp pp pp
-4.4902396202087402e-01 1.2156271994113922e+01 8.9406967163085938e-07
-8.2894563674926758e-03 5.5346975326538086e+00 -4.7785270214080811e-01
-4.5665502548217773e-03 1.9024526596069336e+01 -5.9604644775390625e-08
ITEM: ATOMS id type xs ys zs fx fy fz
1 1 0.556852 1.0004 0.132664 0 -0.00284004 0.00212097
2 1 0.306851 0.166265 0.132664 0 0.00286674 0.00212479
3 1 0.201479 0.999909 0.275362 0 0.00132561 -0.00060463
4 1 0.951478 0.166759 0.275362 0 -0.00133133 -0.000597
5 1 0.846079 0.999943 0.418089 0 -0.000488281 0.00277138
6 1 0.0568502 1.0004 0.132664 0 -0.00286102 0.0021286
7 1 0.984516 0.497282 0.0611475 0 0.000167847 -0.000265121
8 1 0.80685 0.166265 0.132664 0 0.0028553 0.00213242
9 1 0.734516 0.669385 0.0611477 0 -0.000164032 -0.000268936
10 1 0.701477 0.999908 0.275362 0 0.00133514 -0.000606537
11 1 0.59608 0.166723 0.418089 0 0.000499725 0.0027771
12 1 0.490689 -5.19162e-05 0.560942 0 -0.000230789 -0.000528336
13 1 0.240688 0.166719 0.560943 0 0.000226974 -0.000535965
14 1 0.135285 0.999946 0.703775 0 -0.000270844 -0.0025425
15 1 0.885285 0.166721 0.703775 0 0.000286102 -0.00255203
16 1 0.779898 1.00029 0.846525 0 -0.00170898 0.000684738
17 1 0.62917 0.500286 0.203928 0 -0.00172043 -0.000680923
18 1 0.451479 0.166759 0.275362 0 -0.00131416 -0.000602722
19 1 0.379169 0.666382 0.203928 0 0.00169945 -0.000682831
20 1 0.34608 0.999944 0.418089 0 -0.000495911 0.00277138
21 1 0.273782 0.499946 0.346678 0 -0.00028038 0.00254631
22 1 0.096079 0.166723 0.418089 0 0.000490189 0.00277901
23 1 0.023781 0.666721 0.346678 0 0.000289917 0.00255013
24 1 0.990687 -5.20014e-05 0.560943 0 -0.000221252 -0.000543594
25 1 0.918378 0.499948 0.48951 0 -0.000232697 0.000545502
26 1 0.740687 0.166719 0.560943 0 0.00022316 -0.00053978
27 1 0.668378 0.66672 0.48951 0 0.000213623 0.000537872
28 1 0.484518 0.497282 0.0611475 0 0.000144958 -0.000263214
29 1 0.234517 0.669385 0.0611476 0 -0.000160217 -0.000267029
30 1 0.129168 0.500286 0.203928 0 -0.0017128 -0.000684738
31 1 0.879168 0.666382 0.203928 0 0.00171471 -0.000688553
32 1 0.773781 0.499946 0.346678 0 -0.00028038 0.00255585
33 1 0.529899 0.166381 0.846525 0 0.00171089 0.000680923
34 1 0.424551 -0.00271802 0.989305 0 0.000162125 0.000265121
35 1 0.17455 0.169384 0.989305 0 -0.000152588 0.000265121
36 1 0.635287 0.999946 0.703775 0 -0.000276566 -0.00256348
37 1 0.562989 0.499943 0.632363 0 -0.000495911 -0.0027771
38 1 0.385286 0.166721 0.703775 0 0.000282288 -0.00255394
39 1 0.312988 0.666723 0.632363 0 0.000492096 -0.00277901
40 1 0.279899 1.00029 0.846525 0 -0.00171471 0.000679016
41 1 0.207589 0.499909 0.775091 0 0.00132751 0.00060463
42 1 0.0298981 0.166382 0.846525 0 0.00170708 0.000684738
43 1 0.957588 0.666758 0.775091 0 -0.00132179 0.000614166
44 1 0.92455 -0.00271737 0.989305 0 0.000144958 0.000278473
45 1 0.852216 0.500402 0.917788 0 -0.00284958 -0.00212288
46 1 0.523782 0.666721 0.346678 0 0.000276566 0.00254822
47 1 0.41838 0.499948 0.48951 0 -0.000225067 0.00053978
48 1 0.168379 0.666719 0.48951 0 0.000219345 0.000543594
49 1 0.0629873 0.499944 0.632364 0 -0.000499725 -0.00279236
50 1 0.812987 0.666723 0.632363 0 0.000495911 -0.00277328
51 1 0.707588 0.499908 0.775091 0 0.00132942 0.000608444
52 1 0.674551 0.169385 0.989305 0 -0.000156403 0.000274658
53 1 0.602217 0.666265 0.917789 0 0.0028553 -0.00213242
54 1 0.457589 0.666759 0.775091 0 -0.00133133 0.000606537
55 1 0.352217 0.500402 0.917788 0 -0.0028553 -0.00213051
56 1 0.102216 0.666266 0.917789 0 0.00284958 -0.00214005
ITEM: TIMESTEP
3
ITEM: NUMBER OF ATOMS
56
ITEM: BOX BOUNDS xy xz yz pp pp pp
-4.4902396202087402e-01 1.2156271994113922e+01 8.9406967163085938e-07
-8.2894563674926758e-03 5.5346975326538086e+00 -4.7785270214080811e-01
-4.5665502548217773e-03 1.9024526596069336e+01 -5.9604644775390625e-08
ITEM: ATOMS id type xs ys zs fx fy fz
1 1 0.556853 1.00014 0.132702 0 0.000478745 0.000436783
2 1 0.306853 0.166525 0.132702 0 -0.00050354 0.000419617
3 1 0.201479 0.999988 0.275373 0 -0.000364304 0.000762939
4 1 0.951478 0.166679 0.275373 0 0.000368118 0.000764847
5 1 0.846081 0.999905 0.418146 0 -5.34058e-05 0.000213623
6 1 0.0568517 1.00014 0.132702 0 0.000497818 0.000419617
7 1 0.984516 0.497181 0.0611336 0 0.000307083 -0.000219345
8 1 0.806851 0.166525 0.132702 0 -0.000494003 0.000427246
9 1 0.734515 0.669486 0.0611338 0 -0.000328064 -0.000232697
10 1 0.701478 0.999988 0.275373 0 -0.000362396 0.000761032
11 1 0.596082 0.166762 0.418146 0 4.3869e-05 0.000205994
12 1 0.490688 -7.12277e-05 0.560932 0 -0.000383377 -0.000236511
13 1 0.240688 0.166738 0.560932 0 0.000383377 -0.000240326
14 1 0.135283 0.999921 0.703719 0 0.000211716 8.39233e-05
15 1 0.885283 0.166747 0.703719 0 -0.000217438 8.58307e-05
16 1 0.779898 1.00021 0.846526 0 -0.00084877 -0.000757217
17 1 0.629169 0.500208 0.203926 0 -0.00084877 0.000751495
18 1 0.45148 0.16668 0.275373 0 0.000354767 0.000774384
19 1 0.379169 0.666459 0.203927 0 0.000865936 0.000753403
20 1 0.346082 0.999906 0.418146 0 -4.19617e-05 0.000209808
21 1 0.273784 0.499921 0.346734 0 0.00021553 -8.2016e-05
22 1 0.0960812 0.166761 0.418146 0 4.76837e-05 0.000205994
23 1 0.0237832 0.666747 0.346734 0 -0.000217438 -9.34601e-05
24 1 0.990687 -7.07019e-05 0.560932 0 -0.000392914 -0.000236511
25 1 0.918379 0.499929 0.489521 0 -0.000383377 0.000228882
26 1 0.740687 0.166738 0.560932 0 0.000391006 -0.00025177
27 1 0.668378 0.666738 0.489521 0 0.000391006 0.000238419
28 1 0.484517 0.49718 0.0611337 0 0.000333786 -0.000232697
29 1 0.234517 0.669486 0.0611337 0 -0.000310898 -0.000221252
30 1 0.129168 0.500208 0.203927 0 -0.000850677 0.000743866
31 1 0.879168 0.66646 0.203926 0 0.00084877 0.000751495
32 1 0.773783 0.499921 0.346734 0 0.000213623 -8.96454e-05
33 1 0.529899 0.166458 0.846526 0 0.000858307 -0.000743866
34 1 0.424552 -0.00281913 0.989319 0 0.00030899 0.00021553
35 1 0.174551 0.169486 0.989319 0 -0.000322342 0.000213623
36 1 0.635284 0.999921 0.703719 0 0.000211716 9.15527e-05
37 1 0.562986 0.499905 0.632306 0 -4.3869e-05 -0.000196457
38 1 0.385284 0.166746 0.703719 0 -0.00021553 9.53674e-05
39 1 0.312986 0.666761 0.632306 0 4.95911e-05 -0.000196457
40 1 0.279899 1.00021 0.846526 0 -0.000850677 -0.000738144
41 1 0.207588 0.499988 0.77508 0 -0.000352859 -0.000768661
42 1 0.0298981 0.166459 0.846526 0 0.0008564 -0.000743866
43 1 0.957587 0.666679 0.77508 0 0.000364304 -0.000782013
44 1 0.92455 -0.00281943 0.989319 0 0.000324249 0.00022316
45 1 0.852214 0.500143 0.917751 0 0.000486374 -0.000421524
46 1 0.523784 0.666746 0.346734 0 -0.000209808 -8.01086e-05
47 1 0.41838 0.499929 0.489521 0 -0.000391006 0.000240326
48 1 0.16838 0.666738 0.489521 0 0.000389099 0.000228882
49 1 0.0629851 0.499906 0.632306 0 -3.8147e-05 -0.00019455
50 1 0.812985 0.666762 0.632306 0 4.00543e-05 -0.000207901
51 1 0.707587 0.499988 0.77508 0 -0.000354767 -0.000772476
52 1 0.674552 0.169486 0.989319 0 -0.000312805 0.000217438
53 1 0.602216 0.666525 0.917751 0 -0.000495911 -0.000415802
54 1 0.457589 0.666679 0.77508 0 0.000352859 -0.000770569
55 1 0.352216 0.500142 0.917751 0 0.000484467 -0.000423431
56 1 0.102215 0.666525 0.917751 0 -0.000490189 -0.000415802
ITEM: TIMESTEP
4
ITEM: NUMBER OF ATOMS
56
ITEM: BOX BOUNDS xy xz yz pp pp pp
-4.4902396202087402e-01 1.2156271994113922e+01 8.9406967163085938e-07
-8.2894563674926758e-03 5.5346975326538086e+00 -4.7785270214080811e-01
-4.5665502548217773e-03 1.9024526596069336e+01 -5.9604644775390625e-08
ITEM: ATOMS id type xs ys zs fx fy fz
1 1 0.556854 1.00016 0.132716 0 7.62939e-06 0.000173569
2 1 0.306853 0.166509 0.132716 0 2.09808e-05 0.000198364
3 1 0.20148 0.999966 0.275392 0 -0.000230789 0.000415802
4 1 0.951479 0.166701 0.275392 0 0.000230789 0.000406265
5 1 0.846081 0.999897 0.418157 0 -9.15527e-05 -8.7738e-05
6 1 0.0568522 1.00016 0.132716 0 -1.90735e-05 0.000198364
7 1 0.984515 0.497197 0.0611271 0 0.000299454 0.000436783
8 1 0.806852 0.16651 0.132716 0 1.90735e-06 0.000177383
9 1 0.734515 0.669469 0.061127 0 -0.000272751 0.00044632
10 1 0.701479 0.999966 0.275392 0 -0.000236511 0.00041008
11 1 0.596083 0.166769 0.418157 0 9.15527e-05 -8.2016e-05
12 1 0.490688 -0.000104293 0.560925 0 -1.90735e-06 0.000234604
13 1 0.240688 0.166771 0.560925 0 -7.62939e-06 0.000234604
14 1 0.135283 0.999936 0.703715 0 -0.000102997 -0.000356674
15 1 0.885283 0.166731 0.703715 0 0.000123978 -0.000350952
16 1 0.779897 1.00013 0.846508 0 0.00034523 8.39233e-05
17 1 0.62917 0.500131 0.203944 0 0.000350952 -7.05719e-05
18 1 0.45148 0.166701 0.275392 0 0.000234604 0.000404358
19 1 0.37917 0.666537 0.203944 0 -0.000368118 -8.7738e-05
20 1 0.346083 0.999899 0.418157 0 -9.91821e-05 -8.39233e-05
21 1 0.273784 0.499936 0.346738 0 -0.000114441 0.000360489
22 1 0.0960816 0.166769 0.418157 0 9.15527e-05 -8.7738e-05
23 1 0.0237833 0.666731 0.346738 0 0.000118256 0.000354767
24 1 0.990687 -0.000104485 0.560925 0 1.33514e-05 0.000228882
25 1 0.918379 0.499896 0.489527 0 -1.90735e-06 -0.000230789
26 1 0.740686 0.166771 0.560925 0 -1.90735e-06 0.000249863
27 1 0.668379 0.666771 0.489528 0 0 -0.000230789
28 1 0.484517 0.497197 0.0611268 0 0.000272751 0.000450134
29 1 0.234516 0.66947 0.0611271 0 -0.000301361 0.000431061
30 1 0.129169 0.500132 0.203944 0 0.000356674 -8.01086e-05
31 1 0.879168 0.666536 0.203944 0 -0.000350952 -7.82013e-05
32 1 0.773783 0.499936 0.346738 0 -0.000118256 0.000349045
33 1 0.529899 0.166536 0.846509 0 -0.000352859 6.29425e-05
34 1 0.424552 -0.00280373 0.989326 0 0.000297546 -0.000427246
35 1 0.174551 0.169469 0.989326 0 -0.00028038 -0.000427246
36 1 0.635284 0.999936 0.703715 0 -0.000114441 -0.000358582
37 1 0.562986 0.499898 0.632296 0 -9.34601e-05 7.24792e-05
38 1 0.385284 0.166731 0.703715 0 0.000112534 -0.000347137
39 1 0.312986 0.666769 0.632296 0 9.53674e-05 7.62939e-05
40 1 0.279898 1.00013 0.846509 0 0.000347137 6.67572e-05
41 1 0.207588 0.499967 0.775061 0 -0.000246048 -0.000406265
42 1 0.0298974 0.166536 0.846509 0 -0.000356674 7.05719e-05
43 1 0.957587 0.666701 0.77506 0 0.000234604 -0.000394821
44 1 0.92455 -0.00280288 0.989326 0 0.000282288 -0.000436783
45 1 0.852214 0.500158 0.917737 0 -7.62939e-06 -0.00019455
46 1 0.523785 0.666731 0.346738 0 0.00012207 0.000335693
47 1 0.41838 0.499895 0.489528 0 5.72205e-06 -0.000228882
48 1 0.16838 0.666771 0.489527 0 -7.62939e-06 -0.000217438
49 1 0.0629847 0.499899 0.632296 0 -9.72748e-05 7.43866e-05
50 1 0.812984 0.666769 0.632296 0 8.96454e-05 7.62939e-05
51 1 0.707586 0.499967 0.77506 0 -0.000226974 -0.000398636
52 1 0.674552 0.16947 0.989326 0 -0.000297546 -0.000423431
53 1 0.602215 0.666509 0.917737 0 7.62939e-06 -0.000207901
54 1 0.457588 0.6667 0.775061 0 0.000246048 -0.000400543
55 1 0.352215 0.500157 0.917737 0 -3.8147e-06 -0.000190735
56 1 0.102214 0.66651 0.917737 0 3.8147e-06 -0.000192642
ITEM: TIMESTEP
5
ITEM: NUMBER OF ATOMS
56
ITEM: BOX BOUNDS xy xz yz pp pp pp
-4.4902396202087402e-01 1.2156271994113922e+01 8.9406967163085938e-07
-8.2894563674926758e-03 5.5346975326538086e+00 -4.7785270214080811e-01
-4.5665502548217773e-03 1.9024526596069336e+01 -5.9604644775390625e-08
ITEM: ATOMS id type xs ys zs fx fy fz
1 1 0.556854 1.00016 0.132723 0 0.000127792 -3.8147e-06
2 1 0.306853 0.166507 0.132723 0 -0.000137329 -2.09808e-05
3 1 0.20148 0.999945 0.275405 0 9.15527e-05 -5.34058e-05
4 1 0.95148 0.166723 0.275405 0 -8.39233e-05 -5.53131e-05
5 1 0.846081 0.999889 0.418158 0 -3.8147e-06 0.00019455
6 1 0.0568525 1.00016 0.132723 0 0.000133514 -1.90735e-05
7 1 0.984516 0.497221 0.0611342 0 4.57764e-05 -4.3869e-05
8 1 0.806852 0.166506 0.132723 0 -0.000120163 -9.53674e-06
9 1 0.734515 0.669446 0.0611342 0 -5.53131e-05 -3.8147e-05
10 1 0.701479 0.999945 0.275405 0 7.82013e-05 -5.91278e-05
11 1 0.596083 0.166777 0.418158 0 1.71661e-05 0.00019455
12 1 0.490688 -0.00011297 0.560928 0 3.62396e-05 -8.58307e-05
13 1 0.240688 0.166779 0.560928 0 -2.09808e-05 -8.96454e-05
14 1 0.135283 0.999933 0.703707 0 -0.000165939 -2.86102e-05
15 1 0.885282 0.166736 0.703707 0 0.000144958 -2.28882e-05
16 1 0.779897 1.00014 0.846506 0 0.000211716 -0.00018692
17 1 0.62917 0.500136 0.203947 0 0.000207901 0.000188828
18 1 0.451481 0.166723 0.275405 0 -9.53674e-05 -7.05719e-05
19 1 0.37917 0.666531 0.203947 0 -0.000200272 0.000192642
20 1 0.346083 0.99989 0.418158 0 -7.62939e-06 0.000198364
21 1 0.273785 0.499932 0.346746 0 -0.000150681 2.67029e-05
22 1 0.0960816 0.166777 0.418158 0 9.53674e-06 0.000188828
23 1 0.0237836 0.666736 0.346745 0 0.000154495 3.8147e-05
24 1 0.990687 -0.000112295 0.560928 0 2.47955e-05 -9.91821e-05
25 1 0.918379 0.499887 0.489524 0 3.62396e-05 0.000102997
26 1 0.740687 0.16678 0.560928 0 -4.00543e-05 -9.91821e-05
27 1 0.668378 0.66678 0.489525 0 -4.3869e-05 8.39233e-05
28 1 0.484517 0.49722 0.0611341 0 5.72205e-05 -4.19617e-05
29 1 0.234517 0.669446 0.061134 0 -4.57764e-05 -2.86102e-05
30 1 0.129169 0.500136 0.203947 0 0.00019455 0.000196457
31 1 0.879169 0.666532 0.203947 0 -0.000207901 0.000202179
32 1 0.773783 0.499932 0.346745 0 -0.000148773 3.62396e-05
33 1 0.529899 0.166531 0.846506 0 -0.000202179 -0.000185013
34 1 0.424552 -0.00277923 0.989319 0 4.3869e-05 2.86102e-05
35 1 0.174551 0.169446 0.989319 0 -4.95911e-05 4.76837e-05
36 1 0.635284 0.999932 0.703707 0 -0.000144958 -3.05176e-05
37 1 0.562986 0.49989 0.632295 0 -9.53674e-06 -0.000190735
38 1 0.385284 0.166735 0.703708 0 0.00015831 -4.95911e-05
39 1 0.312986 0.666778 0.632295 0 -1.90735e-06 -0.000200272
40 1 0.279898 1.00014 0.846506 0 0.000202179 -0.000196457
41 1 0.207587 0.499945 0.775047 0 9.53674e-05 5.53131e-05
42 1 0.0298973 0.166531 0.846506 0 -0.000202179 -0.000192642
43 1 0.957586 0.666723 0.775047 0 -0.000102997 5.72205e-05
44 1 0.92455 -0.00277914 0.989319 0 5.72205e-05 2.86102e-05
45 1 0.852213 0.500161 0.91773 0 0.000131607 1.90735e-05
46 1 0.523785 0.666736 0.346745 0 0.000135422 4.00543e-05
47 1 0.41838 0.499887 0.489525 0 3.8147e-05 9.34601e-05
48 1 0.16838 0.666779 0.489525 0 -2.28882e-05 9.72748e-05
49 1 0.0629846 0.49989 0.632295 0 0 -0.000188828
50 1 0.812984 0.666777 0.632295 0 1.14441e-05 -0.000200272
51 1 0.707586 0.499945 0.775047 0 7.62939e-05 5.14984e-05
52 1 0.674552 0.169446 0.989319 0 -4.57764e-05 1.90735e-05
53 1 0.602215 0.666506 0.91773 0 -0.000131607 1.90735e-05
54 1 0.457588 0.666723 0.775048 0 -8.01086e-05 5.14984e-05
55 1 0.352215 0.50016 0.91773 0 0.0001297 2.67029e-05
56 1 0.102214 0.666506 0.91773 0 -0.0001297 1.14441e-05
ITEM: TIMESTEP
6
ITEM: NUMBER OF ATOMS
56
ITEM: BOX BOUNDS xy xz yz pp pp pp
-4.4902396202087402e-01 1.2156271994113922e+01 8.9406967163085938e-07
-8.2894563674926758e-03 5.5346975326538086e+00 -4.7785270214080811e-01
-4.5665502548217773e-03 1.9024526596069336e+01 -5.9604644775390625e-08
ITEM: ATOMS id type xs ys zs fx fy fz
1 1 0.556854 1.00016 0.132723 0 0.000127792 -3.8147e-06
2 1 0.306853 0.166507 0.132723 0 -0.000137329 -2.09808e-05
3 1 0.20148 0.999945 0.275405 0 9.15527e-05 -5.34058e-05
4 1 0.95148 0.166723 0.275405 0 -8.39233e-05 -5.53131e-05
5 1 0.846081 0.999889 0.418158 0 -3.8147e-06 0.00019455
6 1 0.0568525 1.00016 0.132723 0 0.000133514 -1.90735e-05
7 1 0.984516 0.497221 0.0611342 0 4.57764e-05 -4.3869e-05
8 1 0.806852 0.166506 0.132723 0 -0.000120163 -9.53674e-06
9 1 0.734515 0.669446 0.0611342 0 -5.53131e-05 -3.8147e-05
10 1 0.701479 0.999945 0.275405 0 7.82013e-05 -5.91278e-05
11 1 0.596083 0.166777 0.418158 0 1.71661e-05 0.00019455
12 1 0.490688 -0.00011297 0.560928 0 3.62396e-05 -8.58307e-05
13 1 0.240688 0.166779 0.560928 0 -2.09808e-05 -8.96454e-05
14 1 0.135283 0.999933 0.703707 0 -0.000165939 -2.86102e-05
15 1 0.885282 0.166736 0.703707 0 0.000144958 -2.28882e-05
16 1 0.779897 1.00014 0.846506 0 0.000211716 -0.00018692
17 1 0.62917 0.500136 0.203947 0 0.000207901 0.000188828
18 1 0.451481 0.166723 0.275405 0 -9.53674e-05 -7.05719e-05
19 1 0.37917 0.666531 0.203947 0 -0.000200272 0.000192642
20 1 0.346083 0.99989 0.418158 0 -7.62939e-06 0.000198364
21 1 0.273785 0.499932 0.346746 0 -0.000150681 2.67029e-05
22 1 0.0960816 0.166777 0.418158 0 9.53674e-06 0.000188828
23 1 0.0237836 0.666736 0.346745 0 0.000154495 3.8147e-05
24 1 0.990687 -0.000112295 0.560928 0 2.47955e-05 -9.91821e-05
25 1 0.918379 0.499887 0.489524 0 3.62396e-05 0.000102997
26 1 0.740687 0.16678 0.560928 0 -4.00543e-05 -9.91821e-05
27 1 0.668378 0.66678 0.489525 0 -4.3869e-05 8.39233e-05
28 1 0.484517 0.49722 0.0611341 0 5.72205e-05 -4.19617e-05
29 1 0.234517 0.669446 0.061134 0 -4.57764e-05 -2.86102e-05
30 1 0.129169 0.500136 0.203947 0 0.00019455 0.000196457
31 1 0.879169 0.666532 0.203947 0 -0.000207901 0.000202179
32 1 0.773783 0.499932 0.346745 0 -0.000148773 3.62396e-05
33 1 0.529899 0.166531 0.846506 0 -0.000202179 -0.000185013
34 1 0.424552 -0.00277923 0.989319 0 4.3869e-05 2.86102e-05
35 1 0.174551 0.169446 0.989319 0 -4.95911e-05 4.76837e-05
36 1 0.635284 0.999932 0.703707 0 -0.000144958 -3.05176e-05
37 1 0.562986 0.49989 0.632295 0 -9.53674e-06 -0.000190735
38 1 0.385284 0.166735 0.703708 0 0.00015831 -4.95911e-05
39 1 0.312986 0.666778 0.632295 0 -1.90735e-06 -0.000200272
40 1 0.279898 1.00014 0.846506 0 0.000202179 -0.000196457
41 1 0.207587 0.499945 0.775047 0 9.53674e-05 5.53131e-05
42 1 0.0298973 0.166531 0.846506 0 -0.000202179 -0.000192642
43 1 0.957586 0.666723 0.775047 0 -0.000102997 5.72205e-05
44 1 0.92455 -0.00277914 0.989319 0 5.72205e-05 2.86102e-05
45 1 0.852213 0.500161 0.91773 0 0.000131607 1.90735e-05
46 1 0.523785 0.666736 0.346745 0 0.000135422 4.00543e-05
47 1 0.41838 0.499887 0.489525 0 3.8147e-05 9.34601e-05
48 1 0.16838 0.666779 0.489525 0 -2.28882e-05 9.72748e-05
49 1 0.0629846 0.49989 0.632295 0 0 -0.000188828
50 1 0.812984 0.666777 0.632295 0 1.14441e-05 -0.000200272
51 1 0.707586 0.499945 0.775047 0 7.62939e-05 5.14984e-05
52 1 0.674552 0.169446 0.989319 0 -4.57764e-05 1.90735e-05
53 1 0.602215 0.666506 0.91773 0 -0.000131607 1.90735e-05
54 1 0.457588 0.666723 0.775048 0 -8.01086e-05 5.14984e-05
55 1 0.352215 0.50016 0.91773 0 0.0001297 2.67029e-05
56 1 0.102214 0.666506 0.91773 0 -0.0001297 1.14441e-05
