ITEM: TIMESTEP
0
ITEM: NUMBER OF ATOMS
32
ITEM: BOX BOUNDS xy xz yz pp pp pp
-4.0532350540161133e-03 6.4008854031562805e+00 0.0000000000000000e+00
-9.1640949249267578e-03 7.4649536013603210e+00 0.0000000000000000e+00
-4.7960281372070312e-02 2.0773346722126007e+01 1.9353583455085754e+00
ITEM: ATOMS id type xs ys zs fx fy fz
1 1 0.999986 0.645281 0.0597509 0 0 1.10062
2 1 0.499986 0.645281 0.0597509 0 0 1.10062
3 1 0.249986 0.145281 0.0597519 0 0 1.10044
4 1 0.749986 0.145281 0.0597519 0 0 1.10044
5 1 0.999986 0.557938 0.309753 0 0 0.000810623
6 1 0.249986 0.435958 0.184753 0 0 0.00525475
7 1 0.749986 0.435958 0.184753 0 0 0.00525475
8 1 0.499986 0.557938 0.309753 0 0 0.000810623
9 1 0.999986 0.935956 0.184753 0 0 0.00527573
10 1 0.249986 0.0579381 0.309753 0 0 0.000759125
11 1 0.499986 0.935956 0.184753 0 0 0.00527573
12 1 0.749986 0.0579381 0.309753 0 0 0.000759125
13 1 0.999986 0.47057 0.559749 0 0 6.10352e-05
14 1 0.499986 0.47057 0.559749 0 0 6.10352e-05
15 1 0.249986 0.970569 0.55975 0 0 4.95911e-05
16 1 0.749986 0.970569 0.55975 0 0 4.95911e-05
17 1 0.249986 0.348603 0.434752 0 0 -6.10352e-05
18 1 0.749986 0.348603 0.434752 0 0 -6.10352e-05
19 1 0.999986 0.848603 0.434752 0 0 -3.8147e-05
20 1 0.499986 0.848603 0.434752 0 0 -3.8147e-05
21 1 0.999986 0.383207 0.809748 0 0 -0.00526619
22 1 0.249986 0.261231 0.684748 0 0 -0.000787735
23 1 0.499986 0.383207 0.809748 0 0 -0.00526619
24 1 0.749986 0.261231 0.684748 0 0 -0.000787735
25 1 0.999986 0.76123 0.684749 0 0 -0.000810623
26 1 0.249986 0.883207 0.809748 0 0 -0.00525475
27 1 0.749986 0.883207 0.809748 0 0 -0.00525475
28 1 0.499986 0.76123 0.684749 0 0 -0.000810623
29 1 0.249986 0.17388 0.934749 0 0 -1.10044
30 1 0.749986 0.17388 0.934749 0 0 -1.10044
31 1 0.999986 0.673881 0.93475 0 0 -1.10061
32 1 0.499986 0.673881 0.93475 0 0 -1.10061
ITEM: TIMESTEP
1
ITEM: NUMBER OF ATOMS
32
ITEM: BOX BOUNDS xy xz yz pp pp pp
-4.0532350540161133e-03 6.4008854031562805e+00 0.0000000000000000e+00
-9.1640949249267578e-03 7.4649536013603210e+00 0.0000000000000000e+00
-4.7960281372070312e-02 2.0773346722126007e+01 1.9353583455085754e+00
ITEM: ATOMS id type xs ys zs fx fy fz
1 1 0.999986 0.643603 0.0645537 0 0 0.260805
2 1 0.499986 0.643603 0.0645537 0 0 0.260805
3 1 0.249986 0.143603 0.064554 0 0 0.260792
4 1 0.749986 0.143603 0.064554 0 0 0.260792
5 1 0.999986 0.557936 0.309756 0 0 0.00857162
6 1 0.249986 0.43595 0.184776 0 0 0.149658
7 1 0.749986 0.43595 0.184776 0 0 0.149658
8 1 0.499986 0.557936 0.309756 0 0 0.00857162
9 1 0.999986 0.935948 0.184776 0 0 0.149673
10 1 0.249986 0.0579369 0.309757 0 0 0.00853539
11 1 0.499986 0.935948 0.184776 0 0 0.149673
12 1 0.749986 0.0579369 0.309757 0 0 0.00853539
13 1 0.999986 0.47057 0.55975 0 0 0.000417709
14 1 0.499986 0.47057 0.55975 0 0 0.000417709
15 1 0.249986 0.970569 0.55975 0 0 0.000400543
16 1 0.749986 0.970569 0.55975 0 0 0.000400543
17 1 0.249986 0.348603 0.434752 0 0 -0.000419617
18 1 0.749986 0.348603 0.434752 0 0 -0.000419617
19 1 0.999986 0.848603 0.434752 0 0 -0.000394821
20 1 0.499986 0.848603 0.434752 0 0 -0.000394821
21 1 0.999986 0.383215 0.809725 0 0 -0.149679
22 1 0.249986 0.261232 0.684745 0 0 -0.00854683
23 1 0.499986 0.383215 0.809725 0 0 -0.149679
24 1 0.749986 0.261232 0.684745 0 0 -0.00854683
25 1 0.999986 0.761232 0.684745 0 0 -0.00856972
26 1 0.249986 0.883215 0.809725 0 0 -0.149666
27 1 0.749986 0.883215 0.809725 0 0 -0.149666
28 1 0.499986 0.761232 0.684745 0 0 -0.00856972
29 1 0.249986 0.175558 0.929947 0 0 -0.26078
30 1 0.749986 0.175558 0.929947 0 0 -0.26078
31 1 0.999986 0.675559 0.929947 0 0 -0.260798
32 1 0.499986 0.675559 0.929947 0 0 -0.260798
ITEM: TIMESTEP
2
ITEM: NUMBER OF ATOMS
32
ITEM: BOX BOUNDS xy xz yz pp pp pp
-4.0532350540161133e-03 6.4008854031562805e+00 0.0000000000000000e+00
-9.1640949249267578e-03 7.4649536013603210e+00 0.0000000000000000e+00
-4.7960281372070312e-02 2.0773346722126007e+01 1.9353583455085754e+00
ITEM: ATOMS id type xs ys zs fx fy fz
1 1 0.999986 0.642404 0.0679839 0 0 -0.107767
2 1 0.499986 0.642404 0.0679839 0 0 -0.107767
3 1 0.249986 0.142404 0.067984 0 0 -0.107748
4 1 0.749986 0.142404 0.067984 0 0 -0.107748
5 1 0.999986 0.557897 0.309869 0 0 0.0582371
6 1 0.249986 0.435262 0.186745 0 0 0.145676
7 1 0.749986 0.435262 0.186745 0 0 0.145676
8 1 0.499986 0.557897 0.309869 0 0 0.0582371
9 1 0.999986 0.93526 0.186745 0 0 0.145662
10 1 0.249986 0.0578977 0.309869 0 0 0.0582352
11 1 0.499986 0.93526 0.186745 0 0 0.145662
12 1 0.749986 0.0578977 0.309869 0 0 0.0582352
13 1 0.999986 0.470568 0.559755 0 0 -0.00544739
14 1 0.499986 0.470568 0.559755 0 0 -0.00544739
15 1 0.249986 0.970567 0.559755 0 0 -0.00545502
16 1 0.749986 0.970567 0.559755 0 0 -0.00545502
17 1 0.249986 0.348605 0.434746 0 0 0.0054493
18 1 0.749986 0.348605 0.434746 0 0 0.0054493
19 1 0.999986 0.848605 0.434746 0 0 0.00544548
20 1 0.499986 0.848605 0.434746 0 0 0.00544548
21 1 0.999986 0.383903 0.807757 0 0 -0.145655
22 1 0.249986 0.261271 0.684632 0 0 -0.0582409
23 1 0.499986 0.383903 0.807757 0 0 -0.145655
24 1 0.749986 0.261271 0.684632 0 0 -0.0582409
25 1 0.999986 0.761271 0.684633 0 0 -0.0582466
26 1 0.249986 0.883903 0.807757 0 0 -0.145657
27 1 0.749986 0.883903 0.807757 0 0 -0.145657
28 1 0.499986 0.761271 0.684633 0 0 -0.0582466
29 1 0.249986 0.176757 0.926517 0 0 0.107748
30 1 0.749986 0.176757 0.926517 0 0 0.107748
31 1 0.999986 0.676757 0.926517 0 0 0.107763
32 1 0.499986 0.676757 0.926517 0 0 0.107763
ITEM: TIMESTEP
3
ITEM: NUMBER OF ATOMS
32
ITEM: BOX BOUNDS xy xz yz pp pp pp
-4.0532350540161133e-03 6.4008854031562805e+00 0.0000000000000000e+00
-9.1640949249267578e-03 7.4649536013603210e+00 0.0000000000000000e+00
-4.7960281372070312e-02 2.0773346722126007e+01 1.9353583455085754e+00
ITEM: ATOMS id type xs ys zs fx fy fz
1 1 0.999986 0.642334 0.0681838 0 0 -0.0186024
2 1 0.499986 0.642334 0.0681838 0 0 -0.0186024
3 1 0.249986 0.142334 0.0681841 0 0 -0.0186119
4 1 0.749986 0.142334 0.0681841 0 0 -0.0186119
5 1 0.999986 0.557574 0.310794 0 0 0.099329
6 1 0.249986 0.434144 0.189945 0 0 -0.0314083
7 1 0.749986 0.434144 0.189945 0 0 -0.0314083
8 1 0.499986 0.557574 0.310794 0 0 0.099329
9 1 0.999986 0.934142 0.189945 0 0 -0.0314045
10 1 0.249986 0.0575745 0.310794 0 0 0.0993404
11 1 0.499986 0.934142 0.189945 0 0 -0.0314045
12 1 0.749986 0.0575745 0.310794 0 0 0.0993404
13 1 0.999986 0.470596 0.559677 0 0 -0.0262585
14 1 0.499986 0.470596 0.559677 0 0 -0.0262585
15 1 0.249986 0.970594 0.559677 0 0 -0.0262489
16 1 0.749986 0.970594 0.559677 0 0 -0.0262489
17 1 0.249986 0.348578 0.434825 0 0 0.026268
18 1 0.749986 0.348578 0.434825 0 0 0.026268
19 1 0.999986 0.848577 0.434825 0 0 0.0262394
20 1 0.499986 0.848577 0.434825 0 0 0.0262394
21 1 0.999986 0.385021 0.804556 0 0 0.0314083
22 1 0.249986 0.261594 0.683707 0 0 -0.0993366
23 1 0.499986 0.385021 0.804556 0 0 0.0314083
24 1 0.749986 0.261594 0.683707 0 0 -0.0993366
25 1 0.999986 0.761594 0.683707 0 0 -0.0993252
26 1 0.249986 0.885021 0.804556 0 0 0.0313911
27 1 0.749986 0.885021 0.804556 0 0 0.0313911
28 1 0.499986 0.761594 0.683707 0 0 -0.0993252
29 1 0.249986 0.176826 0.926317 0 0 0.0186138
30 1 0.749986 0.176826 0.926317 0 0 0.0186138
31 1 0.999986 0.676827 0.926317 0 0 0.0186062
32 1 0.499986 0.676827 0.926317 0 0 0.0186062
ITEM: TIMESTEP
4
ITEM: NUMBER OF ATOMS
32
ITEM: BOX BOUNDS xy xz yz pp pp pp
-4.0532350540161133e-03 6.4008854031562805e+00 0.0000000000000000e+00
-9.1640949249267578e-03 7.4649536013603210e+00 0.0000000000000000e+00
-4.7960281372070312e-02 2.0773346722126007e+01 1.9353583455085754e+00
ITEM: ATOMS id type xs ys zs fx fy fz
1 1 0.999986 0.642438 0.0678862 0 0 0.0281982
2 1 0.499986 0.642438 0.0678862 0 0 0.0281982
3 1 0.249986 0.142438 0.0678863 0 0 0.0282059
4 1 0.749986 0.142438 0.0678863 0 0 0.0282059
5 1 0.999986 0.556806 0.312991 0 0 -0.00558853
6 1 0.249986 0.434014 0.190316 0 0 0.000270844
7 1 0.749986 0.434014 0.190316 0 0 0.000270844
8 1 0.499986 0.556806 0.312991 0 0 -0.00558853
9 1 0.999986 0.934012 0.190316 0 0 0.000270844
10 1 0.249986 0.0568067 0.312991 0 0 -0.00559044
11 1 0.499986 0.934012 0.190316 0 0 0.000270844
12 1 0.749986 0.0568067 0.312991 0 0 -0.00559044
13 1 0.999986 0.470781 0.559147 0 0 -0.0391369
14 1 0.499986 0.470781 0.559147 0 0 -0.0391369
15 1 0.249986 0.970779 0.559147 0 0 -0.0391445
16 1 0.749986 0.970779 0.559147 0 0 -0.0391445
17 1 0.249986 0.348393 0.435355 0 0 0.0391273
18 1 0.749986 0.348393 0.435355 0 0 0.0391273
19 1 0.999986 0.848392 0.435354 0 0 0.0391388
20 1 0.499986 0.848392 0.435354 0 0 0.0391388
21 1 0.999986 0.38515 0.804186 0 0 -0.000276566
22 1 0.249986 0.262362 0.68151 0 0 0.00560188
23 1 0.499986 0.38515 0.804186 0 0 -0.000276566
24 1 0.749986 0.262362 0.68151 0 0 0.00560188
25 1 0.999986 0.762362 0.68151 0 0 0.00559998
26 1 0.249986 0.885151 0.804185 0 0 -0.000265121
27 1 0.749986 0.885151 0.804185 0 0 -0.000265121
28 1 0.499986 0.762362 0.68151 0 0 0.00559998
29 1 0.249986 0.176722 0.926615 0 0 -0.0282059
30 1 0.749986 0.176722 0.926615 0 0 -0.0282059
31 1 0.999986 0.676723 0.926615 0 0 -0.0282059
32 1 0.499986 0.676723 0.926615 0 0 -0.0282059
ITEM: TIMESTEP
5
ITEM: NUMBER OF ATOMS
32
ITEM: BOX BOUNDS xy xz yz pp pp pp
-4.0532350540161133e-03 6.4008854031562805e+00 0.0000000000000000e+00
-9.1640949249267578e-03 7.4649536013603210e+00 0.0000000000000000e+00
-4.7960281372070312e-02 2.0773346722126007e+01 1.9353583455085754e+00
ITEM: ATOMS id type xs ys zs fx fy fz
1 1 0.999986 0.642338 0.0681713 0 0 0.0004673
2 1 0.499986 0.642338 0.0681713 0 0 0.0004673
3 1 0.249986 0.142339 0.0681715 0 0 0.000471115
4 1 0.749986 0.142339 0.0681715 0 0 0.000471115
5 1 0.999986 0.556736 0.313192 0 0 -0.00232124
6 1 0.249986 0.433998 0.190363 0 0 0.012434
7 1 0.749986 0.433998 0.190363 0 0 0.012434
8 1 0.499986 0.556736 0.313192 0 0 -0.00232124
9 1 0.999986 0.933996 0.190363 0 0 0.0124302
10 1 0.249986 0.0567367 0.313192 0 0 -0.00231934
11 1 0.499986 0.933996 0.190363 0 0 0.0124302
12 1 0.749986 0.0567367 0.313192 0 0 -0.00231934
13 1 0.999986 0.470959 0.558638 0 0 -0.00227928
14 1 0.499986 0.470959 0.558638 0 0 -0.00227928
15 1 0.249986 0.970957 0.558638 0 0 -0.002285
16 1 0.749986 0.970957 0.558638 0 0 -0.002285
17 1 0.249986 0.348215 0.435864 0 0 0.00227737
18 1 0.749986 0.348215 0.435864 0 0 0.00227737
19 1 0.999986 0.848214 0.435863 0 0 0.00229454
20 1 0.499986 0.848214 0.435863 0 0 0.00229454
21 1 0.999986 0.385167 0.804138 0 0 -0.0124283
22 1 0.249986 0.262432 0.68131 0 0 0.00230789
23 1 0.499986 0.385167 0.804138 0 0 -0.0124283
24 1 0.749986 0.262432 0.68131 0 0 0.00230789
25 1 0.999986 0.762432 0.68131 0 0 0.0023098
26 1 0.249986 0.885167 0.804138 0 0 -0.0124226
27 1 0.749986 0.885167 0.804138 0 0 -0.0124226
28 1 0.499986 0.762432 0.68131 0 0 0.0023098
29 1 0.249986 0.176822 0.92633 0 0 -0.000463486
30 1 0.749986 0.176822 0.92633 0 0 -0.000463486
31 1 0.999986 0.676823 0.92633 0 0 -0.000473022
32 1 0.499986 0.676823 0.92633 0 0 -0.000473022
ITEM: TIMESTEP
6
ITEM: NUMBER OF ATOMS
32
ITEM: BOX BOUNDS xy xz yz pp pp pp
-4.0532350540161133e-03 6.4008854031562805e+00 0.0000000000000000e+00
-9.1640949249267578e-03 7.4649536013603210e+00 0.0000000000000000e+00
-4.7960281372070312e-02 2.0773346722126007e+01 1.9353583455085754e+00
ITEM: ATOMS id type xs ys zs fx fy fz
1 1 0.999986 0.642333 0.0681858 0 0 0.00470161
2 1 0.499986 0.642333 0.0681858 0 0 0.00470161
3 1 0.249986 0.142334 0.0681861 0 0 0.0046978
4 1 0.749986 0.142334 0.0681861 0 0 0.0046978
5 1 0.999986 0.556746 0.313162 0 0 0.00563431
6 1 0.249986 0.433931 0.190552 0 0 0.0010891
7 1 0.749986 0.433931 0.190552 0 0 0.0010891
8 1 0.499986 0.556746 0.313162 0 0 0.00563431
9 1 0.999986 0.93393 0.190553 0 0 0.00109482
10 1 0.249986 0.0567471 0.313162 0 0 0.00563812
11 1 0.499986 0.93393 0.190553 0 0 0.00109482
12 1 0.749986 0.0567471 0.313162 0 0 0.00563812
13 1 0.999986 0.470975 0.55859 0 0 0.00212288
14 1 0.499986 0.470975 0.55859 0 0 0.00212288
15 1 0.249986 0.970974 0.55859 0 0 0.00213432
16 1 0.749986 0.970974 0.55859 0 0 0.00213432
17 1 0.249986 0.348198 0.435912 0 0 -0.00213814
18 1 0.749986 0.348198 0.435912 0 0 -0.00213814
19 1 0.999986 0.848198 0.435911 0 0 -0.00213242
20 1 0.499986 0.848198 0.435911 0 0 -0.00213242
21 1 0.999986 0.385233 0.803949 0 0 -0.001091
22 1 0.249986 0.262422 0.681339 0 0 -0.00562286
23 1 0.499986 0.385233 0.803949 0 0 -0.001091
24 1 0.749986 0.262422 0.681339 0 0 -0.00562286
25 1 0.999986 0.762422 0.68134 0 0 -0.00562859
26 1 0.249986 0.885233 0.803949 0 0 -0.00110054
27 1 0.749986 0.885233 0.803949 0 0 -0.00110054
28 1 0.499986 0.762422 0.68134 0 0 -0.00562859
29 1 0.249986 0.176827 0.926316 0 0 -0.00470543
30 1 0.749986 0.176827 0.926316 0 0 -0.00470543
31 1 0.999986 0.676828 0.926315 0 0 -0.00469398
32 1 0.499986 0.676828 0.926315 0 0 -0.00469398
ITEM: TIMESTEP
7
ITEM: NUMBER OF ATOMS
32
ITEM: BOX BOUNDS xy xz yz pp pp pp
-4.0532350540161133e-03 6.4008854031562805e+00 0.0000000000000000e+00
-9.1640949249267578e-03 7.4649536013603210e+00 0.0000000000000000e+00
-4.7960281372070312e-02 2.0773346722126007e+01 1.9353583455085754e+00
ITEM: ATOMS id type xs ys zs fx fy fz
1 1 0.999986 0.642296 0.0682919 0 0 -0.00217056
2 1 0.499986 0.642296 0.0682919 0 0 -0.00217056
3 1 0.249986 0.142296 0.0682921 0 0 -0.00217056
4 1 0.749986 0.142296 0.0682921 0 0 -0.00217056
5 1 0.999986 0.556711 0.313265 0 0 0.00271606
6 1 0.249986 0.433889 0.190673 0 0 -6.67572e-05
7 1 0.749986 0.433889 0.190673 0 0 -6.67572e-05
8 1 0.499986 0.556711 0.313265 0 0 0.00271606
9 1 0.999986 0.933888 0.190673 0 0 -7.24792e-05
10 1 0.249986 0.0567112 0.313265 0 0 0.00271797
11 1 0.499986 0.933888 0.190673 0 0 -7.24792e-05
12 1 0.749986 0.0567112 0.313265 0 0 0.00271797
13 1 0.999986 0.470969 0.55861 0 0 -0.00234222
14 1 0.499986 0.470969 0.55861 0 0 -0.00234222
15 1 0.249986 0.970967 0.55861 0 0 -0.00233269
16 1 0.749986 0.970967 0.55861 0 0 -0.00233269
17 1 0.249986 0.348205 0.435891 0 0 0.00234222
18 1 0.749986 0.348205 0.435891 0 0 0.00234222
19 1 0.999986 0.848205 0.435891 0 0 0.00233078
20 1 0.499986 0.848205 0.435891 0 0 0.00233078
21 1 0.999986 0.385275 0.803828 0 0 6.10352e-05
22 1 0.249986 0.262458 0.681237 0 0 -0.00271606
23 1 0.499986 0.385275 0.803828 0 0 6.10352e-05
24 1 0.749986 0.262458 0.681237 0 0 -0.00271606
25 1 0.999986 0.762458 0.681237 0 0 -0.00271797
26 1 0.249986 0.885276 0.803828 0 0 6.86646e-05
27 1 0.749986 0.885276 0.803828 0 0 6.86646e-05
28 1 0.499986 0.762458 0.681237 0 0 -0.00271797
29 1 0.249986 0.176864 0.926209 0 0 0.00217628
30 1 0.749986 0.176864 0.926209 0 0 0.00217628
31 1 0.999986 0.676865 0.926209 0 0 0.00217628
32 1 0.499986 0.676865 0.926209 0 0 0.00217628
ITEM: TIMESTEP
8
ITEM: NUMBER OF ATOMS
32
ITEM: BOX BOUNDS xy xz yz pp pp pp
-4.0532350540161133e-03 6.4008854031562805e+00 0.0000000000000000e+00
-9.1640949249267578e-03 7.4649536013603210e+00 0.0000000000000000e+00
-4.7960281372070312e-02 2.0773346722126007e+01 1.9353583455085754e+00
ITEM: ATOMS id type xs ys zs fx fy fz
1 1 0.999986 0.642301 0.0682774 0 0 0.00050354
2 1 0.499986 0.642301 0.0682774 0 0 0.00050354
3 1 0.249986 0.142302 0.0682777 0 0 0.000518799
4 1 0.749986 0.142302 0.0682777 0 0 0.000518799
5 1 0.999986 0.55668 0.313353 0 0 -0.000392914
6 1 0.249986 0.433877 0.190708 0 0 -6.48499e-05
7 1 0.749986 0.433877 0.190708 0 0 -6.48499e-05
8 1 0.499986 0.55668 0.313353 0 0 -0.000392914
9 1 0.999986 0.933875 0.190708 0 0 -5.91278e-05
10 1 0.249986 0.0566803 0.313353 0 0 -0.000391006
11 1 0.499986 0.933875 0.190708 0 0 -5.91278e-05
12 1 0.749986 0.0566803 0.313353 0 0 -0.000391006
13 1 0.999986 0.470984 0.558566 0 0 -0.00097084
14 1 0.499986 0.470984 0.558566 0 0 -0.00097084
15 1 0.249986 0.970982 0.558566 0 0 -0.000984192
16 1 0.749986 0.970982 0.558566 0 0 -0.000984192
17 1 0.249986 0.34819 0.435935 0 0 0.00097847
18 1 0.749986 0.34819 0.435935 0 0 0.00097847
19 1 0.999986 0.848189 0.435935 0 0 0.000986099
20 1 0.499986 0.848189 0.435935 0 0 0.000986099
21 1 0.999986 0.385287 0.803793 0 0 7.24792e-05
22 1 0.249986 0.262488 0.681149 0 0 0.000370026
23 1 0.499986 0.385287 0.803793 0 0 7.24792e-05
24 1 0.749986 0.262488 0.681149 0 0 0.000370026
25 1 0.999986 0.762488 0.681149 0 0 0.000389099
26 1 0.249986 0.885288 0.803793 0 0 7.43866e-05
27 1 0.749986 0.885288 0.803793 0 0 7.43866e-05
28 1 0.499986 0.762488 0.681149 0 0 0.000389099
29 1 0.249986 0.176859 0.926224 0 0 -0.000513077
30 1 0.749986 0.176859 0.926224 0 0 -0.000513077
31 1 0.999986 0.67686 0.926224 0 0 -0.000516891
32 1 0.499986 0.67686 0.926224 0 0 -0.000516891
ITEM: TIMESTEP
9
ITEM: NUMBER OF ATOMS
32
ITEM: BOX BOUNDS xy xz yz pp pp pp
-4.0532350540161133e-03 6.4008854031562805e+00 0.0000000000000000e+00
-9.1640949249267578e-03 7.4649536013603210e+00 0.0000000000000000e+00
-4.7960281372070312e-02 2.0773346722126007e+01 1.9353583455085754e+00
ITEM: ATOMS id type xs ys zs fx fy fz
1 1 0.999986 0.6423 0.0682821 0 0 4.95911e-05
2 1 0.499986 0.6423 0.0682821 0 0 4.95911e-05
3 1 0.249986 0.1423 0.0682825 0 0 3.24249e-05
4 1 0.749986 0.1423 0.0682825 0 0 3.24249e-05
5 1 0.999986 0.55668 0.313352 0 0 5.72205e-06
6 1 0.249986 0.433877 0.190708 0 0 4.00543e-05
7 1 0.749986 0.433877 0.190708 0 0 4.00543e-05
8 1 0.499986 0.55668 0.313352 0 0 5.72205e-06
9 1 0.999986 0.933875 0.190708 0 0 3.62396e-05
10 1 0.249986 0.0566807 0.313352 0 0 -7.62939e-06
11 1 0.499986 0.933875 0.190708 0 0 3.62396e-05
12 1 0.749986 0.0566807 0.313352 0 0 -7.62939e-06
13 1 0.999986 0.470988 0.558555 0 0 3.43323e-05
14 1 0.499986 0.470988 0.558555 0 0 3.43323e-05
15 1 0.249986 0.970986 0.558555 0 0 2.86102e-05
16 1 0.749986 0.970986 0.558555 0 0 2.86102e-05
17 1 0.249986 0.348186 0.435947 0 0 -3.05176e-05
18 1 0.749986 0.348186 0.435947 0 0 -3.05176e-05
19 1 0.999986 0.848185 0.435947 0 0 -3.43323e-05
20 1 0.499986 0.848185 0.435947 0 0 -3.43323e-05
21 1 0.999986 0.385288 0.803793 0 0 -3.43323e-05
22 1 0.249986 0.262488 0.681149 0 0 3.8147e-06
23 1 0.499986 0.385288 0.803793 0 0 -3.43323e-05
24 1 0.749986 0.262488 0.681149 0 0 3.8147e-06
25 1 0.999986 0.762488 0.68115 0 0 0
26 1 0.249986 0.885288 0.803793 0 0 -3.8147e-05
27 1 0.749986 0.885288 0.803793 0 0 -3.8147e-05
28 1 0.499986 0.762488 0.68115 0 0 0
29 1 0.249986 0.176861 0.926219 0 0 -3.62396e-05
30 1 0.749986 0.176861 0.926219 0 0 -3.62396e-05
31 1 0.999986 0.676862 0.926219 0 0 -4.95911e-05
32 1 0.499986 0.676862 0.926219 0 0 -4.95911e-05
ITEM: TIMESTEP
10
ITEM: NUMBER OF ATOMS
32
ITEM: BOX BOUNDS xy xz yz pp pp pp
-4.0532350540161133e-03 6.4008854031562805e+00 0.0000000000000000e+00
-9.1640949249267578e-03 7.4649536013603210e+00 0.0000000000000000e+00
-4.7960281372070312e-02 2.0773346722126007e+01 1.9353583455085754e+00
ITEM: ATOMS id type xs ys zs fx fy fz
1 1 0.999986 0.642299 0.068283 0 0 -1.52588e-05
2 1 0.499986 0.642299 0.068283 0 0 -1.52588e-05
3 1 0.249986 0.1423 0.0682831 0 0 5.72205e-06
4 1 0.749986 0.1423 0.0682831 0 0 5.72205e-06
5 1 0.999986 0.55668 0.313352 0 0 7.62939e-06
6 1 0.249986 0.433877 0.190709 0 0 2.28882e-05
7 1 0.749986 0.433877 0.190709 0 0 2.28882e-05
8 1 0.499986 0.55668 0.313352 0 0 7.62939e-06
9 1 0.999986 0.933875 0.190709 0 0 2.28882e-05
10 1 0.249986 0.0566807 0.313352 0 0 1.71661e-05
11 1 0.499986 0.933875 0.190709 0 0 2.28882e-05
12 1 0.749986 0.0566807 0.313352 0 0 1.71661e-05
13 1 0.999986 0.470988 0.558555 0 0 1.90735e-06
14 1 0.499986 0.470988 0.558555 0 0 1.90735e-06
15 1 0.249986 0.970986 0.558555 0 0 -3.8147e-06
16 1 0.749986 0.970986 0.558555 0 0 -3.8147e-06
17 1 0.249986 0.348186 0.435946 0 0 0
18 1 0.749986 0.348186 0.435946 0 0 0
19 1 0.999986 0.848185 0.435946 0 0 -3.8147e-06
20 1 0.499986 0.848185 0.435946 0 0 -3.8147e-06
21 1 0.999986 0.385288 0.803792 0 0 -2.67029e-05
22 1 0.249986 0.262488 0.681149 0 0 -1.33514e-05
23 1 0.499986 0.385288 0.803792 0 0 -2.67029e-05
24 1 0.749986 0.262488 0.681149 0 0 -1.33514e-05
25 1 0.999986 0.762488 0.68115 0 0 -3.8147e-06
26 1 0.249986 0.885288 0.803792 0 0 -2.67029e-05
27 1 0.749986 0.885288 0.803792 0 0 -2.67029e-05
28 1 0.499986 0.762488 0.68115 0 0 -3.8147e-06
29 1 0.249986 0.176861 0.926219 0 0 -1.90735e-06
30 1 0.749986 0.176861 0.926219 0 0 -1.90735e-06
31 1 0.999986 0.676862 0.926218 0 0 1.71661e-05
32 1 0.499986 0.676862 0.926218 0 0 1.71661e-05
ITEM: TIMESTEP
11
ITEM: NUMBER OF ATOMS
32
ITEM: BOX BOUNDS xy xz yz pp pp pp
-4.0532350540161133e-03 6.4008854031562805e+00 0.0000000000000000e+00
-9.1640949249267578e-03 7.4649536013603210e+00 0.0000000000000000e+00
-4.7960281372070312e-02 2.0773346722126007e+01 1.9353583455085754e+00
ITEM: ATOMS id type xs ys zs fx fy fz
1 1 0.999986 0.642299 0.068283 0 0 -1.52588e-05
2 1 0.499986 0.642299 0.068283 0 0 -1.52588e-05
3 1 0.249986 0.1423 0.0682831 0 0 5.72205e-06
4 1 0.749986 0.1423 0.0682831 0 0 5.72205e-06
5 1 0.999986 0.55668 0.313352 0 0 7.62939e-06
6 1 0.249986 0.433877 0.190709 0 0 2.28882e-05
7 1 0.749986 0.433877 0.190709 0 0 2.28882e-05
8 1 0.499986 0.55668 0.313352 0 0 7.62939e-06
9 1 0.999986 0.933875 0.190709 0 0 2.28882e-05
10 1 0.249986 0.0566807 0.313352 0 0 1.71661e-05
11 1 0.499986 0.933875 0.190709 0 0 2.28882e-05
12 1 0.749986 0.0566807 0.313352 0 0 1.71661e-05
13 1 0.999986 0.470988 0.558555 0 0 1.90735e-06
14 1 0.499986 0.470988 0.558555 0 0 1.90735e-06
15 1 0.249986 0.970986 0.558555 0 0 -3.8147e-06
16 1 0.749986 0.970986 0.558555 0 0 -3.8147e-06
17 1 0.249986 0.348186 0.435946 0 0 0
18 1 0.749986 0.348186 0.435946 0 0 0
19 1 0.999986 0.848185 0.435946 0 0 -3.8147e-06
20 1 0.499986 0.848185 0.435946 0 0 -3.8147e-06
21 1 0.999986 0.385288 0.803792 0 0 -2.67029e-05
22 1 0.249986 0.262488 0.681149 0 0 -1.33514e-05
23 1 0.499986 0.385288 0.803792 0 0 -2.67029e-05
24 1 0.749986 0.262488 0.681149 0 0 -1.33514e-05
25 1 0.999986 0.762488 0.68115 0 0 -3.8147e-06
26 1 0.249986 0.885288 0.803792 0 0 -2.67029e-05
27 1 0.749986 0.885288 0.803792 0 0 -2.67029e-05
28 1 0.499986 0.762488 0.68115 0 0 -3.8147e-06
29 1 0.249986 0.176861 0.926219 0 0 -1.90735e-06
30 1 0.749986 0.176861 0.926219 0 0 -1.90735e-06
31 1 0.999986 0.676862 0.926218 0 0 1.71661e-05
32 1 0.499986 0.676862 0.926218 0 0 1.71661e-05
