LAMMPS (23 Jun 2022 - Update 1)
OMP_NUM_THREADS environment is not set. Defaulting to 1 thread. (src/comm.cpp:98)
  using 1 OpenMP thread(s) per MPI task
Loaded 1 plugins from /software/deepmd-kit/2.1.5/gpu/lib/deepmd_lmp
Loaded 0 plugins from 
## variable
variable        temp            equal 666
variable        eql_step        equal 500000
variable        rd_seed         equal 3

variable        temp_damp       equal 0.2 # tau_NVT = timestep * 100
variable        t_step          equal 0.002
variable        rlx_step        equal 2000

variable        thermo_freq     equal 100
variable        dump_freq       equal 100

## units
dimension       3
boundary        p p p
units           metal
atom_style      atomic
neighbor        1.0 bin
neigh_modify    every 10 delay 0 check no

## data.lmp, potential
read_data       data.lmp
Reading data file ...
  orthogonal box = (0 0 0) to (26.38965 26.38965 25.40376)
  1 by 1 by 1 MPI processor grid
  reading atoms ...
  900 atoms
  read_data CPU = 0.007 seconds
pair_style      deepmd model.pb
Summary of lammps deepmd module ...
  >>> Info of deepmd-kit:
  installed to:       /software/deepmd-kit/2.1.5/gpu
  source:             v2.1.5
  source branch:       HEAD
  source commit:      6e3d4a62
  source commit at:   2022-09-23 16:10:28 +0800
  surpport model ver.:1.1 
  build float prec:   double
  build variant:      cuda
  build with tf inc:  /software/deepmd-kit/2.1.5/gpu/include;/software/deepmd-kit/2.1.5/gpu/include
  build with tf lib:  /software/deepmd-kit/2.1.5/gpu/lib/libtensorflow_cc.so;/software/deepmd-kit/2.1.5/gpu/lib/libtensorflow_framework.so
  set tf intra_op_parallelism_threads: 0
  set tf inter_op_parallelism_threads: 0
  >>> Info of lammps module:
  use deepmd-kit at:  /software/deepmd-kit/2.1.5/gpupair_coeff      * *

## velocity, timestep
velocity        all create ${temp} ${rd_seed} loop geom
velocity        all create 666 ${rd_seed} loop geom
velocity        all create 666 3 loop geom
timestep        ${t_step}
timestep        0.002

## nvt-relax
fix             equil all nvt temp ${temp} ${temp} ${temp_damp}
fix             equil all nvt temp 666 ${temp} ${temp_damp}
fix             equil all nvt temp 666 666 ${temp_damp}
fix             equil all nvt temp 666 666 0.2
run             ${rlx_step}
run             2000

CITE-CITE-CITE-CITE-CITE-CITE-CITE-CITE-CITE-CITE-CITE-CITE-CITE

Your simulation uses code contributions which should be cited:

- USER-DEEPMD package:

@article{Wang_ComputPhysCommun_2018_v228_p178,
  author = {Wang, Han and Zhang, Linfeng and Han, Jiequn and E, Weinan},
  doi = {10.1016/j.cpc.2018.03.016},
  url = {https://doi.org/10.1016/j.cpc.2018.03.016},
  year = 2018,
  month = {jul},
  publisher = {Elsevier {BV}},
  volume = 228,
  journal = {Comput. Phys. Commun.},
  title = {{DeePMD-kit: A deep learning package for many-body potential energy representation and molecular dynamics}},
  pages = {178--184}
}

CITE-CITE-CITE-CITE-CITE-CITE-CITE-CITE-CITE-CITE-CITE-CITE-CITE

Generated 0 of 6 mixed pair_coeff terms from geometric mixing rule
Neighbor list info ...
  update every 10 steps, delay 0 steps, check no
  max neighbors/atom: 2000, page size: 100000
  master list distance cutoff = 7
  ghost atom cutoff = 7
  binsize = 3.5, bins = 8 8 8
  1 neighbor lists, perpetual/occasional/extra = 1 0 0
  (1) pair deepmd, perpetual
      attributes: full, newton on
      pair build: full/bin/atomonly
      stencil: full/bin/3d
      bin: standard
Per MPI rank memory allocation (min/avg/max) = 2.644 | 2.644 | 2.644 Mbytes
   Step          Temp          E_pair         E_mol          TotEng         Press     
         0   666           -3890.2809      0             -3812.8885      9188.3784    
      2000   716.13223     -3817.3006      0             -3734.0826      13772.4      
Loop time of 124.107 on 1 procs for 2000 steps with 900 atoms

Performance: 2.785 ns/day, 8.619 hours/ns, 16.115 timesteps/s
55.7% CPU use with 1 MPI tasks x 1 OpenMP threads

MPI task timing breakdown:
Section |  min time  |  avg time  |  max time  |%varavg| %total
---------------------------------------------------------------
Pair    | 123.1      | 123.1      | 123.1      |   0.0 | 99.19
Neigh   | 0.90517    | 0.90517    | 0.90517    |   0.0 |  0.73
Comm    | 0.040215   | 0.040215   | 0.040215   |   0.0 |  0.03
Output  | 0.00030178 | 0.00030178 | 0.00030178 |   0.0 |  0.00
Modify  | 0.045067   | 0.045067   | 0.045067   |   0.0 |  0.04
Other   |            | 0.01483    |            |       |  0.01

Nlocal:            900 ave         900 max         900 min
Histogram: 1 0 0 0 0 0 0 0 0 0
Nghost:           2385 ave        2385 max        2385 min
Histogram: 1 0 0 0 0 0 0 0 0 0
Neighs:              0 ave           0 max           0 min
Histogram: 1 0 0 0 0 0 0 0 0 0
FullNghs:        64856 ave       64856 max       64856 min
Histogram: 1 0 0 0 0 0 0 0 0 0

Total # of neighbors = 64856
Ave neighs/atom = 72.062222
Neighbor list builds = 200
Dangerous builds not checked
unfix           equil

## nvt-equal
reset_timestep  0
fix             equil all nvt temp ${temp} ${temp} ${temp_damp}
fix             equil all nvt temp 666 ${temp} ${temp_damp}
fix             equil all nvt temp 666 666 ${temp_damp}
fix             equil all nvt temp 666 666 0.2
fix             com all recenter INIT INIT INIT

## thermo_style
thermo_style    custom step time temp ke etotal press
thermo          ${thermo_freq}
thermo          100
thermo_modify   flush yes
dump            1 all custom ${dump_freq} dump.lammpstraj id type x y z
dump            1 all custom 100 dump.lammpstraj id type x y z
run             500000
Generated 0 of 6 mixed pair_coeff terms from geometric mixing rule
Per MPI rank memory allocation (min/avg/max) = 3.929 | 3.929 | 3.929 Mbytes
   Step          Time           Temp          KinEng         TotEng         Press     
         0   0              716.13223      83.218053     -3734.0826      13772.4      
       100   0.2            680.8304       79.115808     -3737.4038      13210.908    
       200   0.4            656.6399       76.304754     -3740.6246      13307.11     
       300   0.6            659.36318      76.621213     -3740.4121      11333.959    
       400   0.8            669.92126      77.848113     -3738.7719      16435.348    
       500   1              653.14562      75.898702     -3736.462       14898.782    
       600   1.2            676.11578      78.567946     -3732.1731      13299.487    
       700   1.4            668.67618      77.703429     -3732.5462      14603.491    
       800   1.6            669.87489      77.842725     -3738.6068      12430.937    
       900   1.8            673.26848      78.237077     -3739.5958      12272.574    
      1000   2              660.35523      76.736494     -3739.3232      13834.182    
      1100   2.2            674.67762      78.400826     -3737.5907      11638.411    
      1200   2.4            688.54501      80.012284     -3734.7218      12275.308    
      1300   2.6            682.6438       79.326534     -3732.2341      14250.283    
      1400   2.8            674.42879      78.371911     -3734.7458      12609.731    
      1500   3              686.4743       79.771657     -3740.071       14029.095    
      1600   3.2            654.85245      76.097045     -3740.9273      13232.854    
      1700   3.4            679.80533      78.99669      -3739.4131      15098.617    
      1800   3.6            672.01084      78.090933     -3736.2253      10569.667    
      1900   3.8            692.4907       80.470792     -3732.3827      14344.526    
      2000   4              692.27583      80.445823     -3734.0285      14949.066    
      2100   4.2            631.08887      73.335601     -3740.1669      12595.276    
      2200   4.4            673.18936      78.227883     -3741.0331      15150.07     
      2300   4.6            683.03652      79.372171     -3738.9938      13404.672    
      2400   4.8            691.20644      80.321555     -3736.4187      14715.867    
      2500   5              672.12245      78.103902     -3736.9047      15001.099    
      2600   5.2            662.87915      77.029786     -3741.5627      14053.797    
      2700   5.4            647.08159      75.194032     -3744.2175      14582.636    
      2800   5.6            637.67628      74.101089     -3742.3444      13986.886    
      2900   5.8            675.62889      78.511368     -3738.0883      14577.301    
      3000   6              679.81246      78.997519     -3737.029       14429.825    
      3100   6.2            675.78631      78.52966      -3737.7783      15641.238    
      3200   6.4            671.31839      78.010467     -3740.0492      11725.231    
      3300   6.6            644.38712      74.880922     -3743.1831      14313.818    
      3400   6.8            672.58016      78.15709      -3743.0708      13336.739    
      3500   7              699.82499      81.323072     -3737.0558      12541.309    
      3600   7.2            692.49521      80.471316     -3734.7515      14113.401    
      3700   7.4            695.85059      80.861228     -3736.9368      13686.494    
      3800   7.6            664.13586      77.175822     -3740.7924      13941.493    
      3900   7.8            669.14635      77.758064     -3741.8831      14093.605    
      4000   8              659.3513       76.619832     -3740.4823      12436.389    
      4100   8.2            687.49579      79.890359     -3736.6367      15886.495    
      4200   8.4            699.28776      81.260643     -3730.6084      14950.005    
      4300   8.6            691.08414      80.307343     -3730.8833      11635.594    
      4400   8.8            677.32853      78.708875     -3734.7828      15238.08     
      4500   9              664.59876      77.229613     -3738.8699      13578.725    
      4600   9.2            653.83684      75.979025     -3740.9959      10223.807    
      4700   9.4            664.45384      77.212772     -3741.2203      14640.486    
      4800   9.6            661.80709      76.905207     -3737.5645      14495.261    
      4900   9.8            674.00374      78.322517     -3733.9759      12796.5      
      5000   10             671.73711      78.059124     -3735.2644      16116.878    
      5100   10.2           669.81684      77.835979     -3737.8327      13765.407    
      5200   10.4           678.36575      78.829404     -3738.4134      11711.998    
      5300   10.6           684.23624      79.511584     -3738.9814      12203.838    
      5400   10.8           676.79675      78.647078     -3739.6519      12922.995    
      5500   11             671.52005      78.0339       -3739.7306      12248.067    
      5600   11.2           660.64575      76.770254     -3737.9163      14844.421    
      5700   11.4           682.96682      79.36407      -3735.0341      15695.746    
      5800   11.6           692.21722      80.439012     -3735.0812      12793.686    
      5900   11.8           653.32524      75.919575     -3739.8693      14717.064    
      6000   12             624.84274      72.60977      -3742.2209      12505.192    
      6100   12.2           659.43549      76.629615     -3740.5103      14356.038    
      6200   12.4           672.70222      78.171274     -3737.5391      12994.825    
      6300   12.6           689.68633      80.144911     -3736.5793      14260.22     
      6400   12.8           672.64925      78.165119     -3737.4305      14321.029    
      6500   13             655.42838      76.16397      -3738.7592      16048.886    
      6600   13.2           662.70754      77.009844     -3739.7647      12964.237    
      6700   13.4           663.52463      77.104794     -3741.4473      14213.872    
      6800   13.6           654.70548      76.079966     -3744.3079      14055.344    
      6900   13.8           625.27931      72.660502     -3743.5171      13157.517    
      7000   14             651.07471      75.658052     -3738.5482      13613.636    
      7100   14.2           690.16315      80.200319     -3736.3106      12300.298    
      7200   14.4           676.56142      78.619733     -3736.6162      13041.478    
      7300   14.6           684.63163      79.55753      -3739.2965      13994.901    
      7400   14.8           642.73832      74.689323     -3744.0125      14016.603    
      7500   15             633.96889      73.670273     -3743.2629      12700.566    
      7600   15.2           676.66816      78.632136     -3739.8163      15257.17     
      7700   15.4           662.71541      77.010758     -3738.1974      11421.387    
      7800   15.6           680.33764      79.058548     -3736.5335      12997.373    
      7900   15.8           668.21345      77.649658     -3737.0454      14942.427    
      8000   16             667.94275      77.618201     -3740.2955      10970.674    
      8100   16.2           665.27068      77.307693     -3743.81        13769.148    
      8200   16.4           648.19201      75.323069     -3742.41        12931.636    
      8300   16.6           687.42901      79.882599     -3738.1098      13722.317    
      8400   16.8           645.00561      74.952793     -3737.0433      14441.089    
      8500   17             664.72258      77.244002     -3737.7718      12834.584    
      8600   17.2           700.1155       81.356831     -3738.6522      12727.988    
      8700   17.4           655.02019      76.116536     -3739.6848      13753.708    
      8800   17.6           665.21838      77.301615     -3740.0512      13750.87     
      8900   17.8           642.94282      74.713087     -3737.7421      13957.685    
      9000   18             678.50126      78.845151     -3734.6882      14958.393    
      9100   18.2           689.0076       80.066039     -3734.7548      14492.149    
      9200   18.4           666.81366      77.486995     -3740.3524      14056.586    
      9300   18.6           654.4764       76.053345     -3742.4227      12539.713    
      9400   18.8           646.83063      75.16487      -3740.3866      14144.513    
      9500   19             659.29661      76.613477     -3737.5642      13010.43     
      9600   19.2           696.47938      80.934296     -3736.2467      14239.16     
      9700   19.4           686.38908      79.761754     -3736.7547      15297.772    
      9800   19.6           640.3787       74.415124     -3742.0523      11853.89     
      9900   19.8           656.69813      76.311521     -3746.1175      13996.039    
     10000   20             659.66923      76.656777     -3742.5117      14858.534    
     10100   20.2           643.54544      74.783115     -3738.3543      13176.693    
     10200   20.4           684.73324      79.569338     -3736.3475      13880.495    
     10300   20.6           684.43468      79.534643     -3736.1469      13097.69     
     10400   20.8           625.75655      72.715959     -3739.9121      14861.248    
     10500   21             647.04494      75.189774     -3743.3968      13715.137    
     10600   21.2           656.86125      76.330476     -3742.0421      14233.198    
     10700   21.4           656.10998      76.243175     -3739.5057      13175.314    
     10800   21.6           667.62512      77.581291     -3737.9527      12808.323    
     10900   21.8           650.6595       75.609802     -3738.6976      14443.996    
     11000   22             686.54648      79.780045     -3739.304       12416.88     
     11100   22.2           671.63028      78.04671      -3740.3215      14319.11     
     11200   22.4           664.86336      77.260361     -3740.9394      11964.695    
     11300   22.6           672.38062      78.133903     -3740.3289      14826.517    
     11400   22.8           681.54963      79.199387     -3737.0818      14419.523    
     11500   23             682.36998      79.294715     -3734.6981      14357.77     
     11600   23.2           672.32061      78.126929     -3735.9186      14440.79     
     11700   23.4           649.77149      75.506612     -3741.9927      14908.757    
     11800   23.6           674.4301       78.372063     -3742.0224      14311.178    
     11900   23.8           659.00035      76.579051     -3739.7593      13928.393    
     12000   24             670.88827      77.960485     -3736.0795      15261.557    
     12100   24.2           681.93172      79.243787     -3734.4465      15407.156    
     12200   24.4           667.3718       77.551854     -3737.1587      14817.931    
     12300   24.6           628.89089      73.080185     -3743.6044      13775.846    
     12400   24.8           660.85531      76.794606     -3741.7194      12641.953    
     12500   25             657.13028      76.361739     -3738.3132      11912.08     
     12600   25.2           689.8712       80.166394     -3736.3837      14258.618    
     12700   25.4           674.15801      78.340444     -3737.1767      12694.491    
     12800   25.6           643.82223      74.815279     -3741.5017      14956.313    
     12900   25.8           648.87493      75.402427     -3743.6933      12332.326    
     13000   26             662.81999      77.022911     -3740.3649      13245.331    
     13100   26.2           655.97818      76.227859     -3737.0284      12711.652    
     13200   26.4           673.50095      78.26409      -3737.0897      13421.471    
     13300   26.6           668.50195      77.683182     -3738.4576      12792.145    
     13400   26.8           652.35591      75.806934     -3741.0875      13221.439    
     13500   27             651.26888      75.680616     -3742.8161      12326.934    
     13600   27.2           645.858        75.051845     -3742.6404      15096.049    
     13700   27.4           674.49148      78.379195     -3738.1088      12563.609    
     13800   27.6           693.49042      80.586964     -3735.9576      13456.868    
     13900   27.8           653.5481       75.945472     -3736.7545      14209.951    
     14000   28             653.77431      75.971759     -3741.2738      13946.039    
     14100   28.2           642.88001      74.705788     -3743.4936      16311.544    
     14200   28.4           634.04846      73.679519     -3740.8198      13363.148    
     14300   28.6           671.26054      78.003744     -3738.435       11619.372    
     14400   28.8           677.99929      78.78682      -3737.4033      13168.381    
     14500   29             671.82537      78.06938      -3737.6719      15078.883    
     14600   29.2           635.15636      73.808263     -3742.5186      13908.64     
     14700   29.4           665.36891      77.319107     -3744.895       13205.682    
     14800   29.6           649.32016      75.454165     -3742.8057      10851.9      
     14900   29.8           665.76699      77.365367     -3740.0437      13913.892    
     15000   30             667.08795      77.518869     -3738.2908      13316.782    
     15100   30.2           671.48048      78.029302     -3737.5313      14150.523    
     15200   30.4           671.69853      78.054641     -3737.5864      14018.852    
     15300   30.6           667.35518      77.549922     -3741.7878      11691.87     
     15400   30.8           638.56386      74.204231     -3744.3898      12500.08     
     15500   31             633.91537      73.664053     -3741.8162      13409.955    
     15600   31.2           675.09567      78.449404     -3738.0751      15895.806    
     15700   31.4           670.84464      77.955414     -3737.879       12652.278    
     15800   31.6           674.66597      78.399472     -3739.568       14078.485    
     15900   31.8           666.12474      77.406939     -3740.6912      13762.387    
     16000   32             673.45212      78.258417     -3741.735       14566.71     
     16100   32.2           655.82557      76.210126     -3743.238       12977.692    
     16200   32.4           658.92063      76.569786     -3742.3456      12928.112    
     16300   32.6           675.10164      78.450099     -3738.7292      13885.244    
     16400   32.8           696.04769      80.884132     -3736.1919      13964.422    
     16500   33             676.39512      78.600407     -3736.8306      14005.095    
     16600   33.2           646.05321      75.07453      -3742.6972      11404.512    
     16700   33.4           631.73328      73.410483     -3743.7741      12828.361    
     16800   33.6           648.79612      75.393269     -3740.0543      14761.004    
     16900   33.8           662.76254      77.016235     -3737.1352      10115.472    
     17000   34             656.33396      76.269203     -3736.6584      14583.011    
     17100   34.2           689.8041       80.158596     -3736.7535      15855.631    
     17200   34.4           638.88462      74.241504     -3738.1238      11726.569    
     17300   34.6           648.56583      75.366508     -3741.2889      13160.685    
     17400   34.8           658.36385      76.505086     -3741.0861      12171.296    
     17500   35             665.18284      77.297486     -3736.305       13313.752    
     17600   35.2           701.46442      81.513583     -3734.2318      11439.894    
     17700   35.4           670.82514      77.953148     -3735.7394      13770.889    
     17800   35.6           666.9234       77.499748     -3738.705       13675.944    
     17900   35.8           648.42303      75.349914     -3741.2273      13401.621    
     18000   36             634.42741      73.723555     -3740.5342      14261.679    
     18100   36.2           665.4588       77.329554     -3738.8135      13121.578    
     18200   36.4           697.2721       81.026414     -3736.9856      14642.744    
     18300   36.6           660.1081       76.707777     -3736.157       13227.028    
     18400   36.8           666.28521      77.425586     -3737.0948      13734.697    
     18500   37             640.8537       74.470321     -3740.0641      16202.567    
     18600   37.2           666.16562      77.41169      -3742.2428      14010.311    
     18700   37.4           668.64654      77.699985     -3741.2431      12257.829    
     18800   37.6           660.10152      76.707012     -3735.9579      15944.33     
     18900   37.8           679.68593      78.982816     -3734.8623      14903.76     
     19000   38             654.36387      76.040269     -3736.5647      13819.696    
     19100   38.2           654.57866      76.065229     -3738.8267      13352.935    
     19200   38.4           668.05921      77.631734     -3741.7033      16008.9      
     19300   38.6           663.05387      77.050089     -3747.2478      10586.847    
     19400   38.8           634.18493      73.695378     -3745.4009      13137.828    
     19500   39             670.35328      77.898316     -3741.3693      13138.256    
     19600   39.2           675.87232      78.539656     -3738.4941      11754.693    
     19700   39.4           655.8396       76.211755     -3736.8183      15874.506    
     19800   39.6           678.61602      78.858487     -3737.0116      14956.526    
     19900   39.8           649.88724      75.520062     -3741.8665      13407.528    
     20000   40             669.27897      77.773476     -3743.7889      14924.531    
     20100   40.2           664.73162      77.245052     -3741.6338      11608.516    
     20200   40.4           675.92069      78.545276     -3737.9076      15846.571    
     20300   40.6           673.0596       78.212804     -3737.2754      13878.878    
     20400   40.8           648.20852      75.324987     -3738.0595      13954.459    
     20500   41             666.37697      77.43625      -3740.3609      12994.18     
     20600   41.2           623.52404      72.45653      -3744.2815      12443.095    
     20700   41.4           640.35287      74.412122     -3744.0869      11577.423    
     20800   41.6           672.71248      78.172466     -3737.8045      11357.493    
     20900   41.8           683.29729      79.402473     -3736.0221      15174.257    
     21000   42             683.03269      79.371725     -3737.1099      12684.211    
     21100   42.2           688.49989      80.00704      -3740.7873      13818.858    
     21200   42.4           653.31818      75.918755     -3743.7101      16773.65     
     21300   42.6           640.02403      74.37391      -3742.8371      13043.435    
     21400   42.8           665.98869      77.391129     -3741.2935      17868.547    
     21500   43             693.67592      80.60852      -3740.5268      13464.042    
     21600   43.2           657.72029      76.430301     -3739.667       13659.394    
     21700   43.4           655.72858      76.198854     -3737.9203      14134.409    
     21800   43.6           693.17897      80.550772     -3732.7962      13628.376    
     21900   43.8           689.78253      80.156089     -3732.9707      15266.598    
     22000   44             655.60101      76.184031     -3737.6076      14081.048    
     22100   44.2           657.5888       76.415021     -3739.1458      14212.324    
     22200   44.4           660.04885      76.700891     -3739.4697      13614.128    
     22300   44.6           631.51158      73.384721     -3738.0868      14137.226    
     22400   44.8           695.14525      80.779263     -3733.3409      13160.751    
     22500   45             701.49194      81.51678      -3732.5318      13234.529    
     22600   45.2           673.71708      78.289206     -3737.7083      13996.017    
     22700   45.4           662.43699      76.978405     -3739.9242      13406.494    
     22800   45.6           670.60618      77.927704     -3739.2292      13321.773    
     22900   45.8           673.87499      78.307556     -3737.7995      14227.477    
     23000   46             687.74389      79.91919      -3735.8964      10793.4      
     23100   46.2           674.07747      78.331085     -3735.6115      15180.109    
     23200   46.4           673.90477      78.311017     -3739.3215      16529.977    
     23300   46.6           657.27843      76.378954     -3741.6989      11188.141    
     23400   46.8           672.36053      78.131569     -3739.4531      15120.915    
     23500   47             674.95989      78.433626     -3736.1884      13307.126    
     23600   47.2           702.01914      81.578043     -3730.6676      13855.509    
     23700   47.4           701.47323      81.514606     -3730.9408      15002.695    
     23800   47.6           681.53862      79.198107     -3737.8892      13426.438    
     23900   47.8           664.26628      77.190977     -3738.8475      14292.81     
     24000   48             640.51967      74.431505     -3739.2352      13600.713    
     24100   48.2           661.25912      76.84153      -3739.1465      12675.244    
     24200   48.4           655.91065      76.220012     -3738.8286      12654.841    
     24300   48.6           668.29423      77.659045     -3737.0098      15746.969    
     24400   48.8           664.44611      77.211874     -3735.1978      14054.629    
     24500   49             659.66437      76.656212     -3735.9612      11948.56     
     24600   49.2           663.58741      77.112089     -3740.5607      12995.428    
     24700   49.4           646.26149      75.098733     -3742.1793      12429.847    
     24800   49.6           659.76275      76.667645     -3740.6         10553.713    
     24900   49.8           680.41583      79.067634     -3735.0033      14792.22     
     25000   50             694.72905      80.730899     -3733.3501      14846.421    
     25100   50.2           690.02131      80.183837     -3736.5399      13187        
     25200   50.4           654.09959      76.009559     -3740.1974      15428.689    
     25300   50.6           659.4238       76.628257     -3741.5537      13531.427    
     25400   50.8           676.12738      78.569295     -3740.0293      14372.753    
     25500   51             701.76045      81.547982     -3734.7767      12571.657    
     25600   51.2           697.82556      81.090728     -3733.5737      16663.265    
     25700   51.4           677.61666      78.742356     -3736.1006      14079.523    
     25800   51.6           671.91616      78.07993      -3738.5728      11485.745    
     25900   51.8           648.17061      75.320582     -3740.5975      14846.506    
     26000   52             657.1208       76.360637     -3741.1736      15484.453    
     26100   52.2           655.71198      76.196926     -3737.9313      11397.018    
     26200   52.4           689.41799      80.113728     -3733.9456      15774.58     
     26300   52.6           687.77249      79.922513     -3735.9366      14982.551    
     26400   52.8           641.19533      74.510021     -3739.6155      12529.002    
     26500   53             676.75171      78.641845     -3740.1075      14860.673    
     26600   53.2           679.06163      78.910269     -3739.4901      13724.71     
     26700   53.4           683.54863      79.43168      -3738.5485      11848.751    
     26800   53.6           667.93034      77.616759     -3738.4283      13491.59     
     26900   53.8           678.48871      78.843693     -3738.3828      15332.185    
     27000   54             645.88996      75.055559     -3739.7117      13464.187    
     27100   54.2           647.32956      75.222847     -3742.3928      16391.545    
     27200   54.4           638.10597      74.151021     -3746.4202      9532.3695    
     27300   54.6           649.01099      75.418238     -3746.5213      14290.476    
     27400   54.8           658.83198      76.559485     -3740.1301      14775.552    
     27500   55             689.84036      80.16281      -3738.3321      12097.288    
     27600   55.2           658.53172      76.524593     -3739.1461      17621.272    
     27700   55.4           645.71782      75.035556     -3741.937       13475.335    
     27800   55.6           645.48093      75.008027     -3744.4531      14627.277    
     27900   55.8           637.14686      74.039569     -3745.1387      15433.813    
     28000   56             669.88935      77.844405     -3740.0378      14638.869    
     28100   56.2           706.81279      82.135088     -3737.4297      16229.908    
     28200   56.4           666.52437      77.453378     -3737.9377      14781.731    
     28300   56.6           665.27505      77.308201     -3740.8748      15158.392    
     28400   56.8           656.33378      76.269182     -3744.5062      16363.579    
     28500   57             644.14089      74.852309     -3746.3568      11491.839    
     28600   57.2           660.87683      76.797107     -3741.1492      14372.9      
     28700   57.4           676.48416      78.610754     -3737.277       14910.761    
     28800   57.6           688.20843      79.973172     -3736.6013      13365.171    
     28900   57.8           666.20965      77.416806     -3739.107       15858.027    
     29000   58             660.9105       76.801019     -3742.6961      13193.093    
     29100   58.2           673.63726      78.279931     -3743.365       13712.334    
     29200   58.4           675.51869      78.498562     -3738.1359      15956.456    
     29300   58.6           656.71462      76.313437     -3735.1028      14986.1      
     29400   58.8           698.97169      81.223915     -3736.9357      13377.45     
     29500   59             670.3074       77.892985     -3740.1916      14530.183    
     29600   59.2           659.9119       76.684976     -3741.8907      12570.869    
     29700   59.4           674.59078      78.390734     -3741.669       13570.834    
     29800   59.6           684.34306      79.523997     -3737.1142      13443.453    
     29900   59.8           668.9566       77.736015     -3734.277       12597.506    
     30000   60             664.81244      77.254443     -3736.289       15356.967    
     30100   60.2           651.27534      75.681366     -3740.7464      12666.663    
     30200   60.4           636.16913      73.925951     -3741.351       11358.43     
     30300   60.6           660.34979      76.735862     -3740.0693      12783.322    
     30400   60.8           683.50127      79.426177     -3737.1536      13195.173    
     30500   61             680.06004      79.026289     -3732.9423      14271.361    
     30600   61.2           704.37781      81.852132     -3729.673       14380.468    
     30700   61.4           687.65246      79.908566     -3733.1388      12353.423    
     30800   61.6           664.58062      77.227505     -3738.3033      12074.709    
     30900   61.8           675.55243      78.502482     -3740.7946      12917.769    
     31000   62             661.35988      76.853239     -3740.8871      12815.669    
     31100   62.2           674.02844      78.325388     -3738.9287      13742.602    
     31200   62.4           686.05395      79.722811     -3734.2515      15476.581    
     31300   62.6           689.1071       80.077601     -3733.7299      14932.213    
     31400   62.8           651.90432      75.754457     -3737.5925      15023.388    
     31500   63             674.79889      78.414917     -3739.7013      12664.639    
     31600   63.2           651.93857      75.758437     -3739.6462      15499.15     
     31700   63.4           697.69811      81.075918     -3738.3064      11691.596    
     31800   63.6           698.1051       81.123213     -3735.6309      14879.775    
     31900   63.8           677.89637      78.77486      -3734.7403      13831.22     
     32000   64             657.91534      76.452967     -3737.309       13565.737    
     32100   64.2           647.01626      75.186441     -3741.7931      12266.068    
     32200   64.4           656.70092      76.311846     -3741.4687      15178.528    
     32300   64.6           656.70053      76.3118       -3737.7476      13052.334    
     32400   64.8           686.91649      79.823042     -3735.9405      14005.013    
     32500   65             668.21972      77.650386     -3736.8609      13746.45     
     32600   65.2           647.55136      75.248622     -3737.8852      14340.364    
     32700   65.4           662.4226       76.976732     -3738.884       14364.771    
     32800   65.6           637.22764      74.048955     -3741.7268      11816.42     
     32900   65.8           621.81276      72.257671     -3745.592       15336.417    
     33000   66             649.33991      75.45646      -3743.0292      15371.893    
     33100   66.2           682.48201      79.307733     -3737.762       10914.668    
     33200   66.4           666.7585       77.480585     -3736.4814      15083.863    
     33300   66.6           670.7854       77.94853      -3735.9988      14861.574    
     33400   66.8           659.30857      76.614867     -3736.3233      11335.626    
     33500   67             649.30887      75.452853     -3739.316       13938.144    
     33600   67.2           642.14952      74.620902     -3742.8577      14657.196    
     33700   67.4           668.39563      77.670827     -3741.2496      12324.604    
     33800   67.6           673.87767      78.307867     -3737.0561      14225.375    
     33900   67.8           678.50973      78.846136     -3736.2554      14691.598    
     34000   68             666.15134      77.41003      -3737.3783      15086.504    
     34100   68.2           670.31521      77.893892     -3739.0632      12814.988    
     34200   68.4           644.26951      74.867255     -3742.9139      15134.308    
     34300   68.6           622.70022      72.360798     -3745.0219      14081.034    
     34400   68.8           640.42249      74.420212     -3739.906       13555.716    
     34500   69             674.72035      78.405791     -3736.0716      14510.948    
     34600   69.2           682.69687      79.332701     -3735.4477      12511.276    
     34700   69.4           656.92026      76.337334     -3737.9539      13747.815    
     34800   69.6           666.0158       77.39428      -3741.6202      16101.763    
     34900   69.8           651.93772      75.758338     -3742.1259      13248.41     
     35000   70             679.5883       78.97147      -3738.8648      14940.285    
     35100   70.2           668.80427      77.718314     -3733.8932      14553.483    
     35200   70.4           671.09905      77.984978     -3733.6443      13177.515    
     35300   70.6           676.33008      78.59285      -3736.1737      12588.557    
     35400   70.8           683.51474      79.427741     -3739.3821      14383.101    
     35500   71             654.52313      76.058775     -3739.5452      12159.659    
     35600   71.2           698.29301      81.145048     -3736.0028      13811.658    
     35700   71.4           702.54926      81.639645     -3732.3526      13955.696    
     35800   71.6           691.39527      80.343498     -3734.4839      13427.881    
     35900   71.8           641.68625      74.567067     -3740.1922      12551.562    
     36000   72             657.82825      76.442846     -3739.8653      11710.425    
     36100   72.2           667.91076      77.614483     -3738.5927      12910.289    
     36200   72.4           681.39132      79.180991     -3735.711       12734.764    
     36300   72.6           675.79659      78.530855     -3734.1604      11875.65     
     36400   72.8           673.01651      78.207796     -3738.0709      15446.899    
     36500   73             655.86285      76.214457     -3741.8821      9859.2572    
     36600   73.2           664.07636      77.168907     -3741.46        11966.663    
     36700   73.4           676.53369      78.616509     -3738.0478      12748.092    
     36800   73.6           698.42283      81.160135     -3735.4282      14366.796    
     36900   73.8           666.22917      77.419075     -3736.2499      13767.895    
     37000   74             677.45184      78.723203     -3737.1645      14303.599    
     37100   74.2           688.16106      79.967666     -3738.0126      13297.803    
     37200   74.4           669.12477      77.755557     -3739.6034      13730.496    
     37300   74.6           645.17659      74.972662     -3742.4701      15683.56     
     37400   74.8           631.05167      73.331277     -3744.1958      13089.017    
     37500   75             669.5142       77.80081      -3740.0363      13868.425    
     37600   75.2           660.91886      76.80199      -3736.8027      14848.044    
     37700   75.4           677.98074      78.784663     -3736.128       14744.719    
     37800   75.6           689.18201      80.086306     -3738.3766      12835.74     
     37900   75.8           664.51726      77.220142     -3743.1047      14498.698    
     38000   76             657.95863      76.457998     -3743.6141      14576.924    
     38100   76.2           650.95036      75.643603     -3742.1276      12444.655    
     38200   76.4           667.51793      77.568835     -3739.2174      13046.649    
     38300   76.6           683.98225      79.482069     -3736.6289      14612.77     
     38400   76.8           669.18725      77.762817     -3736.9956      13909.004    
     38500   77             657.97151      76.459495     -3740.6835      15227.641    
     38600   77.2           641.33811      74.526612     -3745.0653      14687.673    
     38700   77.4           665.34921      77.316819     -3742.6781      12356.108    
     38800   77.6           662.8449       77.025806     -3738.7392      14728.706    
     38900   77.8           681.45447      79.188329     -3736.9466      16016.803    
     39000   78             673.74964      78.292989     -3737.5373      13043.445    
     39100   78.2           668.29113      77.658684     -3739.7285      12311.221    
     39200   78.4           632.90325      73.54644      -3744.8186      13484.555    
     39300   78.6           668.83291      77.721642     -3745.0025      12086.024    
     39400   78.8           689.64461      80.140063     -3740.1573      13140.201    
     39500   79             668.3277       77.662934     -3738.5823      14562.039    
     39600   79.2           666.00494      77.393017     -3737.8862      13680.578    
     39700   79.4           666.07638      77.401319     -3737.4642      12980.559    
     39800   79.6           645.48348      75.008324     -3737.846       12402.873    
     39900   79.8           674.7727       78.411874     -3738.9965      11278.344    
     40000   80             667.17656      77.529166     -3740.942       14818.635    
     40100   80.2           631.46051      73.378787     -3742.6819      13242.678    
     40200   80.4           662.26999      76.958999     -3739.9697      13589.984    
     40300   80.6           669.95543      77.852084     -3735.3097      13112.192    
     40400   80.8           687.74993      79.919891     -3735.9337      15402.158    
     40500   81             644.46038      74.889435     -3738.5857      14722.107    
     40600   81.2           652.06616      75.773263     -3739.2925      13994.078    
     40700   81.4           670.00891      77.858298     -3738.83        14216.38     
     40800   81.6           648.46049      75.354267     -3738.7934      16172.496    
     40900   81.8           680.54245      79.082347     -3738.2366      14927.652    
     41000   82             643.0187       74.721905     -3738.4712      12889.097    
     41100   82.2           643.47889      74.775381     -3739.4989      13362.167    
     41200   82.4           639.4108       74.302649     -3740.1541      13423.421    
     41300   82.6           667.98573      77.623195     -3740.7081      12653.136    
     41400   82.8           673.87945      78.308074     -3740.3764      13500.882    
     41500   83             680.79293      79.111454     -3737.9572      12784.62     
     41600   83.2           666.75039      77.479642     -3734.7555      14943.039    
     41700   83.4           690.07191      80.189717     -3733.9706      14993.394    
     41800   83.6           661.85786      76.911106     -3739.841       12601.985    
     41900   83.8           652.9751       75.878887     -3742.1455      12899.18     
     42000   84             658.38017      76.506982     -3740.7617      14703.943    
     42100   84.2           667.9538       77.619484     -3737.8221      13780.083    
     42200   84.4           703.70969      81.774494     -3734.8861      14335.561    
     42300   84.6           675.6368       78.512286     -3735.8211      15106.376    
     42400   84.8           658.09561      76.473915     -3741.7468      11391.817    
     42500   85             642.09791      74.614905     -3743.0048      15498.179    
     42600   85.2           667.16473      77.527792     -3740.9225      12565.157    
     42700   85.4           687.60955      79.903579     -3737.4899      11711.255    
     42800   85.6           679.63655      78.977078     -3736.2227      12576.084    
     42900   85.8           674.5568       78.386786     -3742.0702      13222.292    
     43000   86             653.55799      75.946621     -3744.9154      12926.403    
     43100   86.2           649.58885      75.485388     -3742.6021      13828.006    
     43200   86.4           650.56367      75.598667     -3738.6909      12733.307    
     43300   86.6           678.64638      78.862014     -3737.5377      16960.344    
     43400   86.8           676.48692      78.611075     -3738.8726      12903.703    
     43500   87             660.22419      76.721266     -3744.2112      11462.73     
     43600   87.2           631.48033      73.381089     -3745.6417      15056.189    
     43700   87.4           660.71366      76.778146     -3742.7505      12629.25     
     43800   87.6           658.38956      76.508074     -3740.3004      11498.272    
     43900   87.8           660.4897       76.75212      -3738.9412      14635.801    
     44000   88             695.52953      80.823919     -3738.029       13463.895    
     44100   88.2           664.68998      77.240213     -3737.0517      14006.035    
     44200   88.4           697.82662      81.090851     -3736.9234      14014.324    
     44300   88.6           658.97431      76.576024     -3739.1616      12895.488    
     44400   88.8           659.46592      76.633152     -3741.3234      14399.294    
     44500   89             679.0162       78.904989     -3739.592       14696.929    
     44600   89.2           681.75556      79.223317     -3735.0398      14141.989    
     44700   89.4           654.69314      76.078532     -3735.0756      16470.324    
     44800   89.6           667.16828      77.528203     -3737.7279      12743.436    
     44900   89.8           670.17368      77.877446     -3739.7923      11762.284    
     45000   90             650.73322      75.618369     -3739.7188      14566.687    
     45100   90.2           662.16293      76.946558     -3737.5679      13014.233    
     45200   90.4           658.51724      76.522911     -3735.2487      12945.455    
     45300   90.6           673.91575      78.312292     -3734.4526      15865.831    
     45400   90.8           677.4135       78.718748     -3738.192       13506.867    
     45500   91             665.73211      77.361313     -3741.8314      11848.858    
     45600   91.2           649.20624      75.440927     -3740.6497      14810.381    
     45700   91.4           678.06314      78.79424      -3736.7757      11728.471    
     45800   91.6           671.80852      78.067422     -3735.1981      14785.739    
     45900   91.8           666.34833      77.432921     -3735.7087      14730.346    
     46000   92             670.34712      77.8976       -3736.4154      13993.842    
     46100   92.2           654.78195      76.088852     -3738.233       13334.773    
     46200   92.4           652.09757      75.776913     -3742.3391      14879.595    
     46300   92.6           641.68208      74.566583     -3746.1587      13535.244    
     46400   92.8           644.85895      74.93575      -3743.0748      11485.527    
     46500   93             649.63449      75.490691     -3739.9256      15607.624    
     46600   93.2           662.25604      76.957378     -3737.4586      13229.449    
     46700   93.4           662.77979      77.01824      -3735.6047      12942.085    
     46800   93.6           690.63062      80.254642     -3735.2189      13237.099    
     46900   93.8           682.37596      79.29541      -3738.4502      11827.47     
     47000   94             659.34664      76.619291     -3742.6049      13705.292    
     47100   94.2           627.35626      72.901853     -3742.713       13336.901    
     47200   94.4           662.98455      77.042034     -3738.8297      13860.113    
     47300   94.6           647.55843      75.249443     -3737.3838      14515.503    
     47400   94.8           670.40203      77.903981     -3736.8019      15178.531    
     47500   95             669.47215      77.795925     -3738.6602      13961.385    
     47600   95.2           657.83774      76.44395      -3741.6339      14325.652    
     47700   95.4           649.44192      75.468314     -3743.6489      13878.335    
     47800   95.6           659.62503      76.651641     -3742.6749      12424.062    
     47900   95.8           647.24125      75.212585     -3737.3349      13640.036    
     48000   96             690.07438      80.190004     -3735.9821      12671.309    
     48100   96.2           659.8004       76.67202      -3737.977       14442.052    
     48200   96.4           644.14142      74.85237      -3741.8181      11126.005    
     48300   96.6           636.02263      73.908928     -3742.8334      13387.09     
     48400   96.8           678.56455      78.852506     -3736.7292      14903.76     
     48500   97             689.6189       80.137075     -3734.8145      10393.27     
     48600   97.2           692.9678       80.526233     -3737.1667      13470.2      
     48700   97.4           652.6478       75.840853     -3740.8077      13921.546    
     48800   97.6           676.49254      78.611728     -3742.0349      11730.563    
     48900   97.8           674.1389       78.338224     -3739.7598      12957.852    
     49000   98             688.44668      80.000857     -3735.0366      12546.108    
     49100   98.2           699.85343      81.326377     -3729.7243      14016.733    
     49200   98.4           708.72565      82.357373     -3724.0239      12745.923    
     49300   98.6           691.68912      80.377644     -3724.7124      12427.418    
     49400   98.8           708.86916      82.374049     -3731.9775      15468.974    
     49500   99             682.54393      79.314929     -3737.0072      12698.465    
     49600   99.2           636.62723      73.979184     -3740.3189      12871.367    
     49700   99.4           642.36339      74.645754     -3741.7971      12414.537    
     49800   99.6           642.72435      74.6877       -3742.0828      14160.568    
     49900   99.8           676.25367      78.58397      -3738.8388      15597.906    
     50000   100            675.36164      78.480312     -3735.1808      12979.594    
     50100   100.2          680.17006      79.039074     -3735.0372      15237.416    
     50200   100.4          665.72141      77.360071     -3738.8184      11963.359    
     50300   100.6          645.09921      74.96367      -3743.965       15651.614    
     50400   100.8          645.07435      74.960782     -3742.5954      14044.933    
     50500   101            662.62719      77.000507     -3738.9818      13794.611    
     50600   101.2          682.39155      79.297222     -3735.7782      13583.7      
     50700   101.4          682.19351      79.274208     -3735.1347      14160.678    
     50800   101.6          673.62357      78.278339     -3739.2672      14028.471    
     50900   101.8          640.81642      74.465989     -3742.7771      14204.117    
     51000   102            652.35939      75.807339     -3741.0479      13364.434    
     51100   102.2          666.61147      77.463499     -3738.9053      12222.953    
     51200   102.4          667.81597      77.603469     -3735.7295      12648.244    
     51300   102.6          695.70723      80.844568     -3734.5787      13293.249    
     51400   102.8          648.88385      75.403464     -3740.3148      14479.86     
     51500   103            631.38319      73.369802     -3743.0066      12894.349    
     51600   103.2          686.96778      79.829002     -3741.2606      14443.495    
     51700   103.4          656.75416      76.318032     -3737.9157      13973.934    
     51800   103.6          703.11263      81.705112     -3736.1306      14363.444    
     51900   103.8          673.37572      78.249538     -3737.6074      14605.108    
     52000   104            660.07715      76.70418      -3743.6646      13045.627    
     52100   104.2          662.25961      76.957792     -3743.3253      12658.768    
     52200   104.4          693.953        80.640719     -3740.2765      11779.206    
     52300   104.6          670.94439      77.967006     -3737.8884      13283.044    
     52400   104.8          659.13606      76.594821     -3738.2096      12797.559    
     52500   105            675.82831      78.534541     -3738.9322      13561.773    
     52600   105.2          673.95441      78.316784     -3739.3562      12380.536    
     52700   105.4          674.80986      78.416192     -3739.7494      13509.742    
     52800   105.6          646.52539      75.129399     -3740.488       11841.301    
     52900   105.8          671.2338       78.000636     -3741.1865      14798.736    
     53000   106            650.91001      75.638913     -3740.8337      11731.357    
     53100   106.2          656.04313      76.235406     -3738.3338      13510.307    
     53200   106.4          652.09592      75.776722     -3735.7788      15287.888    
     53300   106.6          673.93429      78.314447     -3734.5783      16009.148    
     53400   106.8          659.41705      76.627473     -3737.2259      14985.894    
     53500   107            644.66843      74.913611     -3741.0675      15632.867    
     53600   107.2          633.4539       73.610428     -3741.3697      12132.002    
     53700   107.4          667.81095      77.602885     -3737.2221      13782.138    
     53800   107.6          699.69754      81.308262     -3733.7023      14407.43     
     53900   107.8          697.77019      81.084294     -3734.9594      11962.28     
     54000   108            706.30572      82.076165     -3737.2824      12557.761    
     54100   108.2          627.08938      72.87084      -3739.9059      14920.124    
     54200   108.4          662.80511      77.021181     -3740.3849      14327.961    
     54300   108.6          658.74571      76.54946      -3736.4798      14886.618    
     54400   108.8          708.8886       82.376308     -3732.2738      14545.17     
     54500   109            677.44612      78.722539     -3735.029       13786.1      
     54600   109.2          682.32887      79.289938     -3739.4636      15697.35     
     54700   109.4          666.8822       77.49496      -3740.2504      12885.408    
     54800   109.6          669.6046       77.811315     -3739.0162      11565.577    
     54900   109.8          695.23846      80.790095     -3734.8955      14334.706    
     55000   110            673.02676      78.208987     -3732.0117      15535.867    
     55100   110.2          675.23092      78.465121     -3736.5248      14640.79     
     55200   110.4          656.4154       76.278667     -3740.7058      14122.064    
     55300   110.6          651.67201      75.727462     -3740.7882      12393.175    
     55400   110.8          661.19796      76.834423     -3737.9478      12820.631    
     55500   111            679.25463      78.932697     -3734.9197      14671.855    
     55600   111.2          668.69219      77.705289     -3736.3055      16605.129    
     55700   111.4          628.5977       73.046115     -3741.5663      14090.509    
     55800   111.6          630.75483      73.296783     -3742.4171      13428.538    
     55900   111.8          640.78834      74.462726     -3740.4957      14007.786    
     56000   112            671.62897      78.046558     -3737.6732      13298.031    
     56100   112.2          667.4368       77.559407     -3735.8582      15434.528    
     56200   112.4          674.23269      78.349122     -3734.1841      12895.326    
     56300   112.6          685.64955      79.675817     -3734.1645      13101.033    
     56400   112.8          691.01036      80.298769     -3737.5817      13518.931    
     56500   113            668.60018      77.694597     -3741.2146      13508.636    
     56600   113.2          665.9171       77.38281      -3741.703       12380.14     
     56700   113.4          677.61581      78.742258     -3738.4585      14598.601    
     56800   113.6          684.44599      79.535957     -3733.668       13775.787    
     56900   113.8          680.49693      79.077057     -3734.225       14700.023    
     57000   114            679.24217      78.931248     -3736.7569      16045.068    
     57100   114.2          646.26921      75.09963      -3739.4801      13274.314    
     57200   114.4          660.64165      76.769778     -3740.4242      13611.054    
     57300   114.6          648.58134      75.36831      -3739.9886      14287.657    
     57400   114.8          693.91798      80.636649     -3733.945       13329.471    
     57500   115            695.1708       80.782233     -3733.4987      12130.419    
     57600   115.2          643.31002      74.755758     -3737.1773      15132.315    
     57700   115.4          631.59714      73.394664     -3740.1699      13491.388    
     57800   115.6          663.2705       77.075263     -3739.6612      12597.269    
     57900   115.8          653.06191      75.888974     -3738.0131      15950.276    
     58000   116            687.3708       79.875835     -3737.2971      12789.752    
     58100   116.2          667.1875       77.530437     -3737.9826      13858.109    
     58200   116.4          652.63288      75.839119     -3738.846       16344.547    
     58300   116.6          654.77404      76.087932     -3739.2886      15093.437    
     58400   116.8          656.76864      76.319714     -3742.6466      11906.766    
     58500   117            633.64767      73.632945     -3745.563       11941.827    
     58600   117.2          653.01428      75.883439     -3742.5998      12125.893    
     58700   117.4          659.23862      76.606738     -3738.1556      11859.836    
     58800   117.6          692.82248      80.509346     -3737.5152      14738.417    
     58900   117.8          673.07224      78.214273     -3739.5006      11479.177    
     59000   118            640.16051      74.389769     -3742.0063      13737.947    
     59100   118.2          651.59278      75.718255     -3743.0178      15047.14     
     59200   118.4          687.53553      79.894977     -3740.758       13817.678    
     59300   118.6          707.82629      82.252862     -3736.4535      14180.643    
     59400   118.8          672.1685       78.109253     -3735.2654      14721.694    
     59500   119            680.20903      79.043602     -3738.1955      14353.729    
     59600   119.2          644.49537      74.893501     -3742.263       15311.704    
     59700   119.4          656.81467      76.325064     -3742.1177      13994.241    
     59800   119.6          662.54332      76.990761     -3739.9654      12280.919    
     59900   119.8          658.80709      76.556592     -3737.1978      13859.899    
     60000   120            665.12704      77.291001     -3736.2569      14771.08     
     60100   120.2          677.44197      78.722057     -3736.9407      14121.704    
     60200   120.4          655.72142      76.198023     -3737.8715      13501.18     
     60300   120.6          686.94053      79.825835     -3738.9099      12394.6      
     60400   120.8          669.67927      77.819993     -3741.6645      12480.959    
     60500   121            650.22487      75.559297     -3744.6083      11642.019    
     60600   121.2          640.54141      74.434032     -3745.4815      12475.601    
     60700   121.4          634.78129      73.764677     -3740.6391      15990.326    
     60800   121.6          651.01912      75.651592     -3737.4115      13112.198    
     60900   121.8          676.89435      78.65842      -3736.8129      14992.722    
     61000   122            662.32885      76.965838     -3739.7453      15111.294    
     61100   122.2          663.15251      77.061551     -3742.7835      9152.8874    
     61200   122.4          639.31613      74.291648     -3741.0046      14659.882    
     61300   122.6          675.61165      78.509364     -3734.4895      16043.899    
     61400   122.8          678.69193      78.867308     -3735.8985      12921.353    
     61500   123            668.73295      77.710025     -3738.867       15273.055    
     61600   123.2          654.74852      76.084967     -3741.4216      16635.646    
     61700   123.4          628.57649      73.043649     -3742.5467      14501.761    
     61800   123.6          654.06809      76.005897     -3737.2732      14771.231    
     61900   123.8          698.42903      81.160855     -3734.4509      13284.629    
     62000   124            669.71976      77.824697     -3737.0273      14670.041    
     62100   124.2          657.68151      76.425795     -3740.2242      14454.191    
     62200   124.4          627.2843       72.893491     -3741.3684      13174.597    
     62300   124.6          669.92927      77.849044     -3739.92        13425.499    
     62400   124.8          675.09162      78.448935     -3738.6691      15755.258    
     62500   125            671.23836      78.001167     -3738.8102      13105.996    
     62600   125.2          669.82625      77.837073     -3738.3701      13081.393    
     62700   125.4          674.23633      78.349545     -3739.7312      15205.356    
     62800   125.6          648.1481       75.317966     -3743.0466      12318.652    
     62900   125.8          658.96605      76.575065     -3744.68        12913.544    
     63000   126            667.80122      77.601755     -3741.0709      13839.396    
     63100   126.2          714.26752      83.001364     -3736.8069      10363.263    
     63200   126.4          672.11237      78.102731     -3736.7484      14496.828    
     63300   126.6          651.33596      75.688411     -3739.2176      13545.473    
     63400   126.8          644.95222      74.946589     -3742.9275      13255.499    
     63500   127            657.88001      76.448861     -3743.6147      13609.781    
     63600   127.2          680.02405      79.022107     -3736.5482      14264.807    
     63700   127.4          658.9668       76.575152     -3735.5705      14955.861    
     63800   127.6          669.38497      77.785794     -3737.2136      11009.236    
     63900   127.8          683.17489      79.388249     -3740.8375      12313.084    
     64000   128            664.43647      77.210754     -3741.6413      11794.488    
     64100   128.2          649.8736       75.518477     -3738.2407      13398.699    
     64200   128.4          693.49802      80.587847     -3733.7155      14217.863    
     64300   128.6          677.81553      78.765466     -3734.6021      16283.234    
     64400   128.8          669.06338      77.748423     -3737.6547      11319.747    
     64500   129            665.70154      77.357761     -3739.5729      14249.939    
     64600   129.2          649.69253      75.497436     -3740.7196      14164.87     
     64700   129.4          667.01088      77.509913     -3740.5879      14188.328    
     64800   129.6          657.51991      76.407016     -3737.2564      13362.233    
     64900   129.8          700.94314      81.453007     -3734.5705      14110.328    
     65000   130            668.31296      77.661221     -3737.2554      13371.762    
     65100   130.2          654.68483      76.077566     -3740.9076      11752.568    
     65200   130.4          658.22544      76.489002     -3741.1195      14499.921    
     65300   130.6          673.00528      78.206491     -3740.0184      13009.849    
     65400   130.8          652.11494      75.778932     -3739.0492      14036.51     
     65500   131            661.63103      76.884748     -3738.5395      15241.525    
     65600   131.2          669.33648      77.780159     -3738.8441      11638.597    
     65700   131.4          667.38832      77.553773     -3739.0123      13242.262    
     65800   131.6          658.58739      76.531063     -3740.9784      15074.015    
     65900   131.8          653.9452       75.991617     -3743.5039      10815.008    
     66000   132            660.03498      76.699279     -3742.7077      13422.57     
     66100   132.2          662.83041      77.024122     -3738.1203      13769.84     
     66200   132.4          674.21652      78.347244     -3736.8046      14872.35     
     66300   132.6          667.09838      77.52008      -3739.0992      13312.757    
     66400   132.8          648.44637      75.352626     -3740.8307      14720.342    
     66500   133            681.56572      79.201256     -3740.6893      13629.029    
     66600   133.2          644.33191      74.874507     -3740.8397      11746.56     
     66700   133.4          667.48061      77.564498     -3739.9696      12282.006    
     66800   133.6          702.07887      81.584984     -3737.1137      13778.867    
     66900   133.8          679.70934      78.985535     -3732.0894      13721.696    
     67000   134            700.09967      81.354992     -3731.2195      13349.714    
     67100   134.2          675.30438      78.473658     -3738.1209      13703.388    
     67200   134.4          674.92113      78.429122     -3740.1198      14564.976    
     67300   134.6          639.21563      74.279969     -3741.0891      12385.247    
     67400   134.8          688.02752      79.952149     -3740.7934      13711.125    
     67500   135            681.71238      79.218299     -3738.0538      16713.922    
     67600   135.2          676.16211      78.573331     -3735.5867      13101.874    
     67700   135.4          675.41309      78.486291     -3734.3872      13956.19     
     67800   135.6          668.49206      77.682033     -3737.9619      14804.745    
     67900   135.8          652.34589      75.80577      -3741.9259      12594.115    
     68000   136            649.70939      75.499395     -3741.3011      12586.083    
     68100   136.2          686.72972      79.801339     -3737.3326      13841.09     
     68200   136.4          684.45595      79.537115     -3735.9421      15499.008    
     68300   136.6          687.24555      79.86128      -3736.9289      12834.954    
     68400   136.8          663.92951      77.151843     -3737.9466      13539.636    
     68500   137            697.32639      81.032723     -3738.6575      15358.824    
     68600   137.2          668.29956      77.659664     -3740.1422      14027.802    
     68700   137.4          647.02838      75.187849     -3745.2859      12461.537    
     68800   137.6          665.64401      77.351076     -3745.8182      14699.859    
     68900   137.8          658.99712      76.578675     -3741.4878      13320.368    
     69000   138            656.73826      76.316185     -3738.9994      13364.599    
     69100   138.2          643.44064      74.770936     -3738.1044      15225.559    
     69200   138.4          680.82465      79.11514      -3738.4564      13877.847    
     69300   138.6          664.23354      77.187172     -3742.0753      11661.682    
     69400   138.8          635.22474      73.816209     -3744.8483      12665.649    
     69500   139            665.49779      77.334085     -3742.2093      14362.982    
     69600   139.2          666.64709      77.467639     -3738.1889      12598.867    
     69700   139.4          666.6141       77.463805     -3737.6477      14503.125    
     69800   139.6          693.68373      80.609427     -3738.1087      13344.908    
     69900   139.8          644.61778      74.907726     -3741.2346      11453.718    
     70000   140            649.65736      75.493349     -3743.7717      13682.701    
     70100   140.2          645.72802      75.036741     -3742.5905      12635.691    
     70200   140.4          676.66544      78.63182      -3736.8815      11761.339    
     70300   140.6          653.80209      75.974988     -3735.0307      11510.934    
     70400   140.8          662.79667      77.020201     -3736.3919      10925.121    
     70500   141            654.79673      76.09057      -3740.821       14913.447    
     70600   141.2          641.66867      74.565025     -3742.8184      11955.353    
     70700   141.4          660.80035      76.788219     -3741.1105      11725.632    
     70800   141.6          674.29653      78.356541     -3739.0447      12784.731    
     70900   141.8          682.79332      79.343909     -3738.1955      14298.421    
     71000   142            691.27787      80.329856     -3738.2184      16100.309    
     71100   142.2          650.31055      75.569253     -3741.744       11934.862    
     71200   142.4          614.52313      71.41058      -3746.491       12441.06     
     71300   142.6          624.06361      72.519231     -3744.0337      14629.659    
     71400   142.8          644.88457      74.938728     -3740.3694      11608.268    
     71500   143            668.84284      77.722796     -3739.0368      12332.409    
     71600   143.2          665.94196      77.385699     -3737.0901      12311.253    
     71700   143.4          678.52432      78.847831     -3734.8683      13189.448    
     71800   143.6          664.48491      77.216383     -3734.14        13302.622    
     71900   143.8          648.27121      75.332272     -3738.9733      14104.786    
     72000   144            662.71124      77.010273     -3741.2783      12616.23     
     72100   144.2          663.73415      77.129141     -3740.6652      11804.952    
     72200   144.4          698.23558      81.138375     -3736.9961      13593.172    
     72300   144.6          681.77815      79.225942     -3733.3386      12196.388    
     72400   144.8          679.30321      78.938341     -3734.1472      11864.451    
     72500   145            659.31029      76.615067     -3740.9633      15075.08     
     72600   145.2          662.46879      76.982099     -3741.3376      9411.4175    
     72700   145.4          667.49082      77.565684     -3738.824       14353.799    
     72800   145.6          666.05251      77.398546     -3736.683       15588.612    
     72900   145.8          688.2171       79.974179     -3737.0052      11084.625    
     73000   146            643.69692      74.800717     -3742.5718      15730.213    
     73100   146.2          620.33871      72.086379     -3744.2915      12173.354    
     73200   146.4          665.65664      77.352543     -3741.2156      13221.186    
     73300   146.6          660.08985      76.705655     -3738.194       14189.294    
     73400   146.8          676.50387      78.613045     -3738.6352      12609.457    
     73500   147            678.00385      78.787349     -3739.8167      13858.065    
     73600   147.2          697.31292      81.031157     -3741.3186      14387.697    
     73700   147.4          648.15596      75.31888      -3745.8928      13311.004    
     73800   147.6          621.72721      72.24773      -3746.0718      14705.158    
     73900   147.8          669.6851       77.82067      -3740.8422      11666.637    
     74000   148            661.44266      76.862859     -3738.9676      14667.532    
     74100   148.2          684.34263      79.523947     -3737.8246      12411.257    
     74200   148.4          655.15356      76.132034     -3737.6677      12114.147    
     74300   148.6          646.3549       75.109587     -3740.4896      14924.634    
     74400   148.8          643.61269      74.790929     -3743.7995      13545.343    
     74500   149            637.56691      74.08838      -3743.7445      13046.346    
     74600   149.2          659.63226      76.652482     -3737.9141      13674.72     
     74700   149.4          659.7572       76.667        -3736.4167      12364.752    
     74800   149.6          686.76799      79.805785     -3736.8393      13030.969    
     74900   149.8          657.6134       76.41788      -3740.4257      13627.718    
     75000   150            656.71416      76.313384     -3743.3203      10291.074    
     75100   150.2          654.22135      76.023707     -3740.7994      12792.331    
     75200   150.4          679.78156      78.993928     -3735.3798      14740.295    
     75300   150.6          656.4229       76.279538     -3736.4394      12972.186    
     75400   150.8          644.15362      74.853787     -3739.8636      15069.108    
     75500   151            667.5309       77.570342     -3741.6584      14367.285    
     75600   151.2          655.94025      76.223451     -3742.5792      12226.752    
     75700   151.4          671.81538      78.068219     -3739.2711      13024.999    
     75800   151.6          699.93766      81.336165     -3735.4433      14477.321    
     75900   151.8          695.49039      80.819371     -3735.3545      13083.682    
     76000   152            682.99882      79.367789     -3739.1612      13228.112    
     76100   152.2          624.74825      72.598789     -3742.5294      13299.129    
     76200   152.4          677.30874      78.706574     -3741.4618      13529.541    
     76300   152.6          669.12506      77.75559      -3739.6043      14220.513    
     76400   152.8          680.14959      79.036695     -3738.652       12089.228    
     76500   153            672.97172      78.202591     -3737.3694      13302.92     
     76600   153.2          706.87201      82.14197      -3733.3487      13979.649    
     76700   153.4          681.9082       79.241053     -3731.145       11104.72     
     76800   153.6          692.09339      80.424622     -3735.5499      15814.189    
     76900   153.8          657.30511      76.382055     -3738.8157      12336.017    
     77000   154            676.80118      78.647594     -3739.3845      13394.297    
     77100   154.2          670.03951      77.861855     -3737.9947      14289.853    
     77200   154.4          697.74918      81.081853     -3733.8886      12830.477    
     77300   154.6          694.52473      80.707157     -3731.5517      15774.476    
     77400   154.8          663.84196      77.141669     -3736.0474      16098.391    
     77500   155            674.81453      78.416735     -3739.6809      13059.551    
     77600   155.2          672.51232      78.149207     -3739.8724      14160.064    
     77700   155.4          668.78739      77.716352     -3738.0808      13928.368    
     77800   155.6          678.30093      78.821871     -3734.4965      14607.484    
     77900   155.8          687.4336       79.883133     -3732.9734      13053.41     
     78000   156            658.18084      76.483819     -3739.3191      11785.146    
     78100   156.2          638.04477      74.143909     -3740.5177      13755.186    
     78200   156.4          643.30892      74.75563      -3740.4518      11376.861    
     78300   156.6          657.69724      76.427622     -3737.7186      13158.887    
     78400   156.8          707.45236      82.20941      -3734.4209      14865.198    
     78500   157            688.66696      80.026455     -3731.8971      12495.949    
     78600   157.2          658.91445      76.569068     -3736.7187      12206.975    
     78700   157.4          652.83048      75.862081     -3741.2164      17599.404    
     78800   157.6          650.941        75.642515     -3741.0357      13545.347    
     78900   157.8          672.05149      78.095656     -3737.8828      13847.625    
     79000   158            674.58959      78.390596     -3735.8187      17105.516    
     79100   158.2          656.44449      76.282046     -3737.6004      13865.323    
     79200   158.4          644.96352      74.947902     -3743.0309      14937.075    
     79300   158.6          644.61252      74.907115     -3743.2872      13646.19     
     79400   158.8          670.13999      77.873531     -3740.0873      13834.599    
     79500   159            656.01442      76.232071     -3737.1586      15990.025    
     79600   159.2          664.04726      77.165525     -3736.651       12339.994    
     79700   159.4          678.60884      78.857653     -3737.5608      14935.743    
     79800   159.6          651.82312      75.745021     -3739.4785      12056.84     
     79900   159.8          629.82458      73.188684     -3744.4227      12900.969    
     80000   160            653.11245      75.894847     -3744.919       13820.852    
     80100   160.2          644.55003      74.899852     -3739.1324      12126.454    
     80200   160.4          665.27067      77.307692     -3736.3368      13805.565    
     80300   160.6          658.52247      76.523518     -3737.8197      14701.139    
     80400   160.8          653.88732      75.984891     -3740.5901      14010.068    
     80500   161            653.1029       75.893738     -3742.8301      12609.101    
     80600   161.2          644.29304      74.86999      -3740.877       13248.826    
     80700   161.4          693.57861      80.597212     -3735.1684      15814.828    
     80800   161.6          689.26118      80.095506     -3735.6663      13934.829    
     80900   161.8          636.84793      74.004831     -3737.8085      14733.335    
     81000   162            657.86508      76.447126     -3741.0761      13481.883    
     81100   162.2          627.35003      72.901129     -3744.3449      13234.9      
     81200   162.4          620.98194      72.161126     -3746.7582      15065.266    
     81300   162.6          645.11787      74.965839     -3743.4656      13744.84     
     81400   162.8          648.94246      75.410274     -3738.7614      15454.927    
     81500   163            703.5455       81.755413     -3736.3359      11824.576    
     81600   163.2          700.4472       81.395376     -3735.356       15049.542    
     81700   163.4          682.68842      79.331719     -3737.6024      14633.791    
     81800   163.6          653.51185      75.941259     -3742.5044      12102.104    
     81900   163.8          648.89656      75.40494      -3742.3334      14899.343    
     82000   164            661.99519      76.927066     -3739.9642      13848.652    
     82100   164.2          674.08654      78.332139     -3737.6929      14791.038    
     82200   164.4          679.34262      78.942921     -3733.0447      16188.98     
     82300   164.6          716.80854      83.296644     -3730.9436      15369.128    
     82400   164.8          667.84841      77.607238     -3735.6393      15488.109    
     82500   165            680.55939      79.084315     -3738.3639      13379.59     
     82600   165.2          668.95215      77.735497     -3739.6168      15382.922    
     82700   165.4          662.46237      76.981354     -3741.1899      14833.934    
     82800   165.6          635.80952      73.884163     -3743.7085      13264.476    
     82900   165.8          653.0488       75.887452     -3744.1405      13208.829    
     83000   166            673.99396      78.321381     -3739.6031      14072.792    
     83100   166.2          659.55276      76.643243     -3737.2166      13729.791    
     83200   166.4          671.54788      78.037135     -3737.6212      13917.025    
     83300   166.6          673.25115      78.235063     -3741.6945      13033.949    
     83400   166.8          632.8327       73.538242     -3745.2504      12508.067    
     83500   167            674.04601      78.327429     -3743.4242      14851.006    
     83600   167.2          644.76543      74.924884     -3741.1709      13743.788    
     83700   167.4          648.7122       75.383517     -3738.6125      14574.191    
     83800   167.6          711.89065      82.72516      -3736.0672      13788.763    
     83900   167.8          656.73732      76.316075     -3735.4427      13592.734    
     84000   168            695.75873      80.850553     -3735.0079      12781.343    
     84100   168.2          681.08622      79.145536     -3737.7359      15453.44     
     84200   168.4          660.29782      76.729823     -3740.6025      15587.77     
     84300   168.6          646.54596      75.13179      -3741.3611      13150.844    
     84400   168.8          678.11064      78.799759     -3738.2491      15172.626    
     84500   169            666.10933      77.405148     -3734.0664      15672.244    
     84600   169.2          675.48952      78.495172     -3734.6992      14304.048    
     84700   169.4          651.86039      75.749352     -3737.7028      14552.119    
     84800   169.6          652.74191      75.851789     -3738.4239      13361.973    
     84900   169.8          653.09481      75.892797     -3738.1122      13265.615    
     85000   170            678.01208      78.788306     -3737.8745      12412.766    
     85100   170.2          679.74774      78.989998     -3738.0079      12099.241    
[...]
    478600   957.2          674.02434      78.324911     -3738.2732      12425.369    
    478700   957.4          684.16335      79.503113     -3734.899       16779.551    
    478800   957.6          674.89514      78.426103     -3735.46        13081.368    
    478900   957.8          670.4186       77.905906     -3740.0706      13188.166    
    479000   958            653.63451      75.955514     -3742.6188      12336.763    
    479100   958.2          654.26407      76.028672     -3741.3511      13558.471    
    479200   958.4          658.14848      76.480059     -3738.7789      14996.832    
    479300   958.6          652.89987      75.870145     -3736.4241      14118.913    
    479400   958.8          692.57507      80.480596     -3734.7436      13677.226    
    479500   959            674.7891       78.41378      -3737.1264      11238.79     
    479600   959.2          637.42706      74.072129     -3742.6061      14060.383    
    479700   959.4          620.47223      72.101895     -3742.181       13080.437    
    479800   959.6          686.35869      79.758222     -3737.6157      12442.21     
    479900   959.8          685.37978      79.644469     -3736.2995      13806.555    
    480000   960            657.05451      76.352934     -3736.7722      14225.673    
    480100   960.2          659.60151      76.648908     -3740.425       12766.936    
    480200   960.4          636.66814      73.983938     -3744.2848      12591.141    
    480300   960.6          667.24435      77.537043     -3742.4569      12873.933    
    480400   960.8          671.47034      78.028124     -3739.1173      12605.42     
    480500   961            681.5262       79.196664     -3737.5812      13009.227    
    480600   961.2          664.63594      77.233933     -3737.8524      14272.776    
    480700   961.4          663.43223      77.094056     -3740.0768      13205.4      
    480800   961.6          641.8467       74.585712     -3744.6721      14162.739    
    480900   961.8          641.93313      74.595756     -3744.8431      13072.926    
    481000   962            673.83807      78.303265     -3739.7922      14382.702    
    481100   962.2          673.46363      78.259753     -3737.3528      13334.415    
    481200   962.4          654.54481      76.061295     -3737.7591      12376.511    
    481300   962.6          656.4475       76.282397     -3739.3914      14084.741    
    481400   962.8          651.1705       75.669183     -3741.435       14026.225    
    481500   963            686.98479      79.830979     -3740.7945      12532.172    
    481600   963.2          685.22514      79.626498     -3735.9089      12466.239    
    481700   963.4          677.34467      78.710749     -3734.1219      14249.9      
    481800   963.6          666.79705      77.485065     -3735.4848      11740.115    
    481900   963.8          649.28425      75.449992     -3740.5754      12859.892    
    482000   964            642.09237      74.61426      -3741.4624      14993.76     
    482100   964.2          666.54081      77.455289     -3739.5639      13830.385    
    482200   964.4          695.62041      80.83448      -3737.3586      11623.519    
    482300   964.6          683.56589      79.433686     -3736.0142      12754.636    
    482400   964.8          674.82861      78.418371     -3733.7166      15099.084    
    482500   965            703.86016      81.791978     -3732.8439      14056.651    
    482600   965.2          674.04142      78.326896     -3736.6132      12615.504    
    482700   965.4          667.44532      77.560397     -3740.0235      14483.927    
    482800   965.6          641.29786      74.521934     -3740.114       14209.005    
    482900   965.8          655.59024      76.182778     -3737.3087      13405.229    
    483000   966            675.75896      78.526483     -3731.7593      15128.445    
    483100   966.2          676.7786       78.64497      -3732.3815      15002.558    
    483200   966.4          702.94482      81.685611     -3735.2533      11790.8      
    483300   966.6          658.73331      76.548019     -3738.3568      13394.917    
    483400   966.8          660.1821       76.716375     -3739.3904      15390.164    
    483500   967            644.76813      74.925197     -3738.3745      11523.994    
    483600   967.2          705.16856      81.944021     -3733.6484      14439.124    
    483700   967.4          677.33743      78.709908     -3730.7287      14037.849    
    483800   967.6          670.48868      77.914051     -3733.5631      14608.867    
    483900   967.8          684.08987      79.494574     -3736.4743      12676.431    
    484000   968            676.88427      78.657249     -3738.5889      14536.572    
    484100   968.2          661.87058      76.912585     -3740.5186      11529.766    
    484200   968.4          658.90939      76.56848      -3740.7985      13998.304    
    484300   968.6          678.73322      78.872106     -3738.8417      11853.464    
    484400   968.8          667.57334      77.575274     -3735.0169      13206.409    
    484500   969            708.55269      82.337274     -3734.874       12283.094    
    484600   969.2          666.42025      77.441278     -3739.402       13027.241    
    484700   969.4          662.42745      76.977296     -3741.8649      14100.961    
    484800   969.6          657.91264      76.452654     -3741.0517      13812.88     
    484900   969.8          695.20058      80.785693     -3738.4673      14205.322    
    485000   970            668.96261      77.736714     -3737.1911      15368.79     
    485100   970.2          651.36751      75.692077     -3740.1835      13163.741    
    485200   970.4          644.27746      74.868179     -3744.0536      15053.433    
    485300   970.6          678.1573       78.805181     -3742.7124      14299.019    
    485400   970.8          673.36644      78.24846      -3738.6603      12776.994    
    485500   971            677.45421      78.723479     -3736.7269      14599.44     
    485600   971.2          665.86424      77.376668     -3737.1799      15544.142    
    485700   971.4          689.96904      80.177762     -3737.8727      14230.938    
    485800   971.6          662.89869      77.032056     -3738.5199      11153.199    
    485900   971.8          661.10831      76.824005     -3738.6177      16821.867    
    486000   972            675.49302      78.495579     -3739.4152      12353.996    
    486100   972.2          652.11901      75.779405     -3740.1133      15861.852    
    486200   972.4          667.20515      77.532488     -3739.4196      12815.355    
    486300   972.6          672.66114      78.166501     -3738.6027      13301.959    
    486400   972.8          674.93167      78.430347     -3737.9761      14086.776    
    486500   973            658.04893      76.468491     -3737.5592      13019.966    
    486600   973.2          662.99428      77.043164     -3737.1694      14497.755    
    486700   973.4          653.7532       75.969306     -3738.0384      13351.041    
    486800   973.6          680.88865      79.122577     -3739.9326      12966.667    
    486900   973.8          670.70571      77.93927      -3742.5209      14531.375    
    487000   974            665.13793      77.292266     -3743.228       11211.96     
    487100   974.2          669.33216      77.779657     -3738.5624      12916.396    
    487200   974.4          659.80979      76.673111     -3735.3805      13024.07     
    487300   974.6          690.03044      80.184898     -3735.9975      13005.813    
    487400   974.8          653.93569      75.990512     -3739.4429      13579.844    
    487500   975            649.65991      75.493646     -3741.9148      12934.958    
    487600   975.2          645.97761      75.065744     -3740.8956      13627.559    
    487700   975.4          655.85966      76.214086     -3739.7089      14440.908    
    487800   975.6          634.57063      73.740198     -3737.6562      12832.098    
    487900   975.8          641.65108      74.562981     -3735.7756      12851.093    
    488000   976            690.448        80.23342      -3734.6867      14749.612    
    488100   976.2          651.13159      75.664662     -3737.2574      12480.665    
    488200   976.4          648.13616      75.316579     -3740.6484      15021.128    
    488300   976.6          642.15462      74.621494     -3742.0253      14016.29     
    488400   976.8          667.19059      77.530796     -3739.0136      12696.616    
    488500   977            702.06647      81.583544     -3734.5594      14291.06     
    488600   977.2          675.20252      78.461821     -3735.2012      12404.627    
    488700   977.4          683.78241      79.458847     -3737.6691      13498.93     
    488800   977.6          638.775        74.228766     -3740.6829      16908.897    
    488900   977.8          673.16373      78.224904     -3741.138       12048.575    
    489000   978            642.3345       74.642398     -3740.456       13109.274    
    489100   978.2          659.24221      76.607156     -3738.444       13895.274    
    489200   978.4          662.84788      77.026151     -3736.3962      12503.493    
    489300   978.6          670.05519      77.863677     -3735.9935      14150.092    
    489400   978.8          682.26762      79.28282      -3738.3361      12214.319    
    489500   979            673.1034       78.217893     -3742.3079      12097.455    
    489600   979.2          657.39627      76.392648     -3742.3386      12849.448    
    489700   979.4          676.49728      78.612278     -3738.3293      13311.774    
    489800   979.6          662.64446      77.002514     -3736.0906      13064.98     
    489900   979.8          657.96638      76.458898     -3737.1465      15085.184    
    490000   980            647.22268      75.210428     -3738.3301      12768.279    
    490100   980.2          638.82089      74.234098     -3738.8703      12152.715    
    490200   980.4          658.54537      76.526179     -3738.9903      14866.509    
    490300   980.6          672.54436      78.15293      -3739.1698      11760.513    
    490400   980.8          637.0201       74.024838     -3740.7034      13567.365    
    490500   981            636.32723      73.944323     -3743.8716      14053.501    
    490600   981.2          677.9835       78.784984     -3744.462       14278.036    
    490700   981.4          658.93533      76.571495     -3741.0929      12929.584    
    490800   981.6          670.41804      77.905841     -3737.0938      13413.552    
    490900   981.8          671.58281      78.041194     -3737.0423      14920.073    
    491000   982            675.62352      78.510744     -3738.3751      13497.147    
    491100   982.2          652.047        75.771037     -3742.6817      14127.816    
    491200   982.4          629.59037      73.161467     -3746.4103      14697.71     
    491300   982.6          662.89984      77.03219      -3744.8725      14890.069    
    491400   982.8          659.35515      76.62028      -3742.5987      15929.626    
    491500   983            677.35267      78.711679     -3739.2637      13893.571    
    491600   983.2          691.40555      80.344692     -3737.1733      14384.885    
    491700   983.4          652.51614      75.825554     -3738.063       14311.99     
    491800   983.6          655.46693      76.168449     -3742.319       14482.357    
    491900   983.8          634.43642      73.724602     -3745.4999      13647.57     
    492000   984            668.68985      77.705017     -3743.6468      12998.192    
    492100   984.2          680.43302      79.069631     -3740.5315      13986.703    
    492200   984.4          667.05889      77.515492     -3739.7009      11729.628    
    492300   984.6          676.80324      78.647832     -3739.7898      15170.939    
    492400   984.8          645.391        74.997577     -3739.805       15182.055    
    492500   985            684.11928      79.497993     -3735.3982      13417.948    
    492600   985.2          706.09498      82.051675     -3733.579       14298.009    
    492700   985.4          662.49806      76.985501     -3736.3341      12191.64     
    492800   985.6          664.61289      77.231255     -3740.5058      13453.848    
    492900   985.8          678.45486      78.839759     -3741.565       12916.534    
    493000   986            671.26779      78.004586     -3739.8543      15127.825    
    493100   986.2          667.56875      77.57474      -3737.3307      13192.743    
    493200   986.4          683.43817      79.418844     -3735.8559      15341.702    
    493300   986.6          685.82595      79.696315     -3735.7581      13661.048    
    493400   986.8          671.96268      78.085337     -3739.9802      12192.167    
    493500   987            669.21719      77.766297     -3742.9804      12613.837    
    493600   987.2          672.50203      78.148011     -3742.3672      14755.89     
    493700   987.4          651.81566      75.744155     -3737.557       12480.698    
    493800   987.6          667.18723      77.530406     -3735.99        13611.771    
    493900   987.8          683.35588      79.409281     -3735.2644      13364.152    
    494000   988            667.05283      77.514787     -3735.7319      13064.324    
    494100   988.2          697.52596      81.055914     -3738.5702      12520.346    
    494200   988.4          636.31569      73.942982     -3742.3536      13657.453    
    494300   988.6          628.51247      73.036211     -3740.2784      13152.378    
    494400   988.8          662.56266      76.993008     -3736.4305      15118.012    
    494500   989            708.27763      82.30531      -3736.1064      12969.713    
    494600   989.2          657.44127      76.397877     -3738.0657      12600.251    
    494700   989.4          650.59819      75.602678     -3740.5698      14899.489    
    494800   989.6          622.72114      72.363229     -3745.0242      14763.25     
    494900   989.8          633.67033      73.635579     -3746.5684      12068.504    
    495000   990            675.88968      78.541672     -3740.0055      14816.326    
    495100   990.2          677.14004      78.68697      -3737.6015      15532.921    
    495200   990.4          681.07174      79.143853     -3736.0986      13770.761    
    495300   990.6          687.91171      79.938691     -3736.9059      15720.968    
    495400   990.8          627.73732      72.946134     -3740.3649      14821.797    
    495500   991            631.77658      73.415515     -3742.8566      14057.271    
    495600   991.2          653.97139      75.994661     -3741.4829      16310.999    
    495700   991.4          662.46186      76.981295     -3735.4248      12480.789    
    495800   991.6          694.36739      80.688873     -3734.8304      12338.887    
    495900   991.8          693.77782      80.620361     -3737.6839      14665.776    
    496000   992            658.73409      76.548109     -3740.2865      12621.702    
    496100   992.2          654.5886       76.066383     -3740.0972      11713.723    
    496200   992.4          653.60812      75.952446     -3734.1002      14861.326    
    496300   992.6          698.39496      81.156895     -3731.9011      14111.833    
    496400   992.8          680.37792      79.063228     -3735.3406      14219.437    
    496500   993            647.79635      75.277091     -3739.225       13482.823    
    496600   993.2          652.12118      75.779657     -3739.2557      15562.863    
    496700   993.4          662.56502      76.993283     -3736.5168      16993.664    
    496800   993.6          705.16935      81.944113     -3733.7876      13000.778    
    496900   993.8          684.04442      79.489293     -3735.0548      13360.623    
    497000   994            643.0056       74.720382     -3741.2746      14817.59     
    497100   994.2          639.72384      74.339026     -3742.2038      17304.803    
    497200   994.4          682.5957       79.320945     -3738.9994      11479.17     
    497300   994.6          705.86357      82.024785     -3735.501       11643.113    
    497400   994.8          650.53365      75.595179     -3735.1016      15309.6      
    497500   995            676.15088      78.572025     -3736.678       14418.635    
    497600   995.2          641.66412      74.564496     -3742.9507      13880.266    
    497700   995.4          640.51526      74.430992     -3742.7238      13870.098    
    497800   995.6          676.74042      78.640533     -3739.3181      14094.592    
    497900   995.8          668.44998      77.677143     -3737.3793      10918.318    
    498000   996            663.77429      77.133805     -3737.193       12940.439    
    498100   996.2          670.85509      77.956628     -3739.1984      12417.712    
    498200   996.4          628.53015      73.038265     -3743.9391      14255.724    
    498300   996.6          656.30572      76.265921     -3743.7578      12029.321    
    498400   996.8          666.8458       77.49073      -3739.1275      12353.447    
    498500   997            651.90394      75.754413     -3737.806       12887.197    
    498600   997.2          667.98819      77.623482     -3737.4457      14005.872    
    498700   997.4          657.33335      76.385336     -3739.6083      12338.268    
    498800   997.6          650.51154      75.592609     -3742.9622      13221.766    
    498900   997.8          649.17883      75.437742     -3744.0795      13200.446    
    499000   998            661.81524      76.906154     -3740.0168      11476.736    
    499100   998.2          672.4113       78.137468     -3736.2589      12751.396    
    499200   998.4          659.7928       76.671136     -3736.0578      14397.147    
    499300   998.6          651.36288      75.691539     -3739.0293      12569.3      
    499400   998.8          629.43192      73.143055     -3743.4523      12623.15     
    499500   999            633.62744      73.630595     -3744.2539      14462.897    
    499600   999.2          668.26755      77.655944     -3737.9095      13519.809    
    499700   999.4          686.75562      79.804348     -3735.6988      11489.002    
    499800   999.6          644.20062      74.85925      -3737.4259      15477.206    
    499900   999.8          661.73742      76.897111     -3739.7         14792.672    
    500000   1000           657.86095      76.446647     -3740.3436      15301.812    
Loop time of 31051 on 1 procs for 500000 steps with 900 atoms

Performance: 2.783 ns/day, 8.625 hours/ns, 16.103 timesteps/s
58.3% CPU use with 1 MPI tasks x 1 OpenMP threads

MPI task timing breakdown:
Section |  min time  |  avg time  |  max time  |%varavg| %total
---------------------------------------------------------------
Pair    | 30762      | 30762      | 30762      |   0.0 | 99.07
Neigh   | 243.68     | 243.68     | 243.68     |   0.0 |  0.78
Comm    | 10.878     | 10.878     | 10.878     |   0.0 |  0.04
Output  | 11.203     | 11.203     | 11.203     |   0.0 |  0.04
Modify  | 19.425     | 19.425     | 19.425     |   0.0 |  0.06
Other   |            | 3.995      |            |       |  0.01

Nlocal:            900 ave         900 max         900 min
Histogram: 1 0 0 0 0 0 0 0 0 0
Nghost:           2415 ave        2415 max        2415 min
Histogram: 1 0 0 0 0 0 0 0 0 0
Neighs:              0 ave           0 max           0 min
Histogram: 1 0 0 0 0 0 0 0 0 0
FullNghs:        64872 ave       64872 max       64872 min
Histogram: 1 0 0 0 0 0 0 0 0 0

Total # of neighbors = 64872
Ave neighs/atom = 72.08
Neighbor list builds = 50000
Dangerous builds not checked

Total wall time: 8:39:38
