ITEM: TIMESTEP
0
ITEM: NUMBER OF ATOMS
56
ITEM: BOX BOUNDS xy xz yz pp pp pp
-6.1779971718788147e+00 1.2206987559795380e+01 -4.7683715820312500e-07
-7.5370073318481445e-03 5.5339480042457581e+00 -6.1561089754104614e+00
-3.2569408416748047e-02 1.9052529454231262e+01 2.8610229492187500e-06
ITEM: ATOMS id type xs ys zs fx fy fz
1 1 0.616206 1 0.132369 0 -0.0353999 0.063484
2 1 0.366206 0.166667 0.132369 0 0.0353998 0.0634842
3 1 0.325015 1 0.275226 0 0.00013411 -0.00336778
4 1 0.0750155 0.166667 0.275226 0 -0.00013423 -0.00336778
5 1 0.0338265 5.00995e-07 0.418084 0 2.34842e-05 -5.71012e-05
6 1 0.116206 1 0.132369 0 -0.0353999 0.0634844
7 1 0.0118011 0.5 0.0609408 0 0.210936 0.182435
8 1 0.866206 0.166667 0.132369 0 0.0353998 0.0634845
9 1 0.761801 0.666667 0.0609408 0 -0.210935 0.182435
10 1 0.825015 1 0.275226 0 0.00013411 -0.00336814
11 1 0.783826 0.166667 0.418084 0 -2.30074e-05 -5.66244e-05
12 1 0.742638 5.53965e-07 0.560941 0 2.2769e-05 0.000128388
13 1 0.492638 0.166667 0.560941 0 -2.26498e-05 0.00012815
14 1 0.451449 1.60387e-07 0.703798 0 7.18832e-05 -0.000166297
15 1 0.201449 0.166667 0.703798 0 -7.16448e-05 -0.000166178
16 1 0.160259 1 0.846655 0 -0.00131142 0.00969899
17 1 0.720611 0.5 0.203798 0 -0.00131059 -0.00969875
18 1 0.575016 0.166667 0.275226 0 -0.00013423 -0.00336778
19 1 0.470611 0.666667 0.203798 0 0.0013113 -0.00969863
20 1 0.533826 5.02326e-07 0.418084 0 2.3365e-05 -5.72205e-05
21 1 0.429421 0.5 0.346655 0 7.18832e-05 0.000166059
22 1 0.283826 0.166667 0.418084 0 -2.30074e-05 -5.6982e-05
23 1 0.179421 0.666667 0.346655 0 -7.236e-05 0.000166059
24 1 0.242638 5.42012e-07 0.560941 0 2.32458e-05 0.000128031
25 1 0.138232 0.500001 0.489512 0 2.25306e-05 -0.000127792
26 1 0.992638 0.166667 0.560941 0 -2.25306e-05 0.000127435
27 1 0.888232 0.666667 0.489512 0 -2.30074e-05 -0.000127912
28 1 0.511801 0.5 0.0609408 0 0.210935 0.182434
29 1 0.261801 0.666667 0.0609408 0 -0.210935 0.182435
30 1 0.220611 0.5 0.203798 0 -0.00131083 -0.00969899
31 1 0.970611 0.666667 0.203798 0 0.00131106 -0.00969863
32 1 0.929421 0.5 0.346655 0 7.20024e-05 0.000166297
33 1 0.910259 0.166667 0.846655 0 0.00131059 0.00969887
34 1 0.869069 1 0.989512 0 0.210935 -0.182435
35 1 0.619069 0.166667 0.989512 0 -0.210935 -0.182434
36 1 0.951449 1.92026e-07 0.703798 0 7.20024e-05 -0.000166059
37 1 0.847044 0.500001 0.632369 0 2.2769e-05 5.6982e-05
38 1 0.701449 0.166667 0.703798 0 -7.1764e-05 -0.000166416
39 1 0.597044 0.666667 0.632369 0 -2.34842e-05 5.6982e-05
40 1 0.660259 1 0.846655 0 -0.00131118 0.00969911
41 1 0.555855 0.5 0.775226 0 0.000135183 0.0033679
42 1 0.410259 0.166667 0.846655 0 0.00131106 0.00969875
43 1 0.305855 0.666667 0.775226 0 -0.00013423 0.00336778
44 1 0.369069 1 0.989512 0 0.210935 -0.182435
45 1 0.264664 0.5 0.918083 0 -0.0354 -0.063484
46 1 0.679421 0.666667 0.346655 0 -7.27177e-05 0.000166059
47 1 0.638232 0.500001 0.489512 0 2.2769e-05 -0.000128031
48 1 0.388232 0.666667 0.489512 0 -2.31266e-05 -0.00012815
49 1 0.347044 0.5 0.632369 0 2.2769e-05 5.71012e-05
50 1 0.0970436 0.666667 0.632369 0 -2.34842e-05 5.71012e-05
51 1 0.0558545 0.5 0.775226 0 0.000134945 0.00336754
52 1 0.119069 0.166667 0.989512 0 -0.210936 -0.182435
53 1 0.0146642 0.666667 0.918083 0 0.0354 -0.0634836
54 1 0.805855 0.666667 0.775226 0 -0.000133991 0.00336754
55 1 0.764664 0.5 0.918083 0 -0.0353998 -0.0634843
56 1 0.514664 0.666667 0.918083 0 0.0353999 -0.0634842
ITEM: TIMESTEP
1
ITEM: NUMBER OF ATOMS
56
ITEM: BOX BOUNDS xy xz yz pp pp pp
-6.1779971718788147e+00 1.2206987559795380e+01 -4.7683715820312500e-07
-7.5370073318481445e-03 5.5339480042457581e+00 -6.1561089754104614e+00
-3.2569408416748047e-02 1.9052529454231262e+01 2.8610229492187500e-06
ITEM: ATOMS id type xs ys zs fx fy fz
1 1 0.616637 0.998356 0.133225 0 0.0498768 -0.00145149
2 1 0.366637 0.168311 0.133225 0 -0.049877 -0.00145125
3 1 0.324993 1.00001 0.275181 0 -0.00225973 0.014962
4 1 0.0749927 0.166661 0.275181 0 0.00225961 0.0149621
5 1 0.0338261 1.59157e-06 0.418083 0 -0.000209332 -0.00138807
6 1 0.116637 0.998356 0.133225 0 0.0498772 -0.00145173
7 1 0.0130395 0.509795 0.0634007 0 0.0222974 -0.033666
8 1 0.866637 0.168311 0.133225 0 -0.0498769 -0.00145113
9 1 0.763039 0.656872 0.0634007 0 -0.0222977 -0.0336661
10 1 0.824993 1.00001 0.275181 0 -0.00225937 0.0149624
11 1 0.783826 0.166666 0.418083 0 0.000209093 -0.00138783
12 1 0.742639 1.61133e-06 0.560942 0 0.000181913 0.000733733
13 1 0.492639 0.166666 0.560942 0 -0.000182033 0.000734329
14 1 0.451448 3.49855e-06 0.703796 0 -0.000884891 -0.00251102
15 1 0.201448 0.166664 0.703796 0 0.00088501 -0.00251126
16 1 0.160325 0.999939 0.846786 0 -0.0127739 -0.0552088
17 1 0.720545 0.499939 0.203667 0 -0.0127741 0.0552086
18 1 0.574993 0.166661 0.275181 0 0.00225973 0.014962
19 1 0.470545 0.666728 0.203667 0 0.0127741 0.0552087
20 1 0.533826 1.58737e-06 0.418083 0 -0.000209212 -0.00138783
21 1 0.429422 0.500004 0.346657 0 -0.000885248 0.00251126
22 1 0.283826 0.166666 0.418083 0 0.000208974 -0.00138795
23 1 0.179422 0.666664 0.346657 0 0.000885248 0.00251102
24 1 0.242639 1.62152e-06 0.560942 0 0.000181794 0.000733137
25 1 0.138231 0.500002 0.48951 0 0.000181913 -0.000734329
26 1 0.992639 0.166665 0.560942 0 -0.000182033 0.000733852
27 1 0.888231 0.666665 0.48951 0 -0.000182033 -0.000733495
28 1 0.513039 0.509795 0.0634007 0 0.022298 -0.0336658
29 1 0.263039 0.656872 0.0634007 0 -0.0222976 -0.0336659
30 1 0.220545 0.499939 0.203667 0 -0.0127738 0.0552086
31 1 0.970545 0.666728 0.203667 0 0.0127741 0.0552092
32 1 0.929422 0.500004 0.346657 0 -0.000885129 0.00251138
33 1 0.910325 0.166728 0.846786 0 0.012774 -0.0552088
34 1 0.867831 1.0098 0.987052 0 0.0222977 0.0336661
35 1 0.617831 0.156872 0.987052 0 -0.0222981 0.033666
36 1 0.951448 3.53573e-06 0.703796 0 -0.000885129 -0.00251126
37 1 0.847044 0.500002 0.63237 0 -0.000208616 0.00138807
38 1 0.701448 0.166664 0.703796 0 0.00088501 -0.00251174
39 1 0.597044 0.666666 0.63237 0 0.000209332 0.00138795
40 1 0.660325 0.999939 0.846786 0 -0.0127738 -0.0552087
41 1 0.555877 0.500006 0.775272 0 -0.00226009 -0.0149617
42 1 0.410325 0.166728 0.846786 0 0.0127743 -0.055209
43 1 0.305877 0.666661 0.775272 0 0.00225961 -0.0149621
44 1 0.367831 1.0098 0.987052 0 0.0222976 0.0336665
45 1 0.264233 0.498356 0.917227 0 0.0498767 0.00145078
46 1 0.679422 0.666664 0.346657 0 0.000885367 0.00251091
47 1 0.638231 0.500002 0.48951 0 0.000181913 -0.00073421
48 1 0.388231 0.666665 0.48951 0 -0.000182033 -0.000733614
49 1 0.347044 0.500002 0.63237 0 -0.000209093 0.00138831
50 1 0.097044 0.666666 0.63237 0 0.00020957 0.00138795
51 1 0.0558774 0.500006 0.775272 0 -0.00225997 -0.0149617
52 1 0.117831 0.156872 0.987052 0 -0.0222977 0.0336663
53 1 0.0142333 0.668311 0.917227 0 -0.0498768 0.00145137
54 1 0.805877 0.666661 0.775272 0 0.00225937 -0.0149621
55 1 0.764233 0.498356 0.917227 0 0.0498768 0.00145125
56 1 0.514233 0.668311 0.917227 0 -0.0498768 0.00145137
ITEM: TIMESTEP
2
ITEM: NUMBER OF ATOMS
56
ITEM: BOX BOUNDS xy xz yz pp pp pp
-6.1779971718788147e+00 1.2206987559795380e+01 -4.7683715820312500e-07
-7.5370073318481445e-03 5.5339480042457581e+00 -6.1561089754104614e+00
-3.2569408416748047e-02 1.9052529454231262e+01 2.8610229492187500e-06
ITEM: ATOMS id type xs ys zs fx fy fz
1 1 0.616722 1.00195 0.133394 0 0.00715566 0.0125618
2 1 0.366722 0.164715 0.133394 0 -0.00715518 0.012562
3 1 0.325162 0.999827 0.275517 0 -0.00212097 0.0124115
4 1 0.075162 0.16684 0.275517 0 0.00212097 0.0124117
5 1 0.0338098 -1.48766e-05 0.41805 0 -0.00152135 0.00798082
6 1 0.116722 1.00195 0.133394 0 0.0071553 0.0125617
7 1 0.0129392 0.513894 0.0632016 0 -0.0100813 -0.00608003
8 1 0.866722 0.164715 0.133394 0 -0.00715542 0.0125617
9 1 0.762939 0.652773 0.0632016 0 0.0100816 -0.00608003
10 1 0.825162 0.999827 0.275517 0 -0.00212085 0.0124112
11 1 0.78381 0.166682 0.41805 0 0.00152135 0.00798047
12 1 0.742648 1.63968e-05 0.56096 0 -0.000878811 -0.00308859
13 1 0.492648 0.166651 0.56096 0 0.00087893 -0.00308931
14 1 0.451418 -6.64168e-05 0.703737 0 -0.00254774 -0.0215783
15 1 0.201418 0.166734 0.703737 0 0.00254786 -0.0215781
16 1 0.159696 0.998904 0.845536 0 0.0140979 0.00490105
17 1 0.721174 0.498904 0.204917 0 0.0140978 -0.00490129
18 1 0.575162 0.16684 0.275517 0 0.00212085 0.0124116
19 1 0.471174 0.667763 0.204917 0 -0.0140979 -0.00490093
20 1 0.53381 -1.48726e-05 0.41805 0 -0.00152111 0.00798082
21 1 0.429452 0.499934 0.346716 0 -0.00254762 0.0215782
22 1 0.28381 0.166682 0.41805 0 0.00152123 0.00798047
23 1 0.179452 0.666734 0.346716 0 0.0025475 0.0215789
24 1 0.242648 1.64028e-05 0.56096 0 -0.000878811 -0.00308836
25 1 0.138222 0.500016 0.489493 0 -0.00087893 0.00308931
26 1 0.992648 0.166651 0.56096 0 0.000879288 -0.00308895
27 1 0.888222 0.666651 0.489493 0 0.000879169 0.00308812
28 1 0.512939 0.513894 0.0632016 0 -0.0100822 -0.00607979
29 1 0.262939 0.652773 0.0632016 0 0.0100812 -0.00608003
30 1 0.221174 0.498904 0.204917 0 0.0140979 -0.00490117
31 1 0.971174 0.667763 0.204917 0 -0.0140978 -0.00490189
32 1 0.929452 0.499934 0.346716 0 -0.0025475 0.0215782
33 1 0.909696 0.167763 0.845536 0 -0.0140979 0.00490117
34 1 0.867931 1.01389 0.987251 0 -0.0100818 0.00608027
35 1 0.617931 0.152773 0.987251 0 0.010082 0.00607955
36 1 0.951418 -6.63974e-05 0.703737 0 -0.00254762 -0.0215783
37 1 0.84706 0.499985 0.632402 0 -0.00152147 -0.00798094
38 1 0.701418 0.166734 0.703737 0 0.0025475 -0.0215782
39 1 0.59706 0.666682 0.632402 0 0.00152087 -0.00798082
40 1 0.659696 0.998904 0.845536 0 0.0140978 0.00490105
41 1 0.555708 0.499827 0.774935 0 -0.00212061 -0.0124121
42 1 0.409696 0.167763 0.845536 0 -0.014098 0.00490141
43 1 0.305708 0.66684 0.774935 0 0.00212133 -0.0124116
44 1 0.367931 1.01389 0.987251 0 -0.0100815 0.00607932
45 1 0.264148 0.501952 0.917059 0 0.00715566 -0.0125613
46 1 0.679452 0.666734 0.346716 0 0.00254726 0.0215782
47 1 0.638222 0.500016 0.489493 0 -0.000879169 0.00308931
48 1 0.388222 0.666651 0.489493 0 0.00087893 0.00308871
49 1 0.34706 0.499985 0.632402 0 -0.00152135 -0.00798082
50 1 0.0970603 0.666682 0.632402 0 0.00152051 -0.00798047
51 1 0.0557081 0.499827 0.774935 0 -0.00212073 -0.0124117
52 1 0.117931 0.152773 0.987251 0 0.010082 0.00607991
53 1 0.0141483 0.664715 0.917059 0 -0.00715554 -0.0125617
54 1 0.805708 0.66684 0.774935 0 0.00212121 -0.0124112
55 1 0.764148 0.501952 0.917059 0 0.0071553 -0.0125612
56 1 0.514148 0.664715 0.917059 0 -0.00715566 -0.0125613
ITEM: TIMESTEP
3
ITEM: NUMBER OF ATOMS
56
ITEM: BOX BOUNDS xy xz yz pp pp pp
-6.1779971718788147e+00 1.2206987559795380e+01 -4.7683715820312500e-07
-7.5370073318481445e-03 5.5339480042457581e+00 -6.1561089754104614e+00
-3.2569408416748047e-02 1.9052529454231262e+01 2.8610229492187500e-06
ITEM: ATOMS id type xs ys zs fx fy fz
1 1 0.616935 1.00346 0.133817 0 -0.0109555 0.00503397
2 1 0.366935 0.16321 0.133817 0 0.0109543 0.00503302
3 1 0.32539 0.999564 0.27597 0 0.00323963 0.0064317
4 1 0.07539 0.167103 0.27597 0 -0.00323939 0.00643158
5 1 0.0339305 -0.000180099 0.41829 0 -0.000957489 0.00688851
6 1 0.116935 1.00346 0.133817 0 -0.0109547 0.00503421
7 1 0.012824 0.51367 0.0629727 0 0.00495481 0.00823009
8 1 0.866935 0.16321 0.133817 0 0.0109547 0.00503337
9 1 0.762824 0.652998 0.0629727 0 -0.00495493 0.00823045
10 1 0.82539 0.999565 0.27597 0 0.00323927 0.0064317
11 1 0.78393 0.166847 0.41829 0 0.000957251 0.00688887
12 1 0.742601 -7.40204e-05 0.560868 0 -0.00284886 -0.00604427
13 1 0.492601 0.166741 0.560868 0 0.00284803 -0.00604355
14 1 0.451077 -0.00035186 0.703058 0 -7.11679e-05 0.00250196
15 1 0.201077 0.167019 0.703058 0 7.03335e-05 0.00250185
16 1 0.159642 1.00019 0.845429 0 0.00338638 -0.0013206
17 1 0.721228 0.500189 0.205024 0 0.00338662 0.00132072
18 1 0.57539 0.167103 0.27597 0 -0.00324011 0.00643218
19 1 0.471228 0.666478 0.205024 0 -0.00338602 0.00131989
20 1 0.53393 -0.000180068 0.41829 0 -0.000958085 0.00688851
21 1 0.429793 0.499648 0.347395 0 -7.08103e-05 -0.00250185
22 1 0.28393 0.166847 0.41829 0 0.000957489 0.00688875
23 1 0.179793 0.667019 0.347395 0 7.10487e-05 -0.00250268
24 1 0.242601 -7.40154e-05 0.560868 0 -0.00284886 -0.00604331
25 1 0.138269 0.499926 0.489585 0 -0.00284803 0.00604379
26 1 0.992601 0.166741 0.560868 0 0.00284779 -0.00604343
27 1 0.888269 0.666741 0.489585 0 0.00284898 0.00604439
28 1 0.512824 0.51367 0.0629727 0 0.00495529 0.00823033
29 1 0.262824 0.652998 0.0629727 0 -0.00495422 0.00822961
30 1 0.221228 0.500189 0.205024 0 0.00338566 0.00132096
31 1 0.971228 0.666478 0.205024 0 -0.0033865 0.00132143
32 1 0.929793 0.499648 0.347395 0 -7.08103e-05 -0.00250244
33 1 0.909642 0.166478 0.845429 0 -0.0033859 -0.0013206
34 1 0.868046 1.01367 0.98748 0 0.00495505 -0.00823033
35 1 0.618046 0.152998 0.98748 0 -0.00495541 -0.00822973
36 1 0.951077 -0.000351832 0.703058 0 -7.10487e-05 0.0025022
37 1 0.84694 0.49982 0.632163 0 -0.000957489 -0.00688815
38 1 0.701077 0.167019 0.703058 0 7.10487e-05 0.00250244
39 1 0.59694 0.666847 0.632163 0 0.000957608 -0.00688815
40 1 0.659642 1.00019 0.845429 0 0.00338602 -0.00132048
41 1 0.55548 0.499565 0.774483 0 0.00323951 -0.00643122
42 1 0.409642 0.166478 0.845429 0 -0.00338638 -0.00132096
43 1 0.30548 0.667103 0.774483 0 -0.00323987 -0.00643146
44 1 0.368046 1.01367 0.98748 0 0.00495517 -0.00822902
45 1 0.263935 0.503457 0.916636 0 -0.0109545 -0.00503373
46 1 0.679793 0.667019 0.347395 0 7.16448e-05 -0.00250185
47 1 0.638269 0.499926 0.489585 0 -0.00284767 0.00604296
48 1 0.388269 0.666741 0.489585 0 0.00284839 0.00604403
49 1 0.34694 0.49982 0.632163 0 -0.000956655 -0.0068891
50 1 0.0969396 0.666847 0.632163 0 0.000958562 -0.00688922
51 1 0.0554801 0.499565 0.774483 0 0.00323904 -0.0064317
52 1 0.118046 0.152998 0.98748 0 -0.00495529 -0.00823021
53 1 0.0139355 0.66321 0.916636 0 0.0109551 -0.00503445
54 1 0.80548 0.667103 0.774483 0 -0.00323975 -0.00643194
55 1 0.763935 0.503457 0.916636 0 -0.0109544 -0.00503457
56 1 0.513935 0.66321 0.916636 0 0.0109551 -0.00503445
ITEM: TIMESTEP
4
ITEM: NUMBER OF ATOMS
56
ITEM: BOX BOUNDS xy xz yz pp pp pp
-6.1779971718788147e+00 1.2206987559795380e+01 -4.7683715820312500e-07
-7.5370073318481445e-03 5.5339480042457581e+00 -6.1561089754104614e+00
-3.2569408416748047e-02 1.9052529454231262e+01 2.8610229492187500e-06
ITEM: ATOMS id type xs ys zs fx fy fz
1 1 0.617022 1.00301 0.13399 0 -0.000213981 -0.000617266
2 1 0.367022 0.163652 0.13399 0 0.000214338 -0.00061667
3 1 0.325493 0.999729 0.276175 0 0.00238907 0.00280082
4 1 0.0754931 0.166939 0.276175 0 -0.00238931 0.0028007
5 1 0.0340184 -0.000272914 0.418465 0 -0.0016973 0.00107908
6 1 0.117022 1.00301 0.13399 0 -0.0002141 -0.000617385
7 1 0.0128817 0.513953 0.0630873 0 -0.000699401 -0.00247681
8 1 0.867022 0.163652 0.13399 0 0.000214338 -0.00061655
9 1 0.762882 0.652714 0.0630873 0 0.000699282 -0.00247753
10 1 0.825493 0.999729 0.276175 0 0.00238907 0.00280106
11 1 0.784018 0.16694 0.418465 0 0.00169802 0.00107896
12 1 0.742535 -0.000276933 0.560737 0 -0.00119591 0.00167418
13 1 0.492535 0.166944 0.560737 0 0.00119686 0.00167406
14 1 0.451038 -0.000408632 0.702982 0 0.000906348 0.000799894
15 1 0.201038 0.167076 0.702982 0 -0.000905156 0.000799656
16 1 0.15962 1.00065 0.845384 0 -0.00396991 -0.0053277
17 1 0.72125 0.500646 0.205069 0 -0.00397038 0.00532842
18 1 0.575493 0.166939 0.276175 0 -0.00238824 0.00280035
19 1 0.47125 0.666022 0.205069 0 0.00396943 0.00532854
20 1 0.534018 -0.000272917 0.418465 0 -0.00169742 0.00107872
21 1 0.429832 0.499591 0.347471 0 0.000905871 -0.000800014
22 1 0.284018 0.16694 0.418465 0 0.00169754 0.0010792
23 1 0.179832 0.667076 0.347471 0 -0.000905752 -0.000800133
24 1 0.242535 -0.000276928 0.560737 0 -0.00119615 0.0016737
25 1 0.138335 0.499723 0.489716 0 -0.00119674 -0.00167477
26 1 0.992535 0.166944 0.560737 0 0.00119638 0.00167394
27 1 0.888335 0.666944 0.489716 0 0.00119531 -0.00167394
28 1 0.512882 0.513953 0.0630873 0 -0.000699401 -0.00247741
29 1 0.262882 0.652714 0.0630873 0 0.000699401 -0.00247693
30 1 0.22125 0.500646 0.205069 0 -0.00396955 0.00532782
31 1 0.97125 0.666022 0.205069 0 0.00397015 0.0053283
32 1 0.929832 0.499591 0.347471 0 0.000905395 -0.000799775
33 1 0.90962 0.166022 0.845384 0 0.00396955 -0.00532782
34 1 0.867988 1.01395 0.987366 0 -0.000699162 0.00247669
35 1 0.617988 0.152714 0.987366 0 0.000699401 0.00247693
36 1 0.951038 -0.000408594 0.702982 0 0.000905871 0.000799894
37 1 0.846852 0.499727 0.631988 0 -0.0016979 -0.00107896
38 1 0.701038 0.167076 0.702982 0 -0.000905871 0.000800252
39 1 0.596852 0.66694 0.631988 0 0.0016979 -0.00107932
40 1 0.65962 1.00065 0.845384 0 -0.00396943 -0.00532782
41 1 0.555377 0.499729 0.774278 0 0.00238836 -0.00280046
42 1 0.40962 0.166022 0.845384 0 0.00396991 -0.00532782
43 1 0.305377 0.666939 0.774278 0 -0.00238931 -0.00280094
44 1 0.367988 1.01395 0.987366 0 -0.000699162 0.00247717
45 1 0.263848 0.503015 0.916463 0 -0.000214577 0.00061667
46 1 0.679832 0.667076 0.347471 0 -0.000905752 -0.000800133
47 1 0.638335 0.499723 0.489716 0 -0.00119686 -0.00167406
48 1 0.388335 0.666944 0.489716 0 0.00119627 -0.00167418
49 1 0.346852 0.499727 0.631988 0 -0.00169802 -0.00107849
50 1 0.0968516 0.66694 0.631988 0 0.00169754 -0.00107884
51 1 0.055377 0.499729 0.774278 0 0.00238895 -0.00280082
52 1 0.117988 0.152714 0.987366 0 0.000699401 0.00247693
53 1 0.0138485 0.663652 0.916463 0 0.0002141 0.000617266
54 1 0.805377 0.666939 0.774278 0 -0.00238883 -0.00280106
55 1 0.763848 0.503015 0.916463 0 -0.000214338 0.000617027
56 1 0.513848 0.663652 0.916463 0 0.000213861 0.000617385
ITEM: TIMESTEP
5
ITEM: NUMBER OF ATOMS
56
ITEM: BOX BOUNDS xy xz yz pp pp pp
-6.1779971718788147e+00 1.2206987559795380e+01 -4.7683715820312500e-07
-7.5370073318481445e-03 5.5339480042457581e+00 -6.1561089754104614e+00
-3.2569408416748047e-02 1.9052529454231262e+01 2.8610229492187500e-06
ITEM: ATOMS id type xs ys zs fx fy fz
1 1 0.617034 1.0029 0.134014 0 0.000516057 0.00075531
2 1 0.367033 0.163763 0.134014 0 -0.000515699 0.000754833
3 1 0.325546 0.999942 0.27628 0 -0.000714898 3.18289e-05
4 1 0.0755458 0.166725 0.27628 0 0.00071454 3.14713e-05
5 1 0.0340491 -0.0004197 0.418526 0 -0.000284433 0.000247598
6 1 0.117034 1.0029 0.134014 0 0.000515938 0.00075531
7 1 0.012867 0.513961 0.0630581 0 -0.000217319 0.000957727
8 1 0.867033 0.163763 0.134014 0 -0.000515938 0.000754952
9 1 0.762867 0.652706 0.0630581 0 0.000217438 0.000958204
10 1 0.825546 0.999942 0.27628 0 -0.000714779 3.17097e-05
11 1 0.784049 0.167087 0.418526 0 0.00028348 0.000246882
12 1 0.742539 -0.000409853 0.560745 0 -0.000421524 0.00157785
13 1 0.492539 0.167077 0.560745 0 0.000421286 0.00157738
14 1 0.451039 -0.000353056 0.702983 0 0.00014627 -0.00175965
15 1 0.201039 0.16702 0.702983 0 -0.000146866 -0.00176001
16 1 0.159557 1.00045 0.845259 0 -0.000917673 0.000350237
17 1 0.721313 0.500447 0.205194 0 -0.000917077 -0.000351429
18 1 0.575546 0.166725 0.27628 0 0.000714421 3.15905e-05
19 1 0.471313 0.66622 0.205194 0 0.000917792 -0.000351429
20 1 0.534049 -0.000419719 0.418526 0 -0.000283957 0.000247598
21 1 0.429831 0.499647 0.34747 0 0.000146389 0.0017606
22 1 0.284049 0.167087 0.418526 0 0.000283837 0.000246644
23 1 0.179831 0.66702 0.34747 0 -0.000146508 0.00176024
24 1 0.242539 -0.000409866 0.560745 0 -0.000421405 0.0015775
25 1 0.138331 0.49959 0.489708 0 -0.000421286 -0.00157726
26 1 0.992539 0.167077 0.560745 0 0.000421524 0.0015775
27 1 0.888331 0.667077 0.489708 0 0.000421762 -0.00157762
28 1 0.512867 0.513961 0.0630581 0 -0.000216722 0.000957727
29 1 0.262867 0.652706 0.0630581 0 0.00021708 0.000957489
30 1 0.221313 0.500447 0.205194 0 -0.000917435 -0.000351071
31 1 0.971313 0.66622 0.205194 0 0.000917435 -0.000351429
32 1 0.929831 0.499647 0.34747 0 0.000146866 0.0017606
33 1 0.909557 0.16622 0.845259 0 0.000917554 0.000350714
34 1 0.868003 1.01396 0.987395 0 -0.000217557 -0.000957251
35 1 0.618003 0.152706 0.987395 0 0.000217199 -0.00095737
36 1 0.951039 -0.000353052 0.702983 0 0.00014627 -0.00176013
37 1 0.846821 0.49958 0.631927 0 -0.00028348 -0.000247121
38 1 0.701039 0.16702 0.702983 0 -0.000146747 -0.0017606
39 1 0.596821 0.667087 0.631927 0 0.000283837 -0.000247121
40 1 0.659557 1.00045 0.845259 0 -0.000917673 0.000350356
41 1 0.555324 0.499942 0.774173 0 -0.000714183 -3.19481e-05
42 1 0.409557 0.16622 0.845259 0 0.000917315 0.000350952
43 1 0.305324 0.666725 0.774173 0 0.000715256 -3.18289e-05
44 1 0.368003 1.01396 0.987395 0 -0.000218153 -0.000957608
45 1 0.263837 0.502904 0.916439 0 0.000516176 -0.000754833
46 1 0.679831 0.66702 0.34747 0 -0.000146389 0.00176048
47 1 0.638331 0.49959 0.489708 0 -0.000421286 -0.00157726
48 1 0.388331 0.667077 0.489708 0 0.000421762 -0.00157738
49 1 0.346821 0.49958 0.631927 0 -0.000283837 -0.000247121
50 1 0.096821 0.667087 0.631927 0 0.000283957 -0.00024724
51 1 0.0553242 0.499942 0.774173 0 -0.000714421 -3.17097e-05
52 1 0.118003 0.152706 0.987395 0 0.000217438 -0.00095737
53 1 0.0138365 0.663763 0.916439 0 -0.000516057 -0.00075531
54 1 0.805324 0.666725 0.774173 0 0.000714302 -3.17097e-05
55 1 0.763837 0.502904 0.916439 0 0.000515938 -0.000754952
56 1 0.513837 0.663763 0.916439 0 -0.000515819 -0.000755548
ITEM: TIMESTEP
6
ITEM: NUMBER OF ATOMS
56
ITEM: BOX BOUNDS xy xz yz pp pp pp
-6.1779971718788147e+00 1.2206987559795380e+01 -4.7683715820312500e-07
-7.5370073318481445e-03 5.5339480042457581e+00 -6.1561089754104614e+00
-3.2569408416748047e-02 1.9052529454231262e+01 2.8610229492187500e-06
ITEM: ATOMS id type xs ys zs fx fy fz
1 1 0.617042 1.00292 0.13403 0 6.97374e-05 -1.28746e-05
2 1 0.367042 0.163742 0.13403 0 -6.98566e-05 -1.29938e-05
3 1 0.325552 0.99992 0.276291 0 -0.000703454 0.000253677
4 1 0.0755516 0.166747 0.276291 0 0.00070405 0.000254154
5 1 0.0340545 -0.000452633 0.418537 0 0.000252366 0.000365853
6 1 0.117042 1.00292 0.13403 0 6.9499e-05 -1.27554e-05
7 1 0.0128742 0.513948 0.0630724 0 -1.20401e-05 0.000226855
8 1 0.867042 0.163742 0.13403 0 -6.98566e-05 -1.28746e-05
9 1 0.762874 0.652719 0.0630724 0 1.20401e-05 0.000226855
10 1 0.825552 0.99992 0.276291 0 -0.000703573 0.000253677
11 1 0.784054 0.16712 0.418537 0 -0.000252485 0.000366092
12 1 0.742554 -0.000449907 0.560774 0 -0.000289559 -0.000389934
13 1 0.492554 0.167117 0.560774 0 0.000289083 -0.000389338
14 1 0.451023 -0.00033818 0.702951 0 -0.000324965 -3.016e-05
15 1 0.201023 0.167005 0.702951 0 0.000325084 -2.95639e-05
16 1 0.159553 1.00037 0.845252 0 0.000222921 -0.000182629
17 1 0.721317 0.500369 0.205201 0 0.000222445 0.000183344
18 1 0.575552 0.166747 0.276291 0 0.00070405 0.000254273
19 1 0.471317 0.666298 0.205201 0 -0.000222564 0.000183463
20 1 0.534054 -0.000452624 0.418537 0 0.000252008 0.000365973
21 1 0.429847 0.499662 0.347502 0 -0.000325561 2.93255e-05
22 1 0.284054 0.16712 0.418537 0 -0.000252008 0.000366926
23 1 0.179847 0.667005 0.347502 0 0.000325441 2.95639e-05
24 1 0.242554 -0.000449914 0.560774 0 -0.000289559 -0.000389695
25 1 0.138316 0.49955 0.489679 0 -0.000289202 0.000389576
26 1 0.992554 0.167117 0.560774 0 0.000289321 -0.000389576
27 1 0.888316 0.667117 0.489679 0 0.00028944 0.000389695
28 1 0.512874 0.513948 0.0630724 0 -1.26362e-05 0.000226736
29 1 0.262874 0.652719 0.0630724 0 1.19209e-05 0.000227213
30 1 0.221317 0.500369 0.205201 0 0.000222921 0.000183225
31 1 0.971317 0.666298 0.205201 0 -0.000222802 0.000182986
32 1 0.929847 0.499662 0.347502 0 -0.000325561 2.95639e-05
33 1 0.909553 0.166298 0.845252 0 -0.000222683 -0.000182629
34 1 0.867996 1.01395 0.98738 0 -1.21593e-05 -0.000227451
35 1 0.617996 0.152719 0.98738 0 1.23978e-05 -0.000227094
36 1 0.951023 -0.000338179 0.702951 0 -0.000324726 -2.99215e-05
37 1 0.846816 0.499547 0.631916 0 0.000252008 -0.000366211
38 1 0.701023 0.167005 0.702951 0 0.000325322 -2.96831e-05
39 1 0.596816 0.66712 0.631916 0 -0.000252128 -0.00036633
40 1 0.659553 1.00037 0.845252 0 0.000222683 -0.000182748
41 1 0.555318 0.49992 0.774162 0 -0.00070405 -0.000253916
42 1 0.409553 0.166298 0.845252 0 -0.000222683 -0.000182629
43 1 0.305318 0.666747 0.774162 0 0.000703454 -0.000253677
44 1 0.367996 1.01395 0.98738 0 -1.16825e-05 -0.00022769
45 1 0.263828 0.502925 0.916423 0 6.9499e-05 1.29938e-05
46 1 0.679847 0.667005 0.347502 0 0.000325322 2.98023e-05
47 1 0.638316 0.49955 0.489679 0 -0.000289083 0.000389576
48 1 0.388316 0.667117 0.489679 0 0.00028944 0.000389338
49 1 0.346816 0.499547 0.631916 0 0.000252128 -0.00036633
50 1 0.0968156 0.66712 0.631916 0 -0.000252128 -0.00036633
51 1 0.0553185 0.49992 0.774162 0 -0.000704169 -0.000253797
52 1 0.117996 0.152719 0.98738 0 1.19209e-05 -0.000227571
53 1 0.0138284 0.663742 0.916423 0 -6.93798e-05 1.33514e-05
54 1 0.805318 0.666747 0.774162 0 0.000703931 -0.000253558
55 1 0.763828 0.502925 0.916423 0 6.97374e-05 1.29938e-05
56 1 0.513828 0.663742 0.916423 0 -6.96182e-05 1.28746e-05
ITEM: TIMESTEP
7
ITEM: NUMBER OF ATOMS
56
ITEM: BOX BOUNDS xy xz yz pp pp pp
-6.1779971718788147e+00 1.2206987559795380e+01 -4.7683715820312500e-07
-7.5370073318481445e-03 5.5339480042457581e+00 -6.1561089754104614e+00
-3.2569408416748047e-02 1.9052529454231262e+01 2.8610229492187500e-06
ITEM: ATOMS id type xs ys zs fx fy fz
1 1 0.617043 1.00293 0.134032 0 4.41074e-05 -1.09673e-05
2 1 0.367043 0.163733 0.134032 0 -4.43459e-05 -1.0848e-05
3 1 0.325556 0.999859 0.276299 0 9.14335e-05 0.000144482
4 1 0.0755556 0.166808 0.276299 0 -9.14335e-05 0.00014472
5 1 0.0340598 -0.000437862 0.418547 0 -0.000160575 -5.34058e-05
6 1 0.117043 1.00293 0.134032 0 4.47035e-05 -1.10865e-05
7 1 0.0128781 0.513945 0.0630802 0 -6.4373e-06 -0.000117064
8 1 0.867043 0.163733 0.134032 0 -4.45843e-05 -1.12057e-05
9 1 0.762878 0.652722 0.0630802 0 5.84126e-06 -0.000117064
10 1 0.825556 0.999859 0.276299 0 9.11951e-05 0.000144362
11 1 0.78406 0.167105 0.418547 0 0.000161171 -5.26905e-05
12 1 0.742552 -0.000480238 0.56077 0 5.55515e-05 -9.90629e-05
13 1 0.492552 0.167147 0.56077 0 -5.48363e-05 -9.9659e-05
14 1 0.45102 -0.000361933 0.702945 0 -0.000162005 -6.90222e-05
15 1 0.20102 0.167029 0.702945 0 0.00016129 -6.87838e-05
16 1 0.159551 1.00037 0.845247 0 -2.26498e-05 -0.000206351
17 1 0.721319 0.500373 0.205206 0 -2.19345e-05 0.00020659
18 1 0.575556 0.166808 0.276299 0 -9.19104e-05 0.000144243
19 1 0.471319 0.666294 0.205206 0 2.24113e-05 0.000205994
20 1 0.53406 -0.000437877 0.418547 0 -0.000160336 -5.31673e-05
21 1 0.42985 0.499638 0.347508 0 -0.000161052 6.87838e-05
22 1 0.28406 0.167105 0.418547 0 0.000160694 -5.3525e-05
23 1 0.17985 0.667029 0.347508 0 0.000161052 6.91414e-05
24 1 0.242552 -0.000480244 0.56077 0 5.56707e-05 -9.88245e-05
25 1 0.138318 0.49952 0.489683 0 5.47171e-05 9.97782e-05
26 1 0.992552 0.167147 0.56077 0 -5.49555e-05 -9.9659e-05
27 1 0.888318 0.667147 0.489683 0 -5.56707e-05 9.89437e-05
28 1 0.512878 0.513945 0.0630802 0 -5.24521e-06 -0.000116706
29 1 0.262878 0.652722 0.0630802 0 5.84126e-06 -0.000117064
30 1 0.221319 0.500374 0.205206 0 -2.22921e-05 0.000206351
31 1 0.971319 0.666294 0.205206 0 2.24113e-05 0.000206232
32 1 0.92985 0.499638 0.347508 0 -0.000161171 6.87838e-05
33 1 0.909551 0.166294 0.845247 0 2.24113e-05 -0.000206709
34 1 0.867992 1.01395 0.987373 0 -5.60284e-06 0.000117183
35 1 0.617992 0.152722 0.987373 0 5.84126e-06 0.000116944
36 1 0.95102 -0.000361914 0.702945 0 -0.000161886 -6.8903e-05
37 1 0.84681 0.499562 0.631906 0 -0.000160336 5.32866e-05
38 1 0.70102 0.167029 0.702945 0 0.00016129 -6.86646e-05
39 1 0.59681 0.667105 0.631906 0 0.000160456 5.32866e-05
40 1 0.659551 1.00037 0.845247 0 -2.24113e-05 -0.000206113
41 1 0.555314 0.499859 0.774154 0 9.16719e-05 -0.000144601
42 1 0.409551 0.166294 0.845247 0 2.25306e-05 -0.00020659
43 1 0.305314 0.666808 0.774154 0 -9.10759e-05 -0.000144482
44 1 0.367992 1.01395 0.987373 0 -6.19888e-06 0.00011766
45 1 0.263827 0.502934 0.916421 0 4.44651e-05 1.01328e-05
46 1 0.67985 0.667029 0.347508 0 0.000160933 6.90222e-05
47 1 0.638318 0.49952 0.489683 0 5.45979e-05 9.93013e-05
48 1 0.388318 0.667147 0.489683 0 -5.55515e-05 9.89437e-05
49 1 0.34681 0.499562 0.631906 0 -0.000160575 5.34058e-05
50 1 0.0968103 0.667105 0.631906 0 0.000160456 5.3525e-05
51 1 0.0553145 0.499859 0.774154 0 9.21488e-05 -0.000144482
52 1 0.117992 0.152722 0.987373 0 6.31809e-06 0.000118017
53 1 0.0138272 0.663733 0.916421 0 -4.48227e-05 1.04904e-05
54 1 0.805314 0.666808 0.774154 0 -9.14335e-05 -0.000144362
55 1 0.763827 0.502934 0.916421 0 4.42266e-05 1.06096e-05
56 1 0.513827 0.663733 0.916421 0 -4.41074e-05 1.0848e-05
ITEM: TIMESTEP
8
ITEM: NUMBER OF ATOMS
56
ITEM: BOX BOUNDS xy xz yz pp pp pp
-6.1779971718788147e+00 1.2206987559795380e+01 -4.7683715820312500e-07
-7.5370073318481445e-03 5.5339480042457581e+00 -6.1561089754104614e+00
-3.2569408416748047e-02 1.9052529454231262e+01 2.8610229492187500e-06
ITEM: ATOMS id type xs ys zs fx fy fz
1 1 0.617043 1.00294 0.134032 0 -3.98159e-05 0.000115871
2 1 0.367043 0.163728 0.134032 0 4.01735e-05 0.000115871
3 1 0.325558 0.999858 0.276304 0 4.86374e-05 -1.87159e-05
4 1 0.0755578 0.166809 0.276304 0 -4.8995e-05 -1.93119e-05
5 1 0.0340598 -0.000448819 0.418547 0 -8.4281e-05 1.43051e-05
6 1 0.117043 1.00294 0.134032 0 -4.02927e-05 0.000115991
7 1 0.0128772 0.513944 0.0630785 0 6.85453e-05 0.000101328
8 1 0.867043 0.163728 0.134032 0 4.02927e-05 0.000115871
9 1 0.762877 0.652723 0.0630785 0 -6.69956e-05 0.000101447
10 1 0.825558 0.999858 0.276304 0 4.88758e-05 -1.88351e-05
11 1 0.78406 0.167116 0.418547 0 8.39233e-05 1.37091e-05
12 1 0.742551 -0.0004797 0.560767 0 9.65595e-06 2.98023e-06
13 1 0.492551 0.167147 0.560767 0 -1.01328e-05 3.57628e-06
14 1 0.451019 -0.000377974 0.702942 0 2.34842e-05 -0.000103951
15 1 0.201019 0.167045 0.702942 0 -2.2769e-05 -0.000104427
16 1 0.159548 1.00037 0.845241 0 1.4782e-05 1.16825e-05
17 1 0.721322 0.500372 0.205211 0 1.38283e-05 -1.19209e-05
18 1 0.575558 0.166809 0.276304 0 -4.86374e-05 -1.87159e-05
19 1 0.471322 0.666295 0.205211 0 -1.45435e-05 -1.09673e-05
20 1 0.53406 -0.000448819 0.418547 0 -8.41618e-05 1.39475e-05
21 1 0.429851 0.499622 0.34751 0 2.34842e-05 0.000104189
22 1 0.28406 0.167116 0.418547 0 8.40425e-05 1.40667e-05
23 1 0.179851 0.667045 0.34751 0 -2.28882e-05 0.000104666
24 1 0.242551 -0.000479697 0.560767 0 9.65595e-06 2.38419e-06