ITEM: TIMESTEP
0
ITEM: NUMBER OF ATOMS
32
ITEM: BOX BOUNDS xy xz yz pp pp pp
2.3402176666958421e-03 7.1113322703458000e+00 7.1912348801249604e-01
-1.8700970345103249e-02 2.2101578970345098e+01 0.0000000000000000e+00
8.6472273715375633e-03 5.1738187726284668e+00 0.0000000000000000e+00
ITEM: ATOMS id type xs ys zs fx fy fz
1 1 0.981341 0.336531 0.593597 0 0.00247873 -9.15892e-06
2 1 0.48134 0.336531 0.593597 0 0.00248042 -9.08204e-06
3 1 0.236009 0.295047 0.0935968 0 -0.00190797 7.55104e-06
4 1 0.736009 0.295047 0.0935968 0 -0.00190445 8.56068e-06
5 1 0.217272 0.461534 0.593597 0 0.00202117 -9.76982e-06
6 1 0.717272 0.461534 0.593597 0 0.00201609 -9.14884e-06
7 1 0.971942 0.420048 0.0935968 0 -0.00218376 9.22301e-06
8 1 0.471941 0.420048 0.0935968 0 -0.00218623 9.09348e-06
9 1 0.953205 0.586531 0.593597 0 0.002113 -7.79173e-06
10 1 0.453205 0.586531 0.593597 0 0.00211304 -8.57641e-06
11 1 0.189138 0.711528 0.593597 0 0.00193334 -6.2397e-06
12 1 0.689138 0.711528 0.593597 0 0.0019286 -6.29729e-06
13 1 0.943807 0.670045 0.0935969 0 -0.00236375 6.13415e-06
14 1 0.207874 0.545047 0.0935968 0 -0.00218848 8.89291e-06
15 1 0.707874 0.545047 0.0935968 0 -0.00218327 9.58184e-06
16 1 0.443806 0.670045 0.0935969 0 -0.00236388 6.66399e-06
17 1 0.92507 0.836529 0.593597 0 0.0078409 -3.90587e-06
18 1 0.42507 0.836529 0.593597 0 0.0078411 -3.8192e-06
19 1 0.161002 0.961528 0.593597 0 -0.159809 -2.75069e-06
20 1 0.661002 0.961528 0.593597 0 -0.159817 -3.22525e-06
21 1 0.179738 0.795048 0.0935969 0 0.00108215 4.59191e-06
22 1 0.679738 0.795048 0.0935969 0 0.00108501 4.86115e-06
23 1 0.915672 0.920043 0.0935969 0 -0.307031 4.28215e-06
24 1 0.415671 0.920043 0.0935969 0 -0.307032 3.28999e-06
25 1 0.00947661 0.0865253 0.593597 0 0.307299 -2.00307e-06
26 1 0.509476 0.0865253 0.593597 0 0.3073 -3.33057e-07
27 1 0.264145 0.0450412 0.093597 0 0.159851 1.13252e-06
28 1 0.764145 0.0450411 0.0935969 0 0.159857 1.45674e-06
29 1 0.245408 0.211528 0.593597 0 -0.00124213 -4.17618e-06
30 1 0.745408 0.211528 0.593597 0 -0.00124564 -5.18995e-06
31 1 7.73904e-05 0.170044 0.0935969 0 -0.00789013 3.46319e-06
32 1 0.500077 0.170044 0.093597 0 -0.00789117 2.85105e-06
ITEM: TIMESTEP
7
ITEM: NUMBER OF ATOMS
32
ITEM: BOX BOUNDS xy xz yz pp pp pp
2.3402176666958421e-03 7.1113322703458000e+00 7.1912348801249604e-01
-1.8700970345103249e-02 2.2101578970345098e+01 0.0000000000000000e+00
8.6472273715375633e-03 5.1738187726284668e+00 0.0000000000000000e+00
ITEM: ATOMS id type xs ys zs fx fy fz
1 1 0.981189 0.337875 0.593597 0 0.000157275 6.90877e-07
2 1 0.481189 0.337875 0.593597 0 0.00015546 1.52224e-06
3 1 0.235833 0.296605 0.0935971 0 0.000435548 -1.2002e-06
4 1 0.735834 0.296605 0.0935971 0 0.000438532 -2.10097e-07
5 1 0.217247 0.461754 0.593597 0 0.000642665 5.71871e-07
6 1 0.717248 0.461754 0.593597 0 0.000643196 -5.63377e-08
7 1 0.971857 0.420799 0.0935971 0 0.000937892 -3.3587e-07
8 1 0.471856 0.420799 0.0935971 0 0.000938472 -1.32547e-06
9 1 0.95329 0.585775 0.593597 0 -0.000936565 -1.00576e-06
10 1 0.45329 0.585775 0.593597 0 -0.000936009 -5.05068e-07
11 1 0.189313 0.709969 0.593597 0 -0.000444752 2.14196e-07
12 1 0.689313 0.709969 0.593597 0 -0.000444216 -9.27794e-07
13 1 0.943958 0.668699 0.0935971 0 -0.000158135 7.47073e-07
14 1 0.207899 0.54482 0.0935971 0 -0.00064483 4.67807e-07
15 1 0.707899 0.54482 0.0935971 0 -0.000642431 9.31323e-08
16 1 0.443957 0.668699 0.0935971 0 -0.000160432 5.58963e-07
17 1 0.925269 0.834764 0.593597 0 -0.000663769 -1.31481e-06
18 1 0.425268 0.834764 0.593597 0 -0.000665723 -4.6166e-08
19 1 0.161089 0.960761 0.593597 0 0.0014245 1.46083e-07
20 1 0.661089 0.960761 0.593597 0 0.00142095 -3.81033e-07
21 1 0.180042 0.792347 0.0935971 0 0.00015331 1.8586e-07
22 1 0.680042 0.792347 0.093597 0 0.000150068 9.44115e-07
23 1 0.916238 0.915013 0.093597 0 0.000246594 7.57994e-07
24 1 0.416237 0.915013 0.0935971 0 0.000251396 -7.64667e-08
25 1 0.00890981 0.0915616 0.593597 0 -0.000258969 1.57722e-07
26 1 0.508909 0.0915616 0.593597 0 -0.000256785 2.4554e-07
27 1 0.264058 0.0458134 0.0935971 0 -0.00141901 -1.39483e-07
28 1 0.764058 0.0458135 0.0935971 0 -0.00141526 -6.45168e-08
29 1 0.245104 0.214228 0.593597 0 -0.000142601 2.50217e-07
30 1 0.745104 0.214228 0.593597 0 -0.000145746 3.6388e-08
31 1 -0.000121392 0.17181 0.0935971 0 0.000669865 -2.91075e-08
32 1 0.499878 0.17181 0.0935971 0 0.000669356 8.6693e-08
