ITEM: TIMESTEP
0
ITEM: NUMBER OF ATOMS
32
ITEM: BOX BOUNDS xy xz yz pp pp pp
-9.5987319946289062e-04 6.3977920413017273e+00 -0.0000000000000000e+00
-1.0525226593017578e-02 8.9878041148185730e+00 0.0000000000000000e+00
-5.8505058288574219e-02 2.0783891499042511e+01 3.4568477272987366e+00
ITEM: ATOMS id type xs ys zs fx fy fz
1 1 0.999986 0.629393 0.0597507 -1.54972e-06 0 0.0259062
2 1 0.499986 0.629393 0.0597507 1.78814e-06 0 0.0259062
3 1 0.249986 0.129393 0.0597507 3.57628e-07 0 0.0259087
4 1 0.749986 0.129393 0.0597507 -5.96046e-07 0 0.0259079
5 1 0.999986 0.47344 0.309751 1.19209e-07 0 -0.000133276
6 1 0.249986 0.38475 0.184751 -1.43051e-06 0 0.00389385
7 1 0.749986 0.38475 0.184751 4.76837e-07 0 0.00389278
8 1 0.499986 0.47344 0.309751 1.07288e-06 0 -0.000132442
9 1 0.999986 0.88475 0.184751 3.57628e-07 0 0.00389385
10 1 0.249986 0.97344 0.309751 -2.02656e-06 0 -0.000135183
11 1 0.499986 0.88475 0.184751 1.19209e-07 0 0.0038923
12 1 0.749986 0.97344 0.309751 1.54972e-06 0 -0.000134587
13 1 0.999986 0.317487 0.559751 -2.38419e-06 0 6.27041e-05
14 1 0.499986 0.317487 0.559751 2.5034e-06 0 6.28233e-05
15 1 0.249986 0.817487 0.559751 -7.15256e-07 0 6.30617e-05
16 1 0.749986 0.817487 0.559751 8.34465e-07 0 6.36578e-05
17 1 0.249986 0.228797 0.434751 4.76837e-07 0 -6.27041e-05
18 1 0.749986 0.228797 0.434751 -2.38419e-06 0 -6.29425e-05
19 1 0.999986 0.728797 0.434751 9.53674e-07 0 -6.25849e-05
20 1 0.499986 0.728797 0.434751 2.38419e-07 0 -6.22272e-05
21 1 0.999986 0.161533 0.809751 2.38419e-07 0 -0.00389397
22 1 0.249986 0.0728434 0.684751 2.38419e-07 0 0.000134349
23 1 0.499986 0.161533 0.809751 -9.53674e-07 0 -0.00389349
24 1 0.749986 0.0728434 0.684751 3.57628e-07 0 0.000132322
25 1 0.999986 0.572843 0.684751 -7.15256e-07 0 0.000133991
26 1 0.249986 0.661533 0.809751 0 0 -0.00389326
27 1 0.749986 0.661533 0.809751 5.96046e-07 0 -0.00389397
28 1 0.499986 0.572843 0.684751 3.57628e-07 0 0.000133157
29 1 0.249986 0.91689 0.934751 -5.96046e-07 0 -0.0259078
30 1 0.749986 0.91689 0.934751 7.15256e-07 0 -0.0259044
31 1 0.999986 0.41689 0.934751 -4.76837e-07 0 -0.025907
32 1 0.499986 0.41689 0.934751 4.76837e-07 0 -0.025908
ITEM: TIMESTEP
1
ITEM: NUMBER OF ATOMS
32
ITEM: BOX BOUNDS xy xz yz pp pp pp
-9.5987319946289062e-04 6.3977920413017273e+00 -0.0000000000000000e+00
-1.0525226593017578e-02 8.9878041148185730e+00 0.0000000000000000e+00
-5.8505058288574219e-02 2.0783891499042511e+01 3.4568477272987366e+00
ITEM: ATOMS id type xs ys zs fx fy fz
1 1 0.999986 0.629171 0.0601067 2.38419e-07 0 -0.00220156
2 1 0.499986 0.629171 0.0601067 -1.19209e-07 0 -0.00220156
3 1 0.249986 0.129171 0.0601068 -2.38419e-07 0 -0.00220108
4 1 0.749986 0.129171 0.0601068 -2.38419e-07 0 -0.0022012
5 1 0.999986 0.473441 0.309749 3.57628e-07 0 0.0017755
6 1 0.249986 0.384717 0.184804 2.38419e-07 0 0.00931513
7 1 0.749986 0.384717 0.184804 0 0 0.00931501
8 1 0.499986 0.473441 0.309749 -5.96046e-07 0 0.00177491
9 1 0.999986 0.884716 0.184804 0 0 0.00931454
10 1 0.249986 0.973441 0.309749 7.15256e-07 0 0.00177395
11 1 0.499986 0.884716 0.184804 0 0 0.00931478
12 1 0.749986 0.973441 0.309749 -5.96046e-07 0 0.00177419
13 1 0.999986 0.317486 0.559752 8.34465e-07 0 8.82149e-06
14 1 0.499986 0.317486 0.559752 -1.07288e-06 0 9.05991e-06
15 1 0.249986 0.817486 0.559752 5.96046e-07 0 9.41753e-06
16 1 0.749986 0.817486 0.559752 -2.38419e-07 0 8.70228e-06
17 1 0.249986 0.228797 0.43475 -3.57628e-07 0 -8.82149e-06
18 1 0.749986 0.228797 0.43475 2.38419e-07 0 -9.05991e-06
19 1 0.999986 0.728797 0.43475 2.38419e-07 0 -8.70228e-06
20 1 0.499986 0.728797 0.43475 -2.38419e-07 0 -8.9407e-06
21 1 0.999986 0.161567 0.809697 -2.38419e-07 0 -0.00931478
22 1 0.249986 0.0728423 0.684753 0 0 -0.00177455
23 1 0.499986 0.161567 0.809697 -1.19209e-07 0 -0.00931501
24 1 0.749986 0.0728422 0.684753 -2.38419e-07 0 -0.00177491
25 1 0.999986 0.572842 0.684753 2.38419e-07 0 -0.00177467
26 1 0.249986 0.661567 0.809697 -1.19209e-07 0 -0.00931513
27 1 0.749986 0.661567 0.809697 -1.19209e-07 0 -0.00931466
28 1 0.499986 0.572842 0.684753 2.38419e-07 0 -0.00177467
29 1 0.249986 0.917112 0.934395 1.19209e-07 0 0.00220144
30 1 0.749986 0.917112 0.934395 1.19209e-07 0 0.00220156
31 1 0.999986 0.417112 0.934395 1.19209e-07 0 0.0022012
32 1 0.499986 0.417112 0.934395 2.38419e-07 0 0.00220108
ITEM: TIMESTEP
2
ITEM: NUMBER OF ATOMS
32
ITEM: BOX BOUNDS xy xz yz pp pp pp
-9.5987319946289062e-04 6.3977920413017273e+00 -0.0000000000000000e+00
-1.0525226593017578e-02 8.9878041148185730e+00 0.0000000000000000e+00
-5.8505058288574219e-02 2.0783891499042511e+01 3.4568477272987366e+00
ITEM: ATOMS id type xs ys zs fx fy fz
1 1 0.999986 0.629141 0.0601552 -1.19209e-07 0 -0.000824571
2 1 0.499986 0.629141 0.0601552 -8.34465e-07 0 -0.000824809
3 1 0.249986 0.129141 0.0601552 -2.38419e-07 0 -0.000825882
4 1 0.749986 0.129141 0.0601552 3.57628e-07 0 -0.000825167
5 1 0.999986 0.473417 0.309788 -4.76837e-07 0 0.0054332
6 1 0.249986 0.384578 0.185027 1.19209e-07 0 -0.000765681
7 1 0.749986 0.384578 0.185027 0 0 -0.000764966
8 1 0.499986 0.473417 0.309788 5.96046e-07 0 0.00543332
9 1 0.999986 0.884578 0.185027 1.19209e-07 0 -0.000765562
10 1 0.249986 0.973417 0.309788 0 0 0.00543451
11 1 0.499986 0.884578 0.185027 1.19209e-07 0 -0.000765443
12 1 0.749986 0.973417 0.309788 -1.19209e-07 0 0.00543427
13 1 0.999986 0.317486 0.559752 2.38419e-07 0 -0.00125062
14 1 0.499986 0.317486 0.559752 -2.38419e-07 0 -0.00125074
15 1 0.249986 0.817486 0.559752 -1.19209e-07 0 -0.00125039
16 1 0.749986 0.817486 0.559752 -1.19209e-07 0 -0.00125062
17 1 0.249986 0.228797 0.434749 -1.19209e-07 0 0.00125051
18 1 0.749986 0.228798 0.434749 5.96046e-07 0 0.00125062
19 1 0.999986 0.728798 0.434749 -4.76837e-07 0 0.00125039
20 1 0.499986 0.728798 0.434749 2.38419e-07 0 0.00125062
21 1 0.999986 0.161706 0.809475 -3.57628e-07 0 0.000765085
22 1 0.249986 0.0728667 0.684713 -7.15256e-07 0 -0.0054338
23 1 0.499986 0.161705 0.809475 7.15256e-07 0 0.000765562
24 1 0.749986 0.0728666 0.684713 2.38419e-07 0 -0.00543296
25 1 0.999986 0.572867 0.684713 3.57628e-07 0 -0.0054338
26 1 0.249986 0.661706 0.809475 2.38419e-07 0 0.000765443
27 1 0.749986 0.661706 0.809475 -2.38419e-07 0 0.000765443
28 1 0.499986 0.572867 0.684713 -2.38419e-07 0 -0.0054338
29 1 0.249986 0.917142 0.934346 4.76837e-07 0 0.000825047
30 1 0.749986 0.917143 0.934346 0 0 0.000824332
31 1 0.999986 0.417142 0.934346 3.57628e-07 0 0.000825047
32 1 0.499986 0.417142 0.934346 -3.57628e-07 0 0.000825405
ITEM: TIMESTEP
3
ITEM: NUMBER OF ATOMS
32
ITEM: BOX BOUNDS xy xz yz pp pp pp
-9.5987319946289062e-04 6.3977920413017273e+00 -0.0000000000000000e+00
-1.0525226593017578e-02 8.9878041148185730e+00 0.0000000000000000e+00
-5.8505058288574219e-02 2.0783891499042511e+01 3.4568477272987366e+00
ITEM: ATOMS id type xs ys zs fx fy fz
1 1 0.999986 0.629144 0.0601505 -3.57628e-07 0 0.00105727
2 1 0.499986 0.629144 0.0601505 5.96046e-07 0 0.00105762
3 1 0.249986 0.129144 0.0601505 1.19209e-07 0 0.00105679
4 1 0.749986 0.129144 0.0601505 -1.19209e-07 0 0.00105691
5 1 0.999986 0.473322 0.309939 0 0 -0.000487447
6 1 0.249986 0.384543 0.185082 2.38419e-07 0 -1.78814e-06
7 1 0.749986 0.384543 0.185082 -1.19209e-07 0 -2.02656e-06
8 1 0.499986 0.473322 0.309939 -9.53674e-07 0 -0.000487208
9 1 0.999986 0.884543 0.185082 2.38419e-07 0 -2.02656e-06
10 1 0.249986 0.973322 0.309939 0 0 -0.000487208
11 1 0.499986 0.884543 0.185082 -2.38419e-07 0 -2.38419e-06
12 1 0.749986 0.973322 0.309939 5.96046e-07 0 -0.000487208
13 1 0.999986 0.317506 0.55972 -4.76837e-07 0 -0.00250685
14 1 0.499986 0.317506 0.55972 5.96046e-07 0 -0.00250649
15 1 0.249986 0.817506 0.55972 -2.38419e-07 0 -0.00250733
16 1 0.749986 0.817506 0.55972 1.19209e-07 0 -0.00250685
17 1 0.249986 0.228778 0.434781 8.34465e-07 0 0.00250685
18 1 0.749986 0.228778 0.434781 -2.38419e-07 0 0.00250721
19 1 0.999986 0.728778 0.434781 -3.57628e-07 0 0.00250697
20 1 0.499986 0.728778 0.434781 0 0 0.00250661
21 1 0.999986 0.16174 0.809419 7.15256e-07 0 2.26498e-06
22 1 0.249986 0.0729611 0.684562 2.38419e-07 0 0.000487447
23 1 0.499986 0.16174 0.809419 -8.34465e-07 0 2.02656e-06
24 1 0.749986 0.0729611 0.684562 0 0 0.000486732
25 1 0.999986 0.572961 0.684562 -5.96046e-07 0 0.000487208
26 1 0.249986 0.66174 0.809419 1.19209e-07 0 2.14577e-06
27 1 0.749986 0.66174 0.809419 -1.19209e-07 0 2.38419e-06
28 1 0.499986 0.572961 0.684562 3.57628e-07 0 0.000487566
29 1 0.249986 0.91714 0.934351 -1.19209e-07 0 -0.00105727
30 1 0.749986 0.91714 0.934351 0 0 -0.00105774
31 1 0.999986 0.417139 0.934351 -7.15256e-07 0 -0.00105703
32 1 0.499986 0.417139 0.934351 7.15256e-07 0 -0.00105715
ITEM: TIMESTEP
4
ITEM: NUMBER OF ATOMS
32
ITEM: BOX BOUNDS xy xz yz pp pp pp
-9.5987319946289062e-04 6.3977920413017273e+00 -0.0000000000000000e+00
-1.0525226593017578e-02 8.9878041148185730e+00 0.0000000000000000e+00
-5.8505058288574219e-02 2.0783891499042511e+01 3.4568477272987366e+00
ITEM: ATOMS id type xs ys zs fx fy fz
1 1 0.999986 0.629135 0.0601637 -3.57628e-07 0 0.000166535
2 1 0.499986 0.629135 0.0601637 0 0 0.000166774
3 1 0.249986 0.129136 0.0601637 -2.38419e-07 0 0.000167131
4 1 0.749986 0.129135 0.0601637 -2.38419e-07 0 0.000166774
5 1 0.999986 0.473314 0.309952 1.19209e-07 0 -8.39233e-05
6 1 0.249986 0.384539 0.18509 0 0 0.000298023
7 1 0.749986 0.384539 0.18509 0 0 0.000298023
8 1 0.499986 0.473314 0.309952 -2.38419e-07 0 -8.38041e-05
9 1 0.999986 0.884538 0.185089 -1.19209e-07 0 0.000299215
10 1 0.249986 0.973314 0.309952 0 0 -8.41618e-05
11 1 0.499986 0.884538 0.185089 3.57628e-07 0 0.000299096
12 1 0.749986 0.973314 0.309952 1.19209e-07 0 -8.44002e-05
13 1 0.999986 0.317528 0.559684 -3.57628e-07 0 8.05855e-05
14 1 0.499986 0.317528 0.559684 4.76837e-07 0 8.05855e-05
15 1 0.249986 0.817529 0.559684 -1.19209e-07 0 7.99894e-05
16 1 0.749986 0.817528 0.559684 0 0 8.05855e-05
17 1 0.249986 0.228755 0.434818 4.76837e-07 0 -8.03471e-05
18 1 0.749986 0.228755 0.434818 -4.76837e-07 0 -8.03471e-05
19 1 0.999986 0.728755 0.434818 0 0 -8.03471e-05
20 1 0.499986 0.728755 0.434818 -1.19209e-07 0 -8.03471e-05
21 1 0.999986 0.161745 0.809412 -2.38419e-07 0 -0.000298142
22 1 0.249986 0.0729692 0.684549 7.15256e-07 0 8.35657e-05
23 1 0.499986 0.161745 0.809412 2.38419e-07 0 -0.0002985
24 1 0.749986 0.0729691 0.684549 -4.76837e-07 0 8.39233e-05
25 1 0.999986 0.572969 0.684549 -4.76837e-07 0 8.38041e-05
26 1 0.249986 0.661745 0.809412 0 0 -0.000298262
27 1 0.749986 0.661745 0.809412 2.38419e-07 0 -0.000298858
28 1 0.499986 0.572969 0.684549 0 0 8.39233e-05
29 1 0.249986 0.917148 0.934338 2.38419e-07 0 -0.000166893
30 1 0.749986 0.917148 0.934338 2.38419e-07 0 -0.000166416
31 1 0.999986 0.417148 0.934338 3.57628e-07 0 -0.000167131
32 1 0.499986 0.417148 0.934338 -1.19209e-07 0 -0.000166655
ITEM: TIMESTEP
5
ITEM: NUMBER OF ATOMS
32
ITEM: BOX BOUNDS xy xz yz pp pp pp
-9.5987319946289062e-04 6.3977920413017273e+00 -0.0000000000000000e+00
-1.0525226593017578e-02 8.9878041148185730e+00 0.0000000000000000e+00
-5.8505058288574219e-02 2.0783891499042511e+01 3.4568477272987366e+00
ITEM: ATOMS id type xs ys zs fx fy fz
1 1 0.999986 0.629133 0.0601673 4.76837e-07 0 1.46627e-05
2 1 0.499986 0.629133 0.0601673 2.38419e-07 0 1.4782e-05
3 1 0.249986 0.129133 0.0601673 0 0 1.51396e-05
4 1 0.749986 0.129133 0.0601673 2.38419e-07 0 1.4782e-05
5 1 0.999986 0.473315 0.309951 0 0 0.000129819
6 1 0.249986 0.384535 0.185096 -4.76837e-07 0 1.58548e-05
7 1 0.749986 0.384535 0.185096 3.57628e-07 0 1.62125e-05
8 1 0.499986 0.473315 0.309951 1.19209e-07 0 0.000129461
9 1 0.999986 0.884535 0.185096 0 0 1.5378e-05
10 1 0.249986 0.973315 0.309951 -1.19209e-07 0 0.000130057
11 1 0.499986 0.884535 0.185096 -2.38419e-07 0 1.57356e-05
12 1 0.749986 0.973315 0.309951 0 0 0.000129819
13 1 0.999986 0.317528 0.559684 8.34465e-07 0 4.50611e-05
14 1 0.499986 0.317528 0.559684 -4.76837e-07 0 4.49419e-05
15 1 0.249986 0.817528 0.559684 2.38419e-07 0 4.52995e-05
16 1 0.749986 0.817528 0.559684 -1.19209e-07 0 4.51803e-05
17 1 0.249986 0.228755 0.434817 -8.34465e-07 0 -4.50611e-05
18 1 0.749986 0.228755 0.434817 4.76837e-07 0 -4.52995e-05
19 1 0.999986 0.728755 0.434817 1.19209e-07 0 -4.54187e-05
20 1 0.499986 0.728755 0.434817 -2.38419e-07 0 -4.51803e-05
21 1 0.999986 0.161748 0.809406 3.57628e-07 0 -1.62125e-05
22 1 0.249986 0.0729683 0.68455 -5.96046e-07 0 -0.000129461
23 1 0.499986 0.161748 0.809406 -1.19209e-07 0 -1.5378e-05
24 1 0.749986 0.0729683 0.68455 2.38419e-07 0 -0.000129819
25 1 0.999986 0.572968 0.68455 8.34465e-07 0 -0.00012958
26 1 0.249986 0.661748 0.809406 -2.38419e-07 0 -1.57356e-05
27 1 0.749986 0.661749 0.809406 2.38419e-07 0 -1.5974e-05
28 1 0.499986 0.572968 0.68455 -4.76837e-07 0 -0.000129819
29 1 0.249986 0.91715 0.934334 -1.19209e-07 0 -1.49012e-05
30 1 0.749986 0.91715 0.934334 -3.57628e-07 0 -1.49012e-05
31 1 0.999986 0.41715 0.934334 -3.57628e-07 0 -1.43051e-05
32 1 0.499986 0.41715 0.934334 0 0 -1.51396e-05
ITEM: TIMESTEP
6
ITEM: NUMBER OF ATOMS
32
ITEM: BOX BOUNDS xy xz yz pp pp pp
-9.5987319946289062e-04 6.3977920413017273e+00 -0.0000000000000000e+00
-1.0525226593017578e-02 8.9878041148185730e+00 0.0000000000000000e+00
-5.8505058288574219e-02 2.0783891499042511e+01 3.4568477272987366e+00
ITEM: ATOMS id type xs ys zs fx fy fz
1 1 0.999986 0.629133 0.060168 -3.57628e-07 0 -1.58548e-05
2 1 0.499986 0.629133 0.060168 0 0 -1.62125e-05
3 1 0.249986 0.129133 0.060168 3.57628e-07 0 -1.5974e-05
4 1 0.749986 0.129133 0.0601681 -7.15256e-07 0 -1.54972e-05
5 1 0.999986 0.473314 0.309953 1.19209e-07 0 2.72989e-05
6 1 0.249986 0.384534 0.185097 3.57628e-07 0 2.52724e-05
7 1 0.749986 0.384534 0.185097 -3.57628e-07 0 2.5034e-05
8 1 0.499986 0.473314 0.309953 2.38419e-07 0 2.69413e-05
9 1 0.999986 0.884534 0.185097 -1.19209e-07 0 2.49147e-05
10 1 0.249986 0.973314 0.309953 1.19209e-07 0 2.69413e-05
11 1 0.499986 0.884534 0.185097 0 0 2.47955e-05
12 1 0.749986 0.973314 0.309953 -3.57628e-07 0 2.68221e-05
13 1 0.999986 0.317527 0.559685 -2.38419e-07 0 -7.58171e-05
14 1 0.499986 0.317527 0.559685 4.76837e-07 0 -7.62939e-05
15 1 0.249986 0.817528 0.559685 -2.38419e-07 0 -7.62939e-05
16 1 0.749986 0.817527 0.559685 0 0 -7.62939e-05
17 1 0.249986 0.228756 0.434816 1.19209e-07 0 7.59363e-05
18 1 0.749986 0.228756 0.434816 0 0 7.61747e-05
19 1 0.999986 0.728756 0.434816 -1.19209e-07 0 7.60555e-05
20 1 0.499986 0.728756 0.434816 0 0 7.60555e-05
21 1 0.999986 0.161749 0.809405 0 0 -2.5034e-05
22 1 0.249986 0.0729696 0.684548 5.96046e-07 0 -2.68221e-05
23 1 0.499986 0.161749 0.809405 0 0 -2.52724e-05
24 1 0.749986 0.0729696 0.684548 -1.19209e-07 0 -2.69413e-05
25 1 0.999986 0.57297 0.684548 -5.96046e-07 0 -2.72989e-05
26 1 0.249986 0.661749 0.809405 1.19209e-07 0 -2.563e-05
27 1 0.749986 0.661749 0.809405 -2.38419e-07 0 -2.46763e-05
28 1 0.499986 0.57297 0.684548 3.57628e-07 0 -2.67029e-05
29 1 0.249986 0.917151 0.934333 -2.38419e-07 0 1.64509e-05
30 1 0.749986 0.917151 0.934333 3.57628e-07 0 1.64509e-05
31 1 0.999986 0.41715 0.934333 1.19209e-07 0 1.57356e-05
32 1 0.499986 0.41715 0.934333 3.57628e-07 0 1.57356e-05
ITEM: TIMESTEP
7
ITEM: NUMBER OF ATOMS
32
ITEM: BOX BOUNDS xy xz yz pp pp pp
-9.5987319946289062e-04 6.3977920413017273e+00 -0.0000000000000000e+00
-1.0525226593017578e-02 8.9878041148185730e+00 0.0000000000000000e+00
-5.8505058288574219e-02 2.0783891499042511e+01 3.4568477272987366e+00
ITEM: ATOMS id type xs ys zs fx fy fz
1 1 0.999986 0.629133 0.060168 5.96046e-07 0 1.78814e-05
2 1 0.499986 0.629133 0.060168 -3.57628e-07 0 1.7643e-05
3 1 0.249986 0.129133 0.060168 -2.38419e-07 0 1.69277e-05
4 1 0.749986 0.129133 0.0601681 1.07288e-06 0 1.70469e-05
5 1 0.999986 0.473312 0.309955 1.19209e-07 0 -7.15256e-06
6 1 0.249986 0.384533 0.185098 -1.19209e-07 0 6.55651e-06
7 1 0.749986 0.384533 0.185098 1.19209e-07 0 6.19888e-06
8 1 0.499986 0.473313 0.309955 -1.19209e-07 0 -5.48363e-06
9 1 0.999986 0.884533 0.185098 0 0 6.91414e-06
10 1 0.249986 0.973313 0.309955 -4.76837e-07 0 -7.03335e-06
11 1 0.499986 0.884533 0.185098 -3.57628e-07 0 6.67572e-06
12 1 0.749986 0.973313 0.309955 5.96046e-07 0 -6.19888e-06
13 1 0.999986 0.317528 0.559684 -4.76837e-07 0 -2.74181e-06
14 1 0.499986 0.317528 0.559684 2.38419e-07 0 -1.90735e-06
15 1 0.249986 0.817528 0.559684 0 0 -2.26498e-06
16 1 0.749986 0.817528 0.559684 2.38419e-07 0 -2.6226e-06
17 1 0.249986 0.228755 0.434818 4.76837e-07 0 2.6226e-06
18 1 0.749986 0.228755 0.434818 -7.15256e-07 0 2.26498e-06
19 1 0.999986 0.728755 0.434818 -2.38419e-07 0 2.6226e-06
20 1 0.499986 0.728755 0.434818 4.76837e-07 0 2.26498e-06
21 1 0.999986 0.16175 0.809403 0 0 -5.72205e-06
22 1 0.249986 0.0729708 0.684546 0 0 5.84126e-06
23 1 0.499986 0.16175 0.809403 -1.19209e-07 0 -6.31809e-06
24 1 0.749986 0.0729708 0.684546 2.38419e-07 0 5.96046e-06
25 1 0.999986 0.572971 0.684546 1.19209e-07 0 6.67572e-06
26 1 0.249986 0.66175 0.809403 0 0 -5.60284e-06
27 1 0.749986 0.66175 0.809403 1.19209e-07 0 -6.4373e-06
28 1 0.499986 0.572971 0.684546 -2.38419e-07 0 6.07967e-06
29 1 0.249986 0.91715 0.934333 -2.38419e-07 0 -1.77622e-05
30 1 0.749986 0.917151 0.934333 -3.57628e-07 0 -1.8239e-05
31 1 0.999986 0.41715 0.934333 3.57628e-07 0 -1.7643e-05
32 1 0.499986 0.41715 0.934333 -7.15256e-07 0 -1.70469e-05
ITEM: TIMESTEP
8
ITEM: NUMBER OF ATOMS
32
ITEM: BOX BOUNDS xy xz yz pp pp pp
-9.5987319946289062e-04 6.3977920413017273e+00 -0.0000000000000000e+00
-1.0525226593017578e-02 8.9878041148185730e+00 0.0000000000000000e+00
-5.8505058288574219e-02 2.0783891499042511e+01 3.4568477272987366e+00
ITEM: ATOMS id type xs ys zs fx fy fz
1 1 0.999986 0.629133 0.0601683 2.38419e-07 0 -3.57628e-07
2 1 0.499986 0.629132 0.0601683 -1.19209e-07 0 -2.38419e-07
3 1 0.249986 0.129133 0.0601683 1.19209e-07 0 0
4 1 0.749986 0.129133 0.0601683 2.38419e-07 0 -3.57628e-07
5 1 0.999986 0.473312 0.309955 -1.19209e-07 0 2.26498e-06
6 1 0.249986 0.384533 0.185098 1.19209e-07 0 3.33786e-06
7 1 0.749986 0.384533 0.185098 -2.38419e-07 0 3.57628e-06
8 1 0.499986 0.473313 0.309955 -4.76837e-07 0 1.66893e-06
9 1 0.999986 0.884533 0.185098 2.38419e-07 0 3.45707e-06
10 1 0.249986 0.973313 0.309955 4.76837e-07 0 2.38419e-06
11 1 0.499986 0.884533 0.185098 0 0 3.8147e-06
12 1 0.749986 0.973313 0.309955 -2.38419e-07 0 2.38419e-06
13 1 0.999986 0.317528 0.559684 0 0 5.24521e-06
14 1 0.499986 0.317528 0.559684 -1.19209e-07 0 5.48363e-06
15 1 0.249986 0.817529 0.559684 2.38419e-07 0 5.72205e-06
16 1 0.749986 0.817528 0.559684 -1.19209e-07 0 6.07967e-06
17 1 0.249986 0.228755 0.434818 -1.19209e-07 0 -5.24521e-06
18 1 0.749986 0.228755 0.434818 4.76837e-07 0 -5.60284e-06
19 1 0.999986 0.728755 0.434818 1.19209e-07 0 -5.60284e-06
20 1 0.499986 0.728755 0.434818 -2.38419e-07 0 -5.96046e-06
21 1 0.999986 0.16175 0.809403 -2.38419e-07 0 -3.93391e-06
22 1 0.249986 0.0729708 0.684547 -1.19209e-07 0 -2.26498e-06
23 1 0.499986 0.16175 0.809403 0 0 -3.93391e-06
24 1 0.749986 0.0729708 0.684546 2.38419e-07 0 -1.78814e-06
25 1 0.999986 0.572971 0.684547 1.19209e-07 0 -2.38419e-06
26 1 0.249986 0.66175 0.809403 1.19209e-07 0 -3.69549e-06
27 1 0.749986 0.66175 0.809403 1.19209e-07 0 -3.8147e-06
28 1 0.499986 0.572971 0.684547 -1.19209e-07 0 -2.26498e-06
29 1 0.249986 0.917151 0.934333 -1.19209e-07 0 4.76837e-07
30 1 0.749986 0.917151 0.934333 0 0 7.15256e-07
31 1 0.999986 0.417151 0.934333 -5.96046e-07 0 3.57628e-07
32 1 0.499986 0.417151 0.934333 1.19209e-07 0 4.76837e-07
ITEM: TIMESTEP
9
ITEM: NUMBER OF ATOMS
32
ITEM: BOX BOUNDS xy xz yz pp pp pp
-9.5987319946289062e-04 6.3977920413017273e+00 -0.0000000000000000e+00
-1.0525226593017578e-02 8.9878041148185730e+00 0.0000000000000000e+00
-5.8505058288574219e-02 2.0783891499042511e+01 3.4568477272987366e+00
ITEM: ATOMS id type xs ys zs fx fy fz
1 1 0.999986 0.629133 0.0601683 -4.76837e-07 0 -1.43051e-06
2 1 0.499986 0.629132 0.0601683 5.96046e-07 0 -1.19209e-06
3 1 0.249986 0.129133 0.0601683 2.38419e-07 0 -1.3113e-06
4 1 0.749986 0.129133 0.0601683 -2.38419e-07 0 -9.53674e-07
5 1 0.999986 0.473312 0.309955 -1.19209e-07 0 8.34465e-07
6 1 0.249986 0.384533 0.185098 2.38419e-07 0 1.3113e-06
7 1 0.749986 0.384533 0.185098 -1.19209e-07 0 1.3113e-06
8 1 0.499986 0.473313 0.309955 0 0 3.57628e-07
9 1 0.999986 0.884533 0.185098 -4.76837e-07 0 1.43051e-06
10 1 0.249986 0.973313 0.309955 -4.76837e-07 0 8.34465e-07
11 1 0.499986 0.884533 0.185098 7.15256e-07 0 1.07288e-06
12 1 0.749986 0.973313 0.309955 3.57628e-07 0 5.96046e-07
13 1 0.999986 0.317528 0.559684 0 0 -7.15256e-07
14 1 0.499986 0.317528 0.559684 -5.96046e-07 0 -7.15256e-07
15 1 0.249986 0.817528 0.559684 -2.38419e-07 0 -7.15256e-07
16 1 0.749986 0.817528 0.559684 4.76837e-07 0 -7.15256e-07
17 1 0.249986 0.228755 0.434818 2.38419e-07 0 1.19209e-07
18 1 0.749986 0.228755 0.434818 -4.76837e-07 0 7.15256e-07
19 1 0.999986 0.728755 0.434818 4.76837e-07 0 1.19209e-07
20 1 0.499986 0.728755 0.434818 0 0 8.34465e-07
21 1 0.999986 0.16175 0.809403 0 0 -1.19209e-06
22 1 0.249986 0.0729708 0.684546 1.19209e-07 0 -7.15256e-07
23 1 0.499986 0.16175 0.809403 -1.19209e-07 0 -1.19209e-06
24 1 0.749986 0.0729708 0.684546 0 0 -4.76837e-07
25 1 0.999986 0.572971 0.684546 -1.19209e-07 0 -2.38419e-07
26 1 0.249986 0.66175 0.809403 0 0 -1.19209e-06
27 1 0.749986 0.66175 0.809403 0 0 -1.3113e-06
28 1 0.499986 0.572971 0.684546 3.57628e-07 0 -2.38419e-07
29 1 0.249986 0.917151 0.934333 0 0 1.3113e-06
30 1 0.749986 0.917151 0.934333 -1.19209e-07 0 1.19209e-06
31 1 0.999986 0.417151 0.934333 -2.38419e-07 0 1.07288e-06
32 1 0.499986 0.417151 0.934333 0 0 1.19209e-06
ITEM: TIMESTEP
10
ITEM: NUMBER OF ATOMS
32
ITEM: BOX BOUNDS xy xz yz pp pp pp
-9.5987319946289062e-04 6.3977920413017273e+00 -0.0000000000000000e+00
-1.0525226593017578e-02 8.9878041148185730e+00 0.0000000000000000e+00
-5.8505058288574219e-02 2.0783891499042511e+01 3.4568477272987366e+00
ITEM: ATOMS id type xs ys zs fx fy fz
1 1 0.999986 0.629133 0.0601683 0 0 9.53674e-07
2 1 0.499986 0.629132 0.0601683 -3.57628e-07 0 9.53674e-07
3 1 0.249986 0.129133 0.0601683 -1.19209e-07 0 1.19209e-07
4 1 0.749986 0.129133 0.0601683 -1.19209e-07 0 1.19209e-07
5 1 0.999986 0.473312 0.309955 0 0 4.76837e-07
6 1 0.249986 0.384533 0.185098 -1.19209e-07 0 2.38419e-07
7 1 0.749986 0.384533 0.185098 2.38419e-07 0 2.38419e-07
8 1 0.499986 0.473313 0.309955 1.19209e-07 0 4.76837e-07
9 1 0.999986 0.884533 0.185098 4.76837e-07 0 -3.57628e-07
10 1 0.249986 0.973313 0.309955 3.57628e-07 0 3.57628e-07
11 1 0.499986 0.884533 0.185098 -3.57628e-07 0 1.19209e-07
12 1 0.749986 0.973313 0.309955 -3.57628e-07 0 5.96046e-07
13 1 0.999986 0.317528 0.559684 -3.57628e-07 0 -2.38419e-07
14 1 0.499986 0.317528 0.559684 3.57628e-07 0 -4.76837e-07
15 1 0.249986 0.817528 0.559684 2.38419e-07 0 -4.76837e-07
16 1 0.749986 0.817528 0.559684 -3.57628e-07 0 -4.76837e-07
17 1 0.249986 0.228755 0.434818 -2.38419e-07 0 9.53674e-07
18 1 0.749986 0.228755 0.434818 5.96046e-07 0 1.19209e-07
19 1 0.999986 0.728755 0.434818 -4.76837e-07 0 8.34465e-07
20 1 0.499986 0.728755 0.434818 3.57628e-07 0 4.76837e-07
21 1 0.999986 0.16175 0.809403 1.19209e-07 0 -1.19209e-07
22 1 0.249986 0.0729708 0.684546 0 0 -4.76837e-07
23 1 0.499986 0.16175 0.809403 -1.19209e-07 0 0
24 1 0.749986 0.0729708 0.684546 -2.38419e-07 0 -8.34465e-07
25 1 0.999986 0.572971 0.684546 2.38419e-07 0 -9.53674e-07
26 1 0.249986 0.66175 0.809403 -1.19209e-07 0 2.38419e-07
27 1 0.749986 0.66175 0.809403 -1.19209e-07 0 4.76837e-07
28 1 0.499986 0.572971 0.684546 0 0 -5.96046e-07
29 1 0.249986 0.917151 0.934333 0 0 -8.34465e-07
30 1 0.749986 0.917151 0.934333 0 0 -1.3113e-06
31 1 0.999986 0.417151 0.934333 1.19209e-07 0 -2.38419e-07
32 1 0.499986 0.417151 0.934333 2.38419e-07 0 -3.57628e-07
