ITEM: TIMESTEP
0
ITEM: NUMBER OF ATOMS
32
ITEM: BOX BOUNDS xy xz yz pp pp pp
-4.0532350540161133e-03 6.4008854031562805e+00 0.0000000000000000e+00
-9.1640949249267578e-03 7.0502339601516724e+00 0.0000000000000000e+00
-4.7960281372070312e-02 2.0773346722126007e+01 1.5206387042999268e+00
ITEM: ATOMS id type xs ys zs fx fy fz
1 1 0.999986 0.649755 0.0597509 0 0 0.99947
2 1 0.499986 0.649755 0.0597509 0 0 0.99947
3 1 0.249986 0.149755 0.0597519 0 0 0.999292
4 1 0.749986 0.149755 0.0597519 0 0 0.999292
5 1 0.999986 0.581131 0.309753 0 0 0.000656128
6 1 0.249986 0.449791 0.184753 0 0 0.00261497
7 1 0.749986 0.449791 0.184753 0 0 0.00261497
8 1 0.499986 0.581131 0.309753 0 0 0.000656128
9 1 0.999986 0.94979 0.184753 0 0 0.00263023
10 1 0.249986 0.0811311 0.309753 0 0 0.000606537
11 1 0.499986 0.94979 0.184753 0 0 0.00263023
12 1 0.749986 0.0811311 0.309753 0 0 0.000606537
13 1 0.999986 0.512482 0.559749 0 0 6.48499e-05
14 1 0.499986 0.512482 0.559749 0 0 6.48499e-05
15 1 0.249986 0.0124805 0.55975 0 0 5.34058e-05
16 1 0.749986 0.0124805 0.55975 0 0 5.34058e-05
17 1 0.249986 0.381156 0.434752 0 0 -6.48499e-05
18 1 0.749986 0.381156 0.434752 0 0 -6.48499e-05
19 1 0.999986 0.881155 0.434752 0 0 -4.19617e-05
20 1 0.499986 0.881155 0.434752 0 0 -4.19617e-05
21 1 0.999986 0.443837 0.809748 0 0 -0.0026207
22 1 0.249986 0.312502 0.684748 0 0 -0.000637054
23 1 0.499986 0.443837 0.809748 0 0 -0.0026207
24 1 0.749986 0.312502 0.684748 0 0 -0.000637054
25 1 0.999986 0.812502 0.684749 0 0 -0.000656128
26 1 0.249986 0.943838 0.809748 0 0 -0.00261307
27 1 0.749986 0.943838 0.809748 0 0 -0.00261307
28 1 0.499986 0.812502 0.684749 0 0 -0.000656128
29 1 0.249986 0.24387 0.934749 0 0 -0.999294
30 1 0.749986 0.24387 0.934749 0 0 -0.999294
31 1 0.999986 0.743871 0.93475 0 0 -0.99946
32 1 0.499986 0.743871 0.93475 0 0 -0.99946
ITEM: TIMESTEP
1
ITEM: NUMBER OF ATOMS
32
ITEM: BOX BOUNDS xy xz yz pp pp pp
-4.0532350540161133e-03 6.4008854031562805e+00 0.0000000000000000e+00
-9.1640949249267578e-03 7.0502339601516724e+00 0.0000000000000000e+00
-4.7960281372070312e-02 2.0773346722126007e+01 1.5206387042999268e+00
ITEM: ATOMS id type xs ys zs fx fy fz
1 1 0.999986 0.648436 0.0645537 0 0 0.204088
2 1 0.499986 0.648436 0.0645537 0 0 0.204088
3 1 0.249986 0.148436 0.0645539 0 0 0.204077
4 1 0.749986 0.148436 0.0645539 0 0 0.204077
5 1 0.999986 0.58113 0.309756 0 0 0.00823784
6 1 0.249986 0.449788 0.184766 0 0 0.148266
7 1 0.749986 0.449788 0.184766 0 0 0.148266
8 1 0.499986 0.58113 0.309756 0 0 0.00823784
9 1 0.999986 0.949786 0.184766 0 0 0.148275
10 1 0.249986 0.0811303 0.309756 0 0 0.00821304
11 1 0.499986 0.949786 0.184766 0 0 0.148275
12 1 0.749986 0.0811303 0.309756 0 0 0.00821304
13 1 0.999986 0.512482 0.55975 0 0 0.000429153
14 1 0.499986 0.512482 0.55975 0 0 0.000429153
15 1 0.249986 0.0124804 0.55975 0 0 0.000413895
16 1 0.749986 0.0124804 0.55975 0 0 0.000413895
17 1 0.249986 0.381156 0.434752 0 0 -0.000431061
18 1 0.749986 0.381156 0.434752 0 0 -0.000431061
19 1 0.999986 0.881155 0.434752 0 0 -0.000411987
20 1 0.499986 0.881155 0.434752 0 0 -0.000411987
21 1 0.999986 0.443841 0.809736 0 0 -0.148277
22 1 0.249986 0.312503 0.684745 0 0 -0.00822258
23 1 0.499986 0.443841 0.809736 0 0 -0.148277
24 1 0.749986 0.312503 0.684745 0 0 -0.00822258
25 1 0.999986 0.812502 0.684746 0 0 -0.00823975
26 1 0.249986 0.943841 0.809735 0 0 -0.148266
27 1 0.749986 0.943841 0.809735 0 0 -0.148266
28 1 0.499986 0.812502 0.684746 0 0 -0.00823975
29 1 0.249986 0.245189 0.929947 0 0 -0.204065
30 1 0.749986 0.245189 0.929947 0 0 -0.204065
31 1 0.999986 0.745189 0.929947 0 0 -0.204086
32 1 0.499986 0.745189 0.929947 0 0 -0.204086
ITEM: TIMESTEP
2
ITEM: NUMBER OF ATOMS
32
ITEM: BOX BOUNDS xy xz yz pp pp pp
-4.0532350540161133e-03 6.4008854031562805e+00 0.0000000000000000e+00
-9.1640949249267578e-03 7.0502339601516724e+00 0.0000000000000000e+00
-4.7960281372070312e-02 2.0773346722126007e+01 1.5206387042999268e+00
ITEM: ATOMS id type xs ys zs fx fy fz
1 1 0.999986 0.64755 0.067781 0 0 -0.108408
2 1 0.499986 0.64755 0.067781 0 0 -0.108408
3 1 0.249986 0.14755 0.067781 0 0 -0.108383
4 1 0.749986 0.14755 0.067781 0 0 -0.108383
5 1 0.999986 0.581094 0.309886 0 0 0.0669117
6 1 0.249986 0.449144 0.18711 0 0 0.112993
7 1 0.749986 0.449144 0.18711 0 0 0.112993
8 1 0.499986 0.581094 0.309886 0 0 0.0669117
9 1 0.999986 0.949143 0.18711 0 0 0.11298
10 1 0.249986 0.0810947 0.309886 0 0 0.0669079
11 1 0.499986 0.949143 0.18711 0 0 0.11298
12 1 0.749986 0.0810947 0.309886 0 0 0.0669079
13 1 0.999986 0.51248 0.559756 0 0 -0.00658226
14 1 0.499986 0.51248 0.559756 0 0 -0.00658226
15 1 0.249986 0.0124786 0.559756 0 0 -0.0065918
16 1 0.749986 0.0124786 0.559756 0 0 -0.0065918
17 1 0.249986 0.381158 0.434745 0 0 0.00658226
18 1 0.749986 0.381158 0.434745 0 0 0.00658226
19 1 0.999986 0.881157 0.434745 0 0 0.00658417
20 1 0.499986 0.881157 0.434745 0 0 0.00658417
21 1 0.999986 0.444484 0.807391 0 0 -0.112972
22 1 0.249986 0.312538 0.684615 0 0 -0.0669098
23 1 0.499986 0.444484 0.807391 0 0 -0.112972
24 1 0.749986 0.312538 0.684615 0 0 -0.0669098
25 1 0.999986 0.812538 0.684615 0 0 -0.0669136
26 1 0.249986 0.944485 0.807391 0 0 -0.112991
27 1 0.749986 0.944485 0.807391 0 0 -0.112991
28 1 0.499986 0.812538 0.684615 0 0 -0.0669136
29 1 0.249986 0.246075 0.92672 0 0 0.108385
30 1 0.749986 0.246075 0.92672 0 0 0.108385
31 1 0.999986 0.746076 0.92672 0 0 0.108408
32 1 0.499986 0.746076 0.92672 0 0 0.108408
ITEM: TIMESTEP
3
ITEM: NUMBER OF ATOMS
32
ITEM: BOX BOUNDS xy xz yz pp pp pp
-4.0532350540161133e-03 6.4008854031562805e+00 0.0000000000000000e+00
-9.1640949249267578e-03 7.0502339601516724e+00 0.0000000000000000e+00
-4.7960281372070312e-02 2.0773346722126007e+01 1.5206387042999268e+00
ITEM: ATOMS id type xs ys zs fx fy fz
1 1 0.999986 0.64755 0.0677819 0 0 -0.0123577
2 1 0.499986 0.64755 0.0677819 0 0 -0.0123577
3 1 0.249986 0.14755 0.0677822 0 0 -0.0123672
4 1 0.749986 0.14755 0.0677822 0 0 -0.0123672
5 1 0.999986 0.580806 0.310934 0 0 0.0901031
6 1 0.249986 0.448371 0.189928 0 0 -0.0377102
7 1 0.749986 0.448371 0.189928 0 0 -0.0377102
8 1 0.499986 0.580806 0.310934 0 0 0.0901031
9 1 0.999986 0.948369 0.189928 0 0 -0.0377026
10 1 0.249986 0.0808072 0.310933 0 0 0.0901108
11 1 0.499986 0.948369 0.189928 0 0 -0.0377026
12 1 0.749986 0.0808072 0.310933 0 0 0.0901108
13 1 0.999986 0.512506 0.559663 0 0 -0.0285072
14 1 0.499986 0.512506 0.559663 0 0 -0.0285072
15 1 0.249986 0.0125043 0.559663 0 0 -0.0284958
16 1 0.749986 0.0125043 0.559663 0 0 -0.0284958
17 1 0.249986 0.381132 0.434838 0 0 0.0285072
18 1 0.749986 0.381132 0.434838 0 0 0.0285072
19 1 0.999986 0.881131 0.434839 0 0 0.0284958
20 1 0.499986 0.881131 0.434839 0 0 0.0284958
21 1 0.999986 0.445258 0.804573 0 0 0.0377064
22 1 0.249986 0.312826 0.683568 0 0 -0.0901127
23 1 0.499986 0.445258 0.804573 0 0 0.0377064
24 1 0.749986 0.312826 0.683568 0 0 -0.0901127
25 1 0.999986 0.812826 0.683568 0 0 -0.0901089
26 1 0.249986 0.945258 0.804573 0 0 0.0377083
27 1 0.749986 0.945258 0.804573 0 0 0.0377083
28 1 0.499986 0.812826 0.683568 0 0 -0.0901089
29 1 0.249986 0.246075 0.926719 0 0 0.0123672
30 1 0.749986 0.246075 0.926719 0 0 0.0123672
31 1 0.999986 0.746076 0.926719 0 0 0.0123634
32 1 0.499986 0.746076 0.926719 0 0 0.0123634
ITEM: TIMESTEP
4
ITEM: NUMBER OF ATOMS
32
ITEM: BOX BOUNDS xy xz yz pp pp pp
-4.0532350540161133e-03 6.4008854031562805e+00 0.0000000000000000e+00
-9.1640949249267578e-03 7.0502339601516724e+00 0.0000000000000000e+00
-4.7960281372070312e-02 2.0773346722126007e+01 1.5206387042999268e+00
ITEM: ATOMS id type xs ys zs fx fy fz
1 1 0.999986 0.647613 0.0675517 0 0 0.0208302
2 1 0.499986 0.647613 0.0675517 0 0 0.0208302
3 1 0.249986 0.147613 0.0675519 0 0 0.0208225
4 1 0.749986 0.147613 0.0675519 0 0 0.0208225
5 1 0.999986 0.580254 0.312944 0 0 -0.0077343
6 1 0.249986 0.44832 0.190113 0 0 0.00175095
7 1 0.749986 0.44832 0.190113 0 0 0.00175095
8 1 0.499986 0.580254 0.312944 0 0 -0.0077343
9 1 0.999986 0.948318 0.190113 0 0 0.00173378
10 1 0.249986 0.0802552 0.312944 0 0 -0.00772667
11 1 0.499986 0.948318 0.190113 0 0 0.00173378
12 1 0.749986 0.0802552 0.312944 0 0 -0.00772667
13 1 0.999986 0.51266 0.559102 0 0 -0.0339146
14 1 0.499986 0.51266 0.559102 0 0 -0.0339146
15 1 0.249986 0.0126583 0.559102 0 0 -0.0339146
16 1 0.749986 0.0126583 0.559102 0 0 -0.0339146
17 1 0.249986 0.380978 0.4354 0 0 0.0339088
18 1 0.749986 0.380978 0.4354 0 0 0.0339088
19 1 0.999986 0.880977 0.435399 0 0 0.033905
20 1 0.499986 0.880977 0.435399 0 0 0.033905
21 1 0.999986 0.445309 0.804388 0 0 -0.00175095
22 1 0.249986 0.313378 0.681557 0 0 0.00774384
23 1 0.499986 0.445309 0.804388 0 0 -0.00175095
24 1 0.749986 0.313378 0.681557 0 0 0.00774384
25 1 0.999986 0.813378 0.681557 0 0 0.00774574
26 1 0.249986 0.945309 0.804388 0 0 -0.00174713
27 1 0.749986 0.945309 0.804388 0 0 -0.00174713
28 1 0.499986 0.813378 0.681557 0 0 0.00774574
29 1 0.249986 0.246012 0.92695 0 0 -0.0208302
30 1 0.749986 0.246012 0.92695 0 0 -0.0208302
31 1 0.999986 0.746013 0.926949 0 0 -0.0208225
32 1 0.499986 0.746013 0.926949 0 0 -0.0208225
ITEM: TIMESTEP
5
ITEM: NUMBER OF ATOMS
32
ITEM: BOX BOUNDS xy xz yz pp pp pp
-4.0532350540161133e-03 6.4008854031562805e+00 0.0000000000000000e+00
-9.1640949249267578e-03 7.0502339601516724e+00 0.0000000000000000e+00
-4.7960281372070312e-02 2.0773346722126007e+01 1.5206387042999268e+00
ITEM: ATOMS id type xs ys zs fx fy fz
1 1 0.999986 0.647556 0.0677604 0 0 0.000797272
2 1 0.499986 0.647556 0.0677604 0 0 0.000797272
3 1 0.249986 0.147556 0.0677605 0 0 0.000795364
4 1 0.749986 0.147556 0.0677605 0 0 0.000795364
5 1 0.999986 0.580225 0.313052 0 0 -0.00166893
6 1 0.249986 0.44831 0.19015 0 0 0.00951004
7 1 0.749986 0.44831 0.19015 0 0 0.00951004
8 1 0.499986 0.580225 0.313052 0 0 -0.00166893
9 1 0.999986 0.948308 0.19015 0 0 0.00951004
10 1 0.249986 0.0802256 0.313052 0 0 -0.00167465
11 1 0.499986 0.948308 0.19015 0 0 0.00951004
12 1 0.749986 0.0802256 0.313052 0 0 -0.00167465
13 1 0.999986 0.512778 0.558672 0 0 -0.00131989
14 1 0.499986 0.512778 0.558672 0 0 -0.00131989
15 1 0.249986 0.0127763 0.558672 0 0 -0.0013237
16 1 0.749986 0.0127763 0.558672 0 0 -0.0013237
17 1 0.249986 0.38086 0.435829 0 0 0.00132179
18 1 0.749986 0.38086 0.435829 0 0 0.00132179
19 1 0.999986 0.88086 0.435829 0 0 0.00132179
20 1 0.499986 0.88086 0.435829 0 0 0.00132179
21 1 0.999986 0.445319 0.804351 0 0 -0.00951767
22 1 0.249986 0.313407 0.68145 0 0 0.00167274
23 1 0.499986 0.445319 0.804351 0 0 -0.00951767
24 1 0.749986 0.313407 0.68145 0 0 0.00167274
25 1 0.999986 0.813407 0.68145 0 0 0.00167274
26 1 0.249986 0.945319 0.804351 0 0 -0.00951004
27 1 0.749986 0.945319 0.804351 0 0 -0.00951004
28 1 0.499986 0.813407 0.68145 0 0 0.00167274
29 1 0.249986 0.246069 0.926741 0 0 -0.00079155
30 1 0.749986 0.246069 0.926741 0 0 -0.00079155
31 1 0.999986 0.74607 0.926741 0 0 -0.000795364
32 1 0.499986 0.74607 0.926741 0 0 -0.000795364
ITEM: TIMESTEP
6
ITEM: NUMBER OF ATOMS
32
ITEM: BOX BOUNDS xy xz yz pp pp pp
-4.0532350540161133e-03 6.4008854031562805e+00 0.0000000000000000e+00
-9.1640949249267578e-03 7.0502339601516724e+00 0.0000000000000000e+00
-4.7960281372070312e-02 2.0773346722126007e+01 1.5206387042999268e+00
ITEM: ATOMS id type xs ys zs fx fy fz
1 1 0.999986 0.647552 0.0677737 0 0 0.00385857
2 1 0.499986 0.647552 0.0677737 0 0 0.00385857
3 1 0.249986 0.147552 0.0677737 0 0 0.0038662
4 1 0.749986 0.147552 0.0677737 0 0 0.0038662
5 1 0.999986 0.580232 0.313026 0 0 0.00431442
6 1 0.249986 0.448269 0.190299 0 0 0.000555038
7 1 0.749986 0.448269 0.190299 0 0 0.000555038
8 1 0.499986 0.580232 0.313026 0 0 0.00431442
9 1 0.999986 0.948267 0.190299 0 0 0.000570297
10 1 0.249986 0.0802327 0.313026 0 0 0.00433159
11 1 0.499986 0.948267 0.190299 0 0 0.000570297
12 1 0.749986 0.0802327 0.313026 0 0 0.00433159
13 1 0.999986 0.512784 0.55865 0 0 0.000934601
14 1 0.499986 0.512784 0.55865 0 0 0.000934601
15 1 0.249986 0.0127825 0.55865 0 0 0.00094223
16 1 0.749986 0.0127825 0.55865 0 0 0.00094223
17 1 0.249986 0.380854 0.435852 0 0 -0.000936508
18 1 0.749986 0.380854 0.435852 0 0 -0.000936508
19 1 0.999986 0.880853 0.435851 0 0 -0.000940323
20 1 0.499986 0.880853 0.435851 0 0 -0.000940323
21 1 0.999986 0.44536 0.804202 0 0 -0.000553131
22 1 0.249986 0.3134 0.681475 0 0 -0.00432587
23 1 0.499986 0.44536 0.804202 0 0 -0.000553131
24 1 0.749986 0.3134 0.681475 0 0 -0.00432587
25 1 0.999986 0.8134 0.681475 0 0 -0.00432587
26 1 0.249986 0.94536 0.804202 0 0 -0.000556946
27 1 0.749986 0.94536 0.804202 0 0 -0.000556946
28 1 0.499986 0.8134 0.681475 0 0 -0.00432587
29 1 0.249986 0.246073 0.926728 0 0 -0.0038681
30 1 0.749986 0.246073 0.926728 0 0 -0.0038681
31 1 0.999986 0.746073 0.926728 0 0 -0.0038662
32 1 0.499986 0.746073 0.926728 0 0 -0.0038662
ITEM: TIMESTEP
7
ITEM: NUMBER OF ATOMS
32
ITEM: BOX BOUNDS xy xz yz pp pp pp
-4.0532350540161133e-03 6.4008854031562805e+00 0.0000000000000000e+00
-9.1640949249267578e-03 7.0502339601516724e+00 0.0000000000000000e+00
-4.7960281372070312e-02 2.0773346722126007e+01 1.5206387042999268e+00
ITEM: ATOMS id type xs ys zs fx fy fz
1 1 0.999986 0.647529 0.0678583 0 0 -0.00207138
2 1 0.499986 0.647529 0.0678583 0 0 -0.00207138
3 1 0.249986 0.147529 0.0678585 0 0 -0.00206566
4 1 0.749986 0.147529 0.0678585 0 0 -0.00206566
5 1 0.999986 0.580211 0.313101 0 0 0.00216675
6 1 0.249986 0.448246 0.190381 0 0 0.000291824
7 1 0.749986 0.448246 0.190381 0 0 0.000291824
8 1 0.499986 0.580211 0.313101 0 0 0.00216675
9 1 0.999986 0.948245 0.190381 0 0 0.000286102
10 1 0.249986 0.0802119 0.313102 0 0 0.00214386
11 1 0.499986 0.948245 0.190381 0 0 0.000286102
12 1 0.749986 0.0802119 0.313102 0 0 0.00214386
13 1 0.999986 0.512782 0.558658 0 0 -0.00180054
14 1 0.499986 0.512782 0.558658 0 0 -0.00180054
15 1 0.249986 0.0127801 0.558658 0 0 -0.00181961
16 1 0.749986 0.0127801 0.558658 0 0 -0.00181961
17 1 0.249986 0.380856 0.435843 0 0 0.00179863
18 1 0.749986 0.380856 0.435843 0 0 0.00179863
19 1 0.999986 0.880856 0.435843 0 0 0.0018177
20 1 0.499986 0.880856 0.435843 0 0 0.0018177
21 1 0.999986 0.445382 0.80412 0 0 -0.000293732
22 1 0.249986 0.313421 0.6814 0 0 -0.00215721
23 1 0.499986 0.445382 0.80412 0 0 -0.000293732
24 1 0.749986 0.313421 0.6814 0 0 -0.00215721
25 1 0.999986 0.813421 0.6814 0 0 -0.00214767
26 1 0.249986 0.945383 0.80412 0 0 -0.000301361
27 1 0.749986 0.945383 0.80412 0 0 -0.000301361
28 1 0.499986 0.813421 0.6814 0 0 -0.00214767
29 1 0.249986 0.246096 0.926643 0 0 0.00207901
30 1 0.749986 0.246096 0.926643 0 0 0.00207901
31 1 0.999986 0.746097 0.926643 0 0 0.00207329
32 1 0.499986 0.746097 0.926643 0 0 0.00207329
ITEM: TIMESTEP
8
ITEM: NUMBER OF ATOMS
32
ITEM: BOX BOUNDS xy xz yz pp pp pp
-4.0532350540161133e-03 6.4008854031562805e+00 0.0000000000000000e+00
-9.1640949249267578e-03 7.0502339601516724e+00 0.0000000000000000e+00
-4.7960281372070312e-02 2.0773346722126007e+01 1.5206387042999268e+00
ITEM: ATOMS id type xs ys zs fx fy fz
1 1 0.999986 0.647532 0.0678462 0 0 0.000391006
2 1 0.499986 0.647532 0.0678462 0 0 0.000391006
3 1 0.249986 0.147532 0.0678466 0 0 0.000402451
4 1 0.749986 0.147532 0.0678466 0 0 0.000402451
5 1 0.999986 0.580191 0.313176 0 0 -0.000232697
6 1 0.249986 0.448236 0.190418 0 0 -0.000181198
7 1 0.749986 0.448236 0.190418 0 0 -0.000181198
8 1 0.499986 0.580191 0.313176 0 0 -0.000232697
9 1 0.999986 0.948234 0.190418 0 0 -0.000185013
10 1 0.249986 0.0801917 0.313175 0 0 -0.000225067
11 1 0.499986 0.948234 0.190418 0 0 -0.000185013
12 1 0.749986 0.0801917 0.313175 0 0 -0.000225067
13 1 0.999986 0.512791 0.558623 0 0 -0.000801086
14 1 0.499986 0.512791 0.558623 0 0 -0.000801086
15 1 0.249986 0.0127898 0.558623 0 0 -0.00078392
16 1 0.749986 0.0127898 0.558623 0 0 -0.00078392
17 1 0.249986 0.380847 0.435878 0 0 0.000812531
18 1 0.749986 0.380847 0.435878 0 0 0.000812531
19 1 0.999986 0.880846 0.435878 0 0 0.000785828
20 1 0.499986 0.880846 0.435878 0 0 0.000785828
21 1 0.999986 0.445393 0.804083 0 0 0.000192642
22 1 0.249986 0.313441 0.681326 0 0 0.000228882
23 1 0.499986 0.445393 0.804083 0 0 0.000192642
24 1 0.749986 0.313441 0.681326 0 0 0.000228882
25 1 0.999986 0.813441 0.681326 0 0 0.000209808
26 1 0.249986 0.945393 0.804083 0 0 0.000196457
27 1 0.749986 0.945393 0.804083 0 0 0.000196457
28 1 0.499986 0.813441 0.681326 0 0 0.000209808
29 1 0.249986 0.246093 0.926655 0 0 -0.000404358
30 1 0.749986 0.246093 0.926655 0 0 -0.000404358
31 1 0.999986 0.746093 0.926655 0 0 -0.000406265
32 1 0.499986 0.746093 0.926655 0 0 -0.000406265
ITEM: TIMESTEP
9
ITEM: NUMBER OF ATOMS
32
ITEM: BOX BOUNDS xy xz yz pp pp pp
-4.0532350540161133e-03 6.4008854031562805e+00 0.0000000000000000e+00
-9.1640949249267578e-03 7.0502339601516724e+00 0.0000000000000000e+00
-4.7960281372070312e-02 2.0773346722126007e+01 1.5206387042999268e+00
ITEM: ATOMS id type xs ys zs fx fy fz
1 1 0.999986 0.647532 0.0678462 0 0 0.000391006
2 1 0.499986 0.647532 0.0678462 0 0 0.000391006
3 1 0.249986 0.147532 0.0678466 0 0 0.000402451
4 1 0.749986 0.147532 0.0678466 0 0 0.000402451
5 1 0.999986 0.580191 0.313176 0 0 -0.000232697
6 1 0.249986 0.448236 0.190418 0 0 -0.000181198
7 1 0.749986 0.448236 0.190418 0 0 -0.000181198
8 1 0.499986 0.580191 0.313176 0 0 -0.000232697
9 1 0.999986 0.948234 0.190418 0 0 -0.000185013
10 1 0.249986 0.0801917 0.313175 0 0 -0.000225067
11 1 0.499986 0.948234 0.190418 0 0 -0.000185013
12 1 0.749986 0.0801917 0.313175 0 0 -0.000225067
13 1 0.999986 0.512791 0.558623 0 0 -0.000801086
14 1 0.499986 0.512791 0.558623 0 0 -0.000801086
15 1 0.249986 0.0127898 0.558623 0 0 -0.00078392
16 1 0.749986 0.0127898 0.558623 0 0 -0.00078392
17 1 0.249986 0.380847 0.435878 0 0 0.000812531
18 1 0.749986 0.380847 0.435878 0 0 0.000812531
19 1 0.999986 0.880846 0.435878 0 0 0.000785828
20 1 0.499986 0.880846 0.435878 0 0 0.000785828
21 1 0.999986 0.445393 0.804083 0 0 0.000192642
22 1 0.249986 0.313441 0.681326 0 0 0.000228882
23 1 0.499986 0.445393 0.804083 0 0 0.000192642
24 1 0.749986 0.313441 0.681326 0 0 0.000228882
25 1 0.999986 0.813441 0.681326 0 0 0.000209808
26 1 0.249986 0.945393 0.804083 0 0 0.000196457
27 1 0.749986 0.945393 0.804083 0 0 0.000196457
28 1 0.499986 0.813441 0.681326 0 0 0.000209808
29 1 0.249986 0.246093 0.926655 0 0 -0.000404358
30 1 0.749986 0.246093 0.926655 0 0 -0.000404358
31 1 0.999986 0.746093 0.926655 0 0 -0.000406265
32 1 0.499986 0.746093 0.926655 0 0 -0.000406265
