ITEM: TIMESTEP
0
ITEM: NUMBER OF ATOMS
32
ITEM: BOX BOUNDS xy xz yz pp pp pp
-2.4071335792541504e-03 6.3992393016815186e+00 0.0000000000000000e+00
-9.1621279716491699e-03 7.0502314567565918e+00 0.0000000000000000e+00
5.4966151714324951e-02 2.0670420289039612e+01 1.5206381678581238e+00
ITEM: ATOMS id type xs ys zs fx fy fz
1 1 0.999986 0.649883 0.0597547 0 0 1.1175
2 1 0.499986 0.649883 0.0597547 0 0 1.1175
3 1 0.249986 0.149883 0.0597528 0 0 1.11782
4 1 0.749986 0.149883 0.0597528 0 0 1.11782
5 1 0.999986 0.581258 0.309759 0 0 0.0105877
6 1 0.249986 0.449662 0.184759 0 0 0.00227356
7 1 0.749986 0.449662 0.184759 0 0 0.00227356
8 1 0.499986 0.581258 0.309759 0 0 0.0105877
9 1 0.999986 0.949663 0.184758 0 0 0.00233841
10 1 0.249986 0.0812569 0.309758 0 0 0.0106525
11 1 0.499986 0.949663 0.184758 0 0 0.00233841
12 1 0.749986 0.0812569 0.309758 0 0 0.0106525
13 1 0.999986 0.512607 0.559748 0 0 0.000795364
14 1 0.499986 0.512607 0.559748 0 0 0.000795364
15 1 0.249986 0.0126075 0.559748 0 0 0.000787735
16 1 0.749986 0.0126075 0.559748 0 0 0.000787735
17 1 0.249986 0.38103 0.434754 0 0 -0.00079155
18 1 0.749986 0.38103 0.434754 0 0 -0.00079155
19 1 0.999986 0.88103 0.434754 0 0 -0.000806808
20 1 0.499986 0.88103 0.434754 0 0 -0.000806808
21 1 0.999986 0.443965 0.809743 0 0 -0.00232887
22 1 0.249986 0.312376 0.684743 0 0 -0.0106506
23 1 0.499986 0.443965 0.809743 0 0 -0.00232887
24 1 0.749986 0.312376 0.684743 0 0 -0.0106506
25 1 0.999986 0.812375 0.684742 0 0 -0.0105972
26 1 0.249986 0.943966 0.809742 0 0 -0.00229073
27 1 0.749986 0.943966 0.809742 0 0 -0.00229073
28 1 0.499986 0.812375 0.684742 0 0 -0.0105972
29 1 0.249986 0.243742 0.934748 0 0 -1.1178
30 1 0.749986 0.243742 0.934748 0 0 -1.1178
31 1 0.999986 0.743742 0.934746 0 0 -1.11749
32 1 0.499986 0.743742 0.934746 0 0 -1.11749
ITEM: TIMESTEP
1
ITEM: NUMBER OF ATOMS
32
ITEM: BOX BOUNDS xy xz yz pp pp pp
-2.4071335792541504e-03 6.3992393016815186e+00 0.0000000000000000e+00
-9.1621279716491699e-03 7.0502314567565918e+00 0.0000000000000000e+00
5.4966151714324951e-02 2.0670420289039612e+01 1.5206381678581238e+00
ITEM: ATOMS id type xs ys zs fx fy fz
1 1 0.999986 0.648551 0.064604 0 0 0.257151
2 1 0.499986 0.648551 0.064604 0 0 0.257151
3 1 0.249986 0.148552 0.0646035 0 0 0.257175
4 1 0.749986 0.148552 0.0646035 0 0 0.257175
5 1 0.999986 0.581245 0.309805 0 0 0.00860023
6 1 0.249986 0.449659 0.184769 0 0 0.171659
7 1 0.749986 0.449659 0.184769 0 0 0.171659
8 1 0.499986 0.581245 0.309805 0 0 0.00860023
9 1 0.999986 0.94966 0.184768 0 0 0.171721
10 1 0.249986 0.0812442 0.309804 0 0 0.00866318
11 1 0.499986 0.94966 0.184768 0 0 0.171721
12 1 0.749986 0.0812442 0.309804 0 0 0.00866318
13 1 0.999986 0.512606 0.559751 0 0 -0.00282478
14 1 0.499986 0.512606 0.559751 0 0 -0.00282478
15 1 0.249986 0.0126066 0.559751 0 0 -0.00282669
16 1 0.749986 0.0126066 0.559751 0 0 -0.00282669
17 1 0.249986 0.381031 0.434751 0 0 0.00282288
18 1 0.749986 0.381031 0.434751 0 0 0.00282288
19 1 0.999986 0.881031 0.434751 0 0 0.00281715
20 1 0.499986 0.881031 0.434751 0 0 0.00281715
21 1 0.999986 0.443968 0.809733 0 0 -0.171713
22 1 0.249986 0.312388 0.684697 0 0 -0.00866318
23 1 0.499986 0.443968 0.809733 0 0 -0.171713
24 1 0.749986 0.312388 0.684697 0 0 -0.00866318
25 1 0.999986 0.812388 0.684696 0 0 -0.00862312
26 1 0.249986 0.943968 0.809732 0 0 -0.171667
27 1 0.749986 0.943968 0.809732 0 0 -0.171667
28 1 0.499986 0.812388 0.684696 0 0 -0.00862312
29 1 0.249986 0.245074 0.929897 0 0 -0.257156
30 1 0.749986 0.245074 0.929897 0 0 -0.257156
31 1 0.999986 0.745073 0.929897 0 0 -0.257135
32 1 0.499986 0.745073 0.929897 0 0 -0.257135
ITEM: TIMESTEP
2
ITEM: NUMBER OF ATOMS
32
ITEM: BOX BOUNDS xy xz yz pp pp pp
-2.4071335792541504e-03 6.3992393016815186e+00 0.0000000000000000e+00
-9.1621279716491699e-03 7.0502314567565918e+00 0.0000000000000000e+00
5.4966151714324951e-02 2.0670420289039612e+01 1.5206381678581238e+00
ITEM: ATOMS id type xs ys zs fx fy fz
1 1 0.999986 0.647526 0.0683378 0 0 -0.117727
2 1 0.499986 0.647526 0.0683378 0 0 -0.117727
3 1 0.249986 0.147526 0.0683377 0 0 -0.117725
4 1 0.749986 0.147526 0.0683377 0 0 -0.117725
5 1 0.999986 0.581211 0.30993 0 0 0.0835915
6 1 0.249986 0.448975 0.187262 0 0 0.143919
7 1 0.749986 0.448975 0.187262 0 0 0.143919
8 1 0.499986 0.581211 0.30993 0 0 0.0835915
9 1 0.999986 0.948975 0.187261 0 0 0.143948
10 1 0.249986 0.0812097 0.30993 0 0 0.0835972
11 1 0.499986 0.948975 0.187261 0 0 0.143948
12 1 0.749986 0.0812097 0.30993 0 0 0.0835972
13 1 0.999986 0.512617 0.55971 0 0 -0.00483131
14 1 0.499986 0.512617 0.55971 0 0 -0.00483131
15 1 0.249986 0.0126179 0.55971 0 0 -0.00482178
16 1 0.749986 0.0126179 0.55971 0 0 -0.00482178
17 1 0.249986 0.381019 0.434792 0 0 0.00480461
18 1 0.749986 0.381019 0.434792 0 0 0.00480461
19 1 0.999986 0.88102 0.434792 0 0 0.00481606
20 1 0.499986 0.88102 0.434792 0 0 0.00481606
21 1 0.999986 0.444652 0.80724 0 0 -0.143927
22 1 0.249986 0.312423 0.684571 0 0 -0.0835953
23 1 0.499986 0.444652 0.80724 0 0 -0.143927
24 1 0.749986 0.312423 0.684571 0 0 -0.0835953
25 1 0.999986 0.812422 0.684571 0 0 -0.0835876
26 1 0.249986 0.944653 0.80724 0 0 -0.143925
27 1 0.749986 0.944653 0.80724 0 0 -0.143925
28 1 0.499986 0.812422 0.684571 0 0 -0.0835876
29 1 0.249986 0.246099 0.926163 0 0 0.117739
30 1 0.749986 0.246099 0.926163 0 0 0.117739
31 1 0.999986 0.746098 0.926163 0 0 0.117725
32 1 0.499986 0.746098 0.926163 0 0 0.117725
ITEM: TIMESTEP
3
ITEM: NUMBER OF ATOMS
32
ITEM: BOX BOUNDS xy xz yz pp pp pp
-2.4071335792541504e-03 6.3992393016815186e+00 0.0000000000000000e+00
-9.1621279716491699e-03 7.0502314567565918e+00 0.0000000000000000e+00
5.4966151714324951e-02 2.0670420289039612e+01 1.5206381678581238e+00
ITEM: ATOMS id type xs ys zs fx fy fz
1 1 0.999986 0.647499 0.0684372 0 0 -0.00257301
2 1 0.499986 0.647499 0.0684372 0 0 -0.00257301
3 1 0.249986 0.147499 0.0684373 0 0 -0.00258064
4 1 0.749986 0.147499 0.0684373 0 0 -0.00258064
5 1 0.999986 0.580869 0.311176 0 0 0.115208
6 1 0.249986 0.44809 0.190485 0 0 -0.0482979
7 1 0.749986 0.44809 0.190485 0 0 -0.0482979
8 1 0.499986 0.580869 0.311176 0 0 0.115208
9 1 0.999986 0.94809 0.190486 0 0 -0.0483322
10 1 0.249986 0.0808676 0.311176 0 0 0.115183
11 1 0.499986 0.94809 0.190486 0 0 -0.0483322
12 1 0.749986 0.0808676 0.311176 0 0 0.115183
13 1 0.999986 0.512641 0.559622 0 0 -0.0360813
14 1 0.499986 0.512641 0.559622 0 0 -0.0360813
15 1 0.249986 0.012642 0.559622 0 0 -0.0360756
16 1 0.749986 0.012642 0.559622 0 0 -0.0360756
17 1 0.249986 0.380995 0.434879 0 0 0.0360832
18 1 0.749986 0.380995 0.434879 0 0 0.0360832
19 1 0.999986 0.880996 0.43488 0 0 0.0360928
20 1 0.499986 0.880996 0.43488 0 0 0.0360928
21 1 0.999986 0.445537 0.804016 0 0 0.0483284
22 1 0.249986 0.312765 0.683326 0 0 -0.1152
23 1 0.499986 0.445537 0.804016 0 0 0.0483284
24 1 0.749986 0.312765 0.683326 0 0 -0.1152
25 1 0.999986 0.812764 0.683326 0 0 -0.115217
26 1 0.249986 0.945538 0.804016 0 0 0.0483131
27 1 0.749986 0.945538 0.804016 0 0 0.0483131
28 1 0.499986 0.812764 0.683326 0 0 -0.115217
29 1 0.249986 0.246126 0.926064 0 0 0.00258636
30 1 0.749986 0.246126 0.926064 0 0 0.00258636
31 1 0.999986 0.746125 0.926064 0 0 0.00256348
32 1 0.499986 0.746125 0.926064 0 0 0.00256348
ITEM: TIMESTEP
4
ITEM: NUMBER OF ATOMS
32
ITEM: BOX BOUNDS xy xz yz pp pp pp
-2.4071335792541504e-03 6.3992393016815186e+00 0.0000000000000000e+00
-9.1621279716491699e-03 7.0502314567565918e+00 0.0000000000000000e+00
5.4966151714324951e-02 2.0670420289039612e+01 1.5206381678581238e+00
ITEM: ATOMS id type xs ys zs fx fy fz
1 1 0.999986 0.6475 0.0684332 0 0 0.0136032
2 1 0.499986 0.6475 0.0684332 0 0 0.0136032
3 1 0.249986 0.1475 0.0684332 0 0 0.0136032
4 1 0.749986 0.1475 0.0684332 0 0 0.0136032
5 1 0.999986 0.580241 0.313464 0 0 -0.0147991
6 1 0.249986 0.447973 0.190912 0 0 0.00357628
7 1 0.749986 0.447973 0.190912 0 0 0.00357628
8 1 0.499986 0.580241 0.313464 0 0 -0.0147991
9 1 0.999986 0.947973 0.190912 0 0 0.00355911
10 1 0.249986 0.0802395 0.313464 0 0 -0.0147972
11 1 0.499986 0.947973 0.190912 0 0 0.00355911
12 1 0.749986 0.0802395 0.313464 0 0 -0.0147972
13 1 0.999986 0.512807 0.559017 0 0 -0.0526199
14 1 0.499986 0.512807 0.559017 0 0 -0.0526199
15 1 0.249986 0.012808 0.559017 0 0 -0.0526295
16 1 0.749986 0.012808 0.559017 0 0 -0.0526295
17 1 0.249986 0.380829 0.435484 0 0 0.0526199
18 1 0.749986 0.380829 0.435484 0 0 0.0526199
19 1 0.999986 0.88083 0.435485 0 0 0.0526104
20 1 0.499986 0.88083 0.435485 0 0 0.0526104
21 1 0.999986 0.445654 0.80359 0 0 -0.00357246
22 1 0.249986 0.313393 0.681037 0 0 0.0148163
23 1 0.499986 0.445654 0.80359 0 0 -0.00357246
24 1 0.749986 0.313393 0.681037 0 0 0.0148163
25 1 0.999986 0.813392 0.681037 0 0 0.0148163
26 1 0.249986 0.945655 0.80359 0 0 -0.00358391
27 1 0.749986 0.945655 0.80359 0 0 -0.00358391
28 1 0.499986 0.813392 0.681037 0 0 0.0148163
29 1 0.249986 0.246125 0.926068 0 0 -0.0136051
30 1 0.749986 0.246125 0.926068 0 0 -0.0136051
31 1 0.999986 0.746124 0.926068 0 0 -0.0135975
32 1 0.499986 0.746124 0.926068 0 0 -0.0135975
ITEM: TIMESTEP
5
ITEM: NUMBER OF ATOMS
32
ITEM: BOX BOUNDS xy xz yz pp pp pp
-2.4071335792541504e-03 6.3992393016815186e+00 0.0000000000000000e+00
-9.1621279716491699e-03 7.0502314567565918e+00 0.0000000000000000e+00
5.4966151714324951e-02 2.0670420289039612e+01 1.5206381678581238e+00
ITEM: ATOMS id type xs ys zs fx fy fz
1 1 0.999986 0.647468 0.0685506 0 0 0.00446129
2 1 0.499986 0.647468 0.0685506 0 0 0.00446129
3 1 0.249986 0.147468 0.0685506 0 0 0.0044632
4 1 0.749986 0.147468 0.0685506 0 0 0.0044632
5 1 0.999986 0.580211 0.313572 0 0 -0.00200653
6 1 0.249986 0.447952 0.190987 0 0 0.00634003
7 1 0.749986 0.447952 0.190987 0 0 0.00634003
8 1 0.499986 0.580211 0.313572 0 0 -0.00200653
9 1 0.999986 0.947952 0.190987 0 0 0.00633621
10 1 0.249986 0.0802098 0.313572 0 0 -0.00201035
11 1 0.499986 0.947952 0.190987 0 0 0.00633621
12 1 0.749986 0.0802098 0.313572 0 0 -0.00201035
13 1 0.999986 0.51295 0.558499 0 0 -0.00209999
14 1 0.499986 0.51295 0.558499 0 0 -0.00209999
15 1 0.249986 0.0129503 0.558499 0 0 -0.00209999
16 1 0.749986 0.0129503 0.558499 0 0 -0.00209999
17 1 0.249986 0.380687 0.436002 0 0 0.0021019
18 1 0.749986 0.380687 0.436002 0 0 0.0021019
19 1 0.999986 0.880688 0.436003 0 0 0.00209999
20 1 0.499986 0.880688 0.436003 0 0 0.00209999
21 1 0.999986 0.445675 0.803515 0 0 -0.00634575
22 1 0.249986 0.313423 0.680929 0 0 0.00200653
23 1 0.499986 0.445675 0.803515 0 0 -0.00634575
24 1 0.749986 0.313423 0.680929 0 0 0.00200653
25 1 0.999986 0.813422 0.680929 0 0 0.00201225
26 1 0.249986 0.945675 0.803515 0 0 -0.00635147
27 1 0.749986 0.945675 0.803515 0 0 -0.00635147
28 1 0.499986 0.813422 0.680929 0 0 0.00201225
29 1 0.249986 0.246157 0.925951 0 0 -0.00445366
30 1 0.749986 0.246157 0.925951 0 0 -0.00445366
31 1 0.999986 0.746156 0.925951 0 0 -0.00445366
32 1 0.499986 0.746156 0.925951 0 0 -0.00445366
ITEM: TIMESTEP
6
ITEM: NUMBER OF ATOMS
32
ITEM: BOX BOUNDS xy xz yz pp pp pp
-2.4071335792541504e-03 6.3992393016815186e+00 0.0000000000000000e+00
-9.1621279716491699e-03 7.0502314567565918e+00 0.0000000000000000e+00
5.4966151714324951e-02 2.0670420289039612e+01 1.5206381678581238e+00
ITEM: ATOMS id type xs ys zs fx fy fz
1 1 0.999986 0.64745 0.068615 0 0 0.00115967
2 1 0.499986 0.64745 0.068615 0 0 0.00115967
3 1 0.249986 0.14745 0.068615 0 0 0.0011692
4 1 0.749986 0.14745 0.068615 0 0 0.0011692
5 1 0.999986 0.580219 0.313543 0 0 0.00432205
6 1 0.249986 0.447927 0.191078 0 0 0.00122261
7 1 0.749986 0.447927 0.191078 0 0 0.00122261
8 1 0.499986 0.580219 0.313543 0 0 0.00432205
9 1 0.999986 0.947927 0.191078 0 0 0.00122452
10 1 0.249986 0.0802177 0.313543 0 0 0.00432396
11 1 0.499986 0.947927 0.191078 0 0 0.00122452
12 1 0.749986 0.0802177 0.313543 0 0 0.00432396
13 1 0.999986 0.512958 0.558469 0 0 0.0020752
14 1 0.499986 0.512958 0.558469 0 0 0.0020752
15 1 0.249986 0.0129586 0.558469 0 0 0.00207329
16 1 0.749986 0.0129586 0.558469 0 0 0.00207329
17 1 0.249986 0.380679 0.436033 0 0 -0.00208855
18 1 0.749986 0.380679 0.436033 0 0 -0.00208855
19 1 0.999986 0.880679 0.436033 0 0 -0.00208473
20 1 0.499986 0.880679 0.436033 0 0 -0.00208473
21 1 0.999986 0.4457 0.803423 0 0 -0.00121689
22 1 0.249986 0.313415 0.680958 0 0 -0.00431633
23 1 0.499986 0.4457 0.803423 0 0 -0.00121689
24 1 0.749986 0.313415 0.680958 0 0 -0.00431633
25 1 0.999986 0.813414 0.680958 0 0 -0.00431633
26 1 0.249986 0.9457 0.803423 0 0 -0.00121117
27 1 0.749986 0.9457 0.803423 0 0 -0.00121117
28 1 0.499986 0.813414 0.680958 0 0 -0.00431633
29 1 0.249986 0.246175 0.925887 0 0 -0.0011692
30 1 0.749986 0.246175 0.925887 0 0 -0.0011692
31 1 0.999986 0.746174 0.925886 0 0 -0.0011673
32 1 0.499986 0.746174 0.925886 0 0 -0.0011673
ITEM: TIMESTEP
7
ITEM: NUMBER OF ATOMS
32
ITEM: BOX BOUNDS xy xz yz pp pp pp
-2.4071335792541504e-03 6.3992393016815186e+00 0.0000000000000000e+00
-9.1621279716491699e-03 7.0502314567565918e+00 0.0000000000000000e+00
5.4966151714324951e-02 2.0670420289039612e+01 1.5206381678581238e+00
ITEM: ATOMS id type xs ys zs fx fy fz
1 1 0.999986 0.647437 0.0686633 0 0 -0.0015831
2 1 0.499986 0.647437 0.0686633 0 0 -0.0015831
3 1 0.249986 0.147437 0.0686635 0 0 -0.00158882
4 1 0.749986 0.147437 0.0686635 0 0 -0.00158882
5 1 0.999986 0.580202 0.313603 0 0 0.00134277
6 1 0.249986 0.44791 0.19114 0 0 0.00075531
7 1 0.749986 0.44791 0.19114 0 0 0.00075531
8 1 0.499986 0.580202 0.313603 0 0 0.00134277
9 1 0.999986 0.94791 0.19114 0 0 0.000751495
10 1 0.249986 0.0802011 0.313604 0 0 0.00134468
11 1 0.499986 0.94791 0.19114 0 0 0.000751495
12 1 0.749986 0.0802011 0.313604 0 0 0.00134468
13 1 0.999986 0.512952 0.55849 0 0 -0.00236893
14 1 0.499986 0.512952 0.55849 0 0 -0.00236893
15 1 0.249986 0.0129527 0.558491 0 0 -0.0023632
16 1 0.749986 0.0129527 0.558491 0 0 -0.0023632
17 1 0.249986 0.380685 0.436011 0 0 0.00235748
18 1 0.749986 0.380685 0.436011 0 0 0.00235748
19 1 0.999986 0.880686 0.436011 0 0 0.0023632
20 1 0.499986 0.880686 0.436011 0 0 0.0023632
21 1 0.999986 0.445717 0.803362 0 0 -0.000732422
22 1 0.249986 0.313432 0.680898 0 0 -0.0013485
23 1 0.499986 0.445717 0.803362 0 0 -0.000732422
24 1 0.749986 0.313432 0.680898 0 0 -0.0013485
25 1 0.999986 0.813431 0.680898 0 0 -0.00135231
26 1 0.249986 0.945717 0.803362 0 0 -0.000732422
27 1 0.749986 0.945717 0.803362 0 0 -0.000732422
28 1 0.499986 0.813431 0.680898 0 0 -0.00135231
29 1 0.249986 0.246188 0.925838 0 0 0.0015831
30 1 0.749986 0.246188 0.925838 0 0 0.0015831
31 1 0.999986 0.746187 0.925838 0 0 0.00157166
32 1 0.499986 0.746187 0.925838 0 0 0.00157166
ITEM: TIMESTEP
8
ITEM: NUMBER OF ATOMS
32
ITEM: BOX BOUNDS xy xz yz pp pp pp
-2.4071335792541504e-03 6.3992393016815186e+00 0.0000000000000000e+00
-9.1621279716491699e-03 7.0502314567565918e+00 0.0000000000000000e+00
5.4966151714324951e-02 2.0670420289039612e+01 1.5206381678581238e+00
ITEM: ATOMS id type xs ys zs fx fy fz
1 1 0.999986 0.647439 0.0686555 0 0 0.000665665
2 1 0.499986 0.647439 0.0686555 0 0 0.000665665
3 1 0.249986 0.147439 0.0686557 0 0 0.000665665
4 1 0.749986 0.147439 0.0686557 0 0 0.000665665
5 1 0.999986 0.580188 0.313655 0 0 0.000242233
6 1 0.249986 0.447899 0.191181 0 0 -0.000589371
7 1 0.749986 0.447899 0.191181 0 0 -0.000589371
8 1 0.499986 0.580188 0.313655 0 0 0.000242233
9 1 0.999986 0.947899 0.19118 0 0 -0.000581741
10 1 0.249986 0.0801871 0.313655 0 0 0.000238419
11 1 0.499986 0.947899 0.19118 0 0 -0.000581741
12 1 0.749986 0.0801871 0.313655 0 0 0.000238419
13 1 0.999986 0.512961 0.558456 0 0 -0.00047493
14 1 0.499986 0.512961 0.558456 0 0 -0.00047493
15 1 0.249986 0.012962 0.558457 0 0 -0.00047493
16 1 0.749986 0.012962 0.558457 0 0 -0.00047493
17 1 0.249986 0.380675 0.436044 0 0 0.000484467
18 1 0.749986 0.380675 0.436044 0 0 0.000484467
19 1 0.999986 0.880676 0.436045 0 0 0.000471115
20 1 0.499986 0.880676 0.436045 0 0 0.000471115
21 1 0.999986 0.445728 0.803321 0 0 0.000566483
22 1 0.249986 0.313446 0.680847 0 0 -0.000234604
23 1 0.499986 0.445728 0.803321 0 0 0.000566483
24 1 0.749986 0.313446 0.680847 0 0 -0.000234604
25 1 0.999986 0.813445 0.680847 0 0 -0.000232697
26 1 0.249986 0.945728 0.803321 0 0 0.000556946
27 1 0.749986 0.945728 0.803321 0 0 0.000556946
28 1 0.499986 0.813445 0.680847 0 0 -0.000232697
29 1 0.249986 0.246186 0.925846 0 0 -0.00066185
30 1 0.749986 0.246186 0.925846 0 0 -0.00066185
31 1 0.999986 0.746185 0.925846 0 0 -0.000640869
32 1 0.499986 0.746185 0.925846 0 0 -0.000640869
ITEM: TIMESTEP
9
ITEM: NUMBER OF ATOMS
32
ITEM: BOX BOUNDS xy xz yz pp pp pp
-2.4071335792541504e-03 6.3992393016815186e+00 0.0000000000000000e+00
-9.1621279716491699e-03 7.0502314567565918e+00 0.0000000000000000e+00
5.4966151714324951e-02 2.0670420289039612e+01 1.5206381678581238e+00
ITEM: ATOMS id type xs ys zs fx fy fz
1 1 0.999986 0.647437 0.0686612 0 0 2.09808e-05
2 1 0.499986 0.647437 0.0686612 0 0 2.09808e-05
3 1 0.249986 0.147438 0.0686614 0 0 1.90735e-06
4 1 0.749986 0.147438 0.0686614 0 0 1.90735e-06
5 1 0.999986 0.580187 0.31366 0 0 -1.90735e-05
6 1 0.249986 0.4479 0.191177 0 0 -5.72205e-06
7 1 0.749986 0.4479 0.191177 0 0 -5.72205e-06
8 1 0.499986 0.580187 0.31366 0 0 -1.90735e-05
9 1 0.999986 0.9479 0.191177 0 0 0
10 1 0.249986 0.0801857 0.31366 0 0 -2.28882e-05
11 1 0.499986 0.9479 0.191177 0 0 0
12 1 0.749986 0.0801857 0.31366 0 0 -2.28882e-05
13 1 0.999986 0.512963 0.55845 0 0 -4.76837e-05
14 1 0.499986 0.512963 0.55845 0 0 -4.76837e-05
15 1 0.249986 0.0129636 0.558451 0 0 -4.57764e-05
16 1 0.749986 0.0129636 0.558451 0 0 -4.57764e-05
17 1 0.249986 0.380674 0.436051 0 0 5.34058e-05
18 1 0.749986 0.380674 0.436051 0 0 5.34058e-05
19 1 0.999986 0.880675 0.436051 0 0 5.91278e-05
20 1 0.499986 0.880675 0.436051 0 0 5.91278e-05
21 1 0.999986 0.445727 0.803324 0 0 -1.33514e-05
22 1 0.249986 0.313447 0.680842 0 0 2.47955e-05
23 1 0.499986 0.445727 0.803324 0 0 -1.33514e-05
24 1 0.749986 0.313447 0.680842 0 0 2.47955e-05
25 1 0.999986 0.813446 0.680842 0 0 1.33514e-05
26 1 0.249986 0.945728 0.803324 0 0 -1.90735e-06
27 1 0.749986 0.945728 0.803324 0 0 -1.90735e-06
28 1 0.499986 0.813446 0.680842 0 0 1.33514e-05
29 1 0.249986 0.246188 0.92584 0 0 -1.14441e-05
30 1 0.749986 0.246188 0.92584 0 0 -1.14441e-05
31 1 0.999986 0.746187 0.92584 0 0 -5.72205e-06
32 1 0.499986 0.746187 0.92584 0 0 -5.72205e-06
ITEM: TIMESTEP
10
ITEM: NUMBER OF ATOMS
32
ITEM: BOX BOUNDS xy xz yz pp pp pp
-2.4071335792541504e-03 6.3992393016815186e+00 0.0000000000000000e+00
-9.1621279716491699e-03 7.0502314567565918e+00 0.0000000000000000e+00
5.4966151714324951e-02 2.0670420289039612e+01 1.5206381678581238e+00
ITEM: ATOMS id type xs ys zs fx fy fz
1 1 0.999986 0.647437 0.0686612 0 0 2.09808e-05
2 1 0.499986 0.647437 0.0686612 0 0 2.09808e-05
3 1 0.249986 0.147438 0.0686614 0 0 1.90735e-06
4 1 0.749986 0.147438 0.0686614 0 0 1.90735e-06
5 1 0.999986 0.580187 0.31366 0 0 -1.90735e-05
6 1 0.249986 0.4479 0.191177 0 0 -5.72205e-06
7 1 0.749986 0.4479 0.191177 0 0 -5.72205e-06
8 1 0.499986 0.580187 0.31366 0 0 -1.90735e-05
9 1 0.999986 0.9479 0.191177 0 0 0
10 1 0.249986 0.0801857 0.31366 0 0 -2.28882e-05
11 1 0.499986 0.9479 0.191177 0 0 0
12 1 0.749986 0.0801857 0.31366 0 0 -2.28882e-05
13 1 0.999986 0.512963 0.55845 0 0 -4.76837e-05
14 1 0.499986 0.512963 0.55845 0 0 -4.76837e-05
15 1 0.249986 0.0129636 0.558451 0 0 -4.57764e-05
16 1 0.749986 0.0129636 0.558451 0 0 -4.57764e-05
17 1 0.249986 0.380674 0.436051 0 0 5.34058e-05
18 1 0.749986 0.380674 0.436051 0 0 5.34058e-05
19 1 0.999986 0.880675 0.436051 0 0 5.91278e-05
20 1 0.499986 0.880675 0.436051 0 0 5.91278e-05
21 1 0.999986 0.445727 0.803324 0 0 -1.33514e-05
22 1 0.249986 0.313447 0.680842 0 0 2.47955e-05
23 1 0.499986 0.445727 0.803324 0 0 -1.33514e-05
24 1 0.749986 0.313447 0.680842 0 0 2.47955e-05
25 1 0.999986 0.813446 0.680842 0 0 1.33514e-05
26 1 0.249986 0.945728 0.803324 0 0 -1.90735e-06
27 1 0.749986 0.945728 0.803324 0 0 -1.90735e-06
28 1 0.499986 0.813446 0.680842 0 0 1.33514e-05
29 1 0.249986 0.246188 0.92584 0 0 -1.14441e-05
30 1 0.749986 0.246188 0.92584 0 0 -1.14441e-05
31 1 0.999986 0.746187 0.92584 0 0 -5.72205e-06
32 1 0.499986 0.746187 0.92584 0 0 -5.72205e-06
