ITEM: TIMESTEP
0
ITEM: NUMBER OF ATOMS
32
ITEM: BOX BOUNDS xy xz yz pp pp pp
0.0000000000000000e+00 6.3945490121841431e+00 0.0000000000000000e+00
0.0000000000000000e+00 2.2082877993583679e+01 0.0000000000000000e+00
0.0000000000000000e+00 5.1824659705162048e+00 0.0000000000000000e+00
ITEM: ATOMS id type xs ys zs fx fy fz
1 1 0.0192136 0.336543 0.593597 1.90735e-06 -0.000127792 5.72205e-06
2 1 0.519214 0.336543 0.593597 1.90735e-06 -0.00012207 1.90735e-06
3 1 0.269214 0.295033 0.0935973 -1.90735e-06 0.000221252 -5.72205e-06
4 1 0.769214 0.295033 0.0935973 -1.90735e-06 0.000221252 0
5 1 0.269214 0.461543 0.593597 1.90735e-06 -2.47955e-05 3.8147e-06
6 1 0.769214 0.461543 0.593597 -3.8147e-06 -1.52588e-05 1.90735e-06
7 1 0.0192136 0.420037 0.0935973 7.62939e-06 8.7738e-05 -3.8147e-06
8 1 0.519214 0.420037 0.0935973 -1.90735e-06 8.58307e-05 -5.72205e-06
9 1 0.0192136 0.586543 0.593597 1.14441e-05 -0.000150681 3.8147e-06
10 1 0.519214 0.586543 0.593597 -1.14441e-05 -0.000148773 3.8147e-06
11 1 0.269214 0.711539 0.593597 -1.90735e-06 -9.91821e-05 1.90735e-06
12 1 0.769214 0.711539 0.593597 -1.90735e-06 -8.96454e-05 0
13 1 0.0192136 0.670042 0.0935972 9.53674e-06 -0.00018692 -1.90735e-06
14 1 0.269214 0.545043 0.0935972 0 -0.000137329 -3.8147e-06
15 1 0.769214 0.545043 0.0935972 -1.90735e-06 -0.00012207 0
16 1 0.519214 0.670042 0.0935972 -5.72205e-06 -0.000188828 -3.8147e-06
17 1 0.0192136 0.836533 0.593597 7.62939e-06 0.000143051 0
18 1 0.519214 0.836533 0.593597 -5.72205e-06 0.000144958 0
19 1 0.269214 0.961532 0.593597 0 0.000108719 0
20 1 0.769214 0.961532 0.593597 0 0.000106812 0
21 1 0.269214 0.795034 0.0935971 1.90735e-06 0.000185013 0
22 1 0.769214 0.795034 0.0935971 -3.8147e-06 0.000183105 0
23 1 0.0192136 0.920032 0.0935971 5.72205e-06 6.67572e-05 0
24 1 0.519214 0.920032 0.0935971 -5.72205e-06 6.10352e-05 0
25 1 0.0192136 0.0865378 0.593597 7.62939e-06 -0.000152588 0
26 1 0.519214 0.0865378 0.593597 -7.62939e-06 -0.000150681 0
27 1 0.269214 0.045031 0.093597 -3.8147e-06 8.01086e-05 0
28 1 0.769214 0.045031 0.093597 0 7.05719e-05 0
29 1 0.269214 0.211541 0.593597 0 -0.000183105 1.90735e-06
30 1 0.769214 0.211541 0.593597 -1.90735e-06 -0.000181198 0
31 1 0.0192136 0.170031 0.093597 7.62939e-06 0.00015831 0
32 1 0.519214 0.170031 0.093597 -3.8147e-06 0.000156403 0
ITEM: TIMESTEP
1
ITEM: NUMBER OF ATOMS
32
ITEM: BOX BOUNDS xy xz yz pp pp pp
3.1971931457519531e-04 6.3942292928695679e+00 0.0000000000000000e+00
1.1041164398193359e-03 2.2081773877143860e+01 0.0000000000000000e+00
2.5910139083862305e-04 5.1822068691253662e+00 0.0000000000000000e+00
ITEM: ATOMS id type xs ys zs fx fy fz
1 1 0.0192136 0.336543 0.593597 5.72205e-06 -0.000143051 3.8147e-06
2 1 0.519214 0.336543 0.593597 -3.8147e-06 -0.000141144 5.72205e-06
3 1 0.269214 0.295033 0.0935973 0 0.000228882 -5.72205e-06
4 1 0.769214 0.295033 0.0935973 -1.90735e-06 0.000225067 -1.90735e-06
5 1 0.269214 0.461543 0.593597 -3.8147e-06 -2.09808e-05 3.8147e-06
6 1 0.769214 0.461543 0.593597 0 -1.90735e-05 5.72205e-06
7 1 0.0192136 0.420037 0.0935973 3.8147e-06 7.62939e-05 -7.62939e-06
8 1 0.519214 0.420037 0.0935973 -3.8147e-06 8.01086e-05 -5.72205e-06
9 1 0.0192136 0.586543 0.593597 5.72205e-06 -0.000144958 1.90735e-06
10 1 0.519214 0.586543 0.593597 -1.90735e-06 -0.000143051 1.90735e-06
11 1 0.269214 0.711539 0.593597 0 -0.000125885 3.8147e-06
12 1 0.769214 0.711539 0.593597 0 -0.0001297 5.72205e-06
13 1 0.0192136 0.670042 0.0935972 5.72205e-06 -0.000162125 -7.62939e-06
14 1 0.269214 0.545043 0.0935972 0 -0.000133514 1.90735e-06
15 1 0.769214 0.545043 0.0935972 0 -0.000133514 1.90735e-06
16 1 0.519214 0.670042 0.0935972 -3.8147e-06 -0.000162125 -9.53674e-06
17 1 0.0192136 0.836533 0.593597 5.72205e-06 0.000127792 0
18 1 0.519214 0.836533 0.593597 -3.8147e-06 0.000125885 0
19 1 0.269214 0.961532 0.593597 0 0.000106812 0
20 1 0.769214 0.961532 0.593597 -3.8147e-06 0.000104904 0
21 1 0.269214 0.795034 0.0935971 -1.90735e-06 0.00019455 0
22 1 0.769214 0.795034 0.0935971 0 0.000204086 0
23 1 0.0192136 0.920032 0.0935971 9.53674e-06 7.62939e-05 0
24 1 0.519214 0.920032 0.0935971 -7.62939e-06 7.82013e-05 0
25 1 0.0192136 0.0865378 0.593597 9.53674e-06 -0.000150681 0
26 1 0.519214 0.0865378 0.593597 -3.8147e-06 -0.000150681 0
27 1 0.269214 0.045031 0.093597 -5.72205e-06 8.96454e-05 0
28 1 0.769214 0.045031 0.093597 -1.90735e-06 9.15527e-05 0
29 1 0.269214 0.211541 0.593597 0 -0.000185013 1.90735e-06
30 1 0.769214 0.211541 0.593597 0 -0.000175476 0
31 1 0.0192136 0.170031 0.093597 9.53674e-06 0.000152588 0
32 1 0.519214 0.170031 0.093597 -7.62939e-06 0.00015831 0
ITEM: TIMESTEP
2
ITEM: NUMBER OF ATOMS
32
ITEM: BOX BOUNDS xy xz yz pp pp pp
6.3943862915039062e-04 6.3939095735549927e+00 0.0000000000000000e+00
2.2082328796386719e-03 2.2080669760704041e+01 0.0000000000000000e+00
5.1820278167724609e-04 5.1819477677345276e+00 0.0000000000000000e+00
ITEM: ATOMS id type xs ys zs fx fy fz
1 1 0.0192136 0.336543 0.593597 5.72205e-06 -0.0001297 9.53674e-06
2 1 0.519214 0.336543 0.593597 0 -0.0001297 1.90735e-06
3 1 0.269214 0.295033 0.0935973 0 0.000211716 -1.90735e-06
4 1 0.769214 0.295033 0.0935973 -3.8147e-06 0.000213623 -5.72205e-06
5 1 0.269214 0.461543 0.593597 0 3.8147e-06 5.72205e-06
6 1 0.769214 0.461543 0.593597 -3.8147e-06 1.90735e-06 7.62939e-06
7 1 0.0192136 0.420037 0.0935973 7.62939e-06 8.01086e-05 0
8 1 0.519214 0.420037 0.0935973 -3.8147e-06 8.2016e-05 1.90735e-06
9 1 0.0192136 0.586543 0.593597 5.72205e-06 -0.000165939 0
10 1 0.519214 0.586543 0.593597 0 -0.000162125 0
11 1 0.269214 0.711539 0.593597 0 -0.000108719 -5.72205e-06
12 1 0.769214 0.711539 0.593597 -3.8147e-06 -0.000102997 -5.72205e-06
13 1 0.0192136 0.670042 0.0935972 1.90735e-06 -0.000188828 -5.72205e-06
14 1 0.269214 0.545043 0.0935972 -5.72205e-06 -0.000125885 -1.90735e-06
15 1 0.769214 0.545043 0.0935972 -1.90735e-06 -0.000133514 -5.72205e-06
16 1 0.519214 0.670042 0.0935972 1.90735e-06 -0.000188828 -1.90735e-06
17 1 0.0192136 0.836533 0.593597 5.72205e-06 0.000131607 0
18 1 0.519214 0.836533 0.593597 -3.8147e-06 0.0001297 0
19 1 0.269214 0.961532 0.593597 -1.90735e-06 0.000112534 0
20 1 0.769214 0.961532 0.593597 -1.90735e-06 0.000110626 0
21 1 0.269214 0.795034 0.0935971 0 0.000198364 0
22 1 0.769214 0.795034 0.0935971 -1.90735e-06 0.000196457 0
23 1 0.0192136 0.920032 0.0935971 5.72205e-06 8.39233e-05 0
24 1 0.519214 0.920032 0.0935971 -1.90735e-06 8.2016e-05 0
25 1 0.0192136 0.0865378 0.593597 1.14441e-05 -0.000144958 0
26 1 0.519214 0.0865378 0.593597 -3.8147e-06 -0.000135422 0
27 1 0.269214 0.045031 0.093597 -9.53674e-06 5.91278e-05 0
28 1 0.769214 0.045031 0.093597 0 5.53131e-05 0
29 1 0.269214 0.211541 0.593597 -5.72205e-06 -0.000177383 -1.90735e-06
30 1 0.769214 0.211541 0.593597 0 -0.000173569 0
31 1 0.0192136 0.170031 0.093597 1.33514e-05 0.00015831 3.8147e-06
32 1 0.519214 0.170031 0.093597 -5.72205e-06 0.000156403 5.72205e-06
ITEM: TIMESTEP
3
ITEM: NUMBER OF ATOMS
32
ITEM: BOX BOUNDS xy xz yz pp pp pp
9.5915794372558594e-04 6.3935898542404175e+00 0.0000000000000000e+00
3.3123493194580078e-03 2.2079565644264221e+01 0.0000000000000000e+00
7.7730417251586914e-04 5.1816886663436890e+00 0.0000000000000000e+00
ITEM: ATOMS id type xs ys zs fx fy fz
1 1 0.0192136 0.336543 0.593597 5.72205e-06 -0.000143051 3.8147e-06
2 1 0.519214 0.336543 0.593597 -3.8147e-06 -0.000144958 1.90735e-06
3 1 0.269214 0.295033 0.0935973 0 0.000211716 0
4 1 0.769214 0.295033 0.0935973 -1.90735e-06 0.000196457 3.8147e-06
5 1 0.269214 0.461543 0.593597 -7.62939e-06 1.90735e-06 -1.90735e-06
6 1 0.769214 0.461543 0.593597 -1.90735e-06 3.8147e-06 3.8147e-06
7 1 0.0192136 0.420037 0.0935973 1.71661e-05 7.82013e-05 -3.8147e-06
8 1 0.519214 0.420037 0.0935973 -7.62939e-06 7.82013e-05 -1.90735e-06
9 1 0.0192136 0.586543 0.593597 1.33514e-05 -0.000144958 5.72205e-06
10 1 0.519214 0.586543 0.593597 -3.8147e-06 -0.000152588 3.8147e-06
11 1 0.269214 0.711539 0.593597 -1.90735e-06 -0.000123978 3.8147e-06
12 1 0.769214 0.711539 0.593597 -1.90735e-06 -0.000127792 0
13 1 0.0192136 0.670042 0.0935972 1.14441e-05 -0.000183105 0
14 1 0.269214 0.545043 0.0935972 -9.53674e-06 -0.000127792 -1.90735e-06
15 1 0.769214 0.545043 0.0935972 0 -0.0001297 -7.62939e-06
16 1 0.519214 0.670042 0.0935972 -5.72205e-06 -0.000185013 -1.90735e-06
17 1 0.0192136 0.836533 0.593597 9.53674e-06 0.000152588 1.90735e-06
18 1 0.519214 0.836533 0.593597 -1.90735e-06 0.000152588 1.90735e-06
19 1 0.269214 0.961532 0.593597 -7.62939e-06 0.000110626 0
20 1 0.769214 0.961532 0.593597 0 0.000112534 1.90735e-06
21 1 0.269214 0.795034 0.0935971 -7.62939e-06 0.00019455 -7.62939e-06
22 1 0.769214 0.795034 0.0935971 -1.90735e-06 0.000192642 -1.90735e-06
23 1 0.0192136 0.920032 0.0935971 1.14441e-05 7.82013e-05 -1.90735e-06
24 1 0.519214 0.920032 0.0935971 0 7.82013e-05 0
25 1 0.0192136 0.0865378 0.593597 1.52588e-05 -0.000135422 0
26 1 0.519214 0.0865378 0.593597 -5.72205e-06 -0.000131607 0
27 1 0.269214 0.045031 0.093597 -7.62939e-06 6.29425e-05 0
28 1 0.769214 0.045031 0.093597 -7.62939e-06 6.48499e-05 0
29 1 0.269214 0.211541 0.593597 -5.72205e-06 -0.000152588 1.90735e-06
30 1 0.769214 0.211541 0.593597 -3.8147e-06 -0.000150681 1.90735e-06
31 1 0.0192136 0.170031 0.093597 1.33514e-05 0.000127792 -1.90735e-06
32 1 0.519214 0.170031 0.093597 -1.90735e-06 0.000135422 -3.8147e-06
ITEM: TIMESTEP
4
ITEM: NUMBER OF ATOMS
32
ITEM: BOX BOUNDS xy xz yz pp pp pp
1.0339021682739258e-03 6.3935151100158691e+00 0.0000000000000000e+00
3.5704374313354492e-03 2.2079307556152344e+01 0.0000000000000000e+00
8.3786249160766602e-04 5.1816281080245972e+00 0.0000000000000000e+00
ITEM: ATOMS id type xs ys zs fx fy fz
1 1 0.0192136 0.336543 0.593597 9.53674e-06 -0.000179291 3.8147e-06
2 1 0.519214 0.336543 0.593597 -3.8147e-06 -0.000179291 0
3 1 0.269214 0.295033 0.0935973 -7.62939e-06 0.000246048 -3.8147e-06
4 1 0.769214 0.295033 0.0935973 0 0.000240326 0
5 1 0.269214 0.461543 0.593597 -5.72205e-06 -5.53131e-05 5.72205e-06
6 1 0.769214 0.461543 0.593597 0 -4.95911e-05 5.72205e-06
7 1 0.0192136 0.420037 0.0935973 1.14441e-05 0.000108719 -3.8147e-06
8 1 0.519214 0.420037 0.0935973 -3.8147e-06 0.000116348 -3.8147e-06
9 1 0.0192136 0.586543 0.593597 -1.90735e-06 -0.000162125 0
10 1 0.519214 0.586543 0.593597 0 -0.000154495 0
11 1 0.269214 0.711539 0.593597 0 -0.000127792 1.90735e-06
12 1 0.769214 0.711539 0.593597 -1.90735e-06 -0.000133514 1.90735e-06
13 1 0.0192136 0.670042 0.0935972 3.8147e-06 -0.000175476 0
14 1 0.269214 0.545043 0.0935972 0 -0.000127792 -1.90735e-06
15 1 0.769214 0.545043 0.0935972 -1.90735e-06 -0.000127792 -1.90735e-06
16 1 0.519214 0.670042 0.0935972 -3.8147e-06 -0.000169754 -3.8147e-06
17 1 0.0192136 0.836533 0.593597 7.62939e-06 0.000146866 1.90735e-06
18 1 0.519214 0.836533 0.593597 -5.72205e-06 0.000139236 0
19 1 0.269214 0.961532 0.593597 0 0.000108719 5.72205e-06
20 1 0.769214 0.961532 0.593597 -1.90735e-06 0.000112534 1.90735e-06
21 1 0.269214 0.795034 0.0935971 3.8147e-06 0.000185013 3.8147e-06
22 1 0.769214 0.795034 0.0935971 -1.90735e-06 0.000177383 -1.90735e-06
23 1 0.0192136 0.920032 0.0935971 7.62939e-06 0.000108719 -5.72205e-06
24 1 0.519214 0.920032 0.0935971 -3.8147e-06 0.000101089 -5.72205e-06
25 1 0.0192136 0.0865378 0.593597 9.53674e-06 -0.000154495 0
26 1 0.519214 0.0865378 0.593597 -1.90735e-06 -0.000154495 0
27 1 0.269214 0.045031 0.093597 -5.72205e-06 8.2016e-05 0
28 1 0.769214 0.045031 0.093597 -3.8147e-06 8.2016e-05 0
29 1 0.269214 0.211541 0.593597 0 -0.000192642 0
30 1 0.769214 0.211541 0.593597 -1.90735e-06 -0.000188828 0
31 1 0.0192136 0.170031 0.093597 7.62939e-06 0.000188828 0
32 1 0.519214 0.170031 0.093597 -3.8147e-06 0.000188828 0
ITEM: TIMESTEP
5
ITEM: NUMBER OF ATOMS
32
ITEM: BOX BOUNDS xy xz yz pp pp pp
1.0339021682739258e-03 6.3935151100158691e+00 0.0000000000000000e+00
3.5704374313354492e-03 2.2079307556152344e+01 0.0000000000000000e+00
8.3786249160766602e-04 5.1816281080245972e+00 0.0000000000000000e+00
ITEM: ATOMS id type xs ys zs fx fy fz
1 1 0.0192136 0.336543 0.593597 9.53674e-06 -0.000179291 3.8147e-06
2 1 0.519214 0.336543 0.593597 -3.8147e-06 -0.000179291 0
3 1 0.269214 0.295033 0.0935973 -7.62939e-06 0.000246048 -3.8147e-06
4 1 0.769214 0.295033 0.0935973 0 0.000240326 0
5 1 0.269214 0.461543 0.593597 -5.72205e-06 -5.53131e-05 5.72205e-06
6 1 0.769214 0.461543 0.593597 0 -4.95911e-05 5.72205e-06
7 1 0.0192136 0.420037 0.0935973 1.14441e-05 0.000108719 -3.8147e-06
8 1 0.519214 0.420037 0.0935973 -3.8147e-06 0.000116348 -3.8147e-06
9 1 0.0192136 0.586543 0.593597 -1.90735e-06 -0.000162125 0
10 1 0.519214 0.586543 0.593597 0 -0.000154495 0
11 1 0.269214 0.711539 0.593597 0 -0.000127792 1.90735e-06
12 1 0.769214 0.711539 0.593597 -1.90735e-06 -0.000133514 1.90735e-06
13 1 0.0192136 0.670042 0.0935972 3.8147e-06 -0.000175476 0
14 1 0.269214 0.545043 0.0935972 0 -0.000127792 -1.90735e-06
15 1 0.769214 0.545043 0.0935972 -1.90735e-06 -0.000127792 -1.90735e-06
16 1 0.519214 0.670042 0.0935972 -3.8147e-06 -0.000169754 -3.8147e-06
17 1 0.0192136 0.836533 0.593597 7.62939e-06 0.000146866 1.90735e-06
18 1 0.519214 0.836533 0.593597 -5.72205e-06 0.000139236 0
19 1 0.269214 0.961532 0.593597 0 0.000108719 5.72205e-06
20 1 0.769214 0.961532 0.593597 -1.90735e-06 0.000112534 1.90735e-06
21 1 0.269214 0.795034 0.0935971 3.8147e-06 0.000185013 3.8147e-06
22 1 0.769214 0.795034 0.0935971 -1.90735e-06 0.000177383 -1.90735e-06
23 1 0.0192136 0.920032 0.0935971 7.62939e-06 0.000108719 -5.72205e-06
24 1 0.519214 0.920032 0.0935971 -3.8147e-06 0.000101089 -5.72205e-06
25 1 0.0192136 0.0865378 0.593597 9.53674e-06 -0.000154495 0
26 1 0.519214 0.0865378 0.593597 -1.90735e-06 -0.000154495 0
27 1 0.269214 0.045031 0.093597 -5.72205e-06 8.2016e-05 0
28 1 0.769214 0.045031 0.093597 -3.8147e-06 8.2016e-05 0
29 1 0.269214 0.211541 0.593597 0 -0.000192642 0
30 1 0.769214 0.211541 0.593597 -1.90735e-06 -0.000188828 0
31 1 0.0192136 0.170031 0.093597 7.62939e-06 0.000188828 0
32 1 0.519214 0.170031 0.093597 -3.8147e-06 0.000188828 0
ITEM: TIMESTEP
6
ITEM: NUMBER OF ATOMS
32
ITEM: BOX BOUNDS xy xz yz pp pp pp
9.4246864318847656e-04 6.3936065435409546e+00 0.0000000000000000e+00
2.7806162834167480e-03 2.2080097377300262e+01 0.0000000000000000e+00
1.0969042778015137e-03 5.1813690662384033e+00 0.0000000000000000e+00
ITEM: ATOMS id type xs ys zs fx fy fz
1 1 0.0192136 0.336543 0.593597 7.62939e-06 -8.96454e-05 1.14441e-05
2 1 0.519214 0.336543 0.593597 -3.8147e-06 -9.15527e-05 1.14441e-05
3 1 0.269214 0.295033 0.0935973 0 0.000185013 -1.14441e-05
4 1 0.769214 0.295033 0.0935973 -1.90735e-06 0.000181198 -1.14441e-05
5 1 0.269214 0.461543 0.593597 1.90735e-06 -1.71661e-05 3.8147e-06
6 1 0.769214 0.461543 0.593597 -3.8147e-06 -9.53674e-06 7.62939e-06
7 1 0.0192136 0.420037 0.0935973 9.53674e-06 8.2016e-05 -7.62939e-06
8 1 0.519214 0.420037 0.0935973 -5.72205e-06 8.2016e-05 -7.62939e-06
9 1 0.0192136 0.586543 0.593597 1.90735e-06 -0.000150681 1.90735e-06
10 1 0.519214 0.586543 0.593597 -3.8147e-06 -0.00015831 0
11 1 0.269214 0.711539 0.593597 -3.8147e-06 -7.24792e-05 1.90735e-06
12 1 0.769214 0.711539 0.593597 -3.8147e-06 -7.43866e-05 1.90735e-06
13 1 0.0192136 0.670042 0.0935972 1.14441e-05 -0.000226974 -3.8147e-06
14 1 0.269214 0.545043 0.0935972 -1.90735e-06 -0.000185013 -3.8147e-06
15 1 0.769214 0.545043 0.0935972 -3.8147e-06 -0.000190735 -1.90735e-06
16 1 0.519214 0.670042 0.0935972 0 -0.000228882 0
17 1 0.0192136 0.836533 0.593597 1.14441e-05 0.000171661 0
18 1 0.519214 0.836533 0.593597 0 0.000165939 0
19 1 0.269214 0.961532 0.593597 -1.90735e-06 0.000144958 0
20 1 0.769214 0.961532 0.593597 -1.90735e-06 0.00015831 0
21 1 0.269214 0.795034 0.0935971 -1.90735e-06 0.000162125 0
22 1 0.769214 0.795034 0.0935971 -3.8147e-06 0.000156403 0
23 1 0.0192136 0.920032 0.0935971 5.72205e-06 8.01086e-05 0
24 1 0.519214 0.920032 0.0935971 -3.8147e-06 7.82013e-05 0
25 1 0.0192136 0.0865378 0.593597 9.53674e-06 -0.00012207 0
26 1 0.519214 0.0865378 0.593597 -5.72205e-06 -0.000127792 0
27 1 0.269214 0.045031 0.093597 -1.90735e-06 5.91278e-05 0
28 1 0.769214 0.045031 0.093597 -1.90735e-06 7.43866e-05 0
29 1 0.269214 0.211541 0.593597 -1.90735e-06 -0.000143051 3.8147e-06
30 1 0.769214 0.211541 0.593597 -3.8147e-06 -0.000139236 3.8147e-06
31 1 0.0192136 0.170031 0.093597 9.53674e-06 0.00012207 0
32 1 0.519214 0.170031 0.093597 -7.62939e-06 0.000123978 0
ITEM: TIMESTEP
7
ITEM: NUMBER OF ATOMS
32
ITEM: BOX BOUNDS xy xz yz pp pp pp
8.5163116455078125e-04 6.3936973810195923e+00 0.0000000000000000e+00
1.9933581352233887e-03 2.2080884635448456e+01 0.0000000000000000e+00
1.3559460639953613e-03 5.1811100244522095e+00 0.0000000000000000e+00
ITEM: ATOMS id type xs ys zs fx fy fz
1 1 0.0192136 0.336543 0.593597 9.53674e-06 -7.82013e-05 1.90735e-06
2 1 0.519214 0.336543 0.593597 -1.90735e-06 -8.01086e-05 7.62939e-06
3 1 0.269214 0.295033 0.0935973 0 0.000139236 -7.62939e-06
4 1 0.769214 0.295033 0.0935973 -3.8147e-06 0.000154495 -9.53674e-06
5 1 0.269214 0.461543 0.593597 0 6.67572e-05 1.90735e-06
6 1 0.769214 0.461543 0.593597 -3.8147e-06 6.67572e-05 1.90735e-06
7 1 0.0192136 0.420037 0.0935973 1.90735e-06 4.76837e-05 -5.72205e-06
8 1 0.519214 0.420037 0.0935973 -1.90735e-06 5.14984e-05 -3.8147e-06
9 1 0.0192136 0.586543 0.593597 1.52588e-05 -7.24792e-05 1.90735e-06
10 1 0.519214 0.586543 0.593597 -3.8147e-06 -7.24792e-05 3.8147e-06
11 1 0.269214 0.711539 0.593597 3.8147e-06 -2.47955e-05 3.8147e-06
12 1 0.769214 0.711539 0.593597 -5.72205e-06 -2.47955e-05 0
13 1 0.0192136 0.670042 0.0935972 5.72205e-06 -0.000242233 0
14 1 0.269214 0.545043 0.0935972 -1.90735e-06 -0.000202179 1.90735e-06
15 1 0.769214 0.545043 0.0935972 -3.8147e-06 -0.000198364 0
16 1 0.519214 0.670042 0.0935972 -1.90735e-06 -0.000249863 -5.72205e-06
17 1 0.0192136 0.836533 0.593597 7.62939e-06 0.000200272 0
18 1 0.519214 0.836533 0.593597 -3.8147e-06 0.000202179 0
19 1 0.269214 0.961532 0.593597 0 0.000190735 0
20 1 0.769214 0.961532 0.593597 -1.90735e-06 0.000198364 0
21 1 0.269214 0.795034 0.0935971 0 9.91821e-05 0
22 1 0.769214 0.795034 0.0935971 -7.62939e-06 9.91821e-05 0
23 1 0.0192136 0.920032 0.0935971 3.8147e-06 -3.8147e-06 0
24 1 0.519214 0.920032 0.0935971 -3.8147e-06 -1.90735e-06 0
25 1 0.0192136 0.0865377 0.593597 7.62939e-06 -8.39233e-05 0
26 1 0.519214 0.0865378 0.593597 -1.90735e-06 -8.2016e-05 0
27 1 0.269214 0.045031 0.093597 0 -1.33514e-05 0
28 1 0.769214 0.045031 0.093597 -5.72205e-06 -1.71661e-05 0
29 1 0.269214 0.211541 0.593597 -1.90735e-06 -0.000114441 3.8147e-06
30 1 0.769214 0.211541 0.593597 -3.8147e-06 -0.000116348 3.8147e-06
31 1 0.0192136 0.170031 0.093597 5.72205e-06 8.01086e-05 0
32 1 0.519214 0.170031 0.093597 -1.90735e-06 8.2016e-05 0
ITEM: TIMESTEP
8
ITEM: NUMBER OF ATOMS
32
ITEM: BOX BOUNDS xy xz yz pp pp pp
7.6097249984741211e-04 6.3937880396842957e+00 0.0000000000000000e+00
1.2073516845703125e-03 2.2081670641899109e+01 0.0000000000000000e+00
1.6149878501892090e-03 5.1808509826660156e+00 0.0000000000000000e+00
ITEM: ATOMS id type xs ys zs fx fy fz
1 1 0.0192136 0.336543 0.593597 9.53674e-06 -1.33514e-05 1.90735e-06
2 1 0.519214 0.336543 0.593597 -1.90735e-06 -2.09808e-05 7.62939e-06
3 1 0.269214 0.295033 0.0935973 -3.8147e-06 0.000110626 -5.72205e-06
4 1 0.769214 0.295033 0.0935973 -5.72205e-06 0.000108719 -7.62939e-06
5 1 0.269214 0.461543 0.593597 -5.72205e-06 0.000108719 5.72205e-06
6 1 0.769214 0.461543 0.593597 0 0.000106812 3.8147e-06
7 1 0.0192136 0.420037 0.0935973 1.14441e-05 -2.67029e-05 -7.62939e-06
8 1 0.519214 0.420037 0.0935973 0 -3.05176e-05 -5.72205e-06
9 1 0.0192136 0.586543 0.593597 9.53674e-06 -5.34058e-05 1.90735e-06
10 1 0.519214 0.586543 0.593597 -1.90735e-06 -4.95911e-05 3.8147e-06
11 1 0.269214 0.711539 0.593597 0 1.71661e-05 1.90735e-06
12 1 0.769214 0.711539 0.593597 0 1.90735e-05 0
13 1 0.0192136 0.670042 0.0935972 9.53674e-06 -0.000318527 -3.8147e-06
14 1 0.269214 0.545043 0.0935972 -7.62939e-06 -0.000247955 -3.8147e-06
15 1 0.769214 0.545043 0.0935972 -5.72205e-06 -0.000247955 0
16 1 0.519214 0.670042 0.0935972 -3.8147e-06 -0.000318527 0
17 1 0.0192136 0.836533 0.593597 5.72205e-06 0.000253677 0
18 1 0.519214 0.836533 0.593597 -5.72205e-06 0.000244141 0
19 1 0.269214 0.961532 0.593597 -5.72205e-06 0.000246048 0
20 1 0.769214 0.961532 0.593597 0 0.000238419 0
21 1 0.269214 0.795034 0.0935971 -1.90735e-06 7.82013e-05 0
22 1 0.769214 0.795034 0.0935971 0 8.01086e-05 0
23 1 0.0192136 0.920032 0.0935971 9.53674e-06 -2.47955e-05 0
24 1 0.519214 0.920032 0.0935971 -3.8147e-06 -2.09808e-05 0
25 1 0.0192136 0.0865377 0.593597 7.62939e-06 -1.33514e-05 0
26 1 0.519214 0.0865377 0.593597 -1.90735e-06 -2.28882e-05 0
27 1 0.269214 0.045031 0.093597 0 -5.53131e-05 0
28 1 0.769214 0.045031 0.093597 -5.72205e-06 -5.72205e-05 0
29 1 0.269214 0.211541 0.593597 -9.53674e-06 -8.39233e-05 3.8147e-06
30 1 0.769214 0.211541 0.593597 0 -8.2016e-05 3.8147e-06
31 1 0.0192136 0.170031 0.093597 1.14441e-05 4.00543e-05 0
32 1 0.519214 0.170031 0.093597 -3.8147e-06 3.62396e-05 0
ITEM: TIMESTEP
9
ITEM: NUMBER OF ATOMS
32
ITEM: BOX BOUNDS xy xz yz pp pp pp
6.6971778869628906e-04 6.3938792943954468e+00 0.0000000000000000e+00
4.2355060577392578e-04 2.2082454442977905e+01 0.0000000000000000e+00
1.8740296363830566e-03 5.1805919408798218e+00 0.0000000000000000e+00
ITEM: ATOMS id type xs ys zs fx fy fz
1 1 0.0192136 0.336543 0.593597 7.62939e-06 3.24249e-05 0
2 1 0.519214 0.336543 0.593597 -1.90735e-06 3.43323e-05 0
3 1 0.269214 0.295033 0.0935973 -3.8147e-06 4.00543e-05 0
4 1 0.769214 0.295033 0.0935973 0 3.43323e-05 -3.8147e-06
5 1 0.269214 0.461543 0.593597 -1.90735e-06 0.000143051 7.62939e-06
6 1 0.769214 0.461543 0.593597 -3.8147e-06 0.000144958 5.72205e-06
7 1 0.0192136 0.420037 0.0935973 0 -8.58307e-05 -1.90735e-06
8 1 0.519214 0.420037 0.0935973 1.90735e-06 -9.15527e-05 -1.90735e-06
9 1 0.0192136 0.586543 0.593597 5.72205e-06 -2.47955e-05 1.90735e-06
10 1 0.519214 0.586543 0.593597 -3.8147e-06 -3.05176e-05 1.90735e-06
11 1 0.269214 0.711539 0.593597 -3.8147e-06 2.67029e-05 1.90735e-06
12 1 0.769214 0.711539 0.593597 0 2.67029e-05 0
13 1 0.0192136 0.670042 0.0935972 7.62939e-06 -0.000349045 -1.90735e-06
14 1 0.269214 0.545043 0.0935972 -1.90735e-06 -0.000307083 -3.8147e-06
15 1 0.769214 0.545043 0.0935972 0 -0.000299454 -3.8147e-06
16 1 0.519214 0.670042 0.0935972 -3.8147e-06 -0.000341415 -3.8147e-06
17 1 0.0192136 0.836533 0.593597 5.72205e-06 0.00030899 5.72205e-06
18 1 0.519214 0.836533 0.593597 -1.90735e-06 0.000301361 7.62939e-06
19 1 0.269214 0.961532 0.593597 -7.62939e-06 0.000276566 1.90735e-06
20 1 0.769214 0.961532 0.593597 0 0.000282288 0
21 1 0.269214 0.795034 0.0935971 -1.90735e-06 3.8147e-05 -3.8147e-06
22 1 0.769214 0.795034 0.0935971 0 3.43323e-05 -1.90735e-06
23 1 0.0192136 0.920032 0.0935971 5.72205e-06 -6.10352e-05 -5.72205e-06
24 1 0.519214 0.920032 0.0935971 -3.8147e-06 -6.67572e-05 -3.8147e-06
25 1 0.0192136 0.0865377 0.593597 5.72205e-06 1.90735e-06 0
26 1 0.519214 0.0865377 0.593597 -3.8147e-06 7.62939e-06 0
27 1 0.269214 0.045031 0.093597 -5.72205e-06 -3.8147e-05 0
28 1 0.769214 0.045031 0.093597 0 -4.3869e-05 0
29 1 0.269214 0.211541 0.593597 0 5.72205e-06 0
30 1 0.769214 0.211541 0.593597 -1.90735e-06 1.14441e-05 1.90735e-06
31 1 0.0192136 0.170031 0.093597 1.52588e-05 -1.90735e-06 0
32 1 0.519214 0.170031 0.093597 -3.8147e-06 -9.53674e-06 0
ITEM: TIMESTEP
10
ITEM: NUMBER OF ATOMS
32
ITEM: BOX BOUNDS xy xz yz pp pp pp
5.8013200759887695e-04 6.3939688801765442e+00 0.0000000000000000e+00
-3.5893917083740234e-04 2.2083236932754517e+01 0.0000000000000000e+00
2.1330714225769043e-03 5.1803328990936279e+00 0.0000000000000000e+00
ITEM: ATOMS id type xs ys zs fx fy fz
1 1 0.0192136 0.336543 0.593597 7.62939e-06 8.2016e-05 5.72205e-06
2 1 0.519214 0.336543 0.593597 -3.8147e-06 8.01086e-05 1.90735e-06
3 1 0.269214 0.295033 0.0935973 -3.8147e-06 1.90735e-06 -5.72205e-06
4 1 0.769214 0.295033 0.0935973 -3.8147e-06 -3.8147e-06 -1.14441e-05
5 1 0.269214 0.461543 0.593597 -3.8147e-06 0.000177383 3.8147e-06
6 1 0.769214 0.461543 0.593597 0 0.00018692 0
7 1 0.0192136 0.420037 0.0935973 1.90735e-06 -8.96454e-05 -1.90735e-06
8 1 0.519214 0.420037 0.0935973 0 -8.96454e-05 -5.72205e-06
9 1 0.0192136 0.586543 0.593597 7.62939e-06 2.28882e-05 1.90735e-06
10 1 0.519214 0.586543 0.593597 -3.8147e-06 2.86102e-05 0
11 1 0.269214 0.711539 0.593597 -5.72205e-06 8.7738e-05 1.90735e-06
12 1 0.769214 0.711539 0.593597 -5.72205e-06 8.7738e-05 3.8147e-06
13 1 0.0192136 0.670042 0.0935972 9.53674e-06 -0.000356674 -1.90735e-06
14 1 0.269214 0.545043 0.0935972 -1.90735e-06 -0.000335693 0
15 1 0.769214 0.545043 0.0935972 3.8147e-06 -0.000341415 -1.90735e-06
16 1 0.519214 0.670042 0.0935972 0 -0.000360489 -3.8147e-06
17 1 0.0192136 0.836533 0.593597 7.62939e-06 0.000331879 0
18 1 0.519214 0.836533 0.593597 -5.72205e-06 0.000333786 1.90735e-06
19 1 0.269214 0.961532 0.593597 -3.8147e-06 0.000312805 0
20 1 0.769214 0.961532 0.593597 0 0.000314713 0
21 1 0.269214 0.795034 0.0935971 -3.8147e-06 -2.47955e-05 -1.90735e-06
22 1 0.769214 0.795034 0.0935971 -3.8147e-06 -2.28882e-05 0
23 1 0.0192136 0.920032 0.0935971 5.72205e-06 -0.000110626 0
24 1 0.519214 0.920032 0.0935971 -1.90735e-06 -0.000112534 0
25 1 0.0192136 0.0865377 0.593597 7.62939e-06 4.00543e-05 0
26 1 0.519214 0.0865377 0.593597 0 3.8147e-05 0
27 1 0.269214 0.045031 0.093597 -5.72205e-06 -9.53674e-05 0
28 1 0.769214 0.045031 0.093597 -1.90735e-06 -0.000114441 0
29 1 0.269214 0.211541 0.593597 0 2.67029e-05 1.90735e-06
30 1 0.769214 0.211541 0.593597 -3.8147e-06 2.28882e-05 3.8147e-06
31 1 0.0192136 0.170031 0.093597 1.52588e-05 -5.72205e-05 0
32 1 0.519214 0.170031 0.093597 -3.8147e-06 -6.10352e-05 7.62939e-06
ITEM: TIMESTEP
11
ITEM: NUMBER OF ATOMS
32
ITEM: BOX BOUNDS xy xz yz pp pp pp
4.9048662185668945e-04 6.3940585255622864e+00 0.0000000000000000e+00
-1.1390447616577148e-03 2.2084017038345337e+01 0.0000000000000000e+00
2.3921132087707520e-03 5.1800738573074341e+00 0.0000000000000000e+00
ITEM: ATOMS id type xs ys zs fx fy fz
1 1 0.0192136 0.336543 0.593597 7.62939e-06 0.000106812 5.72205e-06
2 1 0.519214 0.336543 0.593597 -3.8147e-06 0.000110626 1.90735e-06
3 1 0.269214 0.295033 0.0935973 -5.72205e-06 -3.24249e-05 -7.62939e-06
4 1 0.769214 0.295033 0.0935973 -1.90735e-06 -3.43323e-05 -1.90735e-06
5 1 0.269214 0.461543 0.593597 -1.90735e-06 0.000246048 5.72205e-06
6 1 0.769214 0.461543 0.593597 0 0.000247955 3.8147e-06
7 1 0.0192136 0.420037 0.0935973 9.53674e-06 -0.000156403 -5.72205e-06
8 1 0.519214 0.420037 0.0935973 -1.90735e-06 -0.000162125 -7.62939e-06
9 1 0.0192136 0.586543 0.593597 9.53674e-06 7.05719e-05 5.72205e-06
10 1 0.519214 0.586543 0.593597 -1.90735e-06 8.01086e-05 1.90735e-06
11 1 0.269214 0.711539 0.593597 -3.8147e-06 0.000148773 3.8147e-06
12 1 0.769214 0.711539 0.593597 -3.8147e-06 0.000152588 1.90735e-06
13 1 0.0192136 0.670042 0.0935972 3.8147e-06 -0.000396729 -1.90735e-06
14 1 0.269214 0.545043 0.0935972 -1.90735e-06 -0.000356674 -3.8147e-06
15 1 0.769214 0.545043 0.0935972 -3.8147e-06 -0.000362396 0
16 1 0.519214 0.670042 0.0935972 -1.90735e-06 -0.000398636 -5.72205e-06
17 1 0.0192136 0.836533 0.593597 1.14441e-05 0.000350952 1.90735e-06
18 1 0.519214 0.836533 0.593597 -5.72205e-06 0.000358582 1.90735e-06
19 1 0.269214 0.961532 0.593597 -3.8147e-06 0.000333786 3.8147e-06
20 1 0.769214 0.961532 0.593597 -3.8147e-06 0.000337601 0
21 1 0.269214 0.795034 0.0935971 -5.72205e-06 -5.72205e-05 -3.8147e-06
22 1 0.769214 0.795034 0.0935971 0 -5.91278e-05 -1.90735e-06
23 1 0.0192136 0.920032 0.0935971 1.33514e-05 -0.000150681 -3.8147e-06
24 1 0.519214 0.920032 0.0935971 -1.90735e-06 -0.000156403 0
25 1 0.0192136 0.0865377 0.593597 1.33514e-05 8.96454e-05 0
26 1 0.519214 0.0865378 0.593597 -3.8147e-06 8.96454e-05 0
27 1 0.269214 0.045031 0.093597 -3.8147e-06 -0.000167847 0
28 1 0.769214 0.045031 0.093597 -3.8147e-06 -0.000169754 0
29 1 0.269214 0.211541 0.593597 -7.62939e-06 6.86646e-05 3.8147e-06
30 1 0.769214 0.211541 0.593597 -3.8147e-06 6.86646e-05 1.90735e-06
31 1 0.0192136 0.170031 0.093597 9.53674e-06 -0.000101089 0
32 1 0.519214 0.170031 0.093597 -1.90735e-06 -9.91821e-05 0
ITEM: TIMESTEP
12
ITEM: NUMBER OF ATOMS
32
ITEM: BOX BOUNDS xy xz yz pp pp pp
4.0119886398315430e-04 6.3941478133201599e+00 0.0000000000000000e+00
-1.9178390502929688e-03 2.2084795832633972e+01 0.0000000000000000e+00
2.6511549949645996e-03 5.1798148155212402e+00 0.0000000000000000e+00
ITEM: ATOMS id type xs ys zs fx fy fz
1 1 0.0192136 0.336543 0.593597 7.62939e-06 0.000148773 1.90735e-06
2 1 0.519214 0.336543 0.593597 -3.8147e-06 0.000144958 7.62939e-06
3 1 0.269214 0.295033 0.0935973 -3.8147e-06 -3.8147e-05 -5.72205e-06
4 1 0.769214 0.295033 0.0935973 -1.90735e-06 -3.24249e-05 -9.53674e-06
5 1 0.269214 0.461543 0.593597 -1.90735e-06 0.000255585 3.8147e-06
6 1 0.769214 0.461543 0.593597 -3.8147e-06 0.000257492 3.8147e-06
7 1 0.0192136 0.420037 0.0935973 9.53674e-06 -0.000169754 0
8 1 0.519214 0.420037 0.0935973 -1.90735e-06 -0.000169754 -1.90735e-06
9 1 0.0192136 0.586543 0.593597 1.90735e-06 8.58307e-05 1.90735e-06
10 1 0.519214 0.586543 0.593597 0 8.2016e-05 0
11 1 0.269214 0.711539 0.593597 0 0.000177383 1.90735e-06
12 1 0.769214 0.711539 0.593597 -3.8147e-06 0.000177383 3.8147e-06
13 1 0.0192136 0.670042 0.0935972 7.62939e-06 -0.000469208 -1.90735e-06
14 1 0.269214 0.545043 0.0935972 0 -0.000448227 -1.90735e-06
15 1 0.769214 0.545043 0.0935972 0 -0.000452042 -3.8147e-06
16 1 0.519214 0.670042 0.0935972 -3.8147e-06 -0.000473022 -3.8147e-06
17 1 0.0192136 0.836533 0.593597 3.8147e-06 0.000425339 0
18 1 0.519214 0.836533 0.593597 -3.8147e-06 0.000429153 0
19 1 0.269214 0.961532 0.593597 0 0.000408173 0
20 1 0.769214 0.961532 0.593597 -1.90735e-06 0.000417709 0
21 1 0.269214 0.795034 0.0935971 -1.90735e-06 -0.000102997 0
22 1 0.769214 0.795034 0.0935971 -3.8147e-06 -0.000104904 0
23 1 0.0192136 0.920032 0.0935971 5.72205e-06 -0.00015831 0
24 1 0.519214 0.920032 0.0935971 1.90735e-06 -0.000154495 0
25 1 0.0192136 0.0865378 0.593597 1.14441e-05 0.000114441 0
26 1 0.519214 0.0865378 0.593597 -3.8147e-06 0.000112534 0
27 1 0.269214 0.045031 0.093597 -1.90735e-06 -0.00018692 0