ITEM: TIMESTEP
0
ITEM: NUMBER OF ATOMS
56
ITEM: BOX BOUNDS xy xz yz pp pp pp
-2.6222482323646545e+00 1.2203788340091705e+01 0.0000000000000000e+00
-8.4733366966247559e-03 5.5348814725875854e+00 -2.6035597324371338e+00
-2.9168844223022461e-02 1.9049128890037537e+01 0.0000000000000000e+00
ITEM: ATOMS id type xs ys zs fx fy fz
1 1 0.578267 4.41887e-05 0.132366 0 0.0283146 0.602381
2 1 0.328268 0.166624 0.132366 0 -0.0283451 0.602419
3 1 0.246107 2.39879e-05 0.275225 0 0.000417709 -0.0039196
4 1 0.996107 0.166644 0.275225 0 -0.00043869 -0.0039196
5 1 0.913893 1.9421e-05 0.418082 0 7.62939e-06 0.000131607
6 1 0.0782679 4.41295e-05 0.132366 0 0.0283279 0.602394
7 1 0.99432 0.500074 0.0609403 0 0.269749 0.717281
8 1 0.828269 0.166623 0.132366 0 -0.0283337 0.602438
9 1 0.744322 0.666593 0.0609403 0 -0.269743 0.717312
10 1 0.746108 2.39872e-05 0.275225 0 0.000415802 -0.00391388
11 1 0.663892 0.166647 0.418082 0 -1.90735e-06 0.000125885
12 1 0.581668 2.47556e-05 0.560942 0 -3.05176e-05 -8.2016e-05
13 1 0.331669 0.166643 0.560942 0 2.09808e-05 -8.58307e-05
14 1 0.249452 2.39811e-05 0.703801 0 -0.000341415 0.00106812
15 1 0.999452 0.166644 0.703801 0 0.00030899 0.00106049
16 1 0.917249 2.63435e-05 0.846651 0 0.00683975 -0.00463295
17 1 0.662205 0.500026 0.203802 0 0.00685883 0.00464249
18 1 0.496107 0.166645 0.275225 0 -0.000452042 -0.00390816
19 1 0.412206 0.66664 0.203802 0 -0.00682831 0.0046463
20 1 0.413894 2.01694e-05 0.418082 0 -9.53674e-06 0.000135422
21 1 0.330001 0.500023 0.346651 0 -0.000318527 -0.00105286
22 1 0.163893 0.166648 0.418082 0 -7.62939e-06 0.000133514
23 1 0.0800011 0.666642 0.346651 0 0.000350952 -0.00107002
24 1 0.0816687 2.49573e-05 0.560941 0 -3.43323e-05 -7.43866e-05
25 1 0.997784 0.500025 0.489511 0 -2.67029e-05 7.05719e-05
26 1 0.83167 0.166643 0.560941 0 2.09808e-05 -6.86646e-05
27 1 0.747785 0.666642 0.489511 0 3.24249e-05 9.15527e-05
28 1 0.49432 0.500073 0.0609404 0 0.269787 0.717289
29 1 0.24432 0.666593 0.0609403 0 -0.269756 0.717279
30 1 0.162205 0.500026 0.203802 0 0.00685501 0.00464058
31 1 0.912205 0.666641 0.203802 0 -0.0068531 0.00465393
32 1 0.830002 0.500024 0.346651 0 -0.000339508 -0.00107384
33 1 0.667248 0.166641 0.846652 0 -0.00683784 -0.00466537
34 1 0.585133 7.47473e-05 0.989512 0 0.269728 -0.717257
35 1 0.335133 0.166594 0.989513 0 -0.269777 -0.717289
36 1 0.749451 2.44315e-05 0.703801 0 -0.00034523 0.00106812
37 1 0.665558 0.50002 0.632371 0 1.90735e-06 -0.000144958
38 1 0.499453 0.166643 0.703801 0 0.000324249 0.00107193
39 1 0.41556 0.666647 0.632371 0 1.90735e-06 -0.0001297
40 1 0.417248 2.63314e-05 0.846651 0 0.00684547 -0.00465012
41 1 0.333346 0.500023 0.775228 0 0.000434875 0.00392151
42 1 0.167248 0.166641 0.846651 0 -0.00684929 -0.00465775
43 1 0.0833459 0.666644 0.775228 0 -0.000423431 0.00390434
44 1 0.0851334 7.37033e-05 0.989512 0 0.26977 -0.717272
45 1 0.00118593 0.500043 0.918087 0 0.0283356 -0.602375
46 1 0.580001 0.666643 0.346651 0 0.000350952 -0.0010643
47 1 0.497784 0.500025 0.489511 0 -2.28882e-05 7.24792e-05
48 1 0.247784 0.666642 0.489511 0 3.62396e-05 7.43866e-05
49 1 0.16556 0.500019 0.632371 0 1.52588e-05 -0.000127792
50 1 0.915561 0.666647 0.63237 0 1.52588e-05 -0.000110626
51 1 0.833347 0.500022 0.775228 0 0.00044632 0.00390816
52 1 0.835131 0.166594 0.989513 0 -0.269743 -0.717319
53 1 0.751185 0.666624 0.918087 0 -0.0283356 -0.602453
54 1 0.583346 0.666643 0.775228 0 -0.000431061 0.00391769
55 1 0.501185 0.500044 0.918087 0 0.028347 -0.602413
56 1 0.251185 0.666624 0.918087 0 -0.0283337 -0.602402
ITEM: TIMESTEP
1
ITEM: NUMBER OF ATOMS
56
ITEM: BOX BOUNDS xy xz yz pp pp pp
-2.6222482323646545e+00 1.2203788340091705e+01 0.0000000000000000e+00
-8.4733366966247559e-03 5.5348814725875854e+00 -2.6035597324371338e+00
-2.9168844223022461e-02 1.9049128890037537e+01 0.0000000000000000e+00
ITEM: ATOMS id type xs ys zs fx fy fz
1 1 0.579205 0.000756262 0.136768 0 0.0406494 0.0952663
2 1 0.329206 0.165911 0.136768 0 -0.0406551 0.0952644
3 1 0.246101 3.44927e-05 0.275196 0 -0.0146637 0.0842113
4 1 0.996101 0.166633 0.275196 0 0.0146542 0.0842113
5 1 0.913894 1.96129e-05 0.418083 0 -0.000745773 -0.00153923
6 1 0.0792055 0.000756539 0.136768 0 0.0406475 0.0952568
7 1 0.995437 0.506858 0.0661815 0 0.0670033 0.084795
8 1 0.829206 0.165911 0.136768 0 -0.0406475 0.0952568
9 1 0.745438 0.659809 0.0661818 0 -0.0669899 0.0847969
10 1 0.746102 3.4444e-05 0.275196 0 -0.014658 0.0842094
11 1 0.663893 0.166647 0.418083 0 0.000757217 -0.00154305
12 1 0.581668 2.39881e-05 0.560941 0 0.000118256 0.00249863
13 1 0.331669 0.166643 0.560941 0 -0.000123978 0.00248718
14 1 0.249454 1.5395e-05 0.703809 0 -0.00226974 -0.00450134
15 1 0.999454 0.166652 0.703809 0 0.00226212 -0.00450325
16 1 0.917242 0.000198354 0.846617 0 -0.00351143 -0.131708
17 1 0.662212 0.500198 0.203836 0 -0.00351143 0.131716
18 1 0.496101 0.166633 0.275196 0 0.0146389 0.0842075
19 1 0.412213 0.666468 0.203835 0 0.00352287 0.13172
20 1 0.413894 1.99296e-05 0.418083 0 -0.000761032 -0.00154877
21 1 0.329999 0.500015 0.346644 0 -0.0022583 0.00450897
22 1 0.163893 0.166648 0.418083 0 0.000745773 -0.0015316
23 1 0.0799994 0.666651 0.346644 0 0.00227547 0.00449944
24 1 0.0816686 2.40939e-05 0.560941 0 0.000123978 0.002491
25 1 0.997784 0.500024 0.489512 0 0.000123978 -0.00250816
26 1 0.83167 0.166643 0.560941 0 -0.000133514 0.00249863
27 1 0.747785 0.666643 0.489512 0 -0.000118256 -0.00248909
28 1 0.495437 0.506858 0.0661817 0 0.0670128 0.0847816
29 1 0.245437 0.659809 0.0661816 0 -0.0670033 0.0848007
30 1 0.162213 0.500199 0.203835 0 -0.00351143 0.131712
31 1 0.912213 0.666469 0.203836 0 0.00350761 0.131714
32 1 0.83 0.500016 0.346644 0 -0.00227928 0.00449753
33 1 0.66724 0.166469 0.846618 0 0.00351715 -0.131735
34 1 0.584017 0.00685804 0.984271 0 0.0669975 -0.0847931
35 1 0.334017 0.159809 0.984271 0 -0.0670071 -0.0848045
36 1 0.749453 1.57494e-05 0.703809 0 -0.00227737 -0.00449181
37 1 0.665558 0.50002 0.63237 0 -0.000747681 0.00152969
38 1 0.499454 0.166651 0.703809 0 0.00226593 -0.00450325
39 1 0.41556 0.666647 0.63237 0 0.000753403 0.0015316
40 1 0.417241 0.000198486 0.846617 0 -0.00351143 -0.13171
41 1 0.333352 0.500034 0.775256 0 -0.0146599 -0.0842037
42 1 0.16724 0.166469 0.846617 0 0.00351715 -0.13172
43 1 0.083352 0.666633 0.775256 0 0.0146484 -0.0842018
44 1 0.084017 0.00685805 0.984271 0 0.0670109 -0.0847816
45 1 0.000248323 0.500756 0.913685 0 0.0406513 -0.0952511
46 1 0.579999 0.666651 0.346644 0 0.00227356 0.00450516
47 1 0.497784 0.500024 0.489512 0 0.000127792 -0.00250244
48 1 0.247784 0.666643 0.489512 0 -0.000116348 -0.00250435
49 1 0.16556 0.500019 0.63237 0 -0.000745773 0.00154495
50 1 0.915561 0.666647 0.63237 0 0.000753403 0.0015564
51 1 0.833353 0.500034 0.775256 0 -0.0146446 -0.0842075
52 1 0.834015 0.15981 0.984271 0 -0.0670013 -0.0847988
53 1 0.750247 0.665911 0.913685 0 -0.0406551 -0.0952702
54 1 0.583352 0.666633 0.775257 0 0.0146542 -0.0842037
55 1 0.500248 0.500756 0.913685 0 0.0406532 -0.0952492
56 1 0.250248 0.665911 0.913685 0 -0.040659 -0.0952644
ITEM: TIMESTEP
2
ITEM: NUMBER OF ATOMS
56
ITEM: BOX BOUNDS xy xz yz pp pp pp
-2.6222482323646545e+00 1.2203788340091705e+01 0.0000000000000000e+00
-8.4733366966247559e-03 5.5348814725875854e+00 -2.6035597324371338e+00
-2.9168844223022461e-02 1.9049128890037537e+01 0.0000000000000000e+00
ITEM: ATOMS id type xs ys zs fx fy fz
1 1 0.579728 0.00436629 0.139226 0 0.00999069 -0.0410862
2 1 0.329729 0.1623 0.139226 0 -0.00998688 -0.0410938
3 1 0.246564 -0.00126777 0.277369 0 -0.00044632 0.0511189
4 1 0.996564 0.167935 0.277369 0 0.000457764 0.0511093
5 1 0.913885 -4.66184e-05 0.418043 0 -0.00702095 0.0368328
6 1 0.0797291 0.0043664 0.139226 0 0.00999069 -0.0410595
7 1 0.995903 0.512808 0.0683696 0 -0.00977898 -0.0721607
8 1 0.82973 0.162301 0.139226 0 -0.00998688 -0.0410786
9 1 0.745904 0.65386 0.0683699 0 0.00977135 -0.0721684
10 1 0.746565 -0.00126731 0.277369 0 -0.000461578 0.0511131
11 1 0.663884 0.166714 0.418043 0 0.00701332 0.0368366
12 1 0.581682 3.44903e-05 0.561005 0 -0.00214005 -0.00374985
13 1 0.331682 0.166632 0.561005 0 0.00214958 -0.00373268
14 1 0.249429 -0.000186179 0.703693 0 -0.010601 -0.0704403
15 1 0.999429 0.166853 0.703693 0 0.0105953 -0.0704346
16 1 0.916518 -0.000113492 0.843219 0 0.00417709 -0.0278721
17 1 0.662936 0.499887 0.207234 0 0.00416565 0.0278683
18 1 0.496564 0.167933 0.277369 0 0.000478745 0.051115
19 1 0.412937 0.666781 0.207234 0 -0.00419426 0.027874
20 1 0.413885 -4.76568e-05 0.418043 0 -0.00700378 0.0368385
21 1 0.330024 0.499815 0.34676 0 -0.0106163 0.0704327
22 1 0.163885 0.166714 0.418044 0 0.00702095 0.0368137
23 1 0.0800242 0.666853 0.34676 0 0.0105972 0.0704346
24 1 0.0816823 3.51042e-05 0.561005 0 -0.00214577 -0.0037365
25 1 0.99777 0.500035 0.489447 0 -0.00214195 0.00375557
26 1 0.831684 0.166632 0.561005 0 0.00215912 -0.00373459
27 1 0.747772 0.666632 0.489448 0 0.00214386 0.00374031
28 1 0.495903 0.512809 0.0683694 0 -0.00977707 -0.0721531
29 1 0.245903 0.653858 0.0683698 0 0.00978088 -0.0721645
30 1 0.162937 0.499887 0.207234 0 0.00416756 0.0278835
31 1 0.912937 0.66678 0.207234 0 -0.00416756 0.0278797
32 1 0.830025 0.499813 0.34676 0 -0.0105896 0.0704346
33 1 0.666516 0.166781 0.843218 0 -0.00418091 -0.0278625
34 1 0.583551 0.012808 0.982083 0 -0.00977325 0.0721645
35 1 0.33355 0.153858 0.982083 0 0.00978088 0.0721798
36 1 0.749428 -0.000186502 0.703693 0 -0.0105896 -0.0704384
37 1 0.665567 0.499953 0.632409 0 -0.00701904 -0.036829
38 1 0.499429 0.166853 0.703693 0 0.0105991 -0.0704403
39 1 0.415568 0.666714 0.632409 0 0.00700569 -0.0368271
40 1 0.416517 -0.00011336 0.843219 0 0.00417519 -0.0278797
41 1 0.332889 0.498732 0.773084 0 -0.000457764 -0.0511131
42 1 0.166516 0.166781 0.843218 0 -0.00419044 -0.0278664
43 1 0.0828892 0.667934 0.773084 0 0.000469208 -0.0511169
44 1 0.083551 0.0128092 0.982083 0 -0.00978088 0.0721512
45 1 -0.000275239 0.504366 0.911227 0 0.00999451 0.0410824
46 1 0.580024 0.666853 0.34676 0 0.0105953 0.0704269
47 1 0.49777 0.500035 0.489447 0 -0.00215721 0.00374413
48 1 0.247771 0.666633 0.489447 0 0.00214386 0.00374031
49 1 0.165568 0.499953 0.63241 0 -0.00701523 -0.0368347
50 1 0.915569 0.666714 0.63241 0 0.00700188 -0.0368423
51 1 0.83289 0.498733 0.773084 0 -0.000463486 -0.051115
52 1 0.833549 0.15386 0.982083 0 0.00977707 0.072155
53 1 0.749723 0.662301 0.911227 0 -0.00997925 0.0410881
54 1 0.582889 0.667934 0.773084 0 0.000457764 -0.0511322
55 1 0.499724 0.504367 0.911227 0 0.00998116 0.0410595
56 1 0.249724 0.6623 0.911227 0 -0.00997543 0.04109
ITEM: TIMESTEP
3
ITEM: NUMBER OF ATOMS
56
ITEM: BOX BOUNDS xy xz yz pp pp pp
-2.6222482323646545e+00 1.2203788340091705e+01 0.0000000000000000e+00
-8.4733366966247559e-03 5.5348814725875854e+00 -2.6035597324371338e+00
-2.9168844223022461e-02 1.9049128890037537e+01 0.0000000000000000e+00
ITEM: ATOMS id type xs ys zs fx fy fz
1 1 0.579716 0.00645676 0.139166 0 -0.00988007 0.0268345
2 1 0.329717 0.16021 0.139166 0 0.00988388 0.026844
3 1 0.246981 -0.00177194 0.279327 0 0.0083046 -0.0123158
4 1 0.996981 0.168439 0.279327 0 -0.0083046 -0.0123005
5 1 0.914062 -0.000626187 0.418876 0 -0.0065937 0.0421829
6 1 0.0797165 0.00645681 0.139166 0 -0.00989151 0.026825
7 1 0.995717 0.514176 0.0674978 0 0.00517273 0.018507
8 1 0.829717 0.160211 0.139166 0 0.0098877 0.0268326
9 1 0.745719 0.652491 0.0674979 0 -0.00517654 0.0185013
10 1 0.746982 -0.00177251 0.279327 0 0.0083046 -0.0123081
11 1 0.664061 0.167294 0.418876 0 0.00658989 0.0421734
12 1 0.581668 -0.000131118 0.560942 0 -0.00872803 -0.0191746
13 1 0.331669 0.166798 0.560943 0 0.00872803 -0.0191803
14 1 0.249075 -0.00109785 0.702031 0 -0.00492477 -0.043026
15 1 0.999075 0.167764 0.702031 0 0.00492477 -0.0430298
16 1 0.916121 0.000104864 0.841354 0 0.0109634 0.0426846
17 1 0.663333 0.500104 0.209099 0 0.0109673 -0.0426922
18 1 0.496981 0.168439 0.279327 0 -0.00831604 -0.0123024
19 1 0.413334 0.666562 0.209099 0 -0.0109539 -0.0426998
20 1 0.414063 -0.000626355 0.418876 0 -0.00659752 0.0421848
21 1 0.330378 0.498902 0.348422 0 -0.00491905 0.0430279
22 1 0.164062 0.167294 0.418876 0 0.00659752 0.0421867
23 1 0.0803781 0.667765 0.348421 0 0.00492096 0.0430279
24 1 0.0816689 -0.000130774 0.560942 0 -0.00872993 -0.0191765
25 1 0.997784 0.49987 0.48951 0 -0.00873756 0.0191727
26 1 0.83167 0.166798 0.560943 0 0.00872803 -0.0191669
27 1 0.747785 0.666798 0.48951 0 0.00873566 0.0191765
28 1 0.495717 0.514178 0.0674976 0 0.0051651 0.0184975
29 1 0.245717 0.65249 0.0674979 0 -0.00516891 0.0184956
30 1 0.163334 0.500104 0.209099 0 0.0109596 -0.0426884
31 1 0.913334 0.666563 0.209099 0 -0.0109596 -0.0427017
32 1 0.830379 0.498902 0.348421 0 -0.00492859 0.0430355
33 1 0.666119 0.166563 0.841354 0 -0.0109596 0.0426941
34 1 0.583737 0.0141765 0.982955 0 0.00517082 -0.018507
35 1 0.333736 0.15249 0.982955 0 -0.00516701 -0.0185127
36 1 0.749074 -0.00109751 0.702031 0 -0.00492477 -0.0430374
37 1 0.665389 0.499374 0.631577 0 -0.00660133 -0.0421848
38 1 0.499075 0.167764 0.702031 0 0.00492477 -0.0430355
39 1 0.415391 0.667293 0.631577 0 0.0065937 -0.0421772
40 1 0.41612 0.000104844 0.841354 0 0.0109558 0.0426903
41 1 0.332472 0.498227 0.771126 0 0.00831604 0.0123024
42 1 0.166119 0.166562 0.841354 0 -0.0109463 0.0426903
43 1 0.0824721 0.668439 0.771126 0 -0.00831795 0.0123081
44 1 0.0837366 0.0141776 0.982955 0 0.00517273 -0.0184841
45 1 -0.00026247 0.506457 0.911287 0 -0.00988007 -0.0268402
46 1 0.580378 0.667765 0.348421 0 0.00492668 0.0430317
47 1 0.497784 0.499869 0.48951 0 -0.00872421 0.0191841
48 1 0.247784 0.666798 0.48951 0 0.00872993 0.0191765
49 1 0.165391 0.499374 0.631577 0 -0.00659752 -0.0421791
50 1 0.915392 0.667292 0.631577 0 0.00661087 -0.042181
51 1 0.832473 0.498228 0.771126 0 0.00830269 0.0123081
52 1 0.833734 0.152491 0.982955 0 -0.00517082 -0.0184917
53 1 0.749736 0.660211 0.911287 0 0.00988197 -0.0268421
54 1 0.582472 0.668439 0.771126 0 -0.00830841 0.0123158
55 1 0.499737 0.506457 0.911287 0 -0.00988579 -0.0268288
56 1 0.249737 0.660211 0.911287 0 0.00987434 -0.0268269
ITEM: TIMESTEP
4
ITEM: NUMBER OF ATOMS
56
ITEM: BOX BOUNDS xy xz yz pp pp pp
-2.6222482323646545e+00 1.2203788340091705e+01 0.0000000000000000e+00
-8.4733366966247559e-03 5.5348814725875854e+00 -2.6035597324371338e+00
-2.9168844223022461e-02 1.9049128890037537e+01 0.0000000000000000e+00
ITEM: ATOMS id type xs ys zs fx fy fz
1 1 0.579822 0.00653222 0.139667 0 -0.0045166 0.00613213
2 1 0.329823 0.160135 0.139667 0 0.00451279 0.00612831
3 1 0.247077 -0.00139351 0.279778 0 0.00240326 0.00247192
4 1 0.997077 0.168061 0.279778 0 -0.00242043 0.00247383
5 1 0.9143 -0.00127222 0.419991 0 -0.00320435 0.00350761
6 1 0.0798232 0.00653148 0.139668 0 -0.00452042 0.00612831
7 1 0.995728 0.515005 0.0675505 0 -0.00419426 -0.000518799
8 1 0.829824 0.160136 0.139667 0 0.00450516 0.00613213
9 1 0.74573 0.651662 0.0675505 0 0.00419998 -0.000520706
10 1 0.747078 -0.00139443 0.279778 0 0.00241661 0.00247002
11 1 0.664299 0.167939 0.419991 0 0.00320244 0.00351334
12 1 0.581584 -0.000774119 0.560547 0 -0.00957489 -0.0107746
13 1 0.331585 0.167442 0.560547 0 0.00956154 -0.0107746
14 1 0.248772 -0.00174921 0.700608 0 0.00290108 0.0102329
15 1 0.998772 0.168415 0.700608 0 -0.00289536 0.0102253
16 1 0.916158 0.000916193 0.841527 0 0.00685501 0.00117111
17 1 0.663296 0.500915 0.208926 0 0.00686646 -0.00116348
18 1 0.497077 0.168061 0.279778 0 -0.00241661 0.00247002
19 1 0.413297 0.665751 0.208926 0 -0.0068512 -0.00115967
20 1 0.4143 -0.00127234 0.419991 0 -0.00320053 0.00350189
21 1 0.330681 0.498251 0.349845 0 0.00290108 -0.010231
22 1 0.1643 0.16794 0.419991 0 0.00319672 0.00350952
23 1 0.0806813 0.668416 0.349845 0 -0.00289536 -0.0102196
24 1 0.0815847 -0.000773998 0.560547 0 -0.00956535 -0.0107784
25 1 0.997868 0.499226 0.489906 0 -0.00956345 0.0107784
26 1 0.831586 0.167442 0.560548 0 0.00956345 -0.010788
27 1 0.747869 0.667442 0.489906 0 0.00956345 0.0107727
28 1 0.495728 0.515007 0.0675502 0 -0.00419044 -0.000516891
29 1 0.245728 0.651661 0.0675504 0 0.00418472 -0.00050354
30 1 0.163297 0.500915 0.208926 0 0.00685883 -0.00117302
31 1 0.913297 0.665752 0.208926 0 -0.00685883 -0.00115967
32 1 0.830682 0.498251 0.349845 0 0.00290871 -0.0102234
33 1 0.666156 0.165751 0.841527 0 -0.00686264 0.00115967
34 1 0.583725 0.0150055 0.982903 0 -0.00418663 0.000513077
35 1 0.333725 0.151661 0.982902 0 0.00418663 0.000516891
36 1 0.748771 -0.00174864 0.700608 0 0.00290108 0.0102196
37 1 0.665152 0.498727 0.630462 0 -0.00319099 -0.00350189
38 1 0.498772 0.168415 0.700608 0 -0.00289917 0.0102329
39 1 0.415153 0.667939 0.630462 0 0.00321007 -0.00350952
40 1 0.416157 0.00091561 0.841527 0 0.00685692 0.00116348
41 1 0.332376 0.498606 0.770675 0 0.00240707 -0.00248146
42 1 0.166156 0.165751 0.841527 0 -0.00685883 0.00116539
43 1 0.0823761 0.668061 0.770675 0 -0.00241661 -0.00246811
44 1 0.0837255 0.0150066 0.982903 0 -0.00418282 0.000507355
45 1 -0.000369235 0.506533 0.910786 0 -0.00451469 -0.0061245
46 1 0.580681 0.668416 0.349845 0 -0.00290108 -0.0102215
47 1 0.497868 0.499226 0.489906 0 -0.00955391 0.0107708
48 1 0.247868 0.667442 0.489905 0 0.00956917 0.0107822
49 1 0.165153 0.498728 0.630462 0 -0.00321007 -0.00351524
50 1 0.915154 0.667939 0.630462 0 0.00320053 -0.00349998
51 1 0.832377 0.498606 0.770675 0 0.00240898 -0.00247765
52 1 0.833723 0.151662 0.982902 0 0.00420189 0.000522614
53 1 0.749629 0.660136 0.910785 0 0.00451469 -0.0061264
54 1 0.582376 0.66806 0.770675 0 -0.0024147 -0.00247383
55 1 0.49963 0.506532 0.910785 0 -0.00451469 -0.00612831
56 1 0.24963 0.660135 0.910786 0 0.0045166 -0.00613976
ITEM: TIMESTEP
5
ITEM: NUMBER OF ATOMS
56
ITEM: BOX BOUNDS xy xz yz pp pp pp
-2.6222482323646545e+00 1.2203788340091705e+01 0.0000000000000000e+00
-8.4733366966247559e-03 5.5348814725875854e+00 -2.6035597324371338e+00
-2.9168844223022461e-02 1.9049128890037537e+01 0.0000000000000000e+00
ITEM: ATOMS id type xs ys zs fx fy fz
1 1 0.57985 0.00623637 0.139797 0 -0.000175476 0.000659943
2 1 0.329851 0.16043 0.139796 0 0.000188828 0.000671387
3 1 0.24709 -0.00122608 0.279836 0 0.00260544 0.00270462
4 1 0.997089 0.167893 0.279836 0 -0.0025959 0.0026989
5 1 0.91432 -0.00149883 0.420084 0 -0.00349426 -0.00289154
6 1 0.0798507 0.00623536 0.139797 0 -0.000179291 0.000665665
7 1 0.995727 0.514749 0.0675418 0 -0.00297928 -0.00250244
8 1 0.829852 0.160431 0.139797 0 0.000190735 0.000665665
9 1 0.745728 0.651919 0.0675417 0 0.00296593 -0.00250435
10 1 0.747091 -0.00122614 0.279836 0 0.00261116 0.00270271
11 1 0.664319 0.168166 0.420084 0 0.00350761 -0.00289726
12 1 0.581538 -0.00142049 0.560331 0 -0.0032196 0.00429726
13 1 0.331539 0.168087 0.560331 0 0.00323105 0.00430679
14 1 0.248806 -0.00157359 0.70077 0 0.000923157 -0.00208282
15 1 0.998807 0.16824 0.70077 0 -0.000926971 -0.00206947
16 1 0.916163 0.00138734 0.841554 0 -0.00028038 0.00186539
17 1 0.66329 0.501387 0.208899 0 -0.000297546 -0.00186729
18 1 0.497089 0.167893 0.279836 0 -0.00260353 0.00270271
19 1 0.413291 0.66528 0.208899 0 0.000282288 -0.00186157
20 1 0.41432 -0.00149869 0.420084 0 -0.00350189 -0.00288582
21 1 0.330647 0.498426 0.349683 0 0.000926971 0.00208092
22 1 0.16432 0.168166 0.420084 0 0.00351143 -0.00288773
23 1 0.0806469 0.668241 0.349683 0 -0.000932693 0.0020752
24 1 0.0815387 -0.00141975 0.560331 0 -0.00324059 0.00431061
25 1 0.997914 0.49858 0.490121 0 -0.00322914 -0.00430679
26 1 0.83154 0.168087 0.560332 0 0.00322723 0.00431633
27 1 0.747915 0.668087 0.490122 0 0.00323105 -0.0043087
28 1 0.495726 0.51475 0.0675415 0 -0.00296783 -0.00250244
29 1 0.245727 0.651917 0.067542 0 0.00297737 -0.00252342
30 1 0.163291 0.501387 0.208899 0 -0.00028801 -0.00186348
31 1 0.913291 0.66528 0.208899 0 0.00028038 -0.00186539
32 1 0.830648 0.498427 0.349683 0 0.000917435 0.00208282
33 1 0.666162 0.16528 0.841553 0 0.000284195 0.00186729
34 1 0.583727 0.0147494 0.982911 0 -0.00297928 0.0025177
35 1 0.333727 0.151918 0.982911 0 0.00297165 0.00251389
36 1 0.748805 -0.00157301 0.70077 0 0.000919342 -0.00207329
37 1 0.665132 0.498502 0.630368 0 -0.00351143 0.00288582
38 1 0.498807 0.16824 0.70077 0 -0.000925064 -0.00207901
39 1 0.415133 0.668166 0.630368 0 0.00350761 0.00289345
40 1 0.416162 0.00138687 0.841554 0 -0.000286102 0.00186348
41 1 0.332364 0.498774 0.770616 0 0.00260162 -0.0026989
42 1 0.166162 0.16528 0.841554 0 0.000286102 0.00186539
43 1 0.0823637 0.667892 0.770617 0 -0.00260353 -0.00271034
44 1 0.0837273 0.0147507 0.982911 0 -0.00297165 0.00250626
45 1 -0.000396767 0.506237 0.910657 0 -0.000181198 -0.000675201
46 1 0.580647 0.66824 0.349683 0 -0.000926971 0.00207901
47 1 0.497914 0.498581 0.490121 0 -0.00324059 -0.00430489
48 1 0.247914 0.668088 0.490121 0 0.00322342 -0.00430679
49 1 0.165133 0.498501 0.630368 0 -0.00349617 0.00289726
50 1 0.915134 0.668166 0.630369 0 0.00350761 0.00288582
51 1 0.832365 0.498774 0.770617 0 0.00260353 -0.0026989
52 1 0.833725 0.15192 0.982911 0 0.00297356 0.00250244
53 1 0.749602 0.660432 0.910656 0 0.000179291 -0.000669479
54 1 0.582364 0.667892 0.770616 0 -0.00260735 -0.00270462
55 1 0.499603 0.506236 0.910656 0 -0.000177383 -0.000677109
56 1 0.249603 0.660431 0.910656 0 0.000183105 -0.000665665
ITEM: TIMESTEP
6
ITEM: NUMBER OF ATOMS
56
ITEM: BOX BOUNDS xy xz yz pp pp pp
-2.6222482323646545e+00 1.2203788340091705e+01 0.0000000000000000e+00
-8.4733366966247559e-03 5.5348814725875854e+00 -2.6035597324371338e+00
-2.9168844223022461e-02 1.9049128890037537e+01 0.0000000000000000e+00
ITEM: ATOMS id type xs ys zs fx fy fz
1 1 0.579859 0.00616098 0.139838 0 -0.000190735 0.000452042
2 1 0.32986 0.160507 0.139838 0 0.000181198 0.000448227
3 1 0.247105 -0.00099654 0.279907 0 -0.000169754 -0.000583649
4 1 0.997104 0.167664 0.279907 0 0.000160217 -0.000577927
5 1 0.914311 -0.00180712 0.420042 0 -0.000352859 0.00129128
6 1 0.0798596 0.00615962 0.139839 0 -0.000179291 0.000448227
7 1 0.995715 0.514473 0.0674858 0 0.000183105 0.000507355
8 1 0.82986 0.160507 0.139838 0 0.000175476 0.000448227
9 1 0.745716 0.652194 0.0674856 0 -0.000171661 0.000513077
10 1 0.747106 -0.000995985 0.279907 0 -0.000171661 -0.000574112
11 1 0.66431 0.168475 0.420041 0 0.000352859 0.00128746
12 1 0.581548 -0.0017967 0.560379 0 -0.000747681 0.000886917
13 1 0.331549 0.168464 0.560379 0 0.000753403 0.000879288
14 1 0.248804 -0.00146776 0.700759 0 -0.000488281 -0.000171661
15 1 0.998804 0.168134 0.700759 0 0.000484467 -0.000171661
16 1 0.916173 0.00146566 0.8416 0 -0.000606537 1.33514e-05
17 1 0.663281 0.501464 0.208853 0 -0.000591278 -5.72205e-06
18 1 0.497104 0.167663 0.279907 0 0.000165939 -0.000572205
19 1 0.413282 0.665202 0.208854 0 0.000600815 -2.47955e-05
20 1 0.414311 -0.00180749 0.420042 0 -0.000356674 0.00128746
21 1 0.330649 0.498533 0.349694 0 -0.000482559 0.000169754
22 1 0.164311 0.168475 0.420042 0 0.00034523 0.00128937
23 1 0.0806492 0.668134 0.349694 0 0.000494003 0.000171661
24 1 0.0815489 -0.00179739 0.560379 0 -0.000728607 0.000883102
25 1 0.997904 0.498204 0.490074 0 -0.000751495 -0.000881195
26 1 0.83155 0.168464 0.56038 0 0.000753403 0.000867844
27 1 0.747905 0.668464 0.490074 0 0.000740051 -0.00087738
28 1 0.495714 0.514475 0.0674855 0 0.000179291 0.000495911
29 1 0.245715 0.652193 0.0674856 0 -0.000175476 0.000509262
30 1 0.163282 0.501464 0.208853 0 -0.000598907 -9.53674e-06
31 1 0.913282 0.665202 0.208853 0 0.000602722 -1.14441e-05
32 1 0.83065 0.498533 0.349694 0 -0.000484467 0.000160217
33 1 0.666171 0.165202 0.841599 0 0.00060463 2.47955e-05
34 1 0.583739 0.0144733 0.982967 0 0.000179291 -0.000522614
35 1 0.333739 0.152193 0.982967 0 -0.000177383 -0.000509262
36 1 0.748803 -0.00146747 0.700759 0 -0.000494003 -0.000164032
37 1 0.665141 0.498192 0.630411 0 -0.000350952 -0.00128555
38 1 0.498804 0.168134 0.700759 0 0.000484467 -0.000169754
39 1 0.415143 0.668475 0.630411 0 0.000349045 -0.00129318
40 1 0.416172 0.00146479 0.841599 0 -0.000602722 1.14441e-05
41 1 0.332349 0.499003 0.770546 0 -0.000160217 0.000572205
42 1 0.166172 0.165202 0.8416 0 0.000598907 1.90735e-05
43 1 0.0823486 0.667663 0.770546 0 0.000169754 0.000574112
44 1 0.0837393 0.0144753 0.982967 0 0.000171661 -0.000499725
45 1 -0.000405682 0.506161 0.910615 0 -0.000175476 -0.000444412
46 1 0.580649 0.668134 0.349694 0 0.000488281 0.000169754
47 1 0.497904 0.498203 0.490074 0 -0.000741959 -0.000886917
48 1 0.247904 0.668464 0.490074 0 0.000751495 -0.00087738
49 1 0.165142 0.498192 0.630411 0 -0.000360489 -0.00128746
50 1 0.915143 0.668475 0.630412 0 0.000347137 -0.00128746
51 1 0.83235 0.499003 0.770546 0 -0.000165939 0.000572205
52 1 0.833737 0.152195 0.982967 0 -0.000185013 -0.000513077
53 1 0.749593 0.660507 0.910614 0 0.000179291 -0.00044632
54 1 0.582348 0.667662 0.770546 0 0.000169754 0.000577927
55 1 0.499594 0.50616 0.910614 0 -0.000185013 -0.000434875
56 1 0.249594 0.660507 0.910615 0 0.000181198 -0.000448227
ITEM: TIMESTEP
7
ITEM: NUMBER OF ATOMS
56
ITEM: BOX BOUNDS xy xz yz pp pp pp
-2.6222482323646545e+00 1.2203788340091705e+01 0.0000000000000000e+00
-8.4733366966247559e-03 5.5348814725875854e+00 -2.6035597324371338e+00
-2.9168844223022461e-02 1.9049128890037537e+01 0.0000000000000000e+00
ITEM: ATOMS id type xs ys zs fx fy fz
1 1 0.579861 0.00614273 0.13985 0 -0.000160217 -0.000556946
2 1 0.329862 0.160524 0.13985 0 0.000171661 -0.000553131
3 1 0.247103 -0.00099807 0.279898 0 -0.000385284 0.000627518
4 1 0.997102 0.167664 0.279898 0 0.000391006 0.000621796
5 1 0.914316 -0.00184924 0.420068 0 -4.19617e-05 0.000226974
6 1 0.0798622 0.00614223 0.13985 0 -0.000167847 -0.000555038
7 1 0.995716 0.514473 0.0674942 0 -3.05176e-05 -0.000263214
8 1 0.829863 0.160525 0.13985 0 0.000175476 -0.000558853
9 1 0.745718 0.652195 0.0674942 0 2.67029e-05 -0.000257492
10 1 0.747104 -0.00099763 0.279898 0 -0.000391006 0.000616074
11 1 0.664315 0.168517 0.420068 0 3.62396e-05 0.000232697
12 1 0.581553 -0.00187223 0.560401 0 -0.000249863 -2.09808e-05
13 1 0.331554 0.16854 0.560401 0 0.000242233 -1.71661e-05
14 1 0.248803 -0.00149966 0.700754 0 -0.000354767 0.000349045
15 1 0.998803 0.168165 0.700755 0 0.000350952 0.000339508
16 1 0.916174 0.00142341 0.841602 0 -8.2016e-05 -0.000404358
17 1 0.66328 0.501423 0.208851 0 -8.58307e-05 0.000394821
18 1 0.497102 0.167664 0.279898 0 0.000389099 0.000612259
19 1 0.413281 0.665243 0.208851 0 8.39233e-05 0.000404358
20 1 0.414317 -0.00184994 0.420068 0 -3.62396e-05 0.000226974
21 1 0.33065 0.498501 0.349698 0 -0.000358582 -0.000341415
22 1 0.164316 0.168517 0.420068 0 4.76837e-05 0.000221252
23 1 0.0806501 0.668167 0.349698 0 0.000349045 -0.000335693
24 1 0.0815536 -0.00187154 0.560401 0 -0.000265121 -2.67029e-05
25 1 0.997899 0.498128 0.490052 0 -0.000234604 2.09808e-05
26 1 0.831555 0.16854 0.560401 0 0.000236511 -1.33514e-05
27 1 0.7479 0.668539 0.490052 0 0.00025177 2.09808e-05
28 1 0.495716 0.514475 0.0674937 0 -3.24249e-05 -0.000249863
29 1 0.245716 0.652194 0.067494 0 2.09808e-05 -0.000253677
30 1 0.163281 0.501423 0.208851 0 -7.82013e-05 0.000392914
31 1 0.913281 0.665244 0.208851 0 7.62939e-05 0.000396729
32 1 0.830651 0.498501 0.349698 0 -0.000352859 -0.000335693
33 1 0.666172 0.165244 0.841602 0 8.39233e-05 -0.000415802
34 1 0.583737 0.0144733 0.982959 0 -3.05176e-05 0.000259399
35 1 0.333737 0.152193 0.982959 0 2.47955e-05 0.000257492
36 1 0.748802 -0.00149981 0.700754 0 -0.000347137 0.000333786
37 1 0.665135 0.49815 0.630385 0 -3.8147e-05 -0.000228882
38 1 0.498803 0.168165 0.700754 0 0.000349045 0.000343323
39 1 0.415137 0.668517 0.630385 0 4.3869e-05 -0.000225067
40 1 0.416172 0.0014228 0.841602 0 -8.39233e-05 -0.000396729
41 1 0.332351 0.499002 0.770555 0 -0.000396729 -0.000616074
42 1 0.166172 0.165244 0.841602 0 8.39233e-05 -0.000404358
43 1 0.0823506 0.667664 0.770555 0 0.000391006 -0.000612259
44 1 0.0837375 0.0144747 0.982959 0 -1.71661e-05 0.000259399
45 1 -0.000408216 0.506144 0.910603 0 -0.000175476 0.000555038
46 1 0.58065 0.668166 0.349698 0 0.000352859 -0.000343323
47 1 0.497899 0.498128 0.490052 0 -0.000244141 2.86102e-05
48 1 0.247899 0.66854 0.490052 0 0.000242233 2.09808e-05
49 1 0.165137 0.49815 0.630385 0 -3.43323e-05 -0.000228882
50 1 0.915138 0.668517 0.630385 0 4.95911e-05 -0.000230789
51 1 0.832352 0.499002 0.770555 0 -0.000394821 -0.000616074
52 1 0.833735 0.152195 0.982958 0 3.24249e-05 0.000270844
53 1 0.74959 0.660525 0.910602 0 0.000177383 0.000551224
54 1 0.58235 0.667664 0.770555 0 0.000391006 -0.000616074
55 1 0.499591 0.506142 0.910603 0 -0.000175476 0.000545502
56 1 0.249591 0.660524 0.910603 0 0.000173569 0.000547409
ITEM: TIMESTEP
8
ITEM: NUMBER OF ATOMS
56
ITEM: BOX BOUNDS xy xz yz pp pp pp
-2.6222482323646545e+00 1.2203788340091705e+01 0.0000000000000000e+00
-8.4733366966247559e-03 5.5348814725875854e+00 -2.6035597324371338e+00
-2.9168844223022461e-02 1.9049128890037537e+01 0.0000000000000000e+00
ITEM: ATOMS id type xs ys zs fx fy fz
1 1 0.57986 0.006127 0.139843 0 1.90735e-05 0.000175476
2 1 0.329861 0.16054 0.139843 0 -1.90735e-05 0.00018692
3 1 0.247105 -0.00102411 0.279907 0 -0.000125885 0.000226974
4 1 0.997104 0.167691 0.279907 0 0.000125885 0.000226974
5 1 0.914319 -0.00186375 0.42008 0 -9.15527e-05 -0.000106812
6 1 0.0798606 0.00612623 0.139843 0 2.09808e-05 0.000188828
7 1 0.995716 0.514471 0.0674915 0 -1.52588e-05 0.000185013
8 1 0.829861 0.160541 0.139843 0 -2.09808e-05 0.000185013
9 1 0.745717 0.652197 0.0674916 0 1.33514e-05 0.000169754
10 1 0.747106 -0.00102409 0.279907 0 -0.000120163 0.000225067
11 1 0.664318 0.168531 0.42008 0 9.53674e-05 -0.000112534
12 1 0.581554 -0.00190985 0.560407 0 6.29425e-05 -3.43323e-05
13 1 0.331555 0.168577 0.560407 0 -6.67572e-05 -3.8147e-05
14 1 0.248804 -0.00153212 0.70076 0 -0.000102997 -7.62939e-05
15 1 0.998805 0.168197 0.70076 0 0.000110626 -6.67572e-05
16 1 0.916172 0.0014062 0.841595 0 -4.76837e-05 5.53131e-05
17 1 0.663282 0.501406 0.208858 0 -5.53131e-05 -5.53131e-05
18 1 0.497104 0.16769 0.279907 0 0.000133514 0.000225067
19 1 0.413283 0.665261 0.208858 0 5.34058e-05 -5.91278e-05
20 1 0.414319 -0.00186415 0.42008 0 -8.7738e-05 -0.000108719
21 1 0.330649 0.498469 0.349693 0 -0.000108719 6.86646e-05
22 1 0.164319 0.168532 0.42008 0 8.96454e-05 -0.000104904