ITEM: TIMESTEP
0
ITEM: NUMBER OF ATOMS
56
ITEM: BOX BOUNDS xy xz yz pp pp pp
-1.9280350253822955e+00 1.2163911692441133e+01 1.5526132515564727e-08
-3.0061665652343075e-03 5.5294143007778995e+00 -1.9492232067673230e+00
7.7232233150646462e-04 1.9019187752468508e+01 2.1812666742635317e-08
ITEM: ATOMS id type xs ys zs fx fy fz
1 1 0.571716 3.09294e-05 0.132367 0 0.0147939 0.759712
2 1 0.321716 0.166637 0.132367 0 -0.0148135 0.759714
3 1 0.232481 1.50434e-05 0.275226 0 -0.00294631 0.00246225
4 1 0.982481 0.166653 0.275226 0 0.00293647 0.0024638
5 1 0.893193 1.01858e-05 0.418082 0 -0.000900712 0.000331044
6 1 0.0717162 3.06084e-05 0.132367 0 0.0148027 0.759713
7 1 0.991307 0.500062 0.06094 0 -0.0384743 0.76375
8 1 0.821717 0.166637 0.132367 0 -0.0148055 0.759702
9 1 0.741308 0.666605 0.06094 0 0.0384847 0.763779
10 1 0.732482 1.49384e-05 0.275226 0 -0.00294239 0.00246715
11 1 0.643192 0.166657 0.418083 0 0.000905456 0.000329732
12 1 0.553894 1.60347e-05 0.560942 0 -0.00104455 -0.000113691
13 1 0.303895 0.166652 0.560941 0 0.0010268 -0.000100217
14 1 0.214603 1.61665e-05 0.703801 0 -0.00193323 0.0024596
15 1 0.964603 0.166652 0.703801 0 0.00190648 0.00244985
16 1 0.875326 1.72772e-05 0.846652 0 -0.0126704 -0.0296626
17 1 0.652115 0.500017 0.203801 0 -0.0126577 0.0296729
18 1 0.482481 0.166653 0.275226 0 0.00291774 0.00246296
19 1 0.402116 0.66665 0.203801 0 0.0126737 0.0296745
20 1 0.393193 1.09165e-05 0.418082 0 -0.000921266 0.000336097
21 1 0.312838 0.500016 0.346652 0 -0.00191951 -0.00245363
22 1 0.143193 0.166657 0.418082 0 0.000908212 0.000334263
23 1 0.0628376 0.666651 0.346652 0 0.00193114 -0.00246144
24 1 0.0538948 1.5722e-05 0.560941 0 -0.00103489 -9.71965e-05
25 1 0.973546 0.500016 0.489511 0 -0.00103193 9.81698e-05
26 1 0.803896 0.166652 0.560941 0 0.00102751 -8.34173e-05
27 1 0.723547 0.666651 0.489511 0 0.00103559 0.000106106
28 1 0.491307 0.500061 0.0609401 0 -0.038456 0.763753
29 1 0.241307 0.666605 0.06094 0 0.0384792 0.763762
30 1 0.152116 0.500017 0.203801 0 -0.0126584 0.0296764
31 1 0.902116 0.66665 0.203801 0 0.0126549 0.0296771
32 1 0.812839 0.500016 0.346652 0 -0.0019309 -0.00246126
33 1 0.625325 0.16665 0.846652 0 0.0126655 -0.0296895
34 1 0.536135 6.23935e-05 0.989513 0 -0.0384841 -0.763752
35 1 0.286134 0.166605 0.989513 0 0.0384672 -0.763762
36 1 0.714602 1.60929e-05 0.703801 0 -0.00193132 0.00245411
37 1 0.634247 0.50001 0.632371 0 -0.000906686 -0.000354234
38 1 0.464603 0.166651 0.703801 0 0.00192434 0.00246262
39 1 0.384248 0.666656 0.63237 0 0.000914753 -0.000339581
40 1 0.375326 1.72431e-05 0.846652 0 -0.0126689 -0.0296766
41 1 0.29496 0.500015 0.775227 0 -0.00293345 -0.0024604
42 1 0.125325 0.16665 0.846652 0 0.012655 -0.0296744
43 1 0.0449593 0.666652 0.775227 0 0.0029484 -0.00246428
44 1 0.0361345 6.17797e-05 0.989513 0 -0.0384675 -0.763759
45 1 0.955725 0.50003 0.918085 0 0.0148062 -0.759691
46 1 0.562837 0.666651 0.346652 0 0.00193994 -0.00245135
47 1 0.473546 0.500015 0.489511 0 -0.00101078 0.000105668
48 1 0.223546 0.666651 0.489511 0 0.00103738 0.000100488
49 1 0.134248 0.500011 0.63237 0 -0.000905995 -0.000338192
50 1 0.884249 0.666656 0.63237 0 0.000924554 -0.000326239
51 1 0.794961 0.500015 0.775227 0 -0.00293184 -0.00245595
52 1 0.786133 0.166605 0.989513 0 0.0384743 -0.763763
53 1 0.705724 0.666636 0.918086 0 -0.0148038 -0.759735
54 1 0.544959 0.666653 0.775227 0 0.00293109 -0.00245395
55 1 0.455725 0.50003 0.918085 0 0.0148139 -0.759714
56 1 0.205725 0.666636 0.918085 0 -0.0148011 -0.759717
ITEM: TIMESTEP
9
ITEM: NUMBER OF ATOMS
56
ITEM: BOX BOUNDS xy xz yz pp pp pp
-1.9280350253822955e+00 1.2163911692441133e+01 1.5526132515564727e-08
-3.0061665652343075e-03 5.5294143007778995e+00 -1.9492232067673230e+00
7.7232233150646462e-04 1.9019187752468508e+01 2.1812666742635317e-08
ITEM: ATOMS id type xs ys zs fx fy fz
1 1 0.573123 -0.00265724 0.141134 0 3.69269e-05 0.000104828
2 1 0.323124 0.169324 0.141134 0 -3.5645e-05 0.000102717
3 1 0.2333 -0.00267645 0.280326 0 -5.1129e-06 -5.39291e-05
4 1 0.9833 0.169343 0.280326 0 6.11219e-06 -5.41248e-05
5 1 0.893538 -0.00209806 0.420229 0 4.62779e-05 -7.18049e-05
6 1 0.0731236 -0.00265743 0.141134 0 3.6321e-05 0.000101641
7 1 0.992466 0.491114 0.0681656 0 0.000172055 -6.08284e-05
8 1 0.823124 0.169324 0.141134 0 -3.49035e-05 0.000105079
9 1 0.742468 0.675554 0.0681655 0 -0.000172777 -6.01145e-05
10 1 0.733301 -0.0026764 0.280326 0 -5.98116e-06 -5.49959e-05
11 1 0.643536 0.168766 0.420229 0 -4.52072e-05 -7.24058e-05
12 1 0.553809 -0.00197276 0.560411 0 0.000104175 -5.78726e-05
13 1 0.30381 0.16864 0.560411 0 -0.00010394 -5.84525e-05
14 1 0.214113 -0.00207261 0.700744 0 0.000109968 2.31569e-07
15 1 0.964113 0.168739 0.700744 0 -0.000110168 3.23355e-06
16 1 0.874459 -0.00262158 0.841247 0 -8.60218e-05 -0.000149245
17 1 0.652982 0.497378 0.209206 0 -8.79275e-05 0.000149544
18 1 0.4833 0.169343 0.280326 0 5.91152e-06 -5.36272e-05
19 1 0.402983 0.669288 0.209206 0 8.73325e-05 0.000149974
20 1 0.393538 -0.00209826 0.420229 0 4.58978e-05 -7.22209e-05
21 1 0.313328 0.497928 0.349709 0 0.000109783 -2.81623e-06
22 1 0.143537 0.168766 0.420229 0 -4.53088e-05 -7.17029e-05
23 1 0.0633283 0.668739 0.349709 0 -0.000110534 -3.89939e-06
24 1 0.0538097 -0.00197267 0.560411 0 0.000103096 -5.64463e-05
25 1 0.973631 0.498028 0.490042 0 0.000102131 5.71869e-05
26 1 0.803811 0.16864 0.560411 0 -0.000102737 -5.69356e-05
27 1 0.723632 0.66864 0.490042 0 -0.000103632 5.8042e-05
28 1 0.492466 0.491114 0.0681654 0 0.000172302 -5.9365e-05
29 1 0.242467 0.675553 0.0681655 0 -0.000172495 -6.03551e-05
30 1 0.152983 0.497378 0.209206 0 -8.74191e-05 0.000150984
31 1 0.902983 0.669288 0.209206 0 8.6801e-05 0.000150064
32 1 0.813329 0.497928 0.349709 0 0.000110964 -2.25758e-06
33 1 0.624457 0.169289 0.841247 0 8.73201e-05 -0.000151299
34 1 0.534975 -0.00888583 0.982287 0 0.000171969 5.8952e-05
35 1 0.284974 0.175553 0.982287 0 -0.000171759 5.78796e-05
36 1 0.714112 -0.00207266 0.700744 0 0.000110606 -6.87774e-08
37 1 0.633903 0.497901 0.630223 0 4.53349e-05 7.14196e-05
38 1 0.464113 0.168739 0.700744 0 -0.000111204 2.22141e-06
39 1 0.383904 0.668765 0.630224 0 -4.49538e-05 7.41865e-05
40 1 0.374458 -0.00262172 0.841247 0 -8.63726e-05 -0.000147959
41 1 0.294141 0.497323 0.770126 0 -5.47975e-06 5.43739e-05
42 1 0.124458 0.169289 0.841247 0 8.80433e-05 -0.000151496
43 1 0.0441405 0.669343 0.770126 0 4.84192e-06 5.40236e-05
44 1 0.0349746 -0.00888558 0.982288 0 0.000172028 6.08883e-05
45 1 0.954318 0.497343 0.909319 0 3.52913e-05 -0.000101928
46 1 0.563328 0.668739 0.349709 0 -0.000111032 -2.09977e-06
47 1 0.473631 0.498028 0.490042 0 0.000101566 5.77077e-05
48 1 0.223631 0.66864 0.490042 0 -0.000103508 5.88674e-05
49 1 0.133904 0.497901 0.630224 0 4.63724e-05 7.1023e-05
50 1 0.883904 0.668765 0.630224 0 -4.5612e-05 7.2386e-05
51 1 0.794142 0.497323 0.770126 0 -6.90558e-06 5.4966e-05
52 1 0.784973 0.175554 0.982287 0 -0.000171788 5.71564e-05
53 1 0.704316 0.669325 0.909318 0 -3.57531e-05 -0.000101294
54 1 0.544141 0.669343 0.770126 0 6.14897e-06 5.28421e-05
55 1 0.454318 0.497343 0.909319 0 3.52141e-05 -0.000102319
56 1 0.204317 0.669324 0.909319 0 -3.65576e-05 -0.000100695
