ITEM: TIMESTEP
0
ITEM: NUMBER OF ATOMS
56
ITEM: BOX BOUNDS xy xz yz pp pp pp
-3.1444261930732953e+00 1.2163911692441133e+01 1.5526132515564727e-08
-3.0061665652343075e-03 5.5294143007778995e+00 -3.1656143744583227e+00
7.7232233150646462e-04 1.9019187752468508e+01 2.1812666742635317e-08
ITEM: ATOMS id type xs ys zs fx fy fz
1 1 0.584975 3.09294e-05 0.132367 0 0.0255765 0.189944
2 1 0.334976 0.166637 0.132367 0 -0.0255966 0.189953
3 1 0.260052 1.50434e-05 0.275226 0 -0.00609492 0.00460502
4 1 0.0100516 0.166653 0.275226 0 0.00608506 0.00460632
5 1 0.935074 1.01858e-05 0.418082 0 -0.000961091 -0.000415183
6 1 0.0849761 3.06084e-05 0.132367 0 0.0255852 0.189949
7 1 0.997411 0.500062 0.06094 0 1.08209 0.865313
8 1 0.834977 0.166637 0.132367 0 -0.0255876 0.189961
9 1 0.747412 0.666605 0.06094 0 -1.08208 0.865344
10 1 0.760053 1.49384e-05 0.275226 0 -0.006091 0.00461046
11 1 0.685073 0.166657 0.418083 0 0.000965998 -0.000416579
12 1 0.610086 1.60347e-05 0.560942 0 -0.00113111 0.000441926
13 1 0.360087 0.166652 0.560941 0 0.00111332 0.000455431
14 1 0.285106 1.61665e-05 0.703801 0 -0.00183294 0.00186857
15 1 0.0351063 0.166652 0.703801 0 0.00180618 0.00185905
16 1 0.960139 1.72772e-05 0.846652 0 -0.0160322 -0.0173942
17 1 0.67253 0.500017 0.203801 0 -0.0160197 0.0174041
18 1 0.510052 0.166653 0.275226 0 0.00606639 0.00460533
19 1 0.422531 0.66665 0.203801 0 0.0160356 0.0174062
20 1 0.435074 1.09165e-05 0.418082 0 -0.000981808 -0.000410064
21 1 0.347563 0.500016 0.346652 0 -0.00181908 -0.00186258
22 1 0.185074 0.166657 0.418082 0 0.000968589 -0.000411885
23 1 0.0975634 0.666651 0.346652 0 0.00183068 -0.00187025
24 1 0.110087 1.5722e-05 0.560941 0 -0.00112137 0.000458631
25 1 0.0225822 0.500016 0.489511 0 -0.00111855 -0.000457342
26 1 0.860088 0.166652 0.560941 0 0.00111411 0.00047219
27 1 0.772583 0.666651 0.489511 0 0.00112213 -0.000449677
28 1 0.497411 0.500061 0.0609401 0 1.08213 0.865338
29 1 0.247411 0.666605 0.06094 0 -1.08211 0.865338
30 1 0.172531 0.500017 0.203801 0 -0.0160204 0.0174078
31 1 0.922531 0.66665 0.203801 0 0.0160167 0.0174086
32 1 0.847564 0.500016 0.346652 0 -0.00183048 -0.00187032
33 1 0.710138 0.16665 0.846652 0 0.0160273 -0.017421
34 1 0.635258 6.23935e-05 0.989513 0 1.08208 -0.865299
35 1 0.385258 0.166605 0.989513 0 -1.08212 -0.865347
36 1 0.785105 1.60929e-05 0.703801 0 -0.00183086 0.00186298
37 1 0.697595 0.50001 0.632371 0 -0.00096718 0.000391989
38 1 0.535106 0.166651 0.703801 0 0.00182396 0.0018717
39 1 0.447596 0.666656 0.63237 0 0.000975248 0.000406705
40 1 0.460138 1.72431e-05 0.846652 0 -0.0160307 -0.0174084
41 1 0.372618 0.500015 0.775227 0 -0.00608201 -0.00460339
42 1 0.210138 0.16665 0.846652 0 0.0160166 -0.0174062
43 1 0.122617 0.666652 0.775227 0 0.00609704 -0.00460693
44 1 0.135258 6.17797e-05 0.989513 0 1.08212 -0.865335
45 1 0.0476941 0.50003 0.918085 0 0.0255896 -0.189929
46 1 0.597563 0.666651 0.346652 0 0.00183951 -0.00186031
47 1 0.522582 0.500015 0.489511 0 -0.00109728 -0.000450061
48 1 0.272582 0.666651 0.489511 0 0.00112394 -0.000455039
49 1 0.197596 0.500011 0.63237 0 -0.000966531 0.000408111
50 1 0.947596 0.666656 0.63237 0 0.000985151 0.00042014
51 1 0.872618 0.500015 0.775227 0 -0.00608081 -0.00459895
52 1 0.885257 0.166605 0.989513 0 -1.08209 -0.865343
53 1 0.797693 0.666636 0.918086 0 -0.0255858 -0.189988
54 1 0.622617 0.666653 0.775227 0 0.00607969 -0.00459626
55 1 0.547694 0.50003 0.918085 0 0.0255962 -0.18995
56 1 0.297693 0.666636 0.918085 0 -0.0255841 -0.189956
ITEM: TIMESTEP
12
ITEM: NUMBER OF ATOMS
56
ITEM: BOX BOUNDS xy xz yz pp pp pp
-3.1444261930732953e+00 1.2163911692441133e+01 1.5526132515564727e-08
-3.0061665652343075e-03 5.5294143007778995e+00 -3.1656143744583227e+00
7.7232233150646462e-04 1.9019187752468508e+01 2.1812666742635317e-08
ITEM: ATOMS id type xs ys zs fx fy fz
1 1 0.585992 0.0177188 0.136268 0 3.45312e-05 4.28593e-05
2 1 0.335993 0.148949 0.136268 0 -3.06463e-05 3.57964e-05
3 1 0.260766 -0.000436632 0.277964 0 2.44422e-05 -1.42202e-06
4 1 0.0107654 0.167103 0.277964 0 -2.58184e-05 -1.70491e-06
5 1 0.935379 -0.0010971 0.419251 0 1.14509e-05 -1.36414e-05
6 1 0.085993 0.0177174 0.136268 0 3.31368e-05 4.23997e-05
7 1 0.998004 0.549418 0.063214 0 3.11612e-05 0.000100164
8 1 0.835994 0.148949 0.136268 0 -3.18844e-05 4.01752e-05
9 1 0.748005 0.617248 0.0632142 0 -3.47024e-05 0.000100216
10 1 0.760767 -0.000436482 0.277964 0 2.40373e-05 -7.75832e-07
11 1 0.685378 0.167765 0.419251 0 -1.26376e-05 -1.10925e-05
12 1 0.609999 -0.00108056 0.560609 0 -1.20652e-05 5.14716e-05
13 1 0.36 0.167748 0.560609 0 1.15882e-05 5.52157e-05
14 1 0.284643 -0.000980889 0.702024 0 4.97935e-05 -4.21704e-06
15 1 0.0346431 0.167647 0.702024 0 -5.00313e-05 -3.64048e-06
16 1 0.95937 0.00373793 0.843702 0 6.3206e-06 4.15767e-05
17 1 0.673299 0.503738 0.20675 0 5.47454e-06 -4.51327e-05
18 1 0.510765 0.167103 0.277964 0 -2.50809e-05 -1.42961e-06
19 1 0.4233 0.66293 0.20675 0 -6.71663e-06 -4.39409e-05
20 1 0.435379 -0.0010973 0.419251 0 9.8937e-06 -1.10275e-05
21 1 0.348027 0.499019 0.348429 0 5.11581e-05 4.62664e-06
22 1 0.185379 0.167765 0.419251 0 -1.26231e-05 -1.30393e-05
23 1 0.0980265 0.667648 0.348429 0 -4.95579e-05 3.14394e-06
24 1 0.11 -0.00108056 0.560609 0 -1.20758e-05 5.60078e-05
25 1 0.022669 0.49892 0.489844 0 -1.04057e-05 -5.23776e-05
26 1 0.860001 0.167748 0.560609 0 1.18739e-05 5.54791e-05
27 1 0.77267 0.667748 0.489844 0 1.05969e-05 -5.38146e-05
28 1 0.498004 0.54942 0.0632138 0 2.91887e-05 9.43959e-05
29 1 0.248004 0.617248 0.0632139 0 -3.40743e-05 0.000101457
30 1 0.1733 0.503737 0.20675 0 6.18017e-06 -4.55645e-05
31 1 0.9233 0.662929 0.20675 0 -6.29529e-06 -4.49015e-05
32 1 0.848027 0.499019 0.348429 0 5.13671e-05 2.48686e-06
33 1 0.709369 0.162929 0.843702 0 -6.8715e-06 4.67829e-05
34 1 0.634666 0.0494185 0.987239 0 3.5126e-05 -0.000103422
35 1 0.384665 0.117248 0.987239 0 -2.82064e-05 -9.49202e-05
36 1 0.784642 -0.000980873 0.702024 0 5.01495e-05 -1.41648e-06
37 1 0.69729 0.498902 0.631201 0 1.26306e-05 1.1434e-05
38 1 0.534643 0.167647 0.702024 0 -4.97784e-05 -4.8958e-06
39 1 0.447291 0.667765 0.631201 0 -1.2945e-05 1.64159e-05
40 1 0.45937 0.00373707 0.843702 0 7.91248e-06 4.40221e-05
41 1 0.371904 0.499563 0.772489 0 2.49109e-05 2.5901e-07
42 1 0.209369 0.162929 0.843702 0 -3.9661e-06 5.02603e-05
43 1 0.121903 0.667103 0.772489 0 -2.61528e-05 3.61933e-06
44 1 0.134666 0.0494202 0.987239 0 3.42639e-05 -0.000101675
45 1 0.0466772 0.517719 0.914185 0 3.28934e-05 -4.4309e-05
46 1 0.598026 0.667648 0.348429 0 -4.80789e-05 3.06433e-06
47 1 0.522669 0.49892 0.489844 0 -9.89641e-06 -5.48546e-05
48 1 0.272669 0.667748 0.489844 0 1.16793e-05 -5.72078e-05
49 1 0.197291 0.498902 0.631202 0 1.21216e-05 1.10837e-05
50 1 0.947291 0.667765 0.631202 0 -1.22779e-05 8.50273e-06
51 1 0.871905 0.499563 0.772489 0 2.4507e-05 5.18322e-06
52 1 0.884664 0.117248 0.987239 0 -3.20913e-05 -9.87475e-05
53 1 0.796675 0.648949 0.914184 0 -3.27556e-05 -3.87902e-05
54 1 0.621903 0.667103 0.772489 0 -2.47303e-05 -2.78666e-06
55 1 0.546677 0.517718 0.914184 0 2.90607e-05 -3.49429e-05
56 1 0.296676 0.648949 0.914185 0 -3.52469e-05 -4.22725e-05
