LAMMPS (23 Jun 2022 - Update 1)
OMP_NUM_THREADS environment is not set. Defaulting to 1 thread. (src/comm.cpp:98)
  using 1 OpenMP thread(s) per MPI task
Loaded 1 plugins from /software/deepmd-kit/2.1.5/gpu/lib/deepmd_lmp
Loaded 0 plugins from 
Reading data file ...
  orthogonal box = (0 0 0) to (26.25021 26.25021 25.3108)
  1 by 1 by 1 MPI processor grid
  reading atoms ...
  900 atoms
  read_data CPU = 0.013 seconds
Summary of lammps deepmd module ...
  >>> Info of deepmd-kit:
  installed to:       /software/deepmd-kit/2.1.5/gpu
  source:             v2.1.5
  source branch:       HEAD
  source commit:      6e3d4a62
  source commit at:   2022-09-23 16:10:28 +0800
  surpport model ver.:1.1 
  build float prec:   double
  build variant:      cuda
  build with tf inc:  /software/deepmd-kit/2.1.5/gpu/include;/software/deepmd-kit/2.1.5/gpu/include
  build with tf lib:  /software/deepmd-kit/2.1.5/gpu/lib/libtensorflow_cc.so;/software/deepmd-kit/2.1.5/gpu/lib/libtensorflow_framework.so
  set tf intra_op_parallelism_threads: 0
  set tf inter_op_parallelism_threads: 0
  >>> Info of lammps module:
  use deepmd-kit at:  /software/deepmd-kit/2.1.5/gpuDeePMD-kit WARNING: Environmental variable TF_INTRA_OP_PARALLELISM_THREADS is not set. Tune TF_INTRA_OP_PARALLELISM_THREADS for the best performance.
DeePMD-kit WARNING: Environmental variable TF_INTER_OP_PARALLELISM_THREADS is not set. Tune TF_INTER_OP_PARALLELISM_THREADS for the best performance.
DeePMD-kit WARNING: Environmental variable OMP_NUM_THREADS is not set. Tune OMP_NUM_THREADS for the best performance.
2023-03-03 14:56:35.835904: I tensorflow/core/platform/cpu_feature_guard.cc:193] This TensorFlow binary is optimized with oneAPI Deep Neural Network Library (oneDNN) to use the following CPU instructions in performance-critical operations:  SSE4.1 SSE4.2 AVX
To enable them in other operations, rebuild TensorFlow with the appropriate compiler flags.
2023-03-03 14:56:36.460253: I tensorflow/core/common_runtime/gpu/gpu_device.cc:1532] Created device /job:localhost/replica:0/task:0/device:GPU:0 with 10058 MB memory:  -> device: 0, name: GeForce GTX 1080 Ti, pci bus id: 0000:04:00.0, compute capability: 6.1
2023-03-03 14:56:36.460556: I tensorflow/core/common_runtime/process_util.cc:146] Creating new thread pool with default inter op setting: 2. Tune using inter_op_parallelism_threads for best performance.
2023-03-03 14:56:36.505182: I tensorflow/compiler/mlir/mlir_graph_optimization_pass.cc:354] MLIR V1 optimization pass is not enabled
  >>> Info of model(s):
  using   1 model(s): model.pb 
  rcut in model:      6
  ntypes in model:    4

CITE-CITE-CITE-CITE-CITE-CITE-CITE-CITE-CITE-CITE-CITE-CITE-CITE

Your simulation uses code contributions which should be cited:
- USER-DEEPMD package:
The log file lists these citations in BibTeX format.

CITE-CITE-CITE-CITE-CITE-CITE-CITE-CITE-CITE-CITE-CITE-CITE-CITE

Generated 0 of 6 mixed pair_coeff terms from geometric mixing rule
Neighbor list info ...
  update every 10 steps, delay 0 steps, check no
  max neighbors/atom: 2000, page size: 100000
  master list distance cutoff = 7
  ghost atom cutoff = 7
  binsize = 3.5, bins = 8 8 8
  1 neighbor lists, perpetual/occasional/extra = 1 0 0
  (1) pair deepmd, perpetual
      attributes: full, newton on
      pair build: full/bin/atomonly
      stencil: full/bin/3d
      bin: standard
Setting up Verlet run ...
  Unit style    : metal
  Current step  : 0
  Time step     : 0.002
Per MPI rank memory allocation (min/avg/max) = 2.657 | 2.657 | 2.657 Mbytes
   Step          Temp          E_pair         E_mol          TotEng         Press     
         0   500           -3889.3627      0             -3831.2602      12523.097    
      2000   510.71347     -3836.2173      0             -3776.8699      15026.655    
Loop time of 110.228 on 1 procs for 2000 steps with 900 atoms

Performance: 3.135 ns/day, 7.655 hours/ns, 18.144 timesteps/s
56.6% CPU use with 1 MPI tasks x 1 OpenMP threads

MPI task timing breakdown:
Section |  min time  |  avg time  |  max time  |%varavg| %total
---------------------------------------------------------------
Pair    | 109.29     | 109.29     | 109.29     |   0.0 | 99.14
Neigh   | 0.84272    | 0.84272    | 0.84272    |   0.0 |  0.76
Comm    | 0.040008   | 0.040008   | 0.040008   |   0.0 |  0.04
Output  | 0.00033405 | 0.00033405 | 0.00033405 |   0.0 |  0.00
Modify  | 0.045339   | 0.045339   | 0.045339   |   0.0 |  0.04
Other   |            | 0.01463    |            |       |  0.01

Nlocal:            900 ave         900 max         900 min
Histogram: 1 0 0 0 0 0 0 0 0 0
Nghost:           2455 ave        2455 max        2455 min
Histogram: 1 0 0 0 0 0 0 0 0 0
Neighs:              0 ave           0 max           0 min
Histogram: 1 0 0 0 0 0 0 0 0 0
FullNghs:        65836 ave       65836 max       65836 min
Histogram: 1 0 0 0 0 0 0 0 0 0

Total # of neighbors = 65836
Ave neighs/atom = 73.151111
Neighbor list builds = 200
Dangerous builds not checked
Generated 0 of 6 mixed pair_coeff terms from geometric mixing rule
Setting up Verlet run ...
  Unit style    : metal
  Current step  : 0
  Time step     : 0.002
Per MPI rank memory allocation (min/avg/max) = 3.941 | 3.941 | 3.941 Mbytes
   Step          Time           Temp          KinEng         TotEng         Press     
         0   0              510.71347      59.347393     -3776.8699      15026.655    
       100   0.2            488.85489      56.807319     -3778.0067      15225.353    
       200   0.4            489.07149      56.832489     -3781.8539      16043.642    
       300   0.6            485.69746      56.44041      -3782.678       13975.109    
       400   0.8            505.70659      58.765569     -3781.3666      14628.119    
       500   1              506.90014      58.904265     -3779.7517      13129.466    
       600   1.2            506.77317      58.88951      -3779.2113      13549.335    
       700   1.4            502.84752      58.433331     -3779.8976      14596.651    
       800   1.6            477.24237      55.457887     -3783.7875      12496.686    
       900   1.8            497.69196      57.834229     -3784.0428      13508.53     
      1000   2              497.54431      57.817072     -3781.1777      12962.607    
      1100   2.2            511.98031      59.494606     -3778.9711      13878.515    
      1200   2.4            493.27585      57.321056     -3778.8728      13730.707    
      1300   2.6            504.14195      58.58375      -3779.43        14290.274    
      1400   2.8            491.02666      57.059689     -3780.0442      14544.139    
      1500   3              509.36635      59.190851     -3782.8406      13849.644    
      1600   3.2            485.31944      56.396482     -3785.289       14478.201    
      1700   3.4            490.22767      56.966843     -3783.0268      14870.14     
      1800   3.6            501.70879      58.301005     -3780.1919      14358.744    
      1900   3.8            513.97767      59.726708     -3779.3336      14500.099    
      2000   4              500.03973      58.107052     -3779.3569      14425.968    
      2100   4.2            490.907        57.045785     -3782.1463      14423.353    
      2200   4.4            487.40791      56.639173     -3784.9516      12686.226    
      2300   4.6            484.18884      56.265101     -3783.8721      12943.195    
      2400   4.8            483.21416      56.151839     -3781.2444      13506.586    
      2500   5              514.04607      59.734657     -3780.1075      12530.893    
      2600   5.2            519.03574      60.31448      -3779.5207      16382.405    
      2700   5.4            518.80792      60.288007     -3779.6553      12350.496    
      2800   5.6            501.37239      58.261913     -3781.7356      14482.689    
      2900   5.8            494.79767      57.497899     -3783.8528      13295.758    
      3000   6              497.33095      57.792279     -3782.4469      15082.287    
      3100   6.2            511.62458      59.453268     -3778.4935      14106.874    
      3200   6.4            507.33573      58.954882     -3778.0673      16418.084    
      3300   6.6            495.0973       57.532717     -3779.4909      13771.791    
      3400   6.8            499.97306      58.099305     -3781.4884      14066.929    
      3500   7              486.90452      56.580677     -3783.798       13142.402    
      3600   7.2            490.02137      56.94287      -3783.0185      14707.525    
      3700   7.4            492.78711      57.264262     -3778.9936      14543.877    
      3800   7.6            507.8962       59.020012     -3777.4859      13349.865    
      3900   7.8            496.56502      57.703274     -3778.5007      15205.087    
      4000   8              485.30904      56.395274     -3781.8314      14603.216    
      4100   8.2            479.89649      55.766309     -3782.8342      14320.726    
      4200   8.4            483.02241      56.129556     -3781.5538      13340.724    
      4300   8.6            505.20424      58.707194     -3779.8959      13358.201    
      4400   8.8            499.92296      58.093482     -3778.8584      16206.373    
      4500   9              498.33356      57.908787     -3778.0829      13901.088    
      4600   9.2            506.4056       58.846797     -3777.9645      12930.699    
      4700   9.4            497.85683      57.853388     -3780.004       16789.566    
      4800   9.6            481.83445      55.99151      -3782.2506      13074.682    
      4900   9.8            484.68424      56.32267      -3781.8584      14367.055    
      5000   10             504.34963      58.607884     -3778.5916      14379.109    
      5100   10.2           516.05939      59.968614     -3777.019       14506.66     
      5200   10.4           509.91466      59.254567     -3777.6969      15114.96     
      5300   10.6           496.57482      57.704413     -3778.9705      13688.748    
      5400   10.8           509.4928       59.205545     -3779.5522      14313.78     
      5500   11             507.5465       58.979375     -3779.7157      13022.959    
      5600   11.2           492.04815      57.178391     -3780.1955      15177.89     
      5700   11.4           492.50297      57.231243     -3783.0747      16309.6      
      5800   11.6           482.7225       56.094706     -3785.2806      13263.724    
      5900   11.8           493.1696       57.308709     -3782.9118      13294.449    
      6000   12             509.8578       59.247959     -3780.1667      16122.811    
      6100   12.2           520.09024      60.437019     -3779.6889      13032.255    
      6200   12.4           503.55844      58.515943     -3780.7752      15192.262    
      6300   12.6           492.25155      57.202028     -3782.7364      13581.898    
      6400   12.8           479.12141      55.676241     -3784.1407      15886.102    
      6500   13             477.24913      55.458673     -3782.5356      13552.995    
      6600   13.2           505.6365       58.757424     -3778.94        15049.264    
      6700   13.4           498.54         57.932776     -3778.2732      13344.402    
      6800   13.6           501.38306      58.263154     -3779.5218      12790.678    
      6900   13.8           508.06965      59.040168     -3783.2115      14142.466    
      7000   14             488.3204       56.745209     -3784.0716      11798.435    
      7100   14.2           513.62223      59.685405     -3782.4721      13358.718    
      7200   14.4           489.03668      56.828444     -3781.0653      13020.731    
      7300   14.6           496.6125       57.708791     -3779.7261      13633.751    
      7400   14.8           502.49437      58.392294     -3778.5599      11809.689    
      7500   15             520.46082      60.480082     -3779.0546      12965.808    
      7600   15.2           477.38697      55.474691     -3782.3394      13386.166    
      7700   15.4           505.75958      58.771726     -3783.5662      13977.046    
      7800   15.6           496.22432      57.663683     -3781.5091      13574.997    
      7900   15.8           487.28425      56.624804     -3778.6063      15161.075    
      8000   16             507.69098      58.996165     -3778.2326      13175.069    
      8100   16.2           516.65968      60.038371     -3779.1395      14477.187    
      8200   16.4           486.97639      56.589028     -3780.3698      15420.838    
      8300   16.6           502.81732      58.429822     -3781.1433      13557.314    
      8400   16.8           480.97387      55.891506     -3781.3427      13714.35     
      8500   17             492.97407      57.285988     -3780.7368      13626.67     
      8600   17.2           512.29291      59.530932     -3780.049       12600.207    
      8700   17.4           493.6279       57.361966     -3779.5378      12231.949    
      8800   17.6           496.11885      57.651426     -3778.0173      11511.778    
      8900   17.8           500.69052      58.182677     -3776.1102      13157.535    
      9000   18             499.79743      58.078896     -3777.2564      15332.481    
      9100   18.2           491.96818      57.169098     -3781.2601      13662.436    
      9200   18.4           484.10262      56.255082     -3781.8362      13785.806    
      9300   18.6           505.39393      58.729236     -3780.6356      13461.185    
      9400   18.8           501.76698      58.307767     -3777.6788      13655.503    
      9500   19             522.10115      60.670696     -3775.2406      13176.303    
      9600   19.2           512.82436      59.592688     -3777.5085      13149.217    
      9700   19.4           509.24058      59.176235     -3781.5495      14325.17     
      9800   19.6           495.28372      57.55438      -3781.2511      14039.062    
      9900   19.8           506.09634      58.81086      -3779.6241      13075.137    
     10000   20             515.20109      59.868876     -3777.5708      15212.257    
     10100   20.2           507.69705      58.99687      -3776.6649      15422.619    
     10200   20.4           512.31294      59.533259     -3778.5918      13221.599    
     10300   20.6           489.41666      56.872599     -3782.2977      16199.947    
     10400   20.8           494.11294      57.41833      -3782.1625      13567.296    
     10500   21             511.76949      59.470107     -3779.3684      15153.752    
     10600   21.2           506.28293      58.832542     -3778.1266      12234.427    
     10700   21.4           500.9981       58.218419     -3778.41        12510.02     
     10800   21.6           517.60681      60.148432     -3778.8202      15328.214    
     10900   21.8           515.83382      59.942402     -3779.5325      13037.363    
     11000   22             500.39262      58.14806      -3780.1279      13343.871    
     11100   22.2           509.16391      59.167326     -3780.4665      14914.304    
     11200   22.4           511.87023      59.481813     -3780.1771      14899.574    
     11300   22.6           479.46497      55.716165     -3779.919       13598.16     
     11400   22.8           518.52382      60.254994     -3779.0901      13891.289    
     11500   23             513.7207       59.696847     -3776.6887      13708.843    
     11600   23.2           522.91034      60.764728     -3775.6577      15238.575    
     11700   23.4           506.59323      58.8686       -3778.9137      13744.724    
     11800   23.6           483.84809      56.225505     -3781.2982      14465.57     
     11900   23.8           502.57571      58.401745     -3781.4293      14727.422    
     12000   24             521.25906      60.572841     -3780.1706      14328.123    
     12100   24.2           529.64069      61.546828     -3776.6648      14216.328    
     12200   24.4           533.83296      62.03399      -3774.8179      15080.583    
     12300   24.6           489.28916      56.857784     -3779.6046      12704.275    
     12400   24.8           498.84248      57.967925     -3781.5457      13742.576    
     12500   25             488.49949      56.76602      -3781.5012      14982.941    
     12600   25.2           506.21446      58.824585     -3780.179       14027.661    
     12700   25.4           503.49797      58.508916     -3778.0922      16545.951    
     12800   25.6           503.13652      58.466914     -3776.0557      16644.233    
     12900   25.8           510.72197      59.34838      -3777.0513      12614.709    
     13000   26             494.95666      57.516374     -3781.3937      14868.499    
     13100   26.2           485.58284      56.427091     -3782.3806      14664.435    
     13200   26.4           486.52849      56.53698      -3781.1965      12019.952    
     13300   26.6           512.91223      59.6029       -3778.3039      14352.992    
     13400   26.8           530.15415      61.606494     -3776.321       15148.888    
     13500   27             493.2785       57.321364     -3780.422       14421.386    
     13600   27.2           498.03594      57.874202     -3782.2829      13842.553    
     13700   27.4           496.29362      57.671735     -3781.3488      14740.865    
     13800   27.6           506.12051      58.813668     -3779.0196      16316.961    
     13900   27.8           521.64722      60.617947     -3778.1088      13826.775    
     14000   28             485.45441      56.412166     -3780.4744      14176.728    
     14100   28.2           469.33135      54.538588     -3784.1053      14447.99     
     14200   28.4           485.88697      56.462432     -3783.2053      11134.532    
     14300   28.6           502.8687       58.435792     -3780.533       15041.235    
     14400   28.8           499.45696      58.039331     -3779.3739      12797.478    
     14500   29             484.91228      56.349169     -3779.1909      14512.707    
     14600   29.2           509.68801      59.22823      -3778.0852      14640.882    
     14700   29.4           510.88801      59.367676     -3776.0559      14150.692    
     14800   29.6           517.01586      60.079761     -3775.4514      14261.85     
     14900   29.8           504.62534      58.639922     -3778.0738      13312.723    
     15000   30             496.52721      57.69888      -3780.8317      13357.764    
     15100   30.2           494.57429      57.471941     -3781.1696      12719.038    
     15200   30.4           506.17138      58.819579     -3780.2418      13641.834    
     15300   30.6           507.81286      59.010327     -3776.7138      12522.993    
     15400   30.8           517.97928      60.191715     -3773.7305      13728.106    
     15500   31             532.06932      61.829047     -3775.7964      14261.546    
     15600   31.2           533.5515       62.001283     -3778.3281      13633.519    
     15700   31.4           500.47301      58.157401     -3779.5777      13998.498    
     15800   31.6           497.22133      57.779541     -3780.1793      12975.895    
     15900   31.8           505.32803      58.721578     -3781.1822      13189.084    
     16000   32             478.22227      55.571757     -3782.4751      13941.442    
     16100   32.2           500.56771      58.168406     -3781.5851      11918.888    
     16200   32.4           507.46432      58.969826     -3778.4603      14774.108    
     16300   32.6           533.5216       61.997809     -3777.1892      12315.013    
     16400   32.8           511.2436       59.408996     -3778.397       13505.444    
     16500   33             482.82454      56.106563     -3782.9416      13744.376    
     16600   33.2           484.49638      56.300839     -3783.3576      12767.022    
     16700   33.4           499.48359      58.042426     -3781.6679      14143.524    
     16800   33.6           494.95607      57.516306     -3779.0391      15513.28     
     16900   33.8           519.77385      60.400252     -3778.2446      13336.756    
     17000   34             507.8896       59.019245     -3778.7436      14484.394    
     17100   34.2           491.48182      57.112582     -3779.8593      14860.395    
     17200   34.4           475.48399      55.253555     -3784.4796      12253.828    
     17300   34.6           485.21454      56.384292     -3785.347       13744.652    
     17400   34.8           467.96356      54.379645     -3782.791       12175.423    
     17500   35             501.30753      58.254377     -3780.1034      14196.023    
     17600   35.2           505.72429      58.767626     -3779.1389      12734.825    
     17700   35.4           498.43685      57.920789     -3780.0642      11312.443    
     17800   35.6           496.43175      57.687787     -3782.1626      14916.89     
     17900   35.8           478.75447      55.633601     -3784.6621      11787.59     
     18000   36             477.26294      55.460278     -3784.0528      11419.945    
     18100   36.2           506.0617       58.806834     -3779.5407      15547.559    
     18200   36.4           509.53448      59.210388     -3778.5884      11765.156    
     18300   36.6           507.99301      59.031262     -3778.7447      14694.304    
     18400   36.8           488.85331      56.807136     -3780.381       13588.238    
     18500   37             486.14548      56.492473     -3783.1602      12240.032    
     18600   37.2           499.45428      58.039019     -3783.9334      14689.068    
     18700   37.4           508.11931      59.045939     -3779.7259      14057.231    
     18800   37.6           511.04229      59.385603     -3777.8394      12214.026    
     18900   37.8           498.94545      57.979891     -3778.8443      14769.435    
     19000   38             485.71326      56.442247     -3781.6095      13101.657    
     19100   38.2           499.48709      58.042833     -3782.1516      13489.735    
     19200   38.4           503.79201      58.543085     -3779.5252      13021.817    
     19300   38.6           516.00637      59.962454     -3775.7599      12207.389    
     19400   38.8           509.89592      59.252389     -3776.8248      12831.885    
     19500   39             492.3472       57.213142     -3779.5981      13159.758    
     19600   39.2           501.77332      58.308503     -3781.1519      13168.538    
     19700   39.4           481.81595      55.98936      -3781.0216      14235.767    
     19800   39.6           499.5182       58.046447     -3779.5672      12619.371    
     19900   39.8           535.419        62.218295     -3775.3977      14005.077    
     20000   40             521.15114      60.560301     -3772.9688      15079.839    
     20100   40.2           517.18415      60.099317     -3775.4042      13352.133    
     20200   40.4           496.44123      57.688889     -3778.2245      13648.113    
     20300   40.6           501.7172       58.301982     -3780.0911      14023.277    
     20400   40.8           479.19443      55.684726     -3781.2135      13977.347    
     20500   41             501.98732      58.333371     -3781.9206      14087.951    
     20600   41.2           488.48631      56.764488     -3781.2964      14415.581    
     20700   41.4           502.56244      58.400204     -3778.3         14867.994    
     20800   41.6           501.82836      58.314899     -3776.2201      13244.024    
     20900   41.8           523.95555      60.886187     -3777.2829      14557.429    
     21000   42             502.06927      58.342895     -3781.0008      13125.016    
     21100   42.2           490.50422      56.998979     -3781.098       14246.377    
     21200   42.4           523.67488      60.853572     -3779.4614      16002.522    
     21300   42.6           497.6351       57.827623     -3778.4004      14509.12     
     21400   42.8           512.91419      59.603127     -3778.3735      13756.371    
     21500   43             479.03108      55.665744     -3781.7014      13617.643    
     21600   43.2           476.85839      55.413268     -3783.4796      14229.697    
     21700   43.4           495.92711      57.629146     -3782.5586      13199.749    
     21800   43.6           524.33836      60.930671     -3778.6849      15344.304    
     21900   43.8           508.66177      59.108975     -3777.9793      15369.452    
     22000   44             511.95326      59.491462     -3779.2295      13836.85     
     22100   44.2           504.28294      58.600134     -3780.7893      13728.903    
     22200   44.4           495.98705      57.63611      -3781.5894      12331.571    
     22300   44.6           507.68865      58.995894     -3779.2535      14605.019    
     22400   44.8           509.76833      59.237562     -3775.3541      16797.659    
     22500   45             502.18331      58.356146     -3776.237       12431.164    
     22600   45.2           517.43682      60.128678     -3779.6492      14171.277    
     22700   45.4           486.05561      56.482029     -3781.0567      14105.673    
     22800   45.6           477.56666      55.495572     -3780.4918      14287.535    
     22900   45.8           498.97077      57.982834     -3777.9926      13547.974    
     23000   46             526.77986      61.214385     -3774.1319      15930.766    
     23100   46.2           506.80951      58.893734     -3774.816       13760.239    
     23200   46.4           506.10869      58.812294     -3779.6777      15206.616    
     23300   46.6           497.13037      57.76897      -3780.7157      14172.026    
     23400   46.8           495.98946      57.636391     -3780.8149      13725.446    
     23500   47             480.60768      55.848953     -3779.8491      14774.653    
     23600   47.2           506.87052      58.900823     -3777.7985      16315.488    
     23700   47.4           510.93082      59.37265      -3776.7906      14301.801    
     23800   47.6           510.62306      59.336887     -3778.3995      14829.036    
     23900   47.8           488.08091      56.717378     -3782.1605      14190.4      
     24000   48             486.80104      56.568652     -3782.0641      13591.582    
     24100   48.2           490.21165      56.964981     -3779.4948      14427.805    
     24200   48.4           511.13144      59.395962     -3777.7939      13615.975    
     24300   48.6           507.07536      58.924627     -3778.0725      12807.244    
     24400   48.8           495.95487      57.632371     -3779.0109      13004.299    
     24500   49             495.55558      57.585972     -3779.9271      13629.833    
     24600   49.2           497.15018      57.771272     -3781.2492      14830.766    
     24700   49.4           471.50959      54.79171      -3785.6996      12598.981    
     24800   49.6           480.65434      55.854375     -3785.3089      14111.088    
     24900   49.8           493.13492      57.30468      -3782.5071      13882.909    
     25000   50             492.12265      57.187048     -3780.632       13509.225    
     25100   50.2           492.52198      57.233452     -3778.4503      14617.366    
     25200   50.4           508.513        59.091687     -3777.683       13164.227    
     25300   50.6           500.79561      58.194889     -3779.6367      12876.78     
     25400   50.8           503.64258      58.525721     -3783.3781      14958.093    
     25500   51             473.72373      55.049005     -3782.7591      14045.299    
     25600   51.2           499.22667      58.01257      -3780.4987      14863.683    
     25700   51.4           502.86268      58.435092     -3779.8325      15129.795    
     25800   51.6           512.38442      59.541565     -3779.2719      13685.098    
     25900   51.8           498.26751      57.901112     -3778.7986      13383.544    
     26000   52             495.86226      57.62161      -3776.3684      13875.371    
     26100   52.2           517.75775      60.165972     -3773.7717      17042.721    
     26200   52.4           487.2697       56.623112     -3776.9932      14790.233    
     26300   52.6           511.58029      59.448121     -3779.5694      14483.418    
     26400   52.8           501.85678      58.318202     -3780.6634      16373.987    
     26500   53             491.35221      57.09752      -3780.9129      13862.448    
     26600   53.2           529.8878       61.575543     -3778.1771      14168.734    
     26700   53.4           513.45102      59.665509     -3775.9171      15952.146    
     26800   53.6           507.75687      59.003821     -3777.3589      12007.05     
     26900   53.8           469.08573      54.510047     -3781.7093      16079.254    
     27000   54             495.32605      57.5593       -3781.8707      14239.075    
     27100   54.2           507.81241      59.010275     -3780.1487      13661.64     
     27200   54.4           492.42405      57.222073     -3778.3104      14643.191    
     27300   54.6           520.18246      60.447736     -3776.4881      13441.386    
     27400   54.8           517.58852      60.146307     -3773.8887      13771.737    
     27500   55             538.77587      62.60838      -3773.3007      13903.161    
     27600   55.2           505.59961      58.753137     -3777.6111      15284.381    
     27700   55.4           489.22972      56.850877     -3780.023       13686.817    
     27800   55.6           495.50373      57.579946     -3780.7357      13395.765    
     27900   55.8           494.59477      57.474321     -3781.1099      14538.069    
     28000   56             500.92655      58.210104     -3779.9854      14238.84     
     28100   56.2           515.12983      59.860595     -3776.9382      15380.316    
     28200   56.4           525.84613      61.105881     -3775.8858      12020.343    
     28300   56.6           495.25633      57.551198     -3778.8203      13607.477    
     28400   56.8           474.50864      55.140215     -3781.556       14432.565    
     28500   57             495.23789      57.549055     -3780.9098      13170.019    
     28600   57.2           483.8161       56.221787     -3779.2939      14948.455    
     28700   57.4           496.32824      57.675759     -3777.6358      12388.282    
     28800   57.6           527.38414      61.284606     -3775.5723      14759.035    
     28900   57.8           517.75205      60.16531      -3773.4941      14373.766    
     29000   58             502.17363      58.355022     -3776.3181      13636.574    
     29100   58.2           504.46401      58.621175     -3779.4636      13736.506    
     29200   58.4           514.22184      59.755082     -3780.8175      12633.163    
     29300   58.6           515.57836      59.912717     -3781.2384      15882.82     
     29400   58.8           500.12131      58.116532     -3779.968       14436.148    
     29500   59             500.67152      58.180469     -3776.5194      14099.931    
     29600   59.2           522.83362      60.755813     -3775.9641      15161.697    
     29700   59.4           516.56806      60.027724     -3779.3576      12991.547    
     29800   59.6           497.06524      57.761402     -3781.521       14059.279    
     29900   59.8           511.74279      59.467005     -3781.2364      14180.461    
     30000   60             484.65783      56.319601     -3780.1615      13866.297    
     30100   60.2           527.12758      61.254792     -3778.0387      15030.418    
     30200   60.4           532.98936      61.93596      -3776.4315      13654.863    
     30300   60.6           491.3212       57.093917     -3778.6742      12940.657    
     30400   60.8           503.97998      58.564928     -3781.9185      14055.291    
     30500   61             497.19674      57.776683     -3782.3928      14755.732    
     30600   61.2           488.82437      56.803773     -3780.4376      12987.698    
     30700   61.4           528.00921      61.357242     -3777.1754      15480.62     
     30800   61.6           526.16832      61.143321     -3776.2193      14315.313    
     30900   61.8           495.12243      57.535638     -3781.0626      15080.879    
     31000   62             497.51501      57.813667     -3783.4473      14838.638    
     31100   62.2           493.17009      57.308767     -3782.769       13109.185    
     31200   62.4           498.58544      57.938056     -3779.931       16337.874    
     31300   62.6           512.10367      59.508941     -3777.9343      13773.69     
     31400   62.8           520.0882       60.436782     -3778.9746      16040.416    
     31500   63             495.04048      57.526115     -3782.2069      12664.767    
     31600   63.2           499.4145       58.034397     -3783.3451      14337.527    
     31700   63.4           483.61051      56.197897     -3782.4332      14630.576    
     31800   63.6           491.47714      57.112038     -3780.9494      12644.797    
     31900   63.8           491.33594      57.09563      -3778.3609      13792.084    
     32000   64             520.33568      60.46554      -3777.7489      14120.233    
     32100   64.2           510.74701      59.351291     -3780.8744      15761.202    
     32200   64.4           488.50216      56.766331     -3783.6925      13857.536    
     32300   64.6           506.81868      58.894799     -3782.7749      13730.493    
     32400   64.8           492.11599      57.186274     -3780.7767      14857.011    
     32500   65             522.65506      60.735064     -3779.1847      13356.611    
     32600   65.2           519.12918      60.325339     -3779.1292      14400.723    
     32700   65.4           490.7825       57.031317     -3783.6394      14549.374    
     32800   65.6           493.38916      57.334224     -3784.582       12951.107    
     32900   65.8           494.84246      57.503104     -3781.5398      13667.9      
     33000   66             500.16135      58.121185     -3779.3011      15639.73     
     33100   66.2           516.38763      60.006758     -3778.0109      11753.89     
     33200   66.4           521.43615      60.59342      -3778.7218      15724.987    
     33300   66.6           471.73601      54.818021     -3783.1637      14749.24     
     33400   66.8           480.95518      55.889335     -3783.8501      13849.899    
     33500   67             478.08667      55.555999     -3781.6202      15529.935    
     33600   67.2           499.56367      58.051732     -3779.4876      14070.365    
     33700   67.4           501.33879      58.258009     -3778.8037      14966.943    
     33800   67.6           490.58857      57.008781     -3779.5475      14388.538    
     33900   67.8           483.44162      56.17827      -3782.401       14743.965    
     34000   68             486.37854      56.519555     -3785.0744      13386.966    
     34100   68.2           470.98668      54.730946     -3783.1468      13107.727    
     34200   68.4           500.03446      58.106439     -3780.9686      14331.911    
     34300   68.6           514.00192      59.729526     -3779.8084      14908.97     
     34400   68.8           499.04251      57.99117      -3779.8611      15233.128    
     34500   69             486.66144      56.552429     -3779.3982      14823.993    
     34600   69.2           483.87483      56.228611     -3778.4043      13185.59     
     34700   69.4           508.77914      59.122614     -3777.5599      15427.032    
     34800   69.6           501.88654      58.32166      -3778.1976      14103.667    
     34900   69.8           489.72942      56.908944     -3781.5218      15273.322    
     35000   70             491.56683      57.12246      -3782.5289      12391.002    
     35100   70.2           491.41278      57.104558     -3780.7125      14947.927    
     35200   70.4           505.60583      58.75386      -3777.9307      14840.094    
     35300   70.6           496.96431      57.749673     -3777.6152      13358.848    
     35400   70.8           509.72174      59.232149     -3778.0966      14649.731    
     35500   71             491.07669      57.065503     -3780.2939      13526.098    
     35600   71.2           498.23323      57.897128     -3782.3181      14171.379    
     35700   71.4           502.25973      58.365027     -3781.4053      14668.509    
     35800   71.6           508.51565      59.091996     -3776.7903      13824.98     
     35900   71.8           505.96409      58.795492     -3776.8388      13530.228    
     36000   72             516.14956      59.979093     -3778.473       14050.757    
     36100   72.2           479.75367      55.749713     -3780.9549      12995.64     
     36200   72.4           486.60627      56.546018     -3781.8164      14191.557    
     36300   72.6           517.51428      60.13768      -3779.2684      13071.7      
     36400   72.8           514.69257      59.809783     -3774.9335      15780.123    
     36500   73             505.80363      58.776846     -3776.4102      13364.933    
     36600   73.2           495.37142      57.564572     -3779.5215      13858.76     
     36700   73.4           505.2744       58.715346     -3781.2438      16089.43     
     36800   73.6           493.27696      57.321185     -3781.1462      12485.142    
     36900   73.8           510.4767       59.319878     -3778.4656      14768.052    
     37000   74             502.40995      58.382483     -3775.1583      14761.868    
     37100   74.2           522.94471      60.768722     -3776.211       15134.892    
     37200   74.4           510.97447      59.377722     -3778.9778      14132.232    
     37300   74.6           503.69614      58.531944     -3780.2008      13523.388    
     37400   74.8           497.73021      57.838674     -3780.4548      14692.66     
     37500   75             511.91257      59.486734     -3780.3193      13437.943    
     37600   75.2           500.37037      58.145474     -3779.1679      14618.181    
     37700   75.4           512.42001      59.5457       -3777.7131      14686.752    
     37800   75.6           503.60849      58.521759     -3777.7931      14591.476    
     37900   75.8           509.51213      59.207791     -3781.0903      13685.819    
     38000   76             477.41137      55.477526     -3782.8937      17253.715    
     38100   76.2           505.16014      58.702069     -3781.6337      12449.78     
     38200   76.4           498.03801      57.874442     -3778.8594      14506.138    
     38300   76.6           509.77253      59.238051     -3777.9152      15796.229    
     38400   76.8           510.96203      59.376276     -3778.4553      13603.125    
     38500   77             501.12061      58.232655     -3779.6374      14410.778    
     38600   77.2           497.81394      57.848405     -3780.8805      15108.794    
     38700   77.4           481.16431      55.913636     -3781.7495      12618.694    
     38800   77.6           496.4725       57.692522     -3779.7841      17397.93     
     38900   77.8           521.70676      60.624866     -3776.5242      14360.17     
     39000   78             501.35702      58.260128     -3776.0061      15061.641    
     39100   78.2           505.20709      58.707525     -3778.3556      15060.015    
     39200   78.4           499.1168       57.999803     -3781.0717      13959.781    
     39300   78.6           491.30514      57.09205      -3780.8826      13791.912    
     39400   78.8           492.64388      57.247619     -3780.0467      15874.048    
     39500   79             506.29104      58.833484     -3778.485       13525.19     
     39600   79.2           520.38987      60.471838     -3775.4787      13469.681    
     39700   79.4           517.95542      60.188943     -3773.7294      14187.381    
     39800   79.6           507.23758      58.943477     -3777.7544      15222.539    
     39900   79.8           488.40278      56.754782     -3780.3577      14074.538    
     40000   80             485.82619      56.45537      -3781.1484      12551.108    
     40100   80.2           499.95083      58.096722     -3781.7849      14866.783    
     40200   80.4           509.44574      59.200076     -3780.1778      12935.673    
     40300   80.6           503.81385      58.545624     -3777.1758      13213.395    
     40400   80.8           508.87263      59.133478     -3776.202       14713.579    
     40500   81             496.07156      57.645931     -3779.2925      13748.896    
     40600   81.2           495.43248      57.571667     -3782.7233      14319.727    
     40700   81.4           503.22187      58.476832     -3782.2525      13205.98     
     40800   81.6           496.06881      57.645612     -3779.9078      14322.468    
     40900   81.8           515.3345       59.884379     -3777.5464      13711.152    
     41000   82             509.81813      59.24335      -3777.8326      13739.424    
     41100   82.2           503.81831      58.546141     -3780.9512      13715.371    
     41200   82.4           481.38835      55.939671     -3782.991       12819.9      
     41300   82.6           476.43743      55.36435      -3781.985       14082.578    
     41400   82.8           495.51948      57.581777     -3780.0259      13428.21     
     41500   83             505.72338      58.76752      -3778.1391      14319.956    
     41600   83.2           522.04201      60.663824     -3777.4317      14439.626    
     41700   83.4           494.09283      57.415994     -3779.696       13753.637    
     41800   83.6           501.55088      58.282655     -3782.6604      14440.98     
     41900   83.8           471.81363      54.827041     -3782.5331      14898.232    
     42000   84             508.64622      59.107168     -3779.2735      16009.849    
     42100   84.2           514.26245      59.759802     -3777.5329      13347.715    
     42200   84.4           500.48116      58.158348     -3778.1359      14154.783    
     42300   84.6           500.06601      58.110106     -3779.8577      15349.297    
     42400   84.8           495.44666      57.573314     -3781.5171      14219.584    
     42500   85             501.31099      58.254779     -3782.6288      12577.149    
     42600   85.2           479.00081      55.662227     -3783.9585      14003.029    
     42700   85.4           508.4115       59.079892     -3782.6313      14151.532    
     42800   85.6           489.37513      56.867774     -3779.2053      13653.036    
     42900   85.8           490.69443      57.021083     -3777.3015      14959.544    
     43000   86             503.3113       58.487225     -3777.3607      13719.053    
     43100   86.2           500.57471      58.16922      -3779.9895      13621.092    
     43200   86.4           491.05681      57.063193     -3783.6416      11758.217    
     43300   86.6           472.11724      54.862323     -3783.5846      12506.25     
     43400   86.8           480.28109      55.811002     -3781.7644      13506.916    
     43500   87             487.52876      56.653216     -3779.897       13246.898    
     43600   87.2           502.72863      58.419515     -3779.1285      13752.432    
     43700   87.4           510.62589      59.337215     -3778.9835      15075.848    
     43800   87.6           495.7614       57.609889     -3782.6519      13979.96     
     43900   87.8           467.95232      54.378339     -3784.2956      13750.051    
     44000   88             501.23995      58.246523     -3782.0376      14650.706    
     44100   88.2           488.86081      56.808007     -3779.2387      14603.44     
     44200   88.4           499.01377      57.98783      -3778.767       13923.621    
     44300   88.6           502.21002      58.35925      -3780.06        16240.042    
     44400   88.8           487.86579      56.692381     -3781.8554      14369.618    
     44500   89             456.84894      53.088072     -3783.9145      11776.771    
     44600   89.2           491.35818      57.098213     -3783.9399      15187.464    
     44700   89.4           502.9397       58.444043     -3780.1002      16007.87     
     44800   89.6           496.57409      57.704328     -3778.06        14010.728    
     44900   89.8           507.91536      59.022239     -3778.5661      14725.046    
     45000   90             505.35773      58.72503      -3781.2368      14002.56     
     45100   90.2           497.44698      57.805762     -3783.5182      13016.065    
     45200   90.4           485.46593      56.413505     -3781.8067      15815.914    
     45300   90.6           513.29758      59.647679     -3776.8244      14885.376    
     45400   90.8           526.39285      61.169413     -3777.2029      13526.078    
     45500   91             489.75547      56.911971     -3780.3656      14095.386    
     45600   91.2           490.73238      57.025493     -3782.333       13396.804    
     45700   91.4           486.18743      56.497348     -3782.0508      14469.636    
     45800   91.6           495.15779      57.539747     -3778.7992      15207.853    
     45900   91.8           514.11939      59.743177     -3777.0978      13983.162    
     46000   92             515.62661      59.918324     -3777.6919      14920.599    
     46100   92.2           487.4078       56.63916      -3778.8067      13556.707    
     46200   92.4           506.3928       58.845309     -3780.4083      14019.571    
     46300   92.6           475.73833      55.283111     -3781.6642      14130.987    
     46400   92.8           489.81202      56.918542     -3781.4078      13569.737    
     46500   93             507.38328      58.960408     -3778.1266      14344.52     
     46600   93.2           510.24675      59.293158     -3776.1743      13604.925    
     46700   93.4           499.35961      58.028018     -3777.407       13803.446    
     46800   93.6           490.87911      57.042543     -3780.9349      15076.851    
     46900   93.8           478.22494      55.572067     -3781.7787      14359.799    
     47000   94             518.01388      60.195735     -3780.7134      14717.92     
     47100   94.2           510.67721      59.343179     -3779.3374      12065.851    
     47200   94.4           510.14934      59.281838     -3777.4702      14787.586    
     47300   94.6           529.8214       61.567827     -3774.3605      14863.532    
     47400   94.8           518.89193      60.297769     -3775.3492      15613.034    
     47500   95             513.40384      59.660027     -3779.4599      13859.482    
     47600   95.2           488.54197      56.770956     -3780.9285      14706.176    
     47700   95.4           504.3108       58.603371     -3781.3408      14100.175    
     47800   95.6           498.1166       57.883575     -3781.7464      14775.866    
     47900   95.8           487.92464      56.69922      -3779.7861      14534.419    
     48000   96             517.61348      60.149207     -3776.8752      14860.27     
     48100   96.2           506.91038      58.905454     -3777.7813      13821.823    
     48200   96.4           497.50249      57.812212     -3781.5655      14398.413    
     48300   96.6           499.89269      58.089965     -3782.2554      17063.35     
     48400   96.8           486.61733      56.547303     -3781.0904      12351.402    
     48500   97             503.56053      58.516186     -3779.2838      15317.016    
     48600   97.2           513.61852      59.684974     -3777.9934      15345.3      
     48700   97.4           517.81344      60.172443     -3775.379       14776.404    
     48800   97.6           535.77517      62.259684     -3775.6396      16153.485    
     48900   97.8           499.74263      58.072527     -3779.9613      13760.198    
     49000   98             505.47703      58.738893     -3781.2523      13423.995    
     49100   98.2           508.21119      59.056616     -3780.7722      15811.011    
     49200   98.4           495.96442      57.633482     -3779.2845      15468.456    
     49300   98.6           520.86135      60.526625     -3776.7667      15175.346    
     49400   98.8           536.08025      62.295136     -3775.9164      14518.642    
     49500   99             496.86716      57.738384     -3779.8829      16253.048    
     49600   99.2           497.82969      57.850235     -3781.9148      14207.453    
     49700   99.4           501.62314      58.291051     -3781.6707      15032.341    
     49800   99.6           510.8602       59.364443     -3780.1305      14588.851    
     49900   99.8           511.94529      59.490536     -3776.6589      14578.381    
     50000   100            500.17825      58.123149     -3775.867       15215.525    
     50100   100.2          506.65861      58.876198     -3780.0125      13626.874    
     50200   100.4          480.19697      55.801226     -3781.5268      14653.821    
     50300   100.6          507.8197       59.011123     -3780.6099      14397.058    
     50400   100.8          483.95634      56.238084     -3779.5133      14723.271    
     50500   101            512.87974      59.599123     -3778.0731      12931.648    
     50600   101.2          534.26994      62.084769     -3777.0336      14858.64     
     50700   101.4          510.37728      59.308325     -3780.0194      13917.651    
     50800   101.6          492.36571      57.215293     -3782.6391      14202.889    
     50900   101.8          504.2536       58.596724     -3781.9022      13782.234    
     51000   102            504.48434      58.623537     -3779.7465      14425.1      
     51100   102.2          512.2658       59.527781     -3777.0985      14961.467    
     51200   102.4          536.88745      62.388937     -3772.8222      15565.499    
     51300   102.6          513.13204      59.628442     -3773.3336      12365.633    
     51400   102.8          513.86758      59.713916     -3778.4155      16290.032    
     51500   103            501.86449      58.319098     -3780.3182      14498.209    
     51600   103.2          498.81685      57.964947     -3781.7552      12607.941    
     51700   103.4          480.61974      55.850355     -3781.6547      16964.601    
     51800   103.6          503.07442      58.459697     -3779.3016      13702.33     
     51900   103.8          504.7306       58.652154     -3777.0069      15072.63     
     52000   104            518.22327      60.220067     -3777.354       14927.802    
     52100   104.2          498.35421      57.911187     -3782.2526      15319.068    
     52200   104.4          477.50739      55.488684     -3782.5179      11912.073    
     52300   104.6          512.07368      59.505456     -3780.2482      14198.443    
     52400   104.8          508.88695      59.135142     -3778.3055      14340.296    
     52500   105            507.93448      59.024461     -3777.3001      15196.042    
     52600   105.2          466.64912      54.2269       -3780.0903      14283.218    
     52700   105.4          489.55309      56.888453     -3783.0584      15073.095    
     52800   105.6          483.46301      56.180757     -3782.983       13560.823    
     52900   105.8          498.29372      57.904158     -3780.0847      13653.609    
     53000   106            520.8295       60.522924     -3777.8802      12503.806    
     53100   106.2          513.02689      59.616224     -3778.2799      14469.482    
     53200   106.4          495.02472      57.524283     -3779.8416      13874.131    
     53300   106.6          508.15534      59.050125     -3780.7306      13211.249    
     53400   106.8          496.11297      57.650744     -3780.667       13721.67     
     53500   107            504.92754      58.67504      -3780.1071      14177.512    
     53600   107.2          494.366        57.447737     -3780.1536      14531.365    
     53700   107.4          507.80595      59.009524     -3781.4331      13481.884    
     53800   107.6          472.1735       54.86886      -3784.718       13899.542    
     53900   107.8          483.08627      56.136977     -3784.3521      13717.487    
     54000   108            510.6001       59.334218     -3780.5712      13963.592    
     54100   108.2          470.62638      54.689078     -3779.2579      15119.064    
     54200   108.4          497.15988      57.7724       -3778.7632      13219.824    
     54300   108.6          503.46497      58.505082     -3779.6421      13683.67     
     54400   108.8          475.7096       55.279772     -3783.0493      15389.855    
     54500   109            480.9477       55.888465     -3783.9623      14969.757    
     54600   109.2          504.8514       58.666192     -3781.1111      16548.452    
     54700   109.4          505.5502       58.747395     -3777.8614      16246.396    
     54800   109.6          504.25347      58.596709     -3778.9094      13765.287    
     54900   109.8          488.50126      56.766226     -3781.2802      15906.474    
     55000   110            481.53928      55.957209     -3783.0862      14382.408    
     55100   110.2          486.63918      56.549843     -3782.5112      13866.051    
     55200   110.4          515.42476      59.894868     -3777.3375      14927.83     
     55300   110.6          499.29145      58.020098     -3776.5637      13417.341    
     55400   110.8          510.93611      59.373264     -3778.4834      13206.73     
     55500   111            498.64336      57.944787     -3780.8566      13012.074    
     55600   111.2          498.73426      57.95535      -3781.3657      13707.709    
     55700   111.4          487.85906      56.691599     -3778.6025      14623.221    
     55800   111.6          504.3142       58.603767     -3775.0464      12361.917    
     55900   111.8          490.98772      57.055164     -3776.5657      15404.088    
     56000   112            494.82499      57.501074     -3779.1753      13506.604    
     56100   112.2          491.29416      57.090774     -3779.8506      11216.601    
     56200   112.4          508.51964      59.092459     -3780.273       15336.258    
     56300   112.6          491.08152      57.066064     -3780.8206      13745.876    
     56400   112.8          493.60334      57.359112     -3780.2352      13581.693    
     56500   113            492.16094      57.191498     -3778.5858      14605.941    
     56600   113.2          516.07719      59.970683     -3777.3391      14895.191    
     56700   113.4          506.66094      58.876468     -3779.1246      13776.173    
     56800   113.6          506.73137      58.884653     -3782.0668      14522.838    
     56900   113.8          486.05474      56.481929     -3782.6382      12496.833    
     57000   114            476.85217      55.412544     -3780.5331      14795.044    
     57100   114.2          512.78299      59.587881     -3776.9431      14600.902    
     57200   114.4          513.68812      59.693062     -3777.757       14066.746    
     57300   114.6          502.61848      58.406715     -3780.1359      15306.343    
     57400   114.8          488.39503      56.753881     -3781.8337      13988.422    
     57500   115            484.58489      56.311124     -3781.5757      15162.318    
     57600   115.2          495.47926      57.577103     -3777.8224      13739.086    
     57700   115.4          543.28314      63.132147     -3776.0582      16106.191    
     57800   115.6          521.61396      60.614083     -3777.9423      13244.043    
     57900   115.8          491.28462      57.089665     -3780.1568      15382.484    
     58000   116            491.51987      57.117003     -3780.5996      15607.299    
     58100   116.2          491.17887      57.077377     -3780.8829      13735.229    
     58200   116.4          502.48834      58.391592     -3780.2066      13518.545    
     58300   116.6          515.95838      59.956876     -3777.6709      15752.329    
     58400   116.8          499.62515      58.058876     -3777.4787      12788.996    
     58500   117            500.8799       58.204684     -3780.519       12831.041    
     58600   117.2          504.45469      58.620092     -3782.6607      13739.911    
     58700   117.4          484.17631      56.263645     -3781.9381      15096.674    
     58800   117.6          504.1224       58.581478     -3780.5716      13970.557    
     58900   117.8          521.38664      60.587667     -3780.3146      13070.681    
     59000   118            513.88278      59.715682     -3780.4662      14873.156    
     59100   118.2          501.4004       58.265168     -3780.7786      13535.9      
     59200   118.4          489.66433      56.90138      -3780.4802      13560.252    
     59300   118.6          488.14262      56.72455      -3780.2436      13725.64     
     59400   118.8          488.41107      56.755746     -3779.9362      14553.344    
     59500   119            494.17921      57.426031     -3778.5515      13996.964    
     59600   119.2          518.67079      60.272072     -3778.0008      15391.807    
     59700   119.4          473.57454      55.031668     -3780.617       15127.606    
     59800   119.6          504.62861      58.640302     -3782.8352      14110.702    
     59900   119.8          493.52146      57.349597     -3782.5826      14065.001    
     60000   120            501.06703      58.226429     -3778.9596      13756.838    
     60100   120.2          521.11644      60.556269     -3776.9623      14403.962    
     60200   120.4          514.66578      59.806671     -3778.0012      15426.898    
     60300   120.6          497.92072      57.860813     -3780.5122      13668.821    
     60400   120.8          484.74465      56.32969      -3782.1446      15341.222    
     60500   121            481.60471      55.964813     -3782.1975      14096.954    
     60600   121.2          499.87782      58.088237     -3778.7565      13525.076    
     60700   121.4          543.35733      63.140768     -3775.585       13494.593    
     60800   121.6          517.37063      60.120987     -3777.8518      17696.22     
     60900   121.8          503.80033      58.544052     -3780.4543      12709.716    
     61000   122            487.88183      56.694245     -3781.6498      13708.012    
     61100   122.2          490.444        56.991982     -3781.5355      13036.384    
     61200   122.4          491.38752      57.101623     -3778.0248      16556.948    
     61300   122.6          537.59905      62.471628     -3775.1365      15251.315    
     61400   122.8          512.14664      59.513934     -3776.7296      12364.439    
     61500   123            509.86115      59.248348     -3778.912       15409.172    
     61600   123.2          494.9739       57.518378     -3779.9264      12506.091    
     61700   123.4          499.85969      58.086131     -3780.4003      14070.029    
     61800   123.6          507.6898       58.996027     -3779.4807      15396.132    
     61900   123.8          509.88904      59.25159      -3776.1422      14445.297    
     62000   124            505.26692      58.714477     -3775.7074      14765.947    
     62100   124.2          486.06754      56.483416     -3779.4824      14773.191    
     62200   124.4          517.38426      60.12257      -3780.6485      13956.131    
     62300   124.6          497.33761      57.793053     -3779.964       14904.227    
     62400   124.8          509.41882      59.196948     -3778.61        13733.297    
     62500   125            530.29684      61.623075     -3775.681       16010.871    
     62600   125.2          519.69407      60.390982     -3774.3438      13800.73     
     62700   125.4          491.65952      57.13323      -3778.5592      14859.153    
     62800   125.6          504.23615      58.594697     -3780.4587      13694.208    
     62900   125.8          508.55821      59.096941     -3780.7169      13565.763    
     63000   126            519.66386      60.387472     -3778.6214      14906.306    
     63100   126.2          525.0297       61.011009     -3776.3562      14040.552    
     63200   126.4          518.31625      60.230872     -3775.9891      14223.642    
     63300   126.6          488.95526      56.818982     -3780.0446      15583.122    
     63400   126.8          497.30995      57.789838     -3782.0996      11790.903    
     63500   127            485.29116      56.393196     -3781.626       13428.756    
     63600   127.2          497.17172      57.773775     -3778.4994      13598.752    
     63700   127.4          500.04194      58.107308     -3776.6237      13965.101    
     63800   127.6          523.88948      60.878509     -3777.4064      14251.358    
     63900   127.8          510.15554      59.282558     -3779.2038      14191.546    
     64000   128            492.91794      57.279465     -3779.8669      15226.263    
     64100   128.2          500.0567       58.109024     -3779.4914      16450.867    
     64200   128.4          496.42334      57.68681      -3779.1547      12849.048    
     64300   128.6          500.39724      58.148596     -3779.0997      13594.619    
     64400   128.8          500.67741      58.181153     -3779.3647      15385.251    
     64500   129            488.15966      56.72653      -3779.5212      12510.124    
     64600   129.2          485.83686      56.456609     -3779.0553      13842.396    
     64700   129.4          504.7691       58.656628     -3777.2717      12487.232    
     64800   129.6          517.9249       60.185396     -3776.3598      14102.357    
     64900   129.8          500.38462      58.14713      -3779.1096      14314.864    
     65000   130            502.84001      58.432459     -3781.7274      14570.444    
     65100   130.2          485.4359       56.410016     -3782.2323      14667.817    
     65200   130.4          501.88224      58.321161     -3780.47        12439.093    
     65300   130.6          504.79618      58.659775     -3777.1217      14064.009    
     65400   130.8          519.90206      60.415152     -3775.7658      13584.314    
     65500   131            487.63978      56.666117     -3781.3347      12050.204    
     65600   131.2          467.73282      54.352832     -3782.8789      14740.197    
     65700   131.4          479.33181      55.700691     -3781.5416      12253.001    
     65800   131.6          496.96335      57.749561     -3779.029       13525.798    
     65900   131.8          505.07953      58.692701     -3777.3126      13267.775    
     66000   132            513.17174      59.633056     -3777.8595      16050.682    
     66100   132.2          486.81208      56.569935     -3781.7311      15476.249    
     66200   132.4          485.32087      56.396649     -3782.9024      11978.006    
     66300   132.6          498.63329      57.943617     -3781.5151      13444.198    
     66400   132.8          508.56638      59.097891     -3779.5969      14445.746    
     66500   133            523.57721      60.842222     -3779.0322      14045.219    
     66600   133.2          495.08822      57.531662     -3779.2471      13939.196    
     66700   133.4          493.13856      57.305103     -3779.5159      14849.118    
     66800   133.6          491.75707      57.144566     -3780.7128      14227.256    
     66900   133.8          486.47607      56.530889     -3783.0774      12828.549    
     67000   134            475.78331      55.288338     -3781.8403      13809.156    
     67100   134.2          498.17628      57.89051      -3778.575       14954.053    
     67200   134.4          502.32451      58.372555     -3778.0015      14511.503    
     67300   134.6          506.78064      58.890378     -3779.3365      14134.1      
     67400   134.8          483.41648      56.175349     -3783.0199      11274.603    
     67500   135            481.88092      55.99691      -3784.8733      13122.615    
     67600   135.2          477.56759      55.49568      -3782.9834      14188.648    
     67700   135.4          482.98578      56.1253       -3780.8581      13970.402    
     67800   135.6          521.3649       60.585141     -3778.3925      14105.94     
     67900   135.8          513.40106      59.659704     -3777.888       14512.252    
     68000   136            506.07194      58.808024     -3780.512       12099.338    
     68100   136.2          470.32282      54.653803     -3783.3325      13325.186    
     68200   136.4          488.79509      56.80037      -3783.1799      12949.817    
     68300   136.6          482.56219      56.076077     -3781.7516      12582.911    
     68400   136.8          488.5101       56.767253     -3780.6898      13218.106    
     68500   137            506.00055      58.799728     -3779.0673      15082.093    
     68600   137.2          513.64156      59.687651     -3777.9768      14424.476    
     68700   137.4          500.0901       58.112905     -3780.1042      15160.661    
     68800   137.6          484.16842      56.262729     -3783.4417      13693.603    
     68900   137.8          482.48625      56.067252     -3782.7464      14252.183    
     69000   138            506.82213      58.8952       -3779.7466      15287.124    
     69100   138.2          489.22154      56.849925     -3778.8451      13988.093    
     69200   138.4          505.269        58.714719     -3778.835       12627.771    
     69300   138.6          492.29921      57.207566     -3779.5827      13606.299    
     69400   138.8          491.13686      57.072495     -3781.7887      15343.166    
     69500   139            477.27961      55.462215     -3784.8214      14782.674    
     69600   139.2          468.61896      54.455805     -3783.5466      15646.14     
     69700   139.4          471.44016      54.783642     -3779.8352      15250.747    
     69800   139.6          510.05268      59.270605     -3779.3233      16204.114    
     69900   139.8          514.44451      59.780958     -3779.3772      12790.166    
     70000   140            496.75473      57.725319     -3780.4128      14403.435    
     70100   140.2          489.17151      56.844111     -3782.7714      14854.874    
     70200   140.4          483.47023      56.181596     -3784.3861      13251.447    
     70300   140.6          492.18895      57.194753     -3781.4041      13783.788    
     70400   140.8          504.14548      58.58416      -3778.3861      15972.757    
     70500   141            515.26384      59.876168     -3778.7022      14947.044    
     70600   141.2          498.42742      57.919694     -3780.7838      15412.385    
     70700   141.4          501.63769      58.292743     -3782.7977      15601.14     
     70800   141.6          492.58574      57.240862     -3782.3471      11726.849    
     70900   141.8          510.43954      59.315561     -3777.2062      15250.945    
     71000   142            513.78744      59.704602     -3776.5895      14205.888    
     71100   142.2          498.39533      57.915965     -3779.3451      14114.13     
     71200   142.4          494.28607      57.438449     -3781.7055      12428.062    
     71300   142.6          475.13152      55.212596     -3781.9694      13055.859    
     71400   142.8          504.66619      58.64467      -3779.467       13458.888    
     71500   143            519.88674      60.413371     -3776.0207      14767.904    
     71600   143.2          521.15818      60.561118     -3775.8195      12999.317    
     71700   143.4          489.53315      56.886137     -3781.4826      14181.322    
     71800   143.6          480.59741      55.847759     -3782.6329      13421.788    
     71900   143.8          500.54337      58.165578     -3780.5972      14931.524    
     72000   144            518.15076      60.211642     -3778.3272      13468.137    
     72100   144.2          490.49691      56.99813      -3778.39        17192.512    
     72200   144.4          466.89623      54.255616     -3782.0752      13458.071    
     72300   144.6          490.56201      57.005694     -3783.6004      13910.535    
     72400   144.8          493.33826      57.328308     -3782.4489      13863.732    
     72500   145            495.98431      57.635793     -3780.3928      16348.263    
     72600   145.2          513.57035      59.679376     -3779.4511      14754.561    
     72700   145.4          482.13776      56.026756     -3779.8892      13642.824    
     72800   145.6          493.06665      57.296746     -3780.0232      12558.915    
     72900   145.8          490.16681      56.959771     -3780.3813      15821.706    
     73000   146            493.37041      57.332044     -3779.9058      14194.062    
     73100   146.2          508.17749      59.052699     -3777.9224      12075.741    
     73200   146.4          533.15684      61.955422     -3774.1037      15711.971    
     73300   146.6          520.11078      60.439406     -3775.0974      13032.411    
     73400   146.8          501.56392      58.28417      -3778.5902      12893.442    
     73500   147            507.8948       59.019849     -3779.96        14209.341    
     73600   147.2          478.9383       55.654963     -3780.2404      11946.943    
     73700   147.4          498.67467      57.948425     -3779.7685      14521.211    
     73800   147.6          513.30109      59.648086     -3778.517       12762.655    
     73900   147.8          510.01267      59.265956     -3778.0081      13789.389    
     74000   148            527.49266      61.297216     -3779.2615      12333.256    
     74100   148.2          495.22666      57.54775      -3781.929       12556.078    
     74200   148.4          483.8271       56.223065     -3782.8786      13748.548    
     74300   148.6          497.89535      57.857865     -3780.4891      12842.663    
     74400   148.8          526.78254      61.214696     -3777.0489      12987.052    
     74500   149            505.90024      58.788072     -3777.1709      13345.995    
     74600   149.2          483.9063       56.232269     -3779.8301      16422.893    
     74700   149.4          479.31727      55.699001     -3781.9986      13642.143    
     74800   149.6          481.52672      55.95575      -3781.6285      14514.756    
     74900   149.8          482.4453       56.062494     -3780.1557      15890.61     
     75000   150            509.37273      59.191592     -3778.5464      13914.476    
     75100   150.2          504.44775      58.619286     -3777.8318      15614.96     
     75200   150.4          495.4238       57.570659     -3780.2913      15416.562    
     75300   150.6          470.90782      54.721782     -3783.9796      13635.354    
     75400   150.8          465.5571       54.100003     -3782.7982      13216.603    
     75500   151            506.38674      58.844606     -3779.6563      13909.647    
     75600   151.2          491.42046      57.105451     -3778.5656      13446.922    
     75700   151.4          491.16889      57.076217     -3778.8918      14020.935    
     75800   151.6          486.6526       56.551403     -3781.1418      11853.804    
     75900   151.8          472.78122      54.93948      -3784.7789      13942.121    
     76000   152            474.08862      55.091407     -3784.0591      12681.705    
     76100   152.2          477.42522      55.479136     -3782.0326      14188.633    
     76200   152.4          497.89214      57.857492     -3780.2382      13662.533    
     76300   152.6          491.26261      57.087108     -3778.7448      13648.414    
     76400   152.8          509.05139      59.154251     -3778.0235      14564.045    
     76500   153            518.02161      60.196634     -3778.2439      13627.811    
     76600   153.2          499.12227      58.000439     -3781.6486      13517.509    
     76700   153.4          470.9979       54.73225      -3782.8334      13426.084    
     76800   153.6          497.35118      57.794629     -3780.2128      12825.767    
     76900   153.8          502.00238      58.335122     -3778.2614      11260.642    
     77000   154            518.29093      60.227931     -3778.5478      17050.786    
     77100   154.2          493.68633      57.368755     -3779.8938      12916.959    
     77200   154.4          494.17901      57.426007     -3781.041       14177.13     
     77300   154.6          488.25351      56.737436     -3781.8855      12384.58     
     77400   154.8          487.95733      56.703018     -3781.8394      13893.789    
     77500   155            504.03209      58.570983     -3780.1738      13789.815    
     77600   155.2          490.68037      57.019449     -3777.8798      15052.455    
     77700   155.4          496.94129      57.746998     -3777.199       15874.712    
     77800   155.6          502.9491       58.445135     -3779.8156      14132.794    
     77900   155.8          489.15962      56.84273      -3782.8984      14378.387    
     78000   156            496.24836      57.666476     -3782.0679      14718.363    
     78100   156.2          503.56977      58.51726      -3779.6767      14620.616    
     78200   156.4          509.90872      59.253877     -3778.4809      14170.122    
     78300   156.6          513.13137      59.628364     -3778.5254      15647.358    
     78400   156.8          520.12936      60.441565     -3779.0468      15112.922    
     78500   157            479.55359      55.726463     -3780.6561      15855.147    
     78600   157.2          489.08985      56.834623     -3781.2956      13354.548    
     78700   157.4          468.66118      54.460711     -3780.0656      13907.902    
     78800   157.6          498.69746      57.951073     -3776.6016      14353.834    
     78900   157.8          493.85544      57.388407     -3776.0842      14555.944    
     79000   158            506.54276      58.862736     -3778.7705      13121.385    
     79100   158.2          499.68413      58.065729     -3780.835       13992.65     
     79200   158.4          491.35356      57.097677     -3780.871       14455.23     
     79300   158.6          496.85979      57.737528     -3779.4316      12894.356    
     79400   158.8          521.74172      60.628929     -3775.4186      14863.646    
     79500   159            520.56016      60.491626     -3772.907       16070.571    
     79600   159.2          528.15459      61.374135     -3775.985       14890.132    
     79700   159.4          508.26829      59.063251     -3778.8053      14479.699    
     79800   159.6          502.08833      58.345109     -3780.4033      16408.067    
     79900   159.8          505.15294      58.701232     -3781.3095      15159.801    
     80000   160            479.74287      55.748458     -3780.9219      15059.117    
     80100   160.2          506.79456      58.891997     -3777.7853      14928.536    
     80200   160.4          528.349        61.396727     -3776.1792      16686.352    
     80300   160.6          485.11258      56.372445     -3778.8627      14113.104    
     80400   160.8          485.94157      56.468778     -3781.2963      14012.482    
     80500   161            499.67504      58.064673     -3780.9636      15572.919    
     80600   161.2          494.30547      57.440703     -3780.0496      13429.047    
     80700   161.4          496.53794      57.700127     -3777.7559      12624.96     
     80800   161.6          526.84386      61.221822     -3774.1195      15636.261    
     80900   161.8          498.66809      57.94766      -3775.8089      14489.11     
     81000   162            496.42748      57.687291     -3778.2585      13645.847    
     81100   162.2          504.73002      58.652087     -3779.1632      15292.507    
     81200   162.4          500.38286      58.146925     -3779.8962      12837.896    
     81300   162.6          489.71751      56.907559     -3780.375       14929.435    
     81400   162.8          498.59002      57.938588     -3779.9082      13473.908    
     81500   163            504.13944      58.583459     -3777.4699      14781.697    
     81600   163.2          507.26664      58.946854     -3775.6696      15240.967    
     81700   163.4          501.23285      58.245698     -3777.9567      14096.426    
     81800   163.6          481.05586      55.901034     -3781.1371      13263.504    
     81900   163.8          507.98746      59.030617     -3780.8555      14748.949    
     82000   164            500.96771      58.214888     -3779.3468      13662.868    
     82100   164.2          521.60207      60.6127       -3777.1666      12450.034    
     82200   164.4          519.87098      60.411539     -3776.5264      15081.678    
     82300   164.6          482.38111      56.055035     -3780.4139      13706.683    
     82400   164.8          474.93435      55.189685     -3782.6469      13892.555    
     82500   165            492.75582      57.260626     -3782.0142      14472.543    
     82600   165.2          510.32698      59.30248      -3778.9337      14061.662    
     82700   165.4          516.84481      60.059884     -3776.936       14575.791    
     82800   165.6          503.35676      58.492507     -3777.9005      14207.657    
     82900   165.8          489.67413      56.902519     -3779.5133      13901.328    
     83000   166            507.80336      59.009224     -3780.3139      14314.692    
     83100   166.2          497.16713      57.773241     -3780.0859      13566.086    
     83200   166.4          486.72314      56.5596       -3778.383       15706.753    
     83300   166.6          528.64108      61.430668     -3773.7371      14752.268    
     83400   166.8          524.75154      60.978685     -3774.8747      13872.699    
     83500   167            503.56066      58.516201     -3777.7213      13887.132    
     83600   167.2          492.85448      57.272091     -3779.2514      14448.096    
     83700   167.4          490.28956      56.974035     -3780.3411      14383.462    
     83800   167.6          479.03533      55.666238     -3780.6262      13713.863    
     83900   167.8          517.25698      60.10778      -3779.7403      12878.128    
     84000   168            524.98193      61.005457     -3778.3576      15305.675    
     84100   168.2          514.30551      59.764805     -3777.8879      13219.421    
     84200   168.4          500.36196      58.144496     -3779.5339      12558.769    
     84300   168.6          486.8246       56.57139      -3782.5334      13091.277    
     84400   168.8          495.67252      57.599561     -3782.8056      13345.341    
     84500   169            506.15678      58.817883     -3779.8535      14420.772    
     84600   169.2          508.36379      59.074348     -3776.6141      14311.082    
     84700   169.4          512.11093      59.509784     -3777.9461      16435.74     
     84800   169.6          514.27627      59.761407     -3780.1002      13469.59     
     84900   169.8          498.36713      57.912688     -3781.1265      14091.851    
     85000   170            486.82857      56.571851     -3781.3796      15458.793    
     85100   170.2          509.11634      59.161799     -3779.7081      15611.935    
     85200   170.4          502.9381       58.443857     -3777.2129      13462.516    
     85300   170.6          517.91031      60.183701     -3776.5798      15215.702    
     85400   170.8          488.84556      56.806235     -3780.1289      14497.261    
     85500   171            503.62802      58.524029     -3781.951       15950.924    
     85600   171.2          500.07191      58.110792     -3781.6809      12548.143    
     85700   171.4          500.32057      58.139687     -3780.3259      15204.377    
[...]
    478600   957.2          517.60493      60.148214     -3778.6285      13875.075    
    478700   957.4          497.59358      57.822798     -3778.6941      14344.768    
    478800   957.6          513.59031      59.681695     -3779.9727      15305.948    
    478900   957.8          468.37388      54.427327     -3784.4874      14106.437    
    479000   958            477.97866      55.543449     -3784.0916      12740.821    
    479100   958.2          478.83906      55.643431     -3781.2511      14924.859    
    479200   958.4          492.21466      57.197741     -3779.9303      13203.787    
    479300   958.6          498.13494      57.885706     -3778.7427      15487.247    
    479400   958.8          520.78236      60.517447     -3778.7198      12870.964    
    479500   959            497.87749      57.855789     -3781.9718      13276.51     
    479600   959.2          478.70301      55.627621     -3783.8553      12572.038    
    479700   959.4          499.59468      58.055335     -3782.0156      11428.342    
    479800   959.6          514.22567      59.755527     -3779.106       14681.377    
    479900   959.8          492.93761      57.281751     -3778.6335      15353.152    
    480000   960            518.05491      60.200504     -3779.8321      12540.537    
    480100   960.2          488.47557      56.76324      -3781.1336      14846.535    
    480200   960.4          482.01191      56.012131     -3782.4339      14355.571    
    480300   960.6          482.66573      56.088108     -3782.623       11950.927    
    480400   960.8          483.72777      56.211522     -3780.3268      15599.368    
    480500   961            507.67379      58.994167     -3778.0594      12750.163    
    480600   961.2          517.84296      60.175873     -3777.3632      13600.984    
    480700   961.4          520.7904       60.518381     -3779.0485      14332.136    
    480800   961.6          475.8656       55.2979       -3782.3564      12273.527    
    480900   961.8          486.80008      56.56854      -3782.6208      13312.776    
    481000   962            488.88878      56.811257     -3781.0813      12920.082    
    481100   962.2          508.9472       59.142143     -3777.5731      12808.423    
    481200   962.4          514.10332      59.74131      -3776.9377      13373.226    
    481300   962.6          485.24313      56.387615     -3778.2279      14582.799    
    481400   962.8          490.99217      57.055682     -3780.5135      14238.935    
    481500   963            487.60252      56.661787     -3781.5606      13528.835    
    481600   963.2          500.13351      58.11795      -3779.959       14032.733    
    481700   963.4          504.55204      58.631405     -3775.8559      13778.466    
    481800   963.6          526.32267      61.161258     -3775.9849      11860.086    
    481900   963.8          519.03574      60.314481     -3778.3995      12110.078    
    482000   964            502.45154      58.387316     -3780.2718      13474.399    
    482100   964.2          496.22707      57.664003     -3780.1831      14147.306    
    482200   964.4          496.22057      57.663246     -3779.2094      15318.47     
    482300   964.6          503.74739      58.5379       -3777.68        14126.168    
    482400   964.8          547.2601       63.594289     -3774.2054      13465.049    
    482500   965            524.42613      60.94087      -3773.2963      14889.412    
    482600   965.2          501.5571       58.283378     -3777.6054      13355.421    
    482700   965.4          503.05057      58.456926     -3779.1665      13605.877    
    482800   965.6          485.94656      56.469356     -3780.8731      15989.487    
    482900   965.8          495.96564      57.633623     -3780.3869      13448.656    
    483000   966            506.15454      58.817623     -3777.5926      14551.845    
    483100   966.2          527.37395      61.283421     -3775.1303      15616.035    
    483200   966.4          534.93621      62.162193     -3777.79        14008.13     
    483300   966.6          510.02191      59.267029     -3781.1306      12912.764    
    483400   966.8          516.81332      60.056225     -3780.6472      14945.766    
    483500   967            494.06323      57.412554     -3779.0857      13375.001    
    483600   967.2          508.74754      59.118942     -3777.6328      15164.039    
    483700   967.4          504.55308      58.631525     -3777.4745      12832.784    
    483800   967.6          498.34833      57.910503     -3780.3427      12240.401    
    483900   967.8          479.0744       55.670778     -3782.6643      14519.209    
    484000   968            490.25392      56.969893     -3781.742       14082.442    
    484100   968.2          524.59798      60.96084      -3778.3363      14642.403    
    484200   968.4          517.23812      60.105589     -3776.6306      15068.478    
    484300   968.6          493.574        57.355703     -3777.8603      14413.449    
    484400   968.8          506.68331      58.879068     -3779.9037      15722.348    
    484500   969            477.36546      55.472192     -3781.6843      14329.176    
    484600   969.2          497.34798      57.794257     -3780.816       14737.265    
    484700   969.4          500.57641      58.169417     -3779.4938      14085.978    
    484800   969.6          533.48286      61.993306     -3775.0218      14768.009    
    484900   969.8          517.49724      60.1357       -3775.6047      13365.642    
    485000   970            513.18527      59.634628     -3779.1213      13663.548    
    485100   970.2          486.85143      56.574508     -3781.0291      13551.278    
    485200   970.4          486.7301       56.560408     -3781.8789      13617.971    
    485300   970.6          500.8794       58.204625     -3781.166       13600.42     
    485400   970.8          521.36941      60.585664     -3776.9724      12929.456    
    485500   971            510.1898       59.286539     -3776.2618      15075.552    
    485600   971.2          494.69744      57.486252     -3778.7107      12723.423    
    485700   971.4          493.13502      57.304691     -3780.3937      14516.612    
    485800   971.6          500.13432      58.118044     -3780.4033      13431.889    
    485900   971.8          497.86714      57.854586     -3779.6756      13363.691    
    486000   972            493.68291      57.368359     -3778.1907      13165.276    
    486100   972.2          524.91436      60.997605     -3774.0481      15594.638    
    486200   972.4          506.33029      58.838046     -3773.9364      15133.459    
    486300   972.6          504.9694       58.679904     -3777.6842      13826.301    
    486400   972.8          513.46182      59.666764     -3778.8172      15091.589    
    486500   973            491.12769      57.071429     -3780.2307      12723.461    
    486600   973.2          495.40846      57.568876     -3781.2268      14504.7      
    486700   973.4          474.03693      55.0854       -3780.3922      14926.32     
    486800   973.6          525.3881       61.052657     -3776.7911      15102.143    
    486900   973.8          508.42609      59.081587     -3776.2518      13149.967    
    487000   974            478.39797      55.592174     -3778.6866      14209.112    
    487100   974.2          481.39756      55.940742     -3781.3186      15775.467    
    487200   974.4          490.16009      56.95899      -3781.1838      12520.063    
    487300   974.6          504.2438       58.595585     -3780.4472      13360.332    
    487400   974.8          495.28411      57.554426     -3778.5254      15009.31     
    487500   975            509.9028       59.253189     -3776.9339      13744.972    
    487600   975.2          497.45369      57.806541     -3776.7033      13764.559    
    487700   975.4          498.02913      57.873411     -3780.8439      14517.609    
    487800   975.6          480.69085      55.858618     -3782.4356      12049.547    
    487900   975.8          493.26682      57.320007     -3781.305       14310.298    
    488000   976            502.22933      58.361494     -3777.8065      12536.722    
    488100   976.2          517.93796      60.186914     -3776.8433      12400.271    
    488200   976.4          522.32031      60.696164     -3777.6779      12322.646    
    488300   976.6          492.15733      57.191079     -3779.5848      14287.112    
    488400   976.8          489.3838       56.868781     -3780.3912      12387.228    
    488500   977            509.00333      59.148665     -3779.1615      13446.425    
    488600   977.2          504.59396      58.636275     -3776.346       14573.843    
    488700   977.4          533.29267      61.971206     -3775.9956      14493.52     
    488800   977.6          505.94999      58.793853     -3779.3198      15449.974    
    488900   977.8          487.15881      56.610227     -3781.0217      13289.889    
    489000   978            490.04812      56.945979     -3780.2422      14639.513    
    489100   978.2          482.94758      56.120861     -3779.0326      13662.454    
    489200   978.4          526.57997      61.191157     -3774.818       15831.879    
    489300   978.6          520.07156      60.434848     -3773.977       16028.814    
    489400   978.8          504.88529      58.670129     -3777.676       14492.571    
    489500   979            503.38174      58.49541      -3779.294       14567.163    
    489600   979.2          481.2457       55.923094     -3780.4804      14020.031    
    489700   979.4          493.55927      57.353991     -3780.3432      15228.578    
    489800   979.6          518.68836      60.274113     -3777.4912      14665.603    
    489900   979.8          536.64344      62.360582     -3775.0604      11758.854    
    490000   980            503.46148      58.504676     -3776.1822      13349.175    
    490100   980.2          499.20655      58.010232     -3780.9342      12797.62     
    490200   980.4          508.21245      59.056762     -3780.9723      12814.933    
    490300   980.6          504.31699      58.604091     -3779.2852      12272.703    
    490400   980.8          532.48212      61.877016     -3777.3598      12606.283    
    490500   981            510.1955       59.287202     -3777.7176      14302.382    
    490600   981.2          488.83934      56.805512     -3781.2967      12263.295    
    490700   981.4          483.33969      56.166426     -3783.2596      13418.988    
    490800   981.6          500.09106      58.113017     -3781.4517      13691.073    
    490900   981.8          496.24714      57.666335     -3778.7636      12350.467    
    491000   982            499.88407      58.088964     -3778.3477      13547.13     
    491100   982.2          492.42933      57.222687     -3779.4207      12024.053    
    491200   982.4          497.2356       57.781199     -3780.2873      13490.848    
    491300   982.6          495.12224      57.535616     -3780.6604      14882.65     
    491400   982.8          500.85004      58.201214     -3780.7672      14718.425    
    491500   983            515.19865      59.868593     -3780.1706      14144.923    
    491600   983.2          492.72444      57.256979     -3779.3003      13947.679    
    491700   983.4          495.23045      57.54819      -3778.2227      12531.739    
    491800   983.6          507.8449       59.014051     -3777.2369      13918.103    
    491900   983.8          514.63675      59.803297     -3777.3996      13257.195    
    492000   984            496.60028      57.707371     -3781.0419      14210.507    
    492100   984.2          497.6087       57.824555     -3781.9973      15427.081    
    492200   984.4          483.14862      56.144222     -3780.1857      11894.135    
    492300   984.6          495.53297      57.583345     -3777.6551      17929.758    
    492400   984.8          509.47294      59.203237     -3777.8017      15030.45     
    492500   985            495.35788      57.562998     -3780.1736      14045.456    
    492600   985.2          494.26931      57.436501     -3780.4936      14869.119    
    492700   985.4          494.68016      57.484244     -3780.4414      12999.139    
    492800   985.6          502.42094      58.38376      -3779.2124      14325.21     
    492900   985.8          524.17471      60.911654     -3777.5146      14187.156    
    493000   986            508.52196      59.092728     -3776.8102      13854.305    
    493100   986.2          499.88749      58.089361     -3778.9698      15483.486    
    493200   986.4          484.26599      56.274066     -3782.5562      13632.245    
    493300   986.6          485.53768      56.421844     -3782.4936      12361.458    
    493400   986.8          497.17058      57.773643     -3779.8246      13806.264    
    493500   987            510.87233      59.365853     -3778.5279      14269.619    
    493600   987.2          501.81184      58.31298      -3779.1015      13495.531    
    493700   987.4          502.91953      58.441699     -3780.3695      13551.911    
    493800   987.6          477.91174      55.535672     -3781.3654      13975.677    
    493900   987.8          498.69541      57.950836     -3780.9667      14217.707    
    494000   988            502.43382      58.385257     -3777.674       13873.24     
    494100   988.2          533.20739      61.961295     -3776.2041      14572.347    
    494200   988.4          479.178        55.682817     -3778.6659      13877.845    
    494300   988.6          481.04551      55.899831     -3781.254       12506.56     
    494400   988.8          488.92469      56.815431     -3781.3146      13388.782    
    494500   989            505.69917      58.764707     -3779.9375      15607.095    
    494600   989.2          517.97903      60.191686     -3777.7268      14798.116    
    494700   989.4          529.7053       61.554336     -3772.9446      14853.53     
    494800   989.6          522.60803      60.729598     -3774.6302      13533.453    
    494900   989.8          512.74276      59.583206     -3777.6555      15402.696    
    495000   990            495.02002      57.523737     -3779.7636      14340.37     
    495100   990.2          506.04524      58.804922     -3781.265       13908.763    
    495200   990.4          500.69707      58.183438     -3781.0256      14121.838    
    495300   990.6          525.34905      61.048118     -3777.5334      14990.611    
    495400   990.8          503.60024      58.5208       -3776.1606      15983.385    
    495500   991            497.24034      57.781749     -3778.8555      14379.963    
    495600   991.2          492.86718      57.273566     -3780.7548      14432.783    
    495700   991.4          502.22779      58.361315     -3780.6835      13722.362    
    495800   991.6          508.32492      59.069832     -3779.2163      14343.393    
    495900   991.8          524.75657      60.979269     -3776.5875      15079.792    
    496000   992            525.91002      61.113306     -3774.8591      14300.099    
    496100   992.2          520.90658      60.531881     -3777.8192      15681.364    
    496200   992.4          486.34949      56.51618      -3781.5146      13454.562    
    496300   992.6          482.66856      56.088438     -3781.9774      14088.824    
    496400   992.8          471.47947      54.788211     -3779.5752      17140.918    
    496500   993            516.5669       60.02759      -3777.1877      12041.473    
    496600   993.2          515.00584      59.846187     -3777.932       13448.808    
    496700   993.4          498.67835      57.948853     -3780.0318      14363.782    
    496800   993.6          480.45685      55.831425     -3784.543       12727.433    
    496900   993.8          479.63798      55.73627      -3784.7471      10786.536    
    497000   994            481.94328      56.004157     -3781.8242      12223.105    
    497100   994.2          505.89582      58.787558     -3779.4333      14437.475    
    497200   994.4          528.91937      61.463007     -3778.2076      13012.247    
    497300   994.6          501.60406      58.288835     -3779.383       12717.762    
    497400   994.8          484.58775      56.311457     -3783.154       14312.857    
    497500   995            497.13587      57.769609     -3783.7158      13467.076    
    497600   995.2          512.87205      59.59823      -3782.261       12203.848    
    497700   995.4          503.19507      58.473717     -3780.835       14629.122    
    497800   995.6          507.35319      58.956912     -3780.2619      16132.955    
    497900   995.8          511.57022      59.446951     -3779.162       13152.129    
    498000   996            515.79457      59.937842     -3778.1874      14124.909    
    498100   996.2          504.42055      58.616124     -3779.4402      17174.488    
    498200   996.4          483.58933      56.195436     -3782.437       14727.152    
    498300   996.6          490.84288      57.038334     -3783.7131      14301.188    
    498400   996.8          481.99215      56.009836     -3781.3996      13751.614    
    498500   997            507.12526      58.930425     -3778.2819      15311.521    
    498600   997.2          487.11269      56.604866     -3778.4959      14546.14     
    498700   997.4          491.43268      57.106871     -3779.8159      13078.227    
    498800   997.6          493.52131      57.34958      -3782.0551      14670.278    
    498900   997.8          477.18349      55.451046     -3785.1537      14328.422    
    499000   998            488.32919      56.74623      -3786.8592      14455.348    
    499100   998.2          494.66993      57.483055     -3782.4053      12854.42     
    499200   998.4          496.2618       57.668038     -3779.7639      14988.609    
    499300   998.6          498.93071      57.978178     -3778.548       15465.256    
    499400   998.8          491.22965      57.083277     -3777.8866      13517.061    
    499500   999            486.3058       56.511102     -3777.7909      13800.159    
    499600   999.2          489.37639      56.86792      -3779.8356      14870.262    
    499700   999.4          498.08937      57.880411     -3782.946       13324.881    
    499800   999.6          502.66351      58.411948     -3782.0971      13967.614    
    499900   999.8          484.34835      56.283637     -3779.6619      14092.735    
    500000   1000           510.08928      59.274859     -3778.5665      14660.986    
Loop time of 32119.3 on 1 procs for 500000 steps with 900 atoms

Performance: 2.690 ns/day, 8.922 hours/ns, 15.567 timesteps/s
57.5% CPU use with 1 MPI tasks x 1 OpenMP threads

MPI task timing breakdown:
Section |  min time  |  avg time  |  max time  |%varavg| %total
---------------------------------------------------------------
Pair    | 31839      | 31839      | 31839      |   0.0 | 99.13
Neigh   | 235.56     | 235.56     | 235.56     |   0.0 |  0.73
Comm    | 10.74      | 10.74      | 10.74      |   0.0 |  0.03
Output  | 11.078     | 11.078     | 11.078     |   0.0 |  0.03
Modify  | 19.156     | 19.156     | 19.156     |   0.0 |  0.06
Other   |            | 3.918      |            |       |  0.01

Nlocal:            900 ave         900 max         900 min
Histogram: 1 0 0 0 0 0 0 0 0 0
Nghost:           2469 ave        2469 max        2469 min
Histogram: 1 0 0 0 0 0 0 0 0 0
Neighs:              0 ave           0 max           0 min
Histogram: 1 0 0 0 0 0 0 0 0 0
FullNghs:        65786 ave       65786 max       65786 min
Histogram: 1 0 0 0 0 0 0 0 0 0

Total # of neighbors = 65786
Ave neighs/atom = 73.095556
Neighbor list builds = 50000
Dangerous builds not checked
Total wall time: 8:57:12
