ITEM: TIMESTEP
0
ITEM: NUMBER OF ATOMS
32
ITEM: BOX BOUNDS xy xz yz pp pp pp
-4.0532350540161133e-03 6.4008854031562805e+00 0.0000000000000000e+00
-9.1640949249267578e-03 8.4326327443122864e+00 0.0000000000000000e+00
-4.7960281372070312e-02 2.0773346722126007e+01 2.9030374884605408e+00
ITEM: ATOMS id type xs ys zs fx fy fz
1 1 0.999986 0.634842 0.0597509 0 0 0.347776
2 1 0.499986 0.634842 0.0597509 0 0 0.347776
3 1 0.249986 0.134841 0.0597519 0 0 0.34766
4 1 0.749986 0.134841 0.0597519 0 0 0.34766
5 1 0.999986 0.503821 0.309753 0 0 0.000301361
6 1 0.249986 0.403679 0.184753 0 0 -0.000961304
7 1 0.749986 0.403679 0.184753 0 0 -0.000961304
8 1 0.499986 0.503821 0.309753 0 0 0.000301361
9 1 0.999986 0.903678 0.184753 0 0 -0.000938416
10 1 0.249986 0.00382091 0.309753 0 0 0.00025177
11 1 0.499986 0.903678 0.184753 0 0 -0.000938416
12 1 0.749986 0.00382091 0.309753 0 0 0.00025177
13 1 0.999986 0.372776 0.559749 0 0 5.72205e-05
14 1 0.499986 0.372776 0.559749 0 0 5.72205e-05
15 1 0.249986 0.872775 0.55975 0 0 4.57764e-05
16 1 0.749986 0.872775 0.55975 0 0 4.57764e-05
17 1 0.249986 0.272648 0.434752 0 0 -5.72205e-05
18 1 0.749986 0.272648 0.434752 0 0 -5.72205e-05
19 1 0.999986 0.772647 0.434752 0 0 -3.43323e-05
20 1 0.499986 0.772647 0.434752 0 0 -3.43323e-05
21 1 0.999986 0.241735 0.809748 0 0 0.000946045
22 1 0.249986 0.141598 0.684748 0 0 -0.00028038
23 1 0.499986 0.241735 0.809748 0 0 0.000946045
24 1 0.749986 0.141598 0.684748 0 0 -0.00028038
25 1 0.999986 0.641598 0.684749 0 0 -0.000303268
26 1 0.249986 0.741736 0.809748 0 0 0.000955582
27 1 0.749986 0.741736 0.809748 0 0 0.000955582
28 1 0.499986 0.641598 0.684749 0 0 -0.000303268
29 1 0.249986 0.0105697 0.934749 0 0 -0.347652
30 1 0.749986 0.0105697 0.934749 0 0 -0.347652
31 1 0.999986 0.51057 0.93475 0 0 -0.347767
32 1 0.499986 0.51057 0.93475 0 0 -0.347767
ITEM: TIMESTEP
1
ITEM: NUMBER OF ATOMS
32
ITEM: BOX BOUNDS xy xz yz pp pp pp
-4.0532350540161133e-03 6.4008854031562805e+00 0.0000000000000000e+00
-9.1640949249267578e-03 8.4326327443122864e+00 0.0000000000000000e+00
-4.7960281372070312e-02 2.0773346722126007e+01 2.9030374884605408e+00
ITEM: ATOMS id type xs ys zs fx fy fz
1 1 0.999986 0.633143 0.0629912 0 0 -0.0146561
2 1 0.499986 0.633143 0.0629912 0 0 -0.0146561
3 1 0.249986 0.133144 0.0629912 0 0 -0.0146484
4 1 0.749986 0.133144 0.0629912 0 0 -0.0146484
5 1 0.999986 0.503819 0.309756 0 0 0.00516129
6 1 0.249986 0.403684 0.184744 0 0 0.0937347
7 1 0.749986 0.403684 0.184744 0 0 0.0937347
8 1 0.499986 0.503819 0.309756 0 0 0.00516129
9 1 0.999986 0.903682 0.184744 0 0 0.093729
10 1 0.249986 0.00381969 0.309756 0 0 0.00514603
11 1 0.499986 0.903682 0.184744 0 0 0.093729
12 1 0.749986 0.00381968 0.309756 0 0 0.00514603
13 1 0.999986 0.372776 0.55975 0 0 0.000286102
14 1 0.499986 0.372776 0.55975 0 0 0.000286102
15 1 0.249986 0.872774 0.55975 0 0 0.000274658
16 1 0.749986 0.872774 0.55975 0 0 0.000274658
17 1 0.249986 0.272648 0.434752 0 0 -0.000289917
18 1 0.749986 0.272648 0.434752 0 0 -0.000289917
19 1 0.999986 0.772647 0.434751 0 0 -0.000276566
20 1 0.499986 0.772647 0.434751 0 0 -0.000276566
21 1 0.999986 0.241731 0.809757 0 0 -0.0937309
22 1 0.249986 0.141599 0.684746 0 0 -0.00515175
23 1 0.499986 0.241731 0.809757 0 0 -0.0937309
24 1 0.749986 0.141599 0.684746 0 0 -0.00515175
25 1 0.999986 0.641599 0.684746 0 0 -0.00515747
26 1 0.249986 0.741731 0.809757 0 0 -0.0937328
27 1 0.749986 0.741731 0.809757 0 0 -0.0937328
28 1 0.499986 0.641599 0.684746 0 0 -0.00515747
29 1 0.249986 0.0122674 0.93151 0 0 0.0146484
30 1 0.749986 0.0122674 0.93151 0 0 0.0146484
31 1 0.999986 0.512268 0.93151 0 0 0.0146637
32 1 0.499986 0.512268 0.93151 0 0 0.0146637
ITEM: TIMESTEP
2
ITEM: NUMBER OF ATOMS
32
ITEM: BOX BOUNDS xy xz yz pp pp pp
-4.0532350540161133e-03 6.4008854031562805e+00 0.0000000000000000e+00
-9.1640949249267578e-03 8.4326327443122864e+00 0.0000000000000000e+00
-4.7960281372070312e-02 2.0773346722126007e+01 2.9030374884605408e+00
ITEM: ATOMS id type xs ys zs fx fy fz
1 1 0.999986 0.632863 0.0635258 0 0 -0.0101604
2 1 0.499986 0.632863 0.0635258 0 0 -0.0101604
3 1 0.249986 0.132863 0.0635257 0 0 -0.0101395
4 1 0.749986 0.132863 0.0635257 0 0 -0.0101395
5 1 0.999986 0.503764 0.309862 0 0 0.0481873
6 1 0.249986 0.402684 0.186653 0 0 0.0025177
7 1 0.749986 0.402684 0.186653 0 0 0.0025177
8 1 0.499986 0.503764 0.309862 0 0 0.0481873
9 1 0.999986 0.902682 0.186653 0 0 0.00253105
10 1 0.249986 0.00376437 0.309861 0 0 0.048193
11 1 0.499986 0.902682 0.186653 0 0 0.00253105
12 1 0.749986 0.00376437 0.309861 0 0 0.048193
13 1 0.999986 0.372773 0.559756 0 0 -0.00561714
14 1 0.499986 0.372773 0.559756 0 0 -0.00561714
15 1 0.249986 0.872771 0.559756 0 0 -0.00561333
16 1 0.749986 0.872771 0.559756 0 0 -0.00561333
17 1 0.249986 0.272651 0.434746 0 0 0.00562096
18 1 0.749986 0.272651 0.434746 0 0 0.00562096
19 1 0.999986 0.77265 0.434746 0 0 0.0056076
20 1 0.499986 0.77265 0.434746 0 0 0.0056076
21 1 0.999986 0.242731 0.807848 0 0 -0.00251961
22 1 0.249986 0.141655 0.68464 0 0 -0.0481911
23 1 0.499986 0.242731 0.807848 0 0 -0.00251961
24 1 0.749986 0.141655 0.68464 0 0 -0.0481911
25 1 0.999986 0.641655 0.68464 0 0 -0.0481987
26 1 0.249986 0.742731 0.807848 0 0 -0.00252342
27 1 0.749986 0.742731 0.807848 0 0 -0.00252342
28 1 0.499986 0.641655 0.68464 0 0 -0.0481987
29 1 0.249986 0.0125476 0.930976 0 0 0.0101471
30 1 0.749986 0.0125476 0.930976 0 0 0.0101471
31 1 0.999986 0.512548 0.930975 0 0 0.0101585
32 1 0.499986 0.512548 0.930975 0 0 0.0101585
ITEM: TIMESTEP
3
ITEM: NUMBER OF ATOMS
32
ITEM: BOX BOUNDS xy xz yz pp pp pp
-4.0532350540161133e-03 6.4008854031562805e+00 0.0000000000000000e+00
-9.1640949249267578e-03 8.4326327443122864e+00 0.0000000000000000e+00
-4.7960281372070312e-02 2.0773346722126007e+01 2.9030374884605408e+00
ITEM: ATOMS id type xs ys zs fx fy fz
1 1 0.999986 0.632927 0.0634046 0 0 0.0182323
2 1 0.499986 0.632927 0.0634046 0 0 0.0182323
3 1 0.249986 0.132927 0.0634049 0 0 0.0182209
4 1 0.749986 0.132927 0.0634049 0 0 0.0182209
5 1 0.999986 0.503117 0.311095 0 0 -0.000833511
6 1 0.249986 0.402401 0.187192 0 0 0.000490189
7 1 0.749986 0.402401 0.187192 0 0 0.000490189
8 1 0.499986 0.503117 0.311095 0 0 -0.000833511
9 1 0.999986 0.902399 0.187192 0 0 0.000471115
10 1 0.249986 0.0031181 0.311094 0 0 -0.000827789
11 1 0.499986 0.902399 0.187192 0 0 0.000471115
12 1 0.749986 0.0031181 0.311094 0 0 -0.000827789
13 1 0.999986 0.372846 0.559617 0 0 -0.0243721
14 1 0.499986 0.372846 0.559617 0 0 -0.0243721
15 1 0.249986 0.872844 0.559617 0 0 -0.0243683
16 1 0.749986 0.872844 0.559617 0 0 -0.0243683
17 1 0.249986 0.272578 0.434885 0 0 0.0243626
18 1 0.749986 0.272578 0.434885 0 0 0.0243626
19 1 0.999986 0.772577 0.434885 0 0 0.0243702
20 1 0.499986 0.772577 0.434885 0 0 0.0243702
21 1 0.999986 0.243013 0.807309 0 0 -0.000492096
22 1 0.249986 0.142301 0.683407 0 0 0.000843048
23 1 0.499986 0.243013 0.807309 0 0 -0.000492096
24 1 0.749986 0.142301 0.683407 0 0 0.000843048
25 1 0.999986 0.642301 0.683407 0 0 0.00084877
26 1 0.249986 0.743014 0.807309 0 0 -0.000484467
27 1 0.749986 0.743014 0.807309 0 0 -0.000484467
28 1 0.499986 0.642301 0.683407 0 0 0.00084877
29 1 0.249986 0.0124842 0.931097 0 0 -0.0182171
30 1 0.749986 0.0124842 0.931097 0 0 -0.0182171
31 1 0.999986 0.512485 0.931097 0 0 -0.0182438
32 1 0.499986 0.512485 0.931097 0 0 -0.0182438
ITEM: TIMESTEP
4
ITEM: NUMBER OF ATOMS
32
ITEM: BOX BOUNDS xy xz yz pp pp pp
-4.0532350540161133e-03 6.4008854031562805e+00 0.0000000000000000e+00
-9.1640949249267578e-03 8.4326327443122864e+00 0.0000000000000000e+00
-4.7960281372070312e-02 2.0773346722126007e+01 2.9030374884605408e+00
ITEM: ATOMS id type xs ys zs fx fy fz
1 1 0.999986 0.6328 0.0636467 0 0 -0.00021553
2 1 0.499986 0.6328 0.0636467 0 0 -0.00021553
3 1 0.249986 0.1328 0.063647 0 0 -0.000225067
4 1 0.749986 0.1328 0.063647 0 0 -0.000225067
5 1 0.999986 0.502965 0.311384 0 0 -0.0030632
6 1 0.249986 0.402328 0.187331 0 0 0.00719643
7 1 0.749986 0.402328 0.187331 0 0 0.00719643
8 1 0.499986 0.502965 0.311384 0 0 -0.0030632
9 1 0.999986 0.902327 0.187331 0 0 0.00718498
10 1 0.249986 0.00296612 0.311384 0 0 -0.00305176
11 1 0.499986 0.902327 0.187331 0 0 0.00718498
12 1 0.749986 0.00296612 0.311384 0 0 -0.00305176
13 1 0.999986 0.373054 0.559219 0 0 -0.000585556
14 1 0.499986 0.373054 0.559219 0 0 -0.000585556
15 1 0.249986 0.873053 0.559219 0 0 -0.000597
16 1 0.749986 0.873053 0.559219 0 0 -0.000597
17 1 0.249986 0.27237 0.435282 0 0 0.000591278
18 1 0.749986 0.27237 0.435282 0 0 0.000591278
19 1 0.999986 0.772369 0.435282 0 0 0.000595093
20 1 0.499986 0.772369 0.435282 0 0 0.000595093
21 1 0.999986 0.243087 0.80717 0 0 -0.0071907
22 1 0.249986 0.142453 0.683117 0 0 0.00305367
23 1 0.499986 0.243087 0.80717 0 0 -0.0071907
24 1 0.749986 0.142453 0.683117 0 0 0.00305367
25 1 0.999986 0.642453 0.683117 0 0 0.0030632
26 1 0.249986 0.743087 0.80717 0 0 -0.0071907
27 1 0.749986 0.743087 0.80717 0 0 -0.0071907
28 1 0.499986 0.642453 0.683117 0 0 0.0030632
29 1 0.249986 0.012611 0.930855 0 0 0.000219345
30 1 0.749986 0.012611 0.930855 0 0 0.000219345
31 1 0.999986 0.512612 0.930854 0 0 0.00021553
32 1 0.499986 0.512612 0.930854 0 0 0.00021553
ITEM: TIMESTEP
5
ITEM: NUMBER OF ATOMS
32
ITEM: BOX BOUNDS xy xz yz pp pp pp
-4.0532350540161133e-03 6.4008854031562805e+00 0.0000000000000000e+00
-9.1640949249267578e-03 8.4326327443122864e+00 0.0000000000000000e+00
-4.7960281372070312e-02 2.0773346722126007e+01 2.9030374884605408e+00
ITEM: ATOMS id type xs ys zs fx fy fz
1 1 0.999986 0.632796 0.0636546 0 0 0.00182915
2 1 0.499986 0.632796 0.0636546 0 0 0.00182915
3 1 0.249986 0.132796 0.0636548 0 0 0.00182724
4 1 0.749986 0.132796 0.0636548 0 0 0.00182724
5 1 0.999986 0.502981 0.311355 0 0 0.00176048
6 1 0.249986 0.402273 0.187437 0 0 0.000865936
7 1 0.749986 0.402273 0.187437 0 0 0.000865936
8 1 0.499986 0.502981 0.311355 0 0 0.00176048
9 1 0.999986 0.902271 0.187437 0 0 0.000864029
10 1 0.249986 0.00298141 0.311355 0 0 0.00176239
11 1 0.499986 0.902271 0.187437 0 0 0.000864029
12 1 0.749986 0.00298141 0.311355 0 0 0.00176239
13 1 0.999986 0.373068 0.559193 0 0 0.00198555
14 1 0.499986 0.373068 0.559193 0 0 0.00198555
15 1 0.249986 0.873066 0.559193 0 0 0.00198936
16 1 0.749986 0.873066 0.559193 0 0 0.00198936
17 1 0.249986 0.272356 0.435308 0 0 -0.00199127
18 1 0.749986 0.272356 0.435308 0 0 -0.00199127
19 1 0.999986 0.772355 0.435308 0 0 -0.00198936
20 1 0.499986 0.772355 0.435308 0 0 -0.00198936
21 1 0.999986 0.243142 0.807064 0 0 -0.0008564
22 1 0.249986 0.142438 0.683146 0 0 -0.0017643
23 1 0.499986 0.243142 0.807064 0 0 -0.0008564
24 1 0.749986 0.142438 0.683146 0 0 -0.0017643
25 1 0.999986 0.642437 0.683146 0 0 -0.00176239
26 1 0.249986 0.743142 0.807064 0 0 -0.0008564
27 1 0.749986 0.743142 0.807064 0 0 -0.0008564
28 1 0.499986 0.642437 0.683146 0 0 -0.00176239
29 1 0.249986 0.0126151 0.930847 0 0 -0.00184059
30 1 0.749986 0.0126151 0.930847 0 0 -0.00184059
31 1 0.999986 0.512616 0.930846 0 0 -0.00182343
32 1 0.499986 0.512616 0.930846 0 0 -0.00182343
ITEM: TIMESTEP
6
ITEM: NUMBER OF ATOMS
32
ITEM: BOX BOUNDS xy xz yz pp pp pp
-4.0532350540161133e-03 6.4008854031562805e+00 0.0000000000000000e+00
-9.1640949249267578e-03 8.4326327443122864e+00 0.0000000000000000e+00
-4.7960281372070312e-02 2.0773346722126007e+01 2.9030374884605408e+00
ITEM: ATOMS id type xs ys zs fx fy fz
1 1 0.999986 0.632778 0.0636873 0 0 -8.58307e-05
2 1 0.499986 0.632778 0.0636873 0 0 -8.58307e-05
3 1 0.249986 0.132779 0.0636874 0 0 -8.39233e-05
4 1 0.749986 0.132779 0.0636874 0 0 -8.39233e-05
5 1 0.999986 0.502969 0.311378 0 0 0.000938416
6 1 0.249986 0.402252 0.187477 0 0 5.53131e-05
7 1 0.749986 0.402252 0.187477 0 0 5.53131e-05
8 1 0.499986 0.502969 0.311378 0 0 0.000938416
9 1 0.999986 0.90225 0.187477 0 0 7.24792e-05
10 1 0.249986 0.00296945 0.311378 0 0 0.000928879
11 1 0.499986 0.90225 0.187477 0 0 7.24792e-05
12 1 0.749986 0.00296945 0.311378 0 0 0.000928879
13 1 0.999986 0.373053 0.559221 0 0 -0.000799179
14 1 0.499986 0.373053 0.559221 0 0 -0.000799179
15 1 0.249986 0.873052 0.55922 0 0 -0.000795364
16 1 0.749986 0.873052 0.55922 0 0 -0.000795364
17 1 0.249986 0.27237 0.435281 0 0 0.000795364
18 1 0.749986 0.27237 0.435281 0 0 0.000795364
19 1 0.999986 0.77237 0.435281 0 0 0.00079155
20 1 0.499986 0.77237 0.435281 0 0 0.00079155
21 1 0.999986 0.243163 0.807025 0 0 -6.67572e-05
22 1 0.249986 0.142449 0.683124 0 0 -0.000936508
23 1 0.499986 0.243163 0.807025 0 0 -6.67572e-05
24 1 0.749986 0.142449 0.683124 0 0 -0.000936508
25 1 0.999986 0.642449 0.683124 0 0 -0.000938416
26 1 0.249986 0.743163 0.807025 0 0 -5.91278e-05
27 1 0.749986 0.743163 0.807025 0 0 -5.91278e-05
28 1 0.499986 0.642449 0.683124 0 0 -0.000938416
29 1 0.249986 0.0126323 0.930814 0 0 9.15527e-05
30 1 0.749986 0.0126323 0.930814 0 0 9.15527e-05
31 1 0.999986 0.512633 0.930814 0 0 9.15527e-05
32 1 0.499986 0.512633 0.930814 0 0 9.15527e-05
ITEM: TIMESTEP
7
ITEM: NUMBER OF ATOMS
32
ITEM: BOX BOUNDS xy xz yz pp pp pp
-4.0532350540161133e-03 6.4008854031562805e+00 0.0000000000000000e+00
-9.1640949249267578e-03 8.4326327443122864e+00 0.0000000000000000e+00
-4.7960281372070312e-02 2.0773346722126007e+01 2.9030374884605408e+00
ITEM: ATOMS id type xs ys zs fx fy fz
1 1 0.999986 0.632775 0.0636933 0 0 -0.000249863
2 1 0.499986 0.632775 0.0636933 0 0 -0.000249863
3 1 0.249986 0.132775 0.0636934 0 0 -0.000240326
4 1 0.749986 0.132775 0.0636934 0 0 -0.000240326
5 1 0.999986 0.50295 0.311414 0 0 -0.000236511
6 1 0.249986 0.402246 0.187489 0 0 0.000457764
7 1 0.749986 0.402246 0.187489 0 0 0.000457764
8 1 0.499986 0.50295 0.311414 0 0 -0.000236511
9 1 0.999986 0.902244 0.187489 0 0 0.000434875
10 1 0.249986 0.00295068 0.311414 0 0 -0.000226974
11 1 0.499986 0.902244 0.187489 0 0 0.000434875
12 1 0.749986 0.00295068 0.311414 0 0 -0.000226974
13 1 0.999986 0.373063 0.559202 0 0 -0.000238419
14 1 0.499986 0.373063 0.559202 0 0 -0.000238419
15 1 0.249986 0.873062 0.559202 0 0 -0.000238419
16 1 0.749986 0.873062 0.559202 0 0 -0.000238419
17 1 0.249986 0.272361 0.435299 0 0 0.000238419
18 1 0.749986 0.272361 0.435299 0 0 0.000238419
19 1 0.999986 0.77236 0.435299 0 0 0.000238419
20 1 0.499986 0.77236 0.435299 0 0 0.000238419
21 1 0.999986 0.243169 0.807012 0 0 -0.000444412
22 1 0.249986 0.142468 0.683087 0 0 0.000234604
23 1 0.499986 0.243169 0.807012 0 0 -0.000444412
24 1 0.749986 0.142468 0.683087 0 0 0.000234604
25 1 0.999986 0.642468 0.683088 0 0 0.000240326
26 1 0.249986 0.743169 0.807012 0 0 -0.000459671
27 1 0.749986 0.743169 0.807012 0 0 -0.000459671
28 1 0.499986 0.642468 0.683088 0 0 0.000240326
29 1 0.249986 0.0126354 0.930808 0 0 0.000242233
30 1 0.749986 0.0126354 0.930808 0 0 0.000242233
31 1 0.999986 0.512636 0.930808 0 0 0.000247955
32 1 0.499986 0.512636 0.930808 0 0 0.000247955
ITEM: TIMESTEP
8
ITEM: NUMBER OF ATOMS
32
ITEM: BOX BOUNDS xy xz yz pp pp pp
-4.0532350540161133e-03 6.4008854031562805e+00 0.0000000000000000e+00
-9.1640949249267578e-03 8.4326327443122864e+00 0.0000000000000000e+00
-4.7960281372070312e-02 2.0773346722126007e+01 2.9030374884605408e+00
ITEM: ATOMS id type xs ys zs fx fy fz
1 1 0.999986 0.632777 0.0636909 0 0 0.000148773
2 1 0.499986 0.632777 0.0636909 0 0 0.000148773
3 1 0.249986 0.132777 0.0636911 0 0 0.000131607
4 1 0.749986 0.132777 0.0636911 0 0 0.000131607
5 1 0.999986 0.50295 0.311414 0 0 1.90735e-06
6 1 0.249986 0.402242 0.187495 0 0 5.34058e-05
7 1 0.749986 0.402242 0.187495 0 0 5.34058e-05
8 1 0.499986 0.50295 0.311414 0 0 1.90735e-06
9 1 0.999986 0.902241 0.187496 0 0 4.95911e-05
10 1 0.249986 0.00295048 0.311414 0 0 7.62939e-06
11 1 0.499986 0.902241 0.187496 0 0 4.95911e-05
12 1 0.749986 0.00295048 0.311414 0 0 7.62939e-06
13 1 0.999986 0.373065 0.559198 0 0 8.01086e-05
14 1 0.499986 0.373065 0.559198 0 0 8.01086e-05
15 1 0.249986 0.873064 0.559198 0 0 7.05719e-05
16 1 0.749986 0.873064 0.559198 0 0 7.05719e-05
17 1 0.249986 0.272359 0.435303 0 0 -7.82013e-05
18 1 0.749986 0.272359 0.435303 0 0 -7.82013e-05
19 1 0.999986 0.772358 0.435303 0 0 -7.24792e-05
20 1 0.499986 0.772358 0.435303 0 0 -7.24792e-05
21 1 0.999986 0.243172 0.807006 0 0 -5.53131e-05
22 1 0.249986 0.142469 0.683087 0 0 5.72205e-06
23 1 0.499986 0.243172 0.807006 0 0 -5.53131e-05
24 1 0.749986 0.142469 0.683087 0 0 5.72205e-06
25 1 0.999986 0.642468 0.683087 0 0 -1.90735e-06
26 1 0.249986 0.743173 0.807006 0 0 -5.53131e-05
27 1 0.749986 0.743173 0.807006 0 0 -5.53131e-05
28 1 0.499986 0.642468 0.683087 0 0 -1.90735e-06
29 1 0.249986 0.0126342 0.93081 0 0 -0.000143051
30 1 0.749986 0.0126342 0.93081 0 0 -0.000143051
31 1 0.999986 0.512635 0.930811 0 0 -0.000143051
32 1 0.499986 0.512635 0.930811 0 0 -0.000143051
ITEM: TIMESTEP
9
ITEM: NUMBER OF ATOMS
32
ITEM: BOX BOUNDS xy xz yz pp pp pp
-4.0532350540161133e-03 6.4008854031562805e+00 0.0000000000000000e+00
-9.1640949249267578e-03 8.4326327443122864e+00 0.0000000000000000e+00
-4.7960281372070312e-02 2.0773346722126007e+01 2.9030374884605408e+00
ITEM: ATOMS id type xs ys zs fx fy fz
1 1 0.999986 0.632777 0.0636909 0 0 0.000148773
2 1 0.499986 0.632777 0.0636909 0 0 0.000148773
3 1 0.249986 0.132777 0.0636911 0 0 0.000131607
4 1 0.749986 0.132777 0.0636911 0 0 0.000131607
5 1 0.999986 0.50295 0.311414 0 0 1.90735e-06
6 1 0.249986 0.402242 0.187495 0 0 5.34058e-05
7 1 0.749986 0.402242 0.187495 0 0 5.34058e-05
8 1 0.499986 0.50295 0.311414 0 0 1.90735e-06
9 1 0.999986 0.902241 0.187496 0 0 4.95911e-05
10 1 0.249986 0.00295048 0.311414 0 0 7.62939e-06
11 1 0.499986 0.902241 0.187496 0 0 4.95911e-05
12 1 0.749986 0.00295048 0.311414 0 0 7.62939e-06
13 1 0.999986 0.373065 0.559198 0 0 8.01086e-05
14 1 0.499986 0.373065 0.559198 0 0 8.01086e-05
15 1 0.249986 0.873064 0.559198 0 0 7.05719e-05
16 1 0.749986 0.873064 0.559198 0 0 7.05719e-05
17 1 0.249986 0.272359 0.435303 0 0 -7.82013e-05
18 1 0.749986 0.272359 0.435303 0 0 -7.82013e-05
19 1 0.999986 0.772358 0.435303 0 0 -7.24792e-05
20 1 0.499986 0.772358 0.435303 0 0 -7.24792e-05
21 1 0.999986 0.243172 0.807006 0 0 -5.53131e-05
22 1 0.249986 0.142469 0.683087 0 0 5.72205e-06
23 1 0.499986 0.243172 0.807006 0 0 -5.53131e-05
24 1 0.749986 0.142469 0.683087 0 0 5.72205e-06
25 1 0.999986 0.642468 0.683087 0 0 -1.90735e-06
26 1 0.249986 0.743173 0.807006 0 0 -5.53131e-05
27 1 0.749986 0.743173 0.807006 0 0 -5.53131e-05
28 1 0.499986 0.642468 0.683087 0 0 -1.90735e-06
29 1 0.249986 0.0126342 0.93081 0 0 -0.000143051
30 1 0.749986 0.0126342 0.93081 0 0 -0.000143051
31 1 0.999986 0.512635 0.930811 0 0 -0.000143051
32 1 0.499986 0.512635 0.930811 0 0 -0.000143051
