ITEM: TIMESTEP
0
ITEM: NUMBER OF ATOMS
32
ITEM: BOX BOUNDS xy xz yz pp pp pp
-4.7826766967773438e-03 8.5591061115264893e+00 2.1597744226455688e+00
-3.7661075592041016e-02 2.2120539069175720e+01 0.0000000000000000e+00
-1.1393904685974121e-02 5.1938598752021790e+00 0.0000000000000000e+00
ITEM: ATOMS id type xs ys zs fx fy fz
1 1 0.905715 0.336542 0.593597 0 0.000844955 5.72205e-06
2 1 0.405716 0.336542 0.593597 0 0.000841141 5.72205e-06
3 1 0.169715 0.295033 0.0935973 0 -0.00149536 -5.72205e-06
4 1 0.669715 0.295033 0.0935973 0 -0.00149345 -3.8147e-06
5 1 0.11356 0.461543 0.593597 0 0.000917435 0
6 1 0.61356 0.461543 0.593597 0 0.000921249 5.72205e-06
7 1 0.877557 0.420037 0.0935973 0 -0.00134087 -7.62939e-06
8 1 0.377557 0.420037 0.0935973 0 -0.00134087 -3.8147e-06
9 1 0.821403 0.586543 0.593597 0 0.00127602 0
10 1 0.321403 0.586543 0.593597 0 0.00127792 0
11 1 0.0292489 0.711539 0.593597 0 0.00158119 7.62939e-06
12 1 0.529249 0.711539 0.593597 0 0.00157928 3.8147e-06
13 1 0.793243 0.670042 0.0935972 0 -0.00108147 -3.8147e-06
14 1 0.0853995 0.545043 0.0935972 0 -0.00102425 0
15 1 0.585399 0.545043 0.0935972 0 -0.00102043 0
16 1 0.293244 0.670042 0.0935972 0 -0.00108147 -7.62939e-06
17 1 0.737095 0.836533 0.593597 0 0.010479 3.8147e-06
18 1 0.237095 0.836533 0.593597 0 0.0104752 1.90735e-06
19 1 0.944939 0.961533 0.593597 0 -0.290154 0
20 1 0.444939 0.961533 0.593597 0 -0.290154 1.90735e-06
21 1 0.00109024 0.795035 0.0935971 0 0.0012188 0
22 1 0.50109 0.795035 0.0935971 0 0.00121117 -1.90735e-06
23 1 0.708935 0.920032 0.0935971 0 -0.486681 -3.8147e-06
24 1 0.208935 0.920032 0.0935971 0 -0.486685 -1.90735e-06
25 1 0.990029 0.0865377 0.593597 0 0.486446 0
26 1 0.490029 0.0865377 0.593597 0 0.486446 0
27 1 0.254027 0.045031 0.093597 0 0.290503 0
28 1 0.754027 0.045031 0.093597 0 0.290499 0
29 1 0.197872 0.211541 0.593597 0 -0.00123215 3.8147e-06
30 1 0.697872 0.211541 0.593597 0 -0.00122452 1.90735e-06
31 1 0.961871 0.170031 0.093597 0 -0.0102577 -1.90735e-06
32 1 0.461871 0.170031 0.093597 0 -0.010252 0
ITEM: TIMESTEP
1
ITEM: NUMBER OF ATOMS
32
ITEM: BOX BOUNDS xy xz yz pp pp pp
-4.7826766967773438e-03 8.5591061115264893e+00 2.1597744226455688e+00
-3.7661075592041016e-02 2.2120539069175720e+01 0.0000000000000000e+00
-1.1393904685974121e-02 5.1938598752021790e+00 0.0000000000000000e+00
ITEM: ATOMS id type xs ys zs fx fy fz
1 1 0.905713 0.33655 0.593597 0 0.000152588 0
2 1 0.405713 0.33655 0.593597 0 0.000154495 -1.90735e-06
3 1 0.169719 0.295019 0.0935971 0 0.000425339 3.8147e-06
4 1 0.669719 0.29502 0.0935971 0 0.000421524 -3.8147e-06
5 1 0.113557 0.461551 0.593597 0 0.00129128 1.90735e-06
6 1 0.613557 0.461551 0.593597 0 0.00129509 -1.90735e-06
7 1 0.877561 0.420026 0.093597 0 -0.00177193 1.90735e-06
8 1 0.377561 0.420026 0.0935971 0 -0.00176811 1.90735e-06
9 1 0.821399 0.586555 0.593597 0 0.00172043 3.8147e-06
10 1 0.3214 0.586555 0.593597 0 0.0017128 -3.8147e-06
11 1 0.0292442 0.711553 0.593597 0 -0.000318527 0
12 1 0.529244 0.711553 0.593597 0 -0.000328064 -3.8147e-06
13 1 0.793246 0.670033 0.0935971 0 -0.000312805 0
14 1 0.0854025 0.545034 0.0935972 0 -0.0014267 -1.90735e-06
15 1 0.585403 0.545034 0.0935972 0 -0.00144386 0
16 1 0.293247 0.670033 0.0935969 0 -0.000312805 3.8147e-06
17 1 0.737063 0.836625 0.593597 0 -0.0885239 -3.8147e-06
18 1 0.237064 0.836625 0.593597 0 -0.0885239 -3.8147e-06
19 1 0.945804 0.958969 0.593597 0 0.0707016 0
20 1 0.445804 0.958969 0.593597 0 0.0707073 -7.62939e-06
21 1 0.00108661 0.795045 0.0935971 0 -0.100275 0
22 1 0.501087 0.795045 0.093597 0 -0.100285 1.90735e-06
23 1 0.710385 0.915732 0.093597 0 -0.0405712 7.62939e-06
24 1 0.210385 0.915732 0.093597 0 -0.0405731 7.62939e-06
25 1 0.98858 0.0908349 0.593597 0 0.0407467 -1.90735e-06
26 1 0.48858 0.0908349 0.593597 0 0.0407429 0
27 1 0.253162 0.0475973 0.093597 0 -0.0707035 0
28 1 0.753162 0.0475973 0.093597 0 -0.0707111 0
29 1 0.197876 0.21153 0.593597 0 0.100161 -3.8147e-06
30 1 0.697876 0.21153 0.593597 0 0.100159 1.90735e-06
31 1 0.961902 0.169941 0.0935969 0 0.0887337 0
32 1 0.461902 0.169941 0.093597 0 0.0887241 1.90735e-06
ITEM: TIMESTEP
2
ITEM: NUMBER OF ATOMS
32
ITEM: BOX BOUNDS xy xz yz pp pp pp
-4.7826766967773438e-03 8.5591061115264893e+00 2.1597744226455688e+00
-3.7661075592041016e-02 2.2120539069175720e+01 0.0000000000000000e+00
-1.1393904685974121e-02 5.1938598752021790e+00 0.0000000000000000e+00
ITEM: ATOMS id type xs ys zs fx fy fz
1 1 0.905711 0.336555 0.593597 0 0.0502281 -3.8147e-06
2 1 0.405711 0.336555 0.593597 0 0.0502262 1.90735e-06
3 1 0.169717 0.295027 0.0935974 0 0.0626678 -1.90735e-06
4 1 0.669717 0.295027 0.0935967 0 0.0626717 5.72205e-06
5 1 0.113546 0.461584 0.593597 0 0.000167847 -1.90735e-06
6 1 0.613546 0.461584 0.593597 0 0.000156403 1.90735e-06
7 1 0.877576 0.41998 0.0935971 0 0.00122261 1.90735e-06
8 1 0.377577 0.41998 0.0935973 0 0.0012207 -1.90735e-06
9 1 0.821384 0.586599 0.593597 0 -0.00126839 -5.72205e-06
10 1 0.321385 0.586599 0.593597 0 -0.00126076 7.62939e-06
11 1 0.0292457 0.711549 0.593597 0 -0.0627022 1.90735e-06
12 1 0.529246 0.711548 0.593597 0 -0.0626984 3.8147e-06
13 1 0.79325 0.670023 0.093597 0 -0.0503178 3.8147e-06
14 1 0.0854149 0.544997 0.093597 0 -0.000259399 1.90735e-06
15 1 0.585415 0.544996 0.0935972 0 -0.000244141 -3.8147e-06
16 1 0.29325 0.670023 0.0935972 0 -0.0503216 -7.62939e-06
17 1 0.737783 0.83449 0.593597 0 0.0265503 3.8147e-06
18 1 0.237784 0.83449 0.593597 0 0.0265579 7.62939e-06
19 1 0.945418 0.960112 0.593597 0 0.00473404 9.53674e-06
20 1 0.445418 0.960112 0.593596 0 0.0047245 2.09808e-05
21 1 0.00190948 0.792605 0.0935971 0 -0.0118332 -5.72205e-06
22 1 0.50191 0.792605 0.0935972 0 -0.0118217 -5.72205e-06
23 1 0.711046 0.913772 0.0935977 0 -0.01157 -1.52588e-05
24 1 0.211046 0.913772 0.0935978 0 -0.0115566 -1.33514e-05
25 1 0.987917 0.0927991 0.593597 0 0.0114727 3.8147e-06
26 1 0.487918 0.092799 0.593597 0 0.0114841 1.90735e-06
27 1 0.253547 0.0464555 0.093597 0 -0.00452805 -1.90735e-06
28 1 0.753547 0.0464553 0.093597 0 -0.00451469 -3.8147e-06
29 1 0.197054 0.213967 0.593597 0 0.0119534 3.8147e-06
30 1 0.697054 0.213967 0.593597 0 0.0119514 -5.72205e-06
31 1 0.96118 0.172081 0.0935969 0 -0.0265522 0
32 1 0.46118 0.172081 0.0935972 0 -0.0265408 -3.8147e-06
ITEM: TIMESTEP
3
ITEM: NUMBER OF ATOMS
32
ITEM: BOX BOUNDS xy xz yz pp pp pp
-4.7826766967773438e-03 8.5591061115264893e+00 2.1597744226455688e+00
-3.7661075592041016e-02 2.2120539069175720e+01 0.0000000000000000e+00
-1.1393904685974121e-02 5.1938598752021790e+00 0.0000000000000000e+00
ITEM: ATOMS id type xs ys zs fx fy fz
1 1 0.905287 0.337813 0.593597 0 0.0105801 5.72205e-06
2 1 0.405287 0.337813 0.593597 0 0.0105839 0
3 1 0.169187 0.296597 0.0935973 0 -0.0060482 -5.72205e-06
4 1 0.669187 0.296597 0.0935972 0 -0.00604439 -3.8147e-06
5 1 0.113541 0.461599 0.593597 0 0.0218163 3.8147e-06
6 1 0.613541 0.461599 0.593597 0 0.0218239 -7.62939e-06
7 1 0.877571 0.419995 0.0935974 0 0.0417194 -1.90735e-06
8 1 0.377571 0.419995 0.0935972 0 0.0417118 1.90735e-06
9 1 0.82139 0.586582 0.593597 0 -0.0417786 3.8147e-06
10 1 0.32139 0.586582 0.593597 0 -0.0417786 -3.8147e-06
11 1 0.0297752 0.709979 0.593598 0 0.00602531 -5.72205e-06
12 1 0.529775 0.709978 0.593597 0 0.00603676 -5.72205e-06
13 1 0.793675 0.668761 0.0935974 0 -0.0104942 -3.8147e-06
14 1 0.0854212 0.544978 0.0935971 0 -0.0218754 -1.90735e-06
15 1 0.585421 0.544978 0.0935968 0 -0.0218754 3.8147e-06
16 1 0.293676 0.668761 0.0935965 0 -0.0104885 9.53674e-06
17 1 0.737794 0.834459 0.593597 0 -0.00660324 -9.53674e-06
18 1 0.237795 0.834459 0.593597 0 -0.00660896 -1.14441e-05
19 1 0.945253 0.960602 0.593598 0 -0.00491714 -1.71661e-05
20 1 0.445253 0.960602 0.593598 0 -0.00490189 -1.71661e-05
21 1 0.00227744 0.791514 0.0935965 0 -0.0114002 7.62939e-06
22 1 0.502277 0.791514 0.0935967 0 -0.0114002 1.14441e-05
23 1 0.711359 0.912844 0.0935963 0 0.014719 1.71661e-05
24 1 0.211359 0.912844 0.0935966 0 0.0146961 2.09808e-05
25 1 0.987605 0.0937261 0.593597 0 -0.0144711 -3.8147e-06
26 1 0.487605 0.0937263 0.593597 0 -0.0144844 -9.53674e-06
27 1 0.253711 0.0459702 0.0935968 0 0.0048542 7.62939e-06
28 1 0.753711 0.0459702 0.0935966 0 0.00484085 5.72205e-06
29 1 0.196685 0.21506 0.593597 0 0.0112686 -1.90735e-06
30 1 0.696685 0.21506 0.593597 0 0.0112743 3.8147e-06
31 1 0.961168 0.172115 0.0935969 0 0.00660896 3.8147e-06
32 1 0.461169 0.172115 0.0935969 0 0.00661087 3.8147e-06
ITEM: TIMESTEP
4
ITEM: NUMBER OF ATOMS
32
ITEM: BOX BOUNDS xy xz yz pp pp pp
-4.7826766967773438e-03 8.5591061115264893e+00 2.1597744226455688e+00
-3.7661075592041016e-02 2.2120539069175720e+01 0.0000000000000000e+00
-1.1393904685974121e-02 5.1938598752021790e+00 0.0000000000000000e+00
ITEM: ATOMS id type xs ys zs fx fy fz
1 1 0.905085 0.338412 0.593597 0 0.00748444 -1.90735e-06
2 1 0.405085 0.338412 0.593597 0 0.00747871 -1.90735e-06
3 1 0.169067 0.296953 0.0935968 0 0.00232506 3.8147e-06
4 1 0.669067 0.296953 0.093597 0 0.00232697 0
5 1 0.11339 0.462047 0.593597 0 -0.00772667 0
6 1 0.61339 0.462047 0.593597 0 -0.00771904 5.72205e-06
7 1 0.877284 0.420847 0.0935973 0 0.00277519 -5.72205e-06
8 1 0.377284 0.420847 0.0935973 0 0.0027771 -1.90735e-06
9 1 0.821678 0.585728 0.593597 0 -0.0028038 1.90735e-06
10 1 0.321678 0.585728 0.593597 0 -0.00280571 0
11 1 0.0298953 0.709622 0.593597 0 -0.00234985 0
12 1 0.529895 0.709622 0.593597 0 -0.00235176 1.33514e-05
13 1 0.793877 0.668163 0.0935972 0 -0.00754356 -5.72205e-06
14 1 0.0855729 0.544528 0.093597 0 0.00774193 0
15 1 0.585573 0.544528 0.093597 0 0.00774193 0
16 1 0.293877 0.668163 0.0935971 0 -0.00753784 -3.8147e-06
17 1 0.737843 0.834315 0.593596 0 -0.00658989 1.33514e-05
18 1 0.237843 0.834315 0.593597 0 -0.00658989 1.14441e-05
19 1 0.945236 0.960652 0.593597 0 -0.0114536 1.14441e-05
20 1 0.445236 0.960652 0.593597 0 -0.0114613 3.8147e-06
21 1 0.00246768 0.79095 0.093597 0 0.00654602 -1.90735e-06
22 1 0.502468 0.79095 0.0935975 0 0.00654602 -1.33514e-05
23 1 0.711354 0.91286 0.0935974 0 -0.003479 -9.53674e-06
24 1 0.211354 0.91286 0.0935981 0 -0.00345802 -1.90735e-05
25 1 0.987608 0.0937148 0.593597 0 0.00335312 5.72205e-06
26 1 0.487609 0.0937148 0.593596 0 0.00335693 9.53674e-06
27 1 0.253727 0.0459208 0.0935974 0 0.011528 -7.62939e-06
28 1 0.753727 0.0459207 0.093597 0 0.0115395 -5.72205e-06
29 1 0.196496 0.215622 0.593597 0 -0.00642014 1.90735e-06
30 1 0.696496 0.215622 0.593597 0 -0.0064106 1.90735e-06
31 1 0.96112 0.172259 0.0935972 0 0.0065937 0
32 1 0.46112 0.172259 0.0935971 0 0.00658607 -5.72205e-06
ITEM: TIMESTEP
5
ITEM: NUMBER OF ATOMS
32
ITEM: BOX BOUNDS xy xz yz pp pp pp
-4.7826766967773438e-03 8.5591061115264893e+00 2.1597744226455688e+00
-3.7661075592041016e-02 2.2120539069175720e+01 0.0000000000000000e+00
-1.1393904685974121e-02 5.1938598752021790e+00 0.0000000000000000e+00
ITEM: ATOMS id type xs ys zs fx fy fz
1 1 0.905019 0.338606 0.593597 0 -0.00407982 -3.8147e-06
2 1 0.40502 0.338606 0.593597 0 -0.00407791 -3.8147e-06
3 1 0.169041 0.297032 0.093597 0 0.00376511 1.90735e-06
4 1 0.669041 0.297032 0.093597 0 0.0037632 5.72205e-06
5 1 0.113417 0.461965 0.593597 0 -0.00144958 -3.8147e-06
6 1 0.613417 0.461965 0.593597 0 -0.00145149 3.8147e-06
7 1 0.877236 0.42099 0.0935969 0 0.000337601 3.8147e-06
8 1 0.377236 0.42099 0.0935972 0 0.000341415 0
9 1 0.821726 0.585585 0.593597 0 -0.000343323 -3.8147e-06
10 1 0.321727 0.585585 0.593597 0 -0.000341415 -1.90735e-06
11 1 0.0299222 0.709543 0.593597 0 -0.00376701 -3.8147e-06
12 1 0.529922 0.709543 0.593598 0 -0.00376701 -1.14441e-05
13 1 0.793943 0.667968 0.0935968 0 0.00411224 9.53674e-06
14 1 0.0855454 0.54461 0.093597 0 0.00142479 1.90735e-06
15 1 0.585545 0.54461 0.093597 0 0.00142288 0
16 1 0.293943 0.667969 0.0935969 0 0.00410652 5.72205e-06
17 1 0.737886 0.834187 0.593597 0 -0.00556755 -5.72205e-06
18 1 0.237886 0.834187 0.593597 0 -0.00556564 -9.53674e-06
19 1 0.9453 0.960463 0.593598 0 -0.000101089 -5.72205e-06
20 1 0.4453 0.960463 0.593598 0 -0.000104904 -9.53674e-06
21 1 0.00245135 0.790999 0.0935969 0 -0.00292778 5.72205e-06
22 1 0.502451 0.790999 0.0935966 0 -0.00291824 7.62939e-06
23 1 0.711373 0.912802 0.0935968 0 0.00512123 1.14441e-05
24 1 0.211373 0.912803 0.0935969 0 0.00510788 9.53674e-06
25 1 0.98759 0.0937706 0.593597 0 -0.00503159 -5.72205e-06
26 1 0.48759 0.0937706 0.593597 0 -0.00502014 -5.72205e-06
27 1 0.253663 0.0461113 0.0935969 0 6.67572e-05 1.90735e-06
28 1 0.753663 0.0461113 0.0935966 0 5.91278e-05 1.90735e-06
29 1 0.196511 0.215576 0.593597 0 0.00288773 -3.8147e-06
30 1 0.696511 0.215576 0.593597 0 0.00287437 0
31 1 0.961076 0.172387 0.0935973 0 0.00556374 0
32 1 0.461077 0.172387 0.0935967 0 0.00555992 7.62939e-06
ITEM: TIMESTEP
6
ITEM: NUMBER OF ATOMS
32
ITEM: BOX BOUNDS xy xz yz pp pp pp
-4.7826766967773438e-03 8.5591061115264893e+00 2.1597744226455688e+00
-3.7661075592041016e-02 2.2120539069175720e+01 0.0000000000000000e+00
-1.1393904685974121e-02 5.1938598752021790e+00 0.0000000000000000e+00
ITEM: ATOMS id type xs ys zs fx fy fz
1 1 0.905025 0.33859 0.593597 0 -0.0027504 7.62939e-06
2 1 0.405025 0.33859 0.593597 0 -0.00274086 7.62939e-06
3 1 0.169001 0.29715 0.0935973 0 0.00289917 -7.62939e-06
4 1 0.669001 0.29715 0.0935975 0 0.00289917 -7.62939e-06
5 1 0.113439 0.4619 0.593597 0 0.000967026 9.53674e-06
6 1 0.613439 0.4619 0.593597 0 0.000961304 -9.53674e-06
7 1 0.877214 0.421054 0.0935971 0 0.000507355 0
8 1 0.377214 0.421054 0.0935971 0 0.000505447 0
9 1 0.821748 0.58552 0.593597 0 -0.000511169 7.62939e-06
10 1 0.321748 0.58552 0.593597 0 -0.000507355 5.72205e-06
11 1 0.029962 0.709425 0.593597 0 -0.00290108 3.8147e-06
12 1 0.529962 0.709425 0.593597 0 -0.00289536 3.8147e-06
13 1 0.793937 0.667985 0.0935975 0 0.00274658 -7.62939e-06
14 1 0.0855235 0.544675 0.0935972 0 -0.000967026 -5.72205e-06
15 1 0.585523 0.544675 0.093597 0 -0.000961304 0
16 1 0.293938 0.667985 0.0935974 0 0.00274086 -5.72205e-06
17 1 0.737946 0.834008 0.593597 0 0.000707626 7.62939e-06
18 1 0.237946 0.834008 0.593597 0 0.000707626 5.72205e-06
19 1 0.945326 0.960385 0.593597 0 -0.000673294 1.90735e-06
20 1 0.445326 0.960385 0.593597 0 -0.000663757 5.72205e-06
21 1 0.0024674 0.790951 0.0935974 0 0.000963211 -7.62939e-06
22 1 0.502467 0.790951 0.093597 0 0.000944138 -1.90735e-06
23 1 0.711341 0.912897 0.0935977 0 -0.00271034 -9.53674e-06
24 1 0.211341 0.912897 0.0935973 0 -0.0026989 -5.72205e-06
25 1 0.987621 0.0936778 0.593597 0 0.00268936 1.90735e-06
26 1 0.487621 0.0936781 0.593597 0 0.00265694 3.8147e-06
27 1 0.253637 0.046189 0.0935969 0 0.000692368 0
28 1 0.753637 0.0461889 0.0935966 0 0.00069046 1.90735e-06
29 1 0.196495 0.215623 0.593597 0 -0.000944138 5.72205e-06
30 1 0.696495 0.215623 0.593597 0 -0.000946045 3.8147e-06
31 1 0.961016 0.172566 0.0935973 0 -0.000709534 -7.62939e-06
32 1 0.461017 0.172566 0.0935973 0 -0.00069809 -7.62939e-06
ITEM: TIMESTEP
7
ITEM: NUMBER OF ATOMS
32
ITEM: BOX BOUNDS xy xz yz pp pp pp
-4.7826766967773438e-03 8.5591061115264893e+00 2.1597744226455688e+00
-3.7661075592041016e-02 2.2120539069175720e+01 0.0000000000000000e+00
-1.1393904685974121e-02 5.1938598752021790e+00 0.0000000000000000e+00
ITEM: ATOMS id type xs ys zs fx fy fz
1 1 0.90504 0.338544 0.593597 0 2.86102e-05 -5.72205e-06
2 1 0.405041 0.338544 0.593597 0 1.14441e-05 -3.8147e-06
3 1 0.168978 0.297216 0.0935968 0 0.000116348 0
4 1 0.668978 0.297216 0.0935971 0 0.000116348 5.72205e-06
5 1 0.113438 0.461903 0.593598 0 -0.000591278 -7.62939e-06
6 1 0.613438 0.461903 0.593597 0 -0.000589371 3.8147e-06
7 1 0.877207 0.421074 0.0935971 0 0.000398636 3.8147e-06
8 1 0.377208 0.421074 0.0935971 0 0.000406265 1.90735e-06
9 1 0.821755 0.585501 0.593597 0 -0.000391006 -1.14441e-05
10 1 0.321755 0.585501 0.593597 0 -0.000404358 -5.72205e-06
11 1 0.0299845 0.709358 0.593597 0 -0.000116348 7.62939e-06
12 1 0.529984 0.709358 0.593597 0 -0.000120163 3.8147e-06
13 1 0.793922 0.668031 0.0935971 0 -3.43323e-05 0
14 1 0.0855247 0.544671 0.0935968 0 0.000591278 1.14441e-05
15 1 0.585525 0.544671 0.093597 0 0.000595093 5.72205e-06
16 1 0.293922 0.668031 0.0935971 0 -3.24249e-05 -5.72205e-06
17 1 0.737953 0.833987 0.593597 0 -0.000139236 -7.62939e-06
18 1 0.237953 0.833988 0.593597 0 -0.000143051 -1.90735e-06
19 1 0.945334 0.96036 0.593597 0 0.00105858 -3.8147e-06
20 1 0.445334 0.960361 0.593597 0 0.00105286 3.8147e-06
21 1 0.00246516 0.790958 0.093597 0 0.000207901 1.90735e-06
22 1 0.502465 0.790958 0.0935969 0 0.000207901 3.8147e-06
23 1 0.71135 0.912871 0.0935972 0 -0.000284195 1.90735e-06
24 1 0.21135 0.912871 0.093597 0 -0.00028801 0
25 1 0.987612 0.0937036 0.593597 0 0.000282288 -1.90735e-06
26 1 0.487613 0.0937034 0.593597 0 0.000301361 -5.72205e-06
27 1 0.253628 0.0462138 0.0935969 0 -0.00106049 0
28 1 0.753629 0.0462137 0.0935968 0 -0.00106049 1.90735e-06
29 1 0.196498 0.215617 0.593597 0 -0.000211716 -5.72205e-06
30 1 0.696498 0.215617 0.593597 0 -0.000204086 -1.90735e-06
31 1 0.961009 0.172587 0.0935968 0 0.000150681 3.8147e-06
32 1 0.461009 0.172587 0.0935969 0 0.000144958 7.62939e-06
ITEM: TIMESTEP
8
ITEM: NUMBER OF ATOMS
32
ITEM: BOX BOUNDS xy xz yz pp pp pp
-4.7826766967773438e-03 8.5591061115264893e+00 2.1597744226455688e+00
-3.7661075592041016e-02 2.2120539069175720e+01 0.0000000000000000e+00
-1.1393904685974121e-02 5.1938598752021790e+00 0.0000000000000000e+00
ITEM: ATOMS id type xs ys zs fx fy fz
1 1 0.905042 0.33854 0.593597 0 -7.62939e-06 7.62939e-06
2 1 0.405042 0.33854 0.593597 0 3.8147e-06 3.8147e-06
3 1 0.168976 0.297225 0.0935968 0 -5.14984e-05 1.90735e-06
4 1 0.668976 0.297225 0.0935976 0 -5.72205e-05 -7.62939e-06
5 1 0.113442 0.461891 0.593597 0 -0.000112534 1.14441e-05
6 1 0.613442 0.461891 0.593597 0 -0.000108719 7.62939e-06
7 1 0.877204 0.421084 0.0935975 0 0.000221252 -9.53674e-06
8 1 0.377204 0.421084 0.0935973 0 0.00021553 -5.72205e-06
9 1 0.821758 0.585491 0.593596 0 -0.000230789 1.52588e-05
10 1 0.321758 0.585491 0.593597 0 -0.000219345 0
11 1 0.0299873 0.70935 0.593598 0 6.29425e-05 -9.53674e-06
12 1 0.529987 0.70935 0.593597 0 5.72205e-05 -7.62939e-06
13 1 0.79392 0.668034 0.0935971 0 7.62939e-06 3.8147e-06
14 1 0.0855206 0.544683 0.0935978 0 0.000110626 -1.71661e-05
15 1 0.585521 0.544684 0.0935975 0 0.000102997 -7.62939e-06
16 1 0.293921 0.668034 0.0935966 0 1.14441e-05 5.72205e-06
17 1 0.737955 0.833983 0.593597 0 0.000200272 9.53674e-06
18 1 0.237955 0.833983 0.593597 0 0.000198364 7.62939e-06
19 1 0.945328 0.96038 0.593597 0 -8.96454e-05 0
20 1 0.445328 0.96038 0.593597 0 -8.01086e-05 0
21 1 0.00246351 0.790963 0.0935971 0 -0.000286102 1.90735e-06
22 1 0.502464 0.790962 0.0935973 0 -0.000278473 -3.8147e-06
23 1 0.711353 0.912863 0.0935974 0 -9.72748e-05 -7.62939e-06
24 1 0.211353 0.912863 0.093597 0 -9.91821e-05 0
25 1 0.98761 0.0937117 0.593597 0 9.72748e-05 5.72205e-06
26 1 0.48761 0.0937119 0.593596 0 8.2016e-05 7.62939e-06
27 1 0.253635 0.0461939 0.0935969 0 9.53674e-05 -3.8147e-06
28 1 0.753635 0.0461938 0.0935969 0 0.000102997 -1.90735e-06
29 1 0.196499 0.215612 0.593597 0 0.000278473 3.8147e-06
30 1 0.696499 0.215612 0.593597 0 0.000276566 -3.8147e-06
31 1 0.961007 0.172592 0.0935971 0 -0.000205994 0
32 1 0.461008 0.172592 0.0935975 0 -0.000200272 -7.62939e-06
ITEM: TIMESTEP
9
ITEM: NUMBER OF ATOMS
32
ITEM: BOX BOUNDS xy xz yz pp pp pp
-4.7826766967773438e-03 8.5591061115264893e+00 2.1597744226455688e+00
-3.7661075592041016e-02 2.2120539069175720e+01 0.0000000000000000e+00
-1.1393904685974121e-02 5.1938598752021790e+00 0.0000000000000000e+00
ITEM: ATOMS id type xs ys zs fx fy fz
1 1 0.905042 0.33854 0.593597 0 0.000104904 -5.72205e-06
2 1 0.405042 0.33854 0.593597 0 0.000106812 -1.90735e-06
3 1 0.168976 0.297224 0.093597 0 3.43323e-05 3.8147e-06
4 1 0.668976 0.297224 0.093597 0 3.43323e-05 0
5 1 0.113443 0.461887 0.593598 0 1.71661e-05 -1.52588e-05
6 1 0.613443 0.461887 0.593598 0 3.8147e-06 -1.33514e-05
7 1 0.877202 0.421089 0.0935967 0 -3.8147e-06 1.71661e-05
8 1 0.377202 0.421089 0.0935968 0 -1.33514e-05 7.62939e-06
9 1 0.82176 0.585485 0.593598 0 9.53674e-06 -7.62939e-06
10 1 0.32176 0.585485 0.593597 0 1.14441e-05 0
11 1 0.0299872 0.70935 0.593597 0 -4.19617e-05 -3.8147e-06
12 1 0.529987 0.70935 0.593597 0 -3.05176e-05 3.8147e-06
13 1 0.79392 0.668035 0.0935974 0 -0.000104904 -5.72205e-06
14 1 0.0855194 0.544687 0.0935965 0 -1.90735e-05 9.53674e-06
15 1 0.585519 0.544687 0.0935969 0 -7.62939e-06 1.14441e-05
16 1 0.293921 0.668035 0.093597 0 -0.000101089 -1.90735e-06
17 1 0.737953 0.833986 0.593598 0 -1.52588e-05 -9.53674e-06
18 1 0.237954 0.833986 0.593597 0 -1.52588e-05 -7.62939e-06
19 1 0.945328 0.960381 0.593597 0 1.90735e-05 -5.72205e-06
20 1 0.445327 0.960381 0.593597 0 5.72205e-06 -5.72205e-06
21 1 0.00246526 0.790957 0.0935973 0 -1.33514e-05 -1.90735e-06
22 1 0.502465 0.790957 0.093597 0 -3.24249e-05 7.62939e-06
23 1 0.711354 0.91286 0.0935967 0 1.71661e-05 9.53674e-06
24 1 0.211354 0.91286 0.093597 0 1.33514e-05 5.72205e-06
25 1 0.987609 0.0937146 0.593597 0 -1.14441e-05 -3.8147e-06
26 1 0.487609 0.0937145 0.593597 0 7.62939e-06 -5.72205e-06
27 1 0.253635 0.0461936 0.0935966 0 -2.28882e-05 5.72205e-06
28 1 0.753635 0.0461936 0.0935968 0 -2.86102e-05 9.53674e-06
29 1 0.196498 0.215617 0.593597 0 1.14441e-05 0
30 1 0.696498 0.215617 0.593597 0 1.33514e-05 1.90735e-06
31 1 0.961009 0.172588 0.0935971 0 2.67029e-05 1.90735e-06
32 1 0.461009 0.172588 0.0935969 0 2.47955e-05 0
ITEM: TIMESTEP
10
ITEM: NUMBER OF ATOMS
32
ITEM: BOX BOUNDS xy xz yz pp pp pp
-4.7826766967773438e-03 8.5591061115264893e+00 2.1597744226455688e+00
-3.7661075592041016e-02 2.2120539069175720e+01 0.0000000000000000e+00
-1.1393904685974121e-02 5.1938598752021790e+00 0.0000000000000000e+00
ITEM: ATOMS id type xs ys zs fx fy fz
1 1 0.905042 0.33854 0.593597 0 0.000104904 -5.72205e-06
2 1 0.405042 0.33854 0.593597 0 0.000106812 -1.90735e-06
3 1 0.168976 0.297224 0.093597 0 3.43323e-05 3.8147e-06
4 1 0.668976 0.297224 0.093597 0 3.43323e-05 0
5 1 0.113443 0.461887 0.593598 0 1.71661e-05 -1.52588e-05
6 1 0.613443 0.461887 0.593598 0 3.8147e-06 -1.33514e-05
7 1 0.877202 0.421089 0.0935967 0 -3.8147e-06 1.71661e-05
8 1 0.377202 0.421089 0.0935968 0 -1.33514e-05 7.62939e-06
9 1 0.82176 0.585485 0.593598 0 9.53674e-06 -7.62939e-06
10 1 0.32176 0.585485 0.593597 0 1.14441e-05 0
11 1 0.0299872 0.70935 0.593597 0 -4.19617e-05 -3.8147e-06
12 1 0.529987 0.70935 0.593597 0 -3.05176e-05 3.8147e-06
13 1 0.79392 0.668035 0.0935974 0 -0.000104904 -5.72205e-06
14 1 0.0855194 0.544687 0.0935965 0 -1.90735e-05 9.53674e-06
15 1 0.585519 0.544687 0.0935969 0 -7.62939e-06 1.14441e-05
16 1 0.293921 0.668035 0.093597 0 -0.000101089 -1.90735e-06
17 1 0.737953 0.833986 0.593598 0 -1.52588e-05 -9.53674e-06
18 1 0.237954 0.833986 0.593597 0 -1.52588e-05 -7.62939e-06
19 1 0.945328 0.960381 0.593597 0 1.90735e-05 -5.72205e-06
20 1 0.445327 0.960381 0.593597 0 5.72205e-06 -5.72205e-06
21 1 0.00246526 0.790957 0.0935973 0 -1.33514e-05 -1.90735e-06
22 1 0.502465 0.790957 0.093597 0 -3.24249e-05 7.62939e-06
23 1 0.711354 0.91286 0.0935967 0 1.71661e-05 9.53674e-06
24 1 0.211354 0.91286 0.093597 0 1.33514e-05 5.72205e-06
25 1 0.987609 0.0937146 0.593597 0 -1.14441e-05 -3.8147e-06
26 1 0.487609 0.0937145 0.593597 0 7.62939e-06 -5.72205e-06
27 1 0.253635 0.0461936 0.0935966 0 -2.28882e-05 5.72205e-06
28 1 0.753635 0.0461936 0.0935968 0 -2.86102e-05 9.53674e-06
29 1 0.196498 0.215617 0.593597 0 1.14441e-05 0
30 1 0.696498 0.215617 0.593597 0 1.33514e-05 1.90735e-06
31 1 0.961009 0.172588 0.0935971 0 2.67029e-05 1.90735e-06
32 1 0.461009 0.172588 0.0935969 0 2.47955e-05 0
