ITEM: TIMESTEP
0
ITEM: NUMBER OF ATOMS
32
ITEM: BOX BOUNDS xy xz yz pp pp pp
-4.7826766967773438e-03 7.5192147493362427e+00 1.1198830604553223e+00
-3.7661075592041016e-02 2.2120539069175720e+01 0.0000000000000000e+00
-1.1393904685974121e-02 5.1938598752021790e+00 0.0000000000000000e+00
ITEM: ATOMS id type xs ys zs fx fy fz
1 1 0.960363 0.336542 0.593597 0 0.000844955 5.72205e-06
2 1 0.460363 0.336542 0.593597 0 0.000841141 5.72205e-06
3 1 0.217622 0.295033 0.0935973 0 -0.00159645 -7.62939e-06
4 1 0.717622 0.295033 0.0935973 0 -0.00159836 -3.8147e-06
5 1 0.188504 0.461543 0.593597 0 0.000907898 0
6 1 0.688504 0.461543 0.593597 0 0.000911713 5.72205e-06
7 1 0.945762 0.420037 0.0935973 0 -0.0013752 -7.62939e-06
8 1 0.445762 0.420037 0.0935973 0 -0.0013752 -3.8147e-06
9 1 0.916645 0.586543 0.593597 0 0.00131607 0
10 1 0.416646 0.586543 0.593597 0 0.00131416 0
11 1 0.144788 0.711539 0.593597 0 0.00169182 9.53674e-06
12 1 0.644788 0.711539 0.593597 0 0.00169373 3.8147e-06
13 1 0.902044 0.670042 0.0935972 0 -0.00107765 -3.8147e-06
14 1 0.173903 0.545043 0.0935972 0 -0.00101471 0
15 1 0.673903 0.545043 0.0935972 0 -0.00101089 0
16 1 0.402044 0.670042 0.0935972 0 -0.00108147 -7.62939e-06
17 1 0.87293 0.836533 0.593597 0 0.0104446 3.8147e-06
18 1 0.37293 0.836533 0.593597 0 0.0104427 3.8147e-06
19 1 0.101071 0.961533 0.593597 0 -0.319761 1.90735e-06
20 1 0.601071 0.961533 0.593597 0 -0.319761 0
21 1 0.130187 0.795035 0.0935971 0 0.00139046 -3.8147e-06
22 1 0.630187 0.795035 0.0935971 0 0.00139046 -1.90735e-06
23 1 0.858328 0.920032 0.0935971 0 -0.532106 -3.8147e-06
24 1 0.358329 0.920032 0.0935971 0 -0.532103 -1.90735e-06
25 1 0.00408082 0.0865377 0.593597 0 0.53186 1.90735e-06
26 1 0.504081 0.0865377 0.593597 0 0.531864 0
27 1 0.261339 0.045031 0.093597 0 0.320114 0
28 1 0.761339 0.045031 0.093597 0 0.320112 0
29 1 0.232222 0.211541 0.593597 0 -0.00141144 1.90735e-06
30 1 0.732222 0.211541 0.593597 0 -0.00140953 1.90735e-06
31 1 0.98948 0.170031 0.093597 0 -0.0102291 0
32 1 0.489481 0.170031 0.093597 0 -0.0102291 0
ITEM: TIMESTEP
1
ITEM: NUMBER OF ATOMS
32
ITEM: BOX BOUNDS xy xz yz pp pp pp
-4.7826766967773438e-03 7.5192147493362427e+00 1.1198830604553223e+00
-3.7661075592041016e-02 2.2120539069175720e+01 0.0000000000000000e+00
-1.1393904685974121e-02 5.1938598752021790e+00 0.0000000000000000e+00
ITEM: ATOMS id type xs ys zs fx fy fz
1 1 0.960361 0.33655 0.593597 0 0.000118256 -1.90735e-06
2 1 0.460362 0.33655 0.593597 0 0.00012207 0
3 1 0.217624 0.295019 0.093597 0 0.00047493 0
4 1 0.717624 0.295019 0.0935972 0 0.000476837 0
5 1 0.188503 0.46155 0.593597 0 0.00132942 3.8147e-06
6 1 0.688503 0.46155 0.593597 0 0.00133324 -3.8147e-06
7 1 0.945764 0.420026 0.093597 0 -0.00180244 1.90735e-06
8 1 0.445764 0.420026 0.0935972 0 -0.00180817 0
9 1 0.916643 0.586555 0.593597 0 0.00175858 0
10 1 0.416644 0.586555 0.593597 0 0.0017643 -1.90735e-06
11 1 0.144785 0.711553 0.593597 0 -0.00041008 -5.72205e-06
12 1 0.644785 0.711554 0.593597 0 -0.000391006 -3.8147e-06
13 1 0.902045 0.670033 0.0935971 0 -0.000278473 1.90735e-06
14 1 0.173904 0.545034 0.0935972 0 -0.0014782 -1.90735e-06
15 1 0.673904 0.545034 0.0935972 0 -0.00147629 0
16 1 0.402046 0.670033 0.0935969 0 -0.000276566 5.72205e-06
17 1 0.872914 0.836621 0.593597 0 -0.0940723 -3.8147e-06
18 1 0.372915 0.836621 0.593597 0 -0.0940647 -3.8147e-06
19 1 0.101546 0.95882 0.593597 0 0.0714722 -1.90735e-06
20 1 0.601546 0.95882 0.593597 0 0.0714741 -1.90735e-06
21 1 0.130185 0.795046 0.093597 0 -0.106279 3.8147e-06
22 1 0.630185 0.795046 0.093597 0 -0.106276 5.72205e-06
23 1 0.859117 0.915519 0.093597 0 -0.0490913 3.8147e-06
24 1 0.359118 0.915519 0.093597 0 -0.049099 1.90735e-06
25 1 0.003292 0.0910486 0.593597 0 0.0492554 -1.90735e-06
26 1 0.503292 0.0910486 0.593597 0 0.0492611 0
27 1 0.260865 0.047746 0.093597 0 -0.0714417 0
28 1 0.760865 0.047746 0.093597 0 -0.0714474 0
29 1 0.232224 0.211529 0.593597 0 0.106165 -3.8147e-06
30 1 0.732224 0.211529 0.593597 0 0.106153 1.90735e-06
31 1 0.989496 0.169944 0.093597 0 0.0942688 1.90735e-06
32 1 0.489496 0.169944 0.093597 0 0.094265 3.8147e-06
ITEM: TIMESTEP
2
ITEM: NUMBER OF ATOMS
32
ITEM: BOX BOUNDS xy xz yz pp pp pp
-4.7826766967773438e-03 7.5192147493362427e+00 1.1198830604553223e+00
-3.7661075592041016e-02 2.2120539069175720e+01 0.0000000000000000e+00
-1.1393904685974121e-02 5.1938598752021790e+00 0.0000000000000000e+00
ITEM: ATOMS id type xs ys zs fx fy fz
1 1 0.960361 0.336554 0.593597 0 0.0541477 1.90735e-06
2 1 0.460361 0.336554 0.593597 0 0.0541458 -1.90735e-06
3 1 0.217623 0.295028 0.093597 0 0.0677357 3.8147e-06
4 1 0.717623 0.295028 0.0935971 0 0.067728 -3.8147e-06
5 1 0.188497 0.461584 0.593597 0 0.000108719 -3.8147e-06
6 1 0.688497 0.461585 0.593597 0 0.000102997 3.8147e-06
7 1 0.945772 0.419979 0.0935972 0 0.00119591 1.90735e-06
8 1 0.445773 0.419979 0.0935971 0 0.00119591 0
9 1 0.916635 0.5866 0.593597 0 -0.0012455 3.8147e-06
10 1 0.416636 0.5866 0.593597 0 -0.00125504 3.8147e-06
11 1 0.144786 0.711546 0.593597 0 -0.0677357 7.62939e-06
12 1 0.644786 0.711547 0.593597 0 -0.0677528 5.72205e-06
13 1 0.902047 0.670025 0.0935972 0 -0.054245 -3.8147e-06
14 1 0.173911 0.544996 0.093597 0 -0.000190735 -1.90735e-06
15 1 0.673911 0.544996 0.0935972 0 -0.000188828 -5.72205e-06
16 1 0.402047 0.670025 0.0935975 0 -0.0542431 -5.72205e-06
17 1 0.873315 0.834327 0.593597 0 0.0301228 3.8147e-06
18 1 0.373316 0.834328 0.593597 0 0.0301094 7.62939e-06
19 1 0.10133 0.960057 0.593597 0 0.00050354 5.72205e-06
20 1 0.60133 0.960057 0.593597 0 0.000499725 5.72205e-06
21 1 0.130641 0.792438 0.0935973 0 -0.0106125 -3.8147e-06
22 1 0.630641 0.792438 0.0935976 0 -0.0106068 -9.53674e-06
23 1 0.85948 0.913448 0.0935973 0 -0.0201416 -3.8147e-06
24 1 0.35948 0.913448 0.0935972 0 -0.0201187 -1.14441e-05
25 1 0.00292927 0.0931229 0.593597 0 0.0200748 5.72205e-06
26 1 0.50293 0.0931231 0.593597 0 0.0200653 5.72205e-06
27 1 0.261081 0.0465112 0.093597 0 -0.000331879 0
28 1 0.761081 0.0465111 0.093597 0 -0.000318527 -3.8147e-06
29 1 0.231768 0.214135 0.593597 0 0.0107212 3.8147e-06
30 1 0.731768 0.214134 0.593597 0 0.0107327 1.90735e-06
31 1 0.989093 0.172244 0.0935972 0 -0.0301075 -1.90735e-06
32 1 0.489094 0.172243 0.0935974 0 -0.0300961 -1.14441e-05
ITEM: TIMESTEP
3
ITEM: NUMBER OF ATOMS
32
ITEM: BOX BOUNDS xy xz yz pp pp pp
-4.7826766967773438e-03 7.5192147493362427e+00 1.1198830604553223e+00
-3.7661075592041016e-02 2.2120539069175720e+01 0.0000000000000000e+00
-1.1393904685974121e-02 5.1938598752021790e+00 0.0000000000000000e+00
ITEM: ATOMS id type xs ys zs fx fy fz
1 1 0.960134 0.337852 0.593597 0 0.0134544 -3.8147e-06
2 1 0.460134 0.337852 0.593597 0 0.0134468 1.90735e-06
3 1 0.217338 0.296653 0.0935973 0 -0.00334358 -3.8147e-06
4 1 0.717339 0.296653 0.0935967 0 -0.00333405 9.53674e-06
5 1 0.188495 0.461599 0.593597 0 0.0226383 0
6 1 0.688495 0.461599 0.593597 0 0.0226402 0
7 1 0.94577 0.419992 0.0935974 0 0.0432377 0
8 1 0.44577 0.419992 0.0935971 0 0.0432453 0
9 1 0.916638 0.586585 0.593597 0 -0.0433159 -1.14441e-05
10 1 0.416638 0.586585 0.593597 0 -0.0433064 -1.90735e-06
11 1 0.14507 0.709922 0.593597 0 0.00335121 -3.8147e-06
12 1 0.64507 0.709922 0.593597 0 0.00334358 -3.8147e-06
13 1 0.902274 0.668723 0.0935969 0 -0.0133839 5.72205e-06
14 1 0.173914 0.544979 0.0935967 0 -0.0226917 1.90735e-06
15 1 0.673914 0.544979 0.0935966 0 -0.0226994 5.72205e-06
16 1 0.402275 0.668723 0.0935971 0 -0.0133858 3.8147e-06
17 1 0.873325 0.834274 0.593597 0 -0.00737953 0
18 1 0.373325 0.834273 0.593597 0 -0.00736618 -1.33514e-05
19 1 0.101254 0.960486 0.593597 0 0.00145149 -5.72205e-06
20 1 0.601254 0.960486 0.593597 0 0.00145912 -7.62939e-06
21 1 0.13084 0.791302 0.0935971 0 -0.0157089 1.90735e-06
22 1 0.630839 0.791302 0.0935968 0 -0.0157204 7.62939e-06
23 1 0.859686 0.912266 0.0935971 0 0.0254116 1.90735e-06
24 1 0.359687 0.912266 0.0935961 0 0.0253792 2.09808e-05
25 1 0.00272265 0.0943045 0.593597 0 -0.0252304 -5.72205e-06
26 1 0.502723 0.0943045 0.593598 0 -0.0252323 -1.33514e-05
27 1 0.261155 0.046086 0.093597 0 -0.00146484 3.8147e-06
28 1 0.761155 0.0460861 0.0935966 0 -0.00148392 7.62939e-06
29 1 0.23157 0.215272 0.593597 0 0.0156345 0
30 1 0.73157 0.215272 0.593598 0 0.0156345 -1.14441e-05
31 1 0.989084 0.1723 0.0935971 0 0.00736046 0
32 1 0.489084 0.1723 0.0935964 0 0.00735855 1.33514e-05
ITEM: TIMESTEP
4
ITEM: NUMBER OF ATOMS
32
ITEM: BOX BOUNDS xy xz yz pp pp pp
-4.7826766967773438e-03 7.5192147493362427e+00 1.1198830604553223e+00
-3.7661075592041016e-02 2.2120539069175720e+01 0.0000000000000000e+00
-1.1393904685974121e-02 5.1938598752021790e+00 0.0000000000000000e+00
ITEM: ATOMS id type xs ys zs fx fy fz
1 1 0.960013 0.338543 0.593597 0 0.00836945 3.8147e-06
2 1 0.460013 0.338543 0.593597 0 0.00837326 -1.90735e-06
3 1 0.217257 0.297117 0.0935971 0 0.00123787 0
4 1 0.717257 0.297117 0.0935974 0 0.00123596 -1.90735e-06
5 1 0.188415 0.462053 0.593597 0 -0.00560951 3.8147e-06
6 1 0.688415 0.462053 0.593597 0 -0.0056076 -1.90735e-06
7 1 0.945619 0.420855 0.0935975 0 0.00665474 -5.72205e-06
8 1 0.445619 0.420855 0.0935971 0 0.00666428 1.90735e-06
9 1 0.916789 0.585721 0.593597 0 -0.00667191 3.8147e-06
10 1 0.416789 0.585721 0.593597 0 -0.00667953 -3.8147e-06
11 1 0.145152 0.709458 0.593597 0 -0.00129128 0
12 1 0.645152 0.709458 0.593597 0 -0.00127792 1.90735e-06
13 1 0.902395 0.668032 0.0935973 0 -0.00839043 -3.8147e-06
14 1 0.173994 0.544522 0.0935968 0 0.0056076 1.90735e-06
15 1 0.673994 0.544522 0.0935969 0 0.00561142 1.90735e-06
16 1 0.402396 0.668032 0.0935973 0 -0.00839424 -1.90735e-06
17 1 0.873353 0.834109 0.593597 0 -0.00555992 1.90735e-06
18 1 0.373354 0.834109 0.593597 0 -0.00556755 9.53674e-06
19 1 0.101225 0.960656 0.593597 0 -0.0159149 3.8147e-06
20 1 0.601225 0.960656 0.593597 0 -0.0159321 3.8147e-06
21 1 0.130959 0.790619 0.0935971 0 0.00933266 0
22 1 0.630959 0.790619 0.0935972 0 0.00932884 -5.72205e-06
23 1 0.859666 0.912385 0.0935971 0 -0.00705528 0
24 1 0.359666 0.912384 0.0935975 0 -0.00703239 -1.14441e-05
25 1 0.00274275 0.0941895 0.593597 0 0.00699043 0
26 1 0.502743 0.0941894 0.593597 0 0.0070076 5.72205e-06
27 1 0.261184 0.045918 0.0935973 0 0.015934 -3.8147e-06
28 1 0.761184 0.0459178 0.0935971 0 0.0159473 -1.90735e-06
29 1 0.23145 0.215954 0.593597 0 -0.00925636 0
30 1 0.73145 0.215954 0.593597 0 -0.00925636 7.62939e-06
31 1 0.989055 0.172464 0.093597 0 0.00560379 -1.90735e-06
32 1 0.489055 0.172464 0.0935972 0 0.00559807 -5.72205e-06
ITEM: TIMESTEP
5
ITEM: NUMBER OF ATOMS
32
ITEM: BOX BOUNDS xy xz yz pp pp pp
-4.7826766967773438e-03 7.5192147493362427e+00 1.1198830604553223e+00
-3.7661075592041016e-02 2.2120539069175720e+01 0.0000000000000000e+00
-1.1393904685974121e-02 5.1938598752021790e+00 0.0000000000000000e+00
ITEM: ATOMS id type xs ys zs fx fy fz
1 1 0.959974 0.338766 0.593597 0 -0.00317192 -1.90735e-06
2 1 0.459974 0.338765 0.593597 0 -0.00316429 0
3 1 0.217243 0.297199 0.0935971 0 0.00383568 0
4 1 0.717243 0.297199 0.0935974 0 0.00383759 0
5 1 0.18842 0.462027 0.593597 0 -0.00347137 -3.8147e-06
6 1 0.68842 0.462027 0.593597 0 -0.00348282 0
7 1 0.945581 0.421074 0.0935971 0 -0.000432968 1.90735e-06
8 1 0.445581 0.421074 0.0935972 0 -0.000436783 0
9 1 0.916827 0.585501 0.593597 0 0.000419617 3.8147e-06
10 1 0.416828 0.585501 0.593597 0 0.000419617 0
11 1 0.145166 0.709376 0.593597 0 -0.00383759 -5.72205e-06
12 1 0.645166 0.709376 0.593597 0 -0.00384331 -5.72205e-06
13 1 0.902434 0.667809 0.0935971 0 0.00317192 5.72205e-06
14 1 0.173989 0.544548 0.0935969 0 0.00347137 1.90735e-06
15 1 0.673989 0.544548 0.0935971 0 0.00346947 -3.8147e-06
16 1 0.402435 0.667809 0.0935972 0 0.00317764 3.8147e-06
17 1 0.873372 0.834001 0.593597 0 -0.00650597 -3.8147e-06
18 1 0.373373 0.834001 0.593597 0 -0.00650215 -1.90735e-06
19 1 0.101264 0.960431 0.593597 0 -0.00107574 -3.8147e-06
20 1 0.601264 0.960431 0.593597 0 -0.00105858 5.72205e-06
21 1 0.13095 0.790673 0.0935972 0 -0.00205231 0
22 1 0.63095 0.790673 0.0935969 0 -0.00204849 1.90735e-06
23 1 0.859682 0.912291 0.0935972 0 0.00555229 0
24 1 0.359682 0.912291 0.093597 0 0.00554085 3.8147e-06
25 1 0.00272647 0.0942826 0.593597 0 -0.00551605 1.90735e-06
26 1 0.502727 0.0942828 0.593597 0 -0.00551796 1.90735e-06
27 1 0.261145 0.0461428 0.0935971 0 0.00106621 -1.90735e-06
28 1 0.761145 0.0461428 0.0935971 0 0.00106239 -1.90735e-06
29 1 0.231459 0.215902 0.593597 0 0.00204659 0
30 1 0.731459 0.215902 0.593597 0 0.00204849 -1.90735e-06
31 1 0.989036 0.172573 0.0935969 0 0.00650024 3.8147e-06
32 1 0.489036 0.172573 0.0935969 0 0.00649834 0
ITEM: TIMESTEP
6
ITEM: NUMBER OF ATOMS
32
ITEM: BOX BOUNDS xy xz yz pp pp pp
-4.7826766967773438e-03 7.5192147493362427e+00 1.1198830604553223e+00
-3.7661075592041016e-02 2.2120539069175720e+01 0.0000000000000000e+00
-1.1393904685974121e-02 5.1938598752021790e+00 0.0000000000000000e+00
ITEM: ATOMS id type xs ys zs fx fy fz
1 1 0.959974 0.338765 0.593597 0 -0.00358009 3.8147e-06
2 1 0.459974 0.338765 0.593597 0 -0.00358391 1.90735e-06
3 1 0.217221 0.297325 0.0935971 0 0.00297737 0
4 1 0.717221 0.297325 0.0935974 0 0.00297165 -1.90735e-06
5 1 0.188437 0.46193 0.593597 0 0.00110245 1.90735e-06
6 1 0.688437 0.46193 0.593597 0 0.00110817 0
7 1 0.945569 0.421141 0.0935972 0 0.00050354 -3.8147e-06
8 1 0.445569 0.421141 0.0935973 0 0.00050354 -1.90735e-06
9 1 0.916839 0.585433 0.593597 0 -0.000513077 1.90735e-06
10 1 0.41684 0.585433 0.593597 0 -0.00050354 3.8147e-06
11 1 0.145188 0.70925 0.593597 0 -0.00296021 7.62939e-06
12 1 0.645188 0.70925 0.593597 0 -0.00296974 1.14441e-05
13 1 0.902434 0.667809 0.0935976 0 0.00358391 -9.53674e-06
14 1 0.173972 0.544645 0.0935972 0 -0.00110245 1.90735e-06
15 1 0.673972 0.544645 0.0935967 0 -0.00110817 0
16 1 0.402435 0.667809 0.0935975 0 0.003582 -9.53674e-06
17 1 0.873408 0.833799 0.593597 0 0.000473022 3.8147e-06
18 1 0.373408 0.833799 0.593597 0 0.000465393 0
19 1 0.101283 0.960324 0.593597 0 -0.000583649 5.72205e-06
20 1 0.601283 0.960324 0.593598 0 -0.000585556 -9.53674e-06
21 1 0.130955 0.79064 0.0935972 0 0.000806808 -7.62939e-06
22 1 0.630955 0.79064 0.093597 0 0.000802994 -5.72205e-06
23 1 0.859663 0.912397 0.0935972 0 -0.00243187 3.8147e-06
24 1 0.359664 0.912397 0.0935972 0 -0.00242615 0
25 1 0.00274495 0.0941769 0.593597 0 0.00242996 -1.90735e-06
26 1 0.502745 0.0941771 0.593597 0 0.00242233 -5.72205e-06
27 1 0.261126 0.0462498 0.0935968 0 0.000595093 7.62939e-06
28 1 0.761126 0.0462498 0.0935968 0 0.000595093 -1.90735e-06
29 1 0.231454 0.215935 0.593597 0 -0.000810623 0
30 1 0.731454 0.215935 0.593597 0 -0.000810623 1.90735e-06
31 1 0.989 0.172776 0.0935973 0 -0.000476837 -7.62939e-06
32 1 0.489001 0.172776 0.0935968 0 -0.000476837 9.53674e-06
ITEM: TIMESTEP
7
ITEM: NUMBER OF ATOMS
32
ITEM: BOX BOUNDS xy xz yz pp pp pp
-4.7826766967773438e-03 7.5192147493362427e+00 1.1198830604553223e+00
-3.7661075592041016e-02 2.2120539069175720e+01 0.0000000000000000e+00
-1.1393904685974121e-02 5.1938598752021790e+00 0.0000000000000000e+00
ITEM: ATOMS id type xs ys zs fx fy fz
1 1 0.959984 0.338706 0.593597 0 -0.000118256 -1.90735e-06
2 1 0.459985 0.338706 0.593597 0 -0.00012207 0
3 1 0.217209 0.297394 0.0935971 0 5.34058e-05 0
4 1 0.717209 0.297394 0.0935972 0 5.72205e-05 0
5 1 0.188436 0.461932 0.593597 0 -0.000665665 3.8147e-06
6 1 0.688436 0.461932 0.593597 0 -0.000658035 0
7 1 0.945566 0.421161 0.0935969 0 0.000371933 1.90735e-06
8 1 0.445566 0.421161 0.0935972 0 0.000371933 -1.90735e-06
9 1 0.916843 0.585414 0.593597 0 -0.000358582 -3.8147e-06
10 1 0.416843 0.585414 0.593597 0 -0.000358582 -1.90735e-06
11 1 0.1452 0.70918 0.593597 0 -6.86646e-05 -5.72205e-06
12 1 0.6452 0.70918 0.593597 0 -6.10352e-05 -1.90735e-06
13 1 0.902424 0.667868 0.093597 0 0.000120163 1.90735e-06
14 1 0.173973 0.544643 0.0935974 0 0.000656128 -3.8147e-06
15 1 0.673973 0.544643 0.0935967 0 0.000652313 1.90735e-06
16 1 0.402424 0.667869 0.0935969 0 0.000118256 5.72205e-06
17 1 0.873412 0.833773 0.593597 0 -0.000185013 -3.8147e-06
18 1 0.373413 0.833773 0.593597 0 -0.000183105 -1.90735e-06
19 1 0.101288 0.960297 0.593597 0 0.00114059 1.90735e-06
20 1 0.601288 0.960297 0.593597 0 0.00113487 0
21 1 0.130954 0.790648 0.0935966 0 0.000247955 5.72205e-06
22 1 0.630954 0.790648 0.0935966 0 0.000247955 3.8147e-06
23 1 0.859667 0.912375 0.0935974 0 -0.000152588 0
24 1 0.359668 0.912375 0.0935972 0 -0.000154495 1.90735e-06
25 1 0.002741 0.0941995 0.593597 0 0.000148773 -3.8147e-06
26 1 0.502741 0.0941996 0.593597 0 0.000148773 5.72205e-06
27 1 0.261122 0.0462773 0.0935973 0 -0.00113106 -1.90735e-06
28 1 0.761122 0.0462773 0.0935967 0 -0.00113487 -1.90735e-06
29 1 0.231455 0.215927 0.593597 0 -0.000253677 0
30 1 0.731455 0.215927 0.593597 0 -0.000249863 1.90735e-06
31 1 0.988996 0.172801 0.0935968 0 0.00019455 3.8147e-06
32 1 0.488996 0.172801 0.0935974 0 0.000190735 -5.72205e-06
ITEM: TIMESTEP
8
ITEM: NUMBER OF ATOMS
32
ITEM: BOX BOUNDS xy xz yz pp pp pp
-4.7826766967773438e-03 7.5192147493362427e+00 1.1198830604553223e+00
-3.7661075592041016e-02 2.2120539069175720e+01 0.0000000000000000e+00
-1.1393904685974121e-02 5.1938598752021790e+00 0.0000000000000000e+00
ITEM: ATOMS id type xs ys zs fx fy fz
1 1 0.959986 0.338699 0.593597 0 -3.8147e-06 0
2 1 0.459986 0.338699 0.593597 0 -5.72205e-06 -1.90735e-06
3 1 0.217208 0.297401 0.0935971 0 -6.48499e-05 -1.90735e-06
4 1 0.717208 0.297402 0.0935972 0 -6.48499e-05 -1.90735e-06
5 1 0.188439 0.461919 0.593597 0 -0.000185013 -7.62939e-06
6 1 0.688439 0.461919 0.593597 0 -0.00018692 1.90735e-06
7 1 0.945564 0.42117 0.0935971 0 0.00021553 1.90735e-06
8 1 0.445564 0.42117 0.093597 0 0.000211716 5.72205e-06
9 1 0.916844 0.585405 0.593597 0 -0.000211716 -3.8147e-06
10 1 0.416845 0.585405 0.593597 0 -0.00022316 1.90735e-06
11 1 0.145201 0.709173 0.593597 0 7.43866e-05 3.8147e-06
12 1 0.645201 0.709173 0.593597 0 7.24792e-05 1.90735e-06
13 1 0.902423 0.667876 0.0935971 0 -3.8147e-06 -3.8147e-06
14 1 0.17397 0.544656 0.0935971 0 0.000188828 1.90735e-06
15 1 0.67397 0.544655 0.0935968 0 0.00019455 3.8147e-06
16 1 0.402423 0.667876 0.0935974 0 -5.72205e-06 -3.8147e-06
17 1 0.873413 0.833767 0.593597 0 0.00028801 3.8147e-06
18 1 0.373414 0.833767 0.593597 0 0.000284195 3.8147e-06
19 1 0.101284 0.960317 0.593598 0 -0.000120163 -5.72205e-06
20 1 0.601284 0.960317 0.593597 0 -0.00012207 5.72205e-06
21 1 0.130953 0.790653 0.0935971 0 -7.62939e-05 -1.90735e-06
22 1 0.630953 0.790653 0.0935969 0 -7.62939e-05 -1.90735e-06
23 1 0.859668 0.91237 0.0935974 0 -0.000225067 -3.8147e-06
24 1 0.359669 0.91237 0.0935974 0 -0.000217438 -3.8147e-06
25 1 0.00274014 0.0942044 0.593597 0 0.000217438 1.90735e-06
26 1 0.502741 0.0942045 0.593597 0 0.000219345 -7.62939e-06
27 1 0.261125 0.046257 0.0935972 0 0.000116348 -1.90735e-06
28 1 0.761125 0.0462569 0.0935965 0 0.000120163 9.53674e-06
29 1 0.231456 0.215921 0.593597 0 8.7738e-05 1.90735e-06
30 1 0.731456 0.215921 0.593597 0 8.01086e-05 0
31 1 0.988995 0.172807 0.0935971 0 -0.000289917 0
32 1 0.488995 0.172807 0.093597 0 -0.00028801 1.90735e-06
ITEM: TIMESTEP
9
ITEM: NUMBER OF ATOMS
32
ITEM: BOX BOUNDS xy xz yz pp pp pp
-4.7826766967773438e-03 7.5192147493362427e+00 1.1198830604553223e+00
-3.7661075592041016e-02 2.2120539069175720e+01 0.0000000000000000e+00
-1.1393904685974121e-02 5.1938598752021790e+00 0.0000000000000000e+00
ITEM: ATOMS id type xs ys zs fx fy fz
1 1 0.959986 0.338699 0.593597 0 -3.8147e-06 0
2 1 0.459986 0.338699 0.593597 0 -5.72205e-06 -1.90735e-06
3 1 0.217208 0.297401 0.0935971 0 -6.48499e-05 -1.90735e-06
4 1 0.717208 0.297402 0.0935972 0 -6.48499e-05 -1.90735e-06
5 1 0.188439 0.461919 0.593597 0 -0.000185013 -7.62939e-06
6 1 0.688439 0.461919 0.593597 0 -0.00018692 1.90735e-06
7 1 0.945564 0.42117 0.0935971 0 0.00021553 1.90735e-06
8 1 0.445564 0.42117 0.093597 0 0.000211716 5.72205e-06
9 1 0.916844 0.585405 0.593597 0 -0.000211716 -3.8147e-06
10 1 0.416845 0.585405 0.593597 0 -0.00022316 1.90735e-06
11 1 0.145201 0.709173 0.593597 0 7.43866e-05 3.8147e-06
12 1 0.645201 0.709173 0.593597 0 7.24792e-05 1.90735e-06
13 1 0.902423 0.667876 0.0935971 0 -3.8147e-06 -3.8147e-06
14 1 0.17397 0.544656 0.0935971 0 0.000188828 1.90735e-06
15 1 0.67397 0.544655 0.0935968 0 0.00019455 3.8147e-06
16 1 0.402423 0.667876 0.0935974 0 -5.72205e-06 -3.8147e-06
17 1 0.873413 0.833767 0.593597 0 0.00028801 3.8147e-06
18 1 0.373414 0.833767 0.593597 0 0.000284195 3.8147e-06
19 1 0.101284 0.960317 0.593598 0 -0.000120163 -5.72205e-06
20 1 0.601284 0.960317 0.593597 0 -0.00012207 5.72205e-06
21 1 0.130953 0.790653 0.0935971 0 -7.62939e-05 -1.90735e-06
22 1 0.630953 0.790653 0.0935969 0 -7.62939e-05 -1.90735e-06
23 1 0.859668 0.91237 0.0935974 0 -0.000225067 -3.8147e-06
24 1 0.359669 0.91237 0.0935974 0 -0.000217438 -3.8147e-06
25 1 0.00274014 0.0942044 0.593597 0 0.000217438 1.90735e-06
26 1 0.502741 0.0942045 0.593597 0 0.000219345 -7.62939e-06
27 1 0.261125 0.046257 0.0935972 0 0.000116348 -1.90735e-06
28 1 0.761125 0.0462569 0.0935965 0 0.000120163 9.53674e-06
29 1 0.231456 0.215921 0.593597 0 8.7738e-05 1.90735e-06
30 1 0.731456 0.215921 0.593597 0 8.01086e-05 0
31 1 0.988995 0.172807 0.0935971 0 -0.000289917 0
32 1 0.488995 0.172807 0.093597 0 -0.00028801 1.90735e-06
