ITEM: TIMESTEP
0
ITEM: NUMBER OF ATOMS
56
ITEM: BOX BOUNDS xy xz yz pp pp pp
-6.4359320998191833e+00 1.2203788340091705e+01 0.0000000000000000e+00
-8.4733366966247559e-03 5.5348814725875854e+00 -6.4172435998916626e+00
-2.9168844223022461e-02 1.9049128890037537e+01 0.0000000000000000e+00
ITEM: ATOMS id type xs ys zs fx fy fz
1 1 0.619568 4.41887e-05 0.132366 0 -0.00869942 0.0023613
2 1 0.369569 0.166624 0.132366 0 0.0086689 0.00238228
3 1 0.331984 2.39879e-05 0.275225 0 -0.000152588 -0.00127602
4 1 0.0819832 0.166644 0.275225 0 0.000131607 -0.00126839
5 1 0.0443442 1.9421e-05 0.418082 0 0.000154495 -0.00034523
6 1 0.119569 4.41295e-05 0.132366 0 -0.0086937 0.00237846
7 1 0.0133351 0.500074 0.0609403 0 0.0418148 0.0185986
8 1 0.86957 0.166623 0.132366 0 0.00868607 0.00238037
9 1 0.763336 0.666593 0.0609403 0 -0.0417881 0.0186024
10 1 0.831985 2.39872e-05 0.275225 0 -0.000152588 -0.00126266
11 1 0.794343 0.166647 0.418082 0 -0.000152588 -0.000350952
12 1 0.756694 2.47556e-05 0.560942 0 1.90735e-06 0.000110626
13 1 0.506695 0.166643 0.560942 0 -1.14441e-05 0.000108719
14 1 0.469054 2.39811e-05 0.703801 0 3.8147e-06 0.000429153
15 1 0.219054 0.166644 0.703801 0 -3.62396e-05 0.000421524
16 1 0.181423 2.63435e-05 0.846651 0 -0.000558853 0.00242233
17 1 0.725795 0.500026 0.203802 0 -0.000545502 -0.00241089
18 1 0.581983 0.166645 0.275225 0 0.000118256 -0.00127029
19 1 0.475796 0.66664 0.203802 0 0.000564575 -0.00240326
20 1 0.544344 2.01694e-05 0.418082 0 0.000141144 -0.00034523
21 1 0.438164 0.500023 0.346651 0 3.05176e-05 -0.000413895
22 1 0.294344 0.166648 0.418082 0 -0.000156403 -0.000347137
23 1 0.188164 0.666642 0.346651 0 5.72205e-06 -0.000431061
24 1 0.256695 2.49573e-05 0.560941 0 -1.90735e-06 0.000118256
25 1 0.150522 0.500025 0.489511 0 5.72205e-06 -0.000123978
26 1 0.00669605 0.166643 0.560941 0 -1.14441e-05 0.000123978
27 1 0.900523 0.666642 0.489511 0 0 -0.000101089
28 1 0.513335 0.500073 0.0609404 0 0.0418148 0.0185795
29 1 0.263335 0.666593 0.0609403 0 -0.0417805 0.018589
30 1 0.225796 0.500026 0.203802 0 -0.000547409 -0.00241089
31 1 0.975796 0.666641 0.203802 0 0.000547409 -0.00240898
32 1 0.938165 0.500024 0.346651 0 5.72205e-06 -0.000429153
33 1 0.931422 0.166641 0.846652 0 0.000553131 0.00238037
34 1 0.893883 7.47473e-05 0.989512 0 0.0417881 -0.0185852
35 1 0.643883 0.166594 0.989513 0 -0.0417995 -0.0185814
36 1 0.969053 2.44315e-05 0.703801 0 -1.90735e-06 0.000421524
37 1 0.862872 0.50002 0.632371 0 0.000150681 0.000328064
38 1 0.719054 0.166643 0.703801 0 -2.09808e-05 0.000431061
39 1 0.612874 0.666647 0.632371 0 -0.000144958 0.000347137
40 1 0.681422 2.63314e-05 0.846651 0 -0.000555038 0.00240898
41 1 0.575234 0.500023 0.775228 0 -0.000143051 0.00127602
42 1 0.431422 0.166641 0.846651 0 0.000553131 0.00240326
43 1 0.325234 0.666644 0.775228 0 0.000152588 0.00125885
44 1 0.393883 7.37033e-05 0.989512 0 0.0417919 -0.0185719
45 1 0.287649 0.500043 0.918087 0 -0.00868225 -0.00237465
46 1 0.688164 0.666643 0.346651 0 5.72205e-06 -0.000425339
47 1 0.650522 0.500025 0.489511 0 9.53674e-06 -0.000120163
48 1 0.400523 0.666642 0.489511 0 3.8147e-06 -0.000118256
49 1 0.362874 0.500019 0.632371 0 0.000164032 0.000352859
50 1 0.112874 0.666647 0.63237 0 -0.000135422 0.000368118
51 1 0.0752354 0.500022 0.775228 0 -0.000127792 0.0012722
52 1 0.143881 0.166594 0.989513 0 -0.0418053 -0.0186024
53 1 0.0376484 0.666624 0.918087 0 0.00869179 -0.00239944
54 1 0.825234 0.666643 0.775228 0 0.000143051 0.00127602
55 1 0.787649 0.500044 0.918087 0 -0.00868034 -0.00237846
56 1 0.537649 0.666624 0.918087 0 0.00868225 -0.00237465
ITEM: TIMESTEP
1
ITEM: NUMBER OF ATOMS
56
ITEM: BOX BOUNDS xy xz yz pp pp pp
-6.4359320998191833e+00 1.2203788340091705e+01 0.0000000000000000e+00
-8.4733366966247559e-03 5.5348814725875854e+00 -6.4172435998916626e+00
-2.9168844223022461e-02 1.9049128890037537e+01 0.0000000000000000e+00
ITEM: ATOMS id type xs ys zs fx fy fz
1 1 0.619594 -0.000573601 0.132415 0 0.011322 -0.00244331
2 1 0.369595 0.167239 0.132415 0 -0.0112972 -0.0024662
3 1 0.33197 1.31518e-05 0.275199 0 -7.24792e-05 0.000175476
4 1 0.0819694 0.166654 0.275199 0 8.01086e-05 0.000160217
5 1 0.0443404 3.03925e-05 0.418075 0 5.91278e-05 -0.00069809
6 1 0.119595 -0.000573254 0.132415 0 0.0113258 -0.00245857
7 1 0.0135366 0.503043 0.061324 0 0.00553131 -0.00717926
8 1 0.869596 0.16724 0.132415 0 -0.0113087 -0.00245094
9 1 0.763538 0.663625 0.0613241 0 -0.00553703 -0.00718117
10 1 0.831971 1.31511e-05 0.275199 0 -7.43866e-05 0.000164032
11 1 0.794339 0.166636 0.418075 0 -5.14984e-05 -0.000711441
12 1 0.756696 2.48911e-05 0.560944 0 8.2016e-05 0.000171661
13 1 0.506696 0.166642 0.560944 0 -7.43866e-05 0.000175476
14 1 0.469059 2.4252e-05 0.70381 0 1.52588e-05 0.00056076
15 1 0.219059 0.166642 0.70381 0 -1.90735e-06 0.00056839
16 1 0.181449 -1.33435e-05 0.846701 0 -0.0028019 -0.00809097
17 1 0.725769 0.499987 0.203752 0 -0.00281143 0.00809097
18 1 0.58197 0.166653 0.275199 0 8.01086e-05 0.000169754
19 1 0.47577 0.66668 0.203752 0 0.00279236 0.00809097
20 1 0.544341 3.01927e-05 0.418075 0 6.10352e-05 -0.000703812
21 1 0.438159 0.500025 0.346643 0 1.90735e-06 -0.00056076
22 1 0.29434 0.166637 0.418075 0 -5.34058e-05 -0.000705719
23 1 0.188159 0.666643 0.346643 0 -9.53674e-06 -0.000558853
24 1 0.256696 2.48218e-05 0.560944 0 8.58307e-05 0.000177383
25 1 0.150521 0.500025 0.489509 0 8.2016e-05 -0.000175476
26 1 0.00669739 0.166642 0.560944 0 -7.62939e-05 0.000179291
27 1 0.900522 0.666642 0.489509 0 -8.58307e-05 -0.000175476
28 1 0.513536 0.503043 0.0613237 0 0.00552559 -0.00717354
29 1 0.263537 0.663626 0.0613239 0 -0.00554466 -0.0071907
30 1 0.22577 0.499987 0.203752 0 -0.00281334 0.00810051
31 1 0.97577 0.66668 0.203752 0 0.00279808 0.00810242
32 1 0.93816 0.500025 0.346643 0 1.14441e-05 -0.00056076
33 1 0.931448 0.16668 0.846701 0 0.00280952 -0.00809669
34 1 0.893682 0.00304233 0.989129 0 0.00554276 0.00717354
35 1 0.643682 0.163625 0.989129 0 -0.00553894 0.00718689
36 1 0.969057 2.4296e-05 0.70381 0 1.33514e-05 0.000574112
37 1 0.862876 0.50003 0.632378 0 5.53131e-05 0.000709534
38 1 0.719059 0.166642 0.70381 0 -5.72205e-06 0.000549316
39 1 0.612878 0.666637 0.632378 0 -6.67572e-05 0.000707626
40 1 0.681448 -1.30847e-05 0.846701 0 -0.00279808 -0.00809288
41 1 0.575248 0.500013 0.775254 0 -7.62939e-05 -0.000173569
42 1 0.431448 0.16668 0.846701 0 0.00280571 -0.00809288
43 1 0.325248 0.666655 0.775254 0 6.67572e-05 -0.000167847
44 1 0.393682 0.00304156 0.989129 0 0.00555611 0.00716591
45 1 0.287624 0.499427 0.918038 0 0.0113049 0.00247192
46 1 0.688159 0.666643 0.346643 0 -1.71661e-05 -0.000562668
47 1 0.650521 0.500025 0.489509 0 8.39233e-05 -0.000175476
48 1 0.400521 0.666642 0.489509 0 -8.39233e-05 -0.000181198
49 1 0.362877 0.500031 0.632378 0 4.3869e-05 0.000707626
50 1 0.112878 0.666637 0.632378 0 -7.05719e-05 0.000701904
51 1 0.0752492 0.500013 0.775254 0 -7.82013e-05 -0.000173569
52 1 0.14368 0.163625 0.989129 0 -0.00553322 0.00717926
53 1 0.0376224 0.667241 0.918038 0 -0.0113239 0.00244904
54 1 0.825248 0.666654 0.775254 0 7.24792e-05 -0.000179291
55 1 0.787623 0.499427 0.918038 0 0.0113087 0.00246048
56 1 0.537623 0.66724 0.918038 0 -0.0113106 0.00245667
ITEM: TIMESTEP
2
ITEM: NUMBER OF ATOMS
56
ITEM: BOX BOUNDS xy xz yz pp pp pp
-6.4359320998191833e+00 1.2203788340091705e+01 0.0000000000000000e+00
-8.4733366966247559e-03 5.5348814725875854e+00 -6.4172435998916626e+00
-2.9168844223022461e-02 1.9049128890037537e+01 0.0000000000000000e+00
ITEM: ATOMS id type xs ys zs fx fy fz
1 1 0.61957 0.000180075 0.132369 0 0.00284386 0.00216103
2 1 0.369571 0.166487 0.132369 0 -0.0028553 0.00215721
3 1 0.33197 6.08229e-06 0.275199 0 -0.000226974 0.00078392
4 1 0.0819692 0.166661 0.275198 0 0.000234604 0.00078392
5 1 0.0443319 3.64832e-05 0.418059 0 -4.19617e-05 0.000120163
6 1 0.119571 0.000180769 0.132369 0 0.00284004 0.0021534
7 1 0.0134852 0.503908 0.0612261 0 -0.00044632 0.00102234
8 1 0.869571 0.166487 0.132369 0 -0.00284958 0.00215721
9 1 0.763487 0.66276 0.0612262 0 0.000444412 0.00102997
10 1 0.831971 5.93882e-06 0.275198 0 -0.000228882 0.000780106
11 1 0.794331 0.166631 0.418058 0 5.34058e-05 0.000131607
12 1 0.756698 3.10504e-05 0.560948 0 4.95911e-05 -0.000169754
13 1 0.506699 0.166636 0.560948 0 -5.72205e-05 -0.000169754
14 1 0.469066 2.54352e-05 0.703824 0 -0.000293732 -0.00223351
15 1 0.219066 0.166641 0.703824 0 0.000303268 -0.00223732
16 1 0.181361 -0.000229084 0.846533 0 0.00255966 0.000881195
17 1 0.725857 0.499771 0.20392 0 0.00255394 -0.000881195
18 1 0.581969 0.16666 0.275198 0 0.000230789 0.000782013
19 1 0.475859 0.666895 0.20392 0 -0.00254822 -0.000890732
20 1 0.544332 3.62824e-05 0.418059 0 -5.14984e-05 0.00012207
21 1 0.438152 0.500026 0.346629 0 -0.000301361 0.00222778
22 1 0.294332 0.166631 0.418058 0 4.76837e-05 0.000127792
23 1 0.188152 0.666642 0.346629 0 0.000291824 0.00223541
24 1 0.256698 3.12256e-05 0.560948 0 4.3869e-05 -0.000169754
25 1 0.150519 0.500031 0.489505 0 4.00543e-05 0.000181198
26 1 0.00669965 0.166636 0.560948 0 -4.95911e-05 -0.000169754
27 1 0.90052 0.666635 0.489505 0 -4.76837e-05 0.000165939
28 1 0.513485 0.503907 0.0612259 0 -0.000432968 0.00102806
29 1 0.263485 0.66276 0.0612257 0 0.000448227 0.00102806
30 1 0.225858 0.499771 0.20392 0 0.00255585 -0.000892639
31 1 0.975858 0.666895 0.20392 0 -0.00255013 -0.000896454
32 1 0.938153 0.500026 0.346629 0 -0.000301361 0.00224304
33 1 0.931359 0.166896 0.846532 0 -0.00256157 0.000896454
34 1 0.893733 0.00390758 0.989227 0 -0.00044632 -0.00102806
35 1 0.643733 0.16276 0.989227 0 0.000444412 -0.0010376
36 1 0.969065 2.52748e-05 0.703824 0 -0.000297546 -0.00224113
37 1 0.862884 0.500036 0.632394 0 -5.14984e-05 -0.000118256
38 1 0.719066 0.166641 0.703824 0 0.000293732 -0.00223541
39 1 0.612886 0.666631 0.632395 0 5.53131e-05 -0.000141144
40 1 0.68136 -0.000228499 0.846533 0 0.00254631 0.000888824
41 1 0.575248 0.500006 0.775254 0 -0.00022316 -0.000768661
42 1 0.431359 0.166896 0.846532 0 -0.00256348 0.000886917
43 1 0.325248 0.666661 0.775254 0 0.000221252 -0.000764847
44 1 0.393733 0.00390785 0.989227 0 -0.000455856 -0.00102615
45 1 0.287648 0.500179 0.918084 0 0.0028553 -0.0021534
46 1 0.688152 0.666642 0.346629 0 0.000295639 0.00223923
47 1 0.650519 0.500032 0.489505 0 4.3869e-05 0.000169754
48 1 0.400519 0.666636 0.489505 0 -4.00543e-05 0.000167847
49 1 0.362886 0.500036 0.632394 0 -4.3869e-05 -0.000127792
50 1 0.112887 0.666631 0.632395 0 5.34058e-05 -0.000135422
51 1 0.0752493 0.500006 0.775254 0 -0.000226974 -0.000787735
52 1 0.143731 0.16276 0.989227 0 0.000450134 -0.00102806
53 1 0.0376465 0.666487 0.918083 0 -0.00284576 -0.00214958
54 1 0.825248 0.666661 0.775254 0 0.000226974 -0.00078392
55 1 0.787647 0.50018 0.918084 0 0.00284958 -0.00216293
56 1 0.537647 0.666487 0.918084 0 -0.00283813 -0.00215149
ITEM: TIMESTEP
3
ITEM: NUMBER OF ATOMS
56
ITEM: BOX BOUNDS xy xz yz pp pp pp
-6.4359320998191833e+00 1.2203788340091705e+01 0.0000000000000000e+00
-8.4733366966247559e-03 5.5348814725875854e+00 -6.4172435998916626e+00
-2.9168844223022461e-02 1.9049128890037537e+01 0.0000000000000000e+00
ITEM: ATOMS id type xs ys zs fx fy fz
1 1 0.6196 0.000551079 0.132426 0 -0.000762939 5.34058e-05
2 1 0.3696 0.166115 0.132426 0 0.000778198 6.48499e-05
3 1 0.331982 -1.73024e-05 0.275221 0 0.000421524 0.00113869
4 1 0.081981 0.166685 0.275221 0 -0.000436783 0.0011425
5 1 0.0443327 3.30277e-05 0.41806 0 -4.00543e-05 0.000707626
6 1 0.1196 0.000551435 0.132426 0 -0.000762939 7.05719e-05
7 1 0.0134947 0.503965 0.0612442 0 0.000263214 -8.96454e-05
8 1 0.869601 0.166116 0.132426 0 0.000766754 4.76837e-05
9 1 0.763496 0.662703 0.0612445 0 -0.000270844 -9.34601e-05
10 1 0.831983 -1.76522e-05 0.275221 0 0.000427246 0.00114822
11 1 0.794332 0.166636 0.41806 0 2.67029e-05 0.000699997
12 1 0.756695 3.67009e-05 0.560944 0 -0.000196457 -0.000818253
13 1 0.506696 0.16663 0.560944 0 0.000209808 -0.000818253
14 1 0.469033 -3.61556e-06 0.703761 0 3.8147e-05 0.000112534
15 1 0.219033 0.166671 0.703761 0 -5.72205e-05 0.000108719
16 1 0.181364 -2.17354e-08 0.846538 0 0.000957489 -0.000846863
17 1 0.725854 0.499999 0.203915 0 0.000957489 0.00084877
18 1 0.581981 0.166684 0.275221 0 -0.000434875 0.0011425
19 1 0.475855 0.666667 0.203914 0 -0.000957489 0.000854492
20 1 0.544333 3.18789e-05 0.41806 0 -2.86102e-05 0.000696182
21 1 0.438185 0.499996 0.346692 0 4.3869e-05 -0.000112534
22 1 0.294333 0.166635 0.41806 0 3.43323e-05 0.000699997
23 1 0.188185 0.666671 0.346692 0 -3.8147e-05 -0.000120163
24 1 0.256696 3.63361e-05 0.560944 0 -0.000190735 -0.00082016
25 1 0.150521 0.500036 0.489509 0 -0.000188828 0.000810623
26 1 0.00669734 0.166631 0.560944 0 0.00019455 -0.00082016
27 1 0.900522 0.66663 0.489509 0 0.000200272 0.000827789
28 1 0.513494 0.503965 0.0612441 0 0.000257492 -8.7738e-05
29 1 0.263495 0.662703 0.0612439 0 -0.000270844 -8.7738e-05
30 1 0.225855 0.499999 0.203914 0 0.000963211 0.000850677
31 1 0.975855 0.666667 0.203914 0 -0.000961304 0.000864029
32 1 0.938186 0.499996 0.346692 0 5.14984e-05 -0.000125885
33 1 0.931362 0.166667 0.846538 0 -0.000951767 -0.000858307
34 1 0.893724 0.00396471 0.989209 0 0.000270844 8.7738e-05
35 1 0.643723 0.162703 0.989209 0 -0.000263214 9.72748e-05
36 1 0.969031 -4.17904e-06 0.703761 0 3.62396e-05 0.000120163
37 1 0.862884 0.500032 0.632393 0 -2.28882e-05 -0.000711441
38 1 0.719033 0.16667 0.703761 0 -3.8147e-05 0.000120163
39 1 0.612885 0.666635 0.632392 0 1.71661e-05 -0.000688553
40 1 0.681363 -7.24788e-07 0.846538 0 0.000972748 -0.0008564
41 1 0.575237 0.499983 0.775232 0 0.000425339 -0.00115395
42 1 0.431362 0.166667 0.846538 0 -0.00094986 -0.000844955
43 1 0.325236 0.666684 0.775232 0 -0.000423431 -0.00115204
44 1 0.393724 0.00396415 0.989209 0 0.000270844 8.39233e-05
45 1 0.287618 0.500551 0.918027 0 -0.000761032 -6.29425e-05
46 1 0.688185 0.666671 0.346692 0 -4.00543e-05 -0.000120163
47 1 0.650521 0.500037 0.489509 0 -0.00018692 0.000812531
48 1 0.400521 0.666631 0.489509 0 0.000181198 0.00082016
49 1 0.362885 0.500032 0.632393 0 -2.67029e-05 -0.00069809
50 1 0.112886 0.666635 0.632393 0 3.62396e-05 -0.000679016
51 1 0.0752374 0.499983 0.775232 0 0.000427246 -0.00113678
52 1 0.143722 0.162703 0.989208 0 -0.000274658 8.2016e-05
53 1 0.0376167 0.666116 0.918027 0 0.000762939 -6.48499e-05
54 1 0.825236 0.666684 0.775232 0 -0.000434875 -0.00113869
55 1 0.787617 0.500551 0.918027 0 -0.000768661 -5.34058e-05
56 1 0.537618 0.666117 0.918027 0 0.000747681 -5.34058e-05
ITEM: TIMESTEP
4
ITEM: NUMBER OF ATOMS
56
ITEM: BOX BOUNDS xy xz yz pp pp pp
-6.4359320998191833e+00 1.2203788340091705e+01 0.0000000000000000e+00
-8.4733366966247559e-03 5.5348814725875854e+00 -6.4172435998916626e+00
-2.9168844223022461e-02 1.9049128890037537e+01 0.0000000000000000e+00
ITEM: ATOMS id type xs ys zs fx fy fz
1 1 0.619606 0.000542185 0.132437 0 -5.53131e-05 0.000272751
2 1 0.369606 0.166125 0.132437 0 4.19617e-05 0.000265121
3 1 0.332 1.7828e-05 0.275256 0 0.000452042 0.000188828
4 1 0.0819991 0.166649 0.275255 0 -0.000434875 0.000188828
5 1 0.0443428 2.87447e-05 0.418079 0 -0.000209808 0.000270844
6 1 0.119606 0.000542485 0.132437 0 -5.72205e-05 0.000267029
7 1 0.013495 0.503999 0.0612448 0 -2.09808e-05 -6.10352e-05
8 1 0.869607 0.166125 0.132437 0 5.34058e-05 0.000291824
9 1 0.763496 0.662669 0.061245 0 3.62396e-05 -5.91278e-05
10 1 0.832001 1.79736e-05 0.275256 0 0.00044632 0.000181198
11 1 0.794342 0.166639 0.418079 0 0.000209808 0.000276566
12 1 0.756683 1.94546e-05 0.560921 0 -3.05176e-05 0.000354767
13 1 0.506684 0.166648 0.560921 0 2.86102e-05 0.000360489
14 1 0.469029 -4.91813e-06 0.703753 0 0.00015831 -0.000585556
15 1 0.219029 0.166671 0.703753 0 -0.000150681 -0.000576019
16 1 0.181352 0.000126731 0.846517 0 -0.000619888 -0.000341415
17 1 0.725866 0.500126 0.203936 0 -0.000619888 0.000341415
18 1 0.581999 0.166648 0.275255 0 -0.000432968 0.000190735
19 1 0.475867 0.66654 0.203936 0 0.000617981 0.000333786
20 1 0.544343 2.84977e-05 0.418079 0 -0.00021553 0.000284195
21 1 0.438189 0.499995 0.346699 0 0.000152588 0.000583649
22 1 0.294343 0.166639 0.418079 0 0.000211716 0.000274658
23 1 0.188189 0.666672 0.346699 0 -0.000160217 0.000593185
24 1 0.256684 1.95297e-05 0.560921 0 -3.62396e-05 0.000364304
25 1 0.150533 0.500019 0.489532 0 -3.24249e-05 -0.000364304
26 1 0.00668537 0.166648 0.560921 0 4.00543e-05 0.000371933
27 1 0.900535 0.666648 0.489532 0 3.8147e-05 -0.000364304
28 1 0.513495 0.503999 0.0612448 0 -3.05176e-05 -6.10352e-05
29 1 0.263495 0.662669 0.0612445 0 3.62396e-05 -6.29425e-05
30 1 0.225867 0.500127 0.203936 0 -0.000623703 0.00034523
31 1 0.975867 0.66654 0.203937 0 0.000619888 0.000329971
32 1 0.93819 0.499996 0.346699 0 0.000146866 0.000587463
33 1 0.931351 0.166541 0.846516 0 0.000612259 -0.000337601
34 1 0.893723 0.00399929 0.989208 0 -3.43323e-05 6.29425e-05
35 1 0.643723 0.162669 0.989208 0 2.28882e-05 6.48499e-05
36 1 0.969028 -5.72525e-06 0.703753 0 0.000167847 -0.000583649
37 1 0.862873 0.500029 0.632373 0 -0.000230789 -0.000270844
38 1 0.719029 0.166672 0.703753 0 -0.000162125 -0.000585556
39 1 0.612875 0.666638 0.632374 0 0.000232697 -0.000274658
40 1 0.681351 0.000127226 0.846516 0 -0.000623703 -0.000335693
41 1 0.575218 0.500018 0.775197 0 0.00043869 -0.000188828
42 1 0.431351 0.166541 0.846517 0 0.000614166 -0.000339508
43 1 0.325218 0.666649 0.775197 0 -0.000436783 -0.00018692
44 1 0.393723 0.0039986 0.989208 0 -2.28882e-05 7.82013e-05
45 1 0.287612 0.500543 0.918016 0 -6.48499e-05 -0.000284195
46 1 0.688189 0.666672 0.346699 0 -0.00015831 0.000585556
47 1 0.650533 0.50002 0.489532 0 -4.19617e-05 -0.000360489
48 1 0.400533 0.666647 0.489532 0 5.53131e-05 -0.000358582
49 1 0.362875 0.500029 0.632374 0 -0.000221252 -0.000284195
50 1 0.112876 0.666639 0.632374 0 0.000202179 -0.000289917
51 1 0.0752193 0.500018 0.775197 0 0.000436783 -0.00019455
52 1 0.143721 0.162669 0.989208 0 2.67029e-05 7.62939e-05
53 1 0.0376108 0.666125 0.918016 0 5.72205e-05 -0.000274658
54 1 0.825218 0.666648 0.775197 0 -0.000432968 -0.000190735
55 1 0.787612 0.500542 0.918016 0 -5.14984e-05 -0.000282288
56 1 0.537612 0.666124 0.918016 0 5.53131e-05 -0.00028801
ITEM: TIMESTEP
5
ITEM: NUMBER OF ATOMS
56
ITEM: BOX BOUNDS xy xz yz pp pp pp
-6.4359320998191833e+00 1.2203788340091705e+01 0.0000000000000000e+00
-8.4733366966247559e-03 5.5348814725875854e+00 -6.4172435998916626e+00
-2.9168844223022461e-02 1.9049128890037537e+01 0.0000000000000000e+00
ITEM: ATOMS id type xs ys zs fx fy fz
1 1 0.619612 0.000533776 0.132449 0 1.71661e-05 8.39233e-05
2 1 0.369612 0.166133 0.132448 0 -9.53674e-06 9.15527e-05
3 1 0.332008 7.47853e-05 0.275272 0 -0.00031662 0.000120163
4 1 0.0820077 0.166593 0.275272 0 0.000305176 0.000125885
5 1 0.0443502 6.07575e-06 0.418093 0 0.000104904 8.2016e-05
6 1 0.119612 0.000533865 0.132449 0 2.28882e-05 7.82013e-05
7 1 0.0134941 0.504007 0.0612431 0 -4.3869e-05 0.000143051
8 1 0.869613 0.166133 0.132449 0 -1.52588e-05 6.67572e-05
9 1 0.763496 0.662661 0.0612434 0 2.86102e-05 0.000144958
10 1 0.832009 7.45045e-05 0.275272 0 -0.000322342 0.000114441
11 1 0.794349 0.166661 0.418094 0 -9.72748e-05 7.43866e-05
12 1 0.756685 1.09488e-05 0.560924 0 -0.000108719 -1.90735e-06
13 1 0.506686 0.166657 0.560925 0 0.000104904 -7.62939e-06
14 1 0.469018 1.0766e-05 0.703734 0 1.52588e-05 -4.19617e-05
15 1 0.219019 0.166656 0.703734 0 -1.52588e-05 -4.19617e-05
16 1 0.181344 0.000103433 0.8465 0 -9.72748e-05 -3.43323e-05
17 1 0.725875 0.500103 0.203953 0 -8.39233e-05 3.8147e-05
18 1 0.582008 0.166593 0.275272 0 0.000299454 0.000110626
19 1 0.475876 0.666564 0.203953 0 8.7738e-05 4.57764e-05
20 1 0.54435 5.52959e-06 0.418094 0 0.000108719 6.86646e-05
21 1 0.438199 0.50001 0.346719 0 2.86102e-05 4.3869e-05
22 1 0.29435 0.166662 0.418093 0 -0.000106812 7.24792e-05
23 1 0.1882 0.666657 0.346719 0 -1.71661e-05 3.62396e-05
24 1 0.256686 1.058e-05 0.560925 0 -9.91821e-05 -2.28882e-05
25 1 0.150531 0.500011 0.489528 0 -0.000102997 2.09808e-05
26 1 0.00668739 0.166657 0.560925 0 9.53674e-05 -2.67029e-05
27 1 0.900533 0.666657 0.489529 0 9.53674e-05 1.14441e-05
28 1 0.513494 0.504006 0.0612432 0 -2.86102e-05 0.000139236
29 1 0.263494 0.662662 0.0612429 0 2.47955e-05 0.000146866
30 1 0.225876 0.500103 0.203953 0 -8.96454e-05 2.67029e-05
31 1 0.975876 0.666563 0.203953 0 9.34601e-05 4.19617e-05
32 1 0.9382 0.500011 0.346719 0 2.86102e-05 5.14984e-05
33 1 0.931342 0.166563 0.846499 0 9.72748e-05 -3.8147e-05
34 1 0.893724 0.00400664 0.98921 0 -3.05176e-05 -0.000139236
35 1 0.643724 0.162661 0.98921 0 3.24249e-05 -0.000160217
36 1 0.969017 1.08519e-05 0.703734 0 5.72205e-06 -4.95911e-05
37 1 0.862866 0.500004 0.632359 0 0.000125885 -8.7738e-05
38 1 0.719019 0.166655 0.703734 0 -9.53674e-06 -4.76837e-05
39 1 0.612868 0.666662 0.632359 0 -0.000114441 -7.82013e-05
40 1 0.681342 0.000103916 0.8465 0 -9.72748e-05 -3.62396e-05
41 1 0.57521 0.500074 0.775181 0 -0.000305176 -0.000120163
42 1 0.431342 0.166563 0.8465 0 9.53674e-05 -3.8147e-05
43 1 0.32521 0.666593 0.775181 0 0.000299454 -0.000118256
44 1 0.393724 0.00400706 0.98921 0 -4.19617e-05 -0.00015831
45 1 0.287606 0.500533 0.918004 0 2.47955e-05 -6.29425e-05
46 1 0.688199 0.666656 0.346719 0 -1.52588e-05 4.19617e-05
47 1 0.650531 0.500011 0.489528 0 -0.000101089 2.47955e-05
48 1 0.400531 0.666658 0.489528 0 9.53674e-05 1.33514e-05
49 1 0.362868 0.500005 0.632359 0 0.000110626 -7.43866e-05
50 1 0.112869 0.666661 0.63236 0 -0.000102997 -7.43866e-05
51 1 0.0752107 0.500074 0.775181 0 -0.000305176 -0.000116348
52 1 0.143722 0.16266 0.98921 0 4.19617e-05 -0.000152588
53 1 0.0376047 0.666133 0.918004 0 -2.47955e-05 -8.01086e-05
54 1 0.825209 0.666592 0.775181 0 0.000305176 -0.000108719
55 1 0.787605 0.500534 0.918004 0 1.71661e-05 -6.86646e-05
56 1 0.537606 0.666132 0.918004 0 -9.53674e-06 -7.24792e-05
ITEM: TIMESTEP
6
ITEM: NUMBER OF ATOMS
56
ITEM: BOX BOUNDS xy xz yz pp pp pp
-6.4359320998191833e+00 1.2203788340091705e+01 0.0000000000000000e+00
-8.4733366966247559e-03 5.5348814725875854e+00 -6.4172435998916626e+00
-2.9168844223022461e-02 1.9049128890037537e+01 0.0000000000000000e+00
ITEM: ATOMS id type xs ys zs fx fy fz
1 1 0.619614 0.000534444 0.132453 0 1.33514e-05 -3.8147e-05
2 1 0.369615 0.166133 0.132452 0 -1.71661e-05 -3.62396e-05
3 1 0.332011 4.95674e-05 0.275278 0 -2.86102e-05 2.67029e-05
4 1 0.0820108 0.166617 0.275278 0 3.43323e-05 1.90735e-05
5 1 0.0443525 1.39317e-05 0.418098 0 -3.05176e-05 -3.05176e-05
6 1 0.119614 0.000535095 0.132452 0 -3.8147e-06 -2.67029e-05
7 1 0.0134963 0.504004 0.0612472 0 9.53674e-06 -2.47955e-05
8 1 0.869615 0.166133 0.132452 0 -1.90735e-06 -1.71661e-05
9 1 0.763498 0.662663 0.0612475 0 -5.72205e-06 -3.43323e-05
10 1 0.832012 4.86393e-05 0.275277 0 -1.90735e-05 4.3869e-05
11 1 0.794351 0.166654 0.418098 0 2.86102e-05 -2.47955e-05
12 1 0.756685 -1.40094e-06 0.560925 0 2.28882e-05 -2.86102e-05
13 1 0.506686 0.166669 0.560925 0 -1.71661e-05 -2.47955e-05
14 1 0.469016 1.44049e-05 0.70373 0 -9.34601e-05 7.62939e-06
15 1 0.219017 0.166652 0.70373 0 0.000102997 1.90735e-06
16 1 0.181342 9.03208e-05 0.846496 0 -3.8147e-06 -5.72205e-05
17 1 0.725877 0.500091 0.203957 0 -2.47955e-05 5.14984e-05
18 1 0.582011 0.166616 0.275277 0 4.19617e-05 4.3869e-05
19 1 0.475878 0.666576 0.203957 0 2.28882e-05 4.76837e-05
20 1 0.544353 1.37403e-05 0.418097 0 -3.05176e-05 -1.71661e-05
21 1 0.438202 0.500015 0.346723 0 -0.000108719 -3.8147e-06
22 1 0.294352 0.166654 0.418097 0 3.62396e-05 -1.71661e-05
23 1 0.188201 0.666653 0.346723 0 9.72748e-05 -3.8147e-06
24 1 0.256686 -8.42883e-07 0.560924 0 1.33514e-05 -3.8147e-06
25 1 0.150531 0.499999 0.489528 0 1.71661e-05 1.33514e-05
26 1 0.00668723 0.166668 0.560925 0 -1.71661e-05 -1.33514e-05
27 1 0.900533 0.666668 0.489529 0 -5.72205e-06 1.71661e-05
28 1 0.513496 0.504004 0.0612472 0 0 -3.24249e-05
29 1 0.263496 0.662663 0.0612471 0 0 -3.24249e-05
30 1 0.225877 0.500091 0.203956 0 -1.52588e-05 6.29425e-05
31 1 0.975878 0.666576 0.203957 0 1.14441e-05 5.14984e-05
32 1 0.938202 0.500015 0.346723 0 -0.000110626 -1.14441e-05
33 1 0.93134 0.166576 0.846496 0 9.53674e-06 -5.14984e-05
34 1 0.893722 0.00400445 0.989206 0 -1.90735e-06 3.05176e-05
35 1 0.643722 0.162663 0.989206 0 1.90735e-06 4.57764e-05
36 1 0.969015 1.36231e-05 0.70373 0 -8.96454e-05 5.72205e-06
37 1 0.862864 0.500014 0.632355 0 -5.14984e-05 3.43323e-05
38 1 0.719017 0.166652 0.70373 0 9.15527e-05 1.71661e-05
39 1 0.612866 0.666653 0.632355 0 3.62396e-05 2.28882e-05
40 1 0.681341 9.08019e-05 0.846496 0 -1.33514e-05 -6.48499e-05
41 1 0.575207 0.50005 0.775175 0 -4.3869e-05 -2.28882e-05
42 1 0.43134 0.166576 0.846496 0 1.71661e-05 -5.91278e-05
43 1 0.325207 0.666617 0.775175 0 3.62396e-05 -3.24249e-05
44 1 0.393722 0.00400384 0.989206 0 1.14441e-05 4.76837e-05
45 1 0.287604 0.500535 0.918001 0 -1.90735e-06 1.52588e-05
46 1 0.688201 0.666653 0.346723 0 9.72748e-05 -1.90735e-06
47 1 0.650531 0.499999 0.489528 0 1.33514e-05 9.53674e-06
48 1 0.400531 0.666669 0.489528 0 -1.33514e-05 1.33514e-05
49 1 0.362865 0.500014 0.632355 0 -3.43323e-05 2.86102e-05
50 1 0.112866 0.666653 0.632355 0 3.43323e-05 1.71661e-05
51 1 0.0752077 0.50005 0.775175 0 -4.57764e-05 -2.09808e-05
52 1 0.14372 0.162664 0.989205 0 -7.62939e-06 3.05176e-05
53 1 0.0376027 0.666132 0.918 0 0 2.86102e-05
54 1 0.825207 0.666616 0.775176 0 4.00543e-05 -4.00543e-05
55 1 0.787604 0.500535 0.918001 0 7.62939e-06 1.90735e-05
56 1 0.537604 0.666132 0.918001 0 -1.14441e-05 1.90735e-05
ITEM: TIMESTEP
7
ITEM: NUMBER OF ATOMS
56
ITEM: BOX BOUNDS xy xz yz pp pp pp
-6.4359320998191833e+00 1.2203788340091705e+01 0.0000000000000000e+00
-8.4733366966247559e-03 5.5348814725875854e+00 -6.4172435998916626e+00
-2.9168844223022461e-02 1.9049128890037537e+01 0.0000000000000000e+00
ITEM: ATOMS id type xs ys zs fx fy fz
1 1 0.619613 0.000535587 0.132452 0 -1.52588e-05 3.62396e-05
2 1 0.369614 0.166131 0.132452 0 1.52588e-05 2.86102e-05
3 1 0.332012 4.5158e-05 0.275279 0 1.90735e-05 -2.09808e-05
4 1 0.0820113 0.166622 0.275279 0 -1.71661e-05 -2.09808e-05
5 1 0.0443523 1.209e-05 0.418097 0 -4.00543e-05 1.14441e-05
6 1 0.119614 0.000534886 0.132452 0 -3.8147e-06 2.28882e-05
7 1 0.0134961 0.504005 0.061247 0 7.62939e-06 1.71661e-05
8 1 0.869615 0.166133 0.132452 0 -3.8147e-06 2.47955e-05
9 1 0.763497 0.662663 0.0612471 0 0 2.09808e-05
10 1 0.832013 4.49544e-05 0.275279 0 1.52588e-05 -3.43323e-05
11 1 0.794351 0.166656 0.418097 0 4.19617e-05 9.53674e-06
12 1 0.756685 -5.51379e-07 0.560924 0 1.90735e-06 0
13 1 0.506686 0.166668 0.560924 0 -9.53674e-06 0
14 1 0.469016 7.0834e-06 0.70373 0 -1.90735e-05 -1.52588e-05
15 1 0.219016 0.16666 0.70373 0 2.09808e-05 -1.71661e-05
16 1 0.181341 8.89301e-05 0.846495 0 -1.71661e-05 3.8147e-06
17 1 0.725877 0.500088 0.203958 0 -5.72205e-06 -1.90735e-06
18 1 0.582012 0.166622 0.275279 0 -9.53674e-06 -3.43323e-05
19 1 0.475878 0.666579 0.203958 0 -5.72205e-06 -5.72205e-06
20 1 0.544353 1.19278e-05 0.418097 0 -3.62396e-05 7.62939e-06
21 1 0.438202 0.500007 0.346723 0 -2.09808e-05 7.62939e-06
22 1 0.294352 0.166656 0.418097 0 4.00543e-05 9.53674e-06
23 1 0.188202 0.66666 0.346723 0 2.47955e-05 1.52588e-05
24 1 0.256686 -6.94671e-07 0.560924 0 1.90735e-06 -1.14441e-05
25 1 0.150531 0.5 0.489529 0 5.72205e-06 5.72205e-06
26 1 0.00668705 0.166668 0.560924 0 0 -1.90735e-06
27 1 0.900533 0.666669 0.489529 0 -2.09808e-05 9.53674e-06
28 1 0.513496 0.504004 0.0612467 0 1.33514e-05 2.28882e-05
29 1 0.263496 0.662663 0.0612467 0 -9.53674e-06 1.90735e-05
30 1 0.225878 0.500089 0.203958 0 -1.52588e-05 1.90735e-06
31 1 0.975878 0.666578 0.203958 0 1.71661e-05 0
32 1 0.938202 0.500007 0.346723 0 -2.09808e-05 9.53674e-06
33 1 0.931339 0.166578 0.846494 0 7.62939e-06 3.8147e-06
34 1 0.893722 0.00400411 0.989206 0 9.53674e-06 -1.90735e-05
35 1 0.643722 0.162663 0.989206 0 -3.8147e-06 -3.05176e-05
36 1 0.969015 6.54123e-06 0.70373 0 -2.67029e-05 -2.09808e-05
37 1 0.862864 0.500011 0.632355 0 -2.67029e-05 -9.53674e-06
38 1 0.719017 0.16666 0.70373 0 2.09808e-05 -2.47955e-05
39 1 0.612866 0.666656 0.632355 0 3.62396e-05 -5.72205e-06
40 1 0.68134 8.86334e-05 0.846494 0 -9.53674e-06 1.14441e-05
41 1 0.575206 0.500044 0.775174 0 1.52588e-05 2.09808e-05
42 1 0.431339 0.166579 0.846495 0 -1.90735e-06 7.62939e-06
43 1 0.325206 0.666622 0.775174 0 -1.14441e-05 2.86102e-05
44 1 0.393723 0.00400451 0.989206 0 0 -3.05176e-05
45 1 0.287604 0.500535 0.918001 0 1.90735e-06 -1.71661e-05
46 1 0.688201 0.66666 0.346723 0 2.28882e-05 1.33514e-05
47 1 0.650532 0.499999 0.489529 0 1.14441e-05 1.90735e-06
48 1 0.400532 0.666669 0.489529 0 -9.53674e-06 3.8147e-06
49 1 0.362866 0.500012 0.632355 0 -3.43323e-05 -7.62939e-06
50 1 0.112866 0.666655 0.632355 0 4.19617e-05 -3.8147e-06
51 1 0.0752072 0.500044 0.775174 0 3.8147e-06 1.90735e-05
52 1 0.14372 0.162663 0.989206 0 -5.72205e-06 -1.71661e-05
53 1 0.0376028 0.666132 0.918 0 9.53674e-06 -2.28882e-05
54 1 0.825206 0.666622 0.775174 0 -1.33514e-05 1.90735e-05
55 1 0.787604 0.500535 0.918001 0 -9.53674e-06 -2.28882e-05
56 1 0.537604 0.666131 0.918001 0 1.71661e-05 -1.71661e-05
ITEM: TIMESTEP
8
ITEM: NUMBER OF ATOMS
56
ITEM: BOX BOUNDS xy xz yz pp pp pp
-6.4359320998191833e+00 1.2203788340091705e+01 0.0000000000000000e+00
-8.4733366966247559e-03 5.5348814725875854e+00 -6.4172435998916626e+00
-2.9168844223022461e-02 1.9049128890037537e+01 0.0000000000000000e+00
ITEM: ATOMS id type xs ys zs fx fy fz
1 1 0.619614 0.000534736 0.132453 0 -7.62939e-06 -5.72205e-06
2 1 0.369615 0.166132 0.132452 0 1.90735e-06 -7.62939e-06
3 1 0.332012 4.56788e-05 0.275279 0 -3.8147e-06 0
4 1 0.0820112 0.166622 0.275278 0 0 5.72205e-06
5 1 0.0443524 8.97208e-06 0.418098 0 -7.62939e-06 -3.8147e-06
6 1 0.119614 0.000534582 0.132453 0 -9.53674e-06 -9.53674e-06
7 1 0.0134963 0.504005 0.0612473 0 3.8147e-06 1.90735e-06
8 1 0.869615 0.166132 0.132453 0 1.14441e-05 -5.72205e-06
9 1 0.763498 0.662663 0.0612474 0 -5.72205e-06 0
10 1 0.832013 4.53423e-05 0.275278 0 1.90735e-06 0
11 1 0.794351 0.166659 0.418098 0 5.72205e-06 -1.90735e-06
12 1 0.756685 -2.63975e-07 0.560924 0 -9.53674e-06 -5.72205e-06
13 1 0.506686 0.166668 0.560924 0 9.53674e-06 -5.72205e-06