ITEM: TIMESTEP
0
ITEM: NUMBER OF ATOMS
32
ITEM: BOX BOUNDS xy xz yz pp pp pp
-2.4071335792541504e-03 6.3992393016815186e+00 0.0000000000000000e+00
-9.1621279716491699e-03 1.0644467055797577e+01 0.0000000000000000e+00
5.4966151714324951e-02 2.0670420289039612e+01 5.1148737668991089e+00
ITEM: ATOMS id type xs ys zs fx fy fz
1 1 0.999986 0.611106 0.0597547 0 0 0.0615349
2 1 0.499986 0.611106 0.0597547 0 0 0.0615349
3 1 0.249986 0.111108 0.0597528 0 0 0.0616093
4 1 0.749986 0.111108 0.0597528 0 0 0.0616093
5 1 0.999986 0.380247 0.309759 0 0 9.53674e-06
6 1 0.249986 0.329767 0.184759 0 0 0.00325012
7 1 0.749986 0.329767 0.184759 0 0 0.00325012
8 1 0.499986 0.380247 0.309759 0 0 9.53674e-06
9 1 0.999986 0.829769 0.184758 0 0 0.00331497
10 1 0.249986 0.880247 0.309758 0 0 7.82013e-05
11 1 0.499986 0.829769 0.184758 0 0 0.00331497
12 1 0.749986 0.880247 0.309758 0 0 7.82013e-05
13 1 0.999986 0.149373 0.559748 0 0 0.000171661
14 1 0.499986 0.149373 0.559748 0 0 0.000171661
15 1 0.249986 0.649373 0.559748 0 0 0.00015831
16 1 0.749986 0.649373 0.559748 0 0 0.00015831
17 1 0.249986 0.0989067 0.434754 0 0 -0.000167847
18 1 0.749986 0.0989067 0.434754 0 0 -0.000167847
19 1 0.999986 0.598908 0.434754 0 0 -0.000185013
20 1 0.499986 0.598908 0.434754 0 0 -0.000185013
21 1 0.999986 0.918503 0.809743 0 0 -0.00330162
22 1 0.249986 0.868029 0.684743 0 0 -7.05719e-05
23 1 0.499986 0.918503 0.809743 0 0 -0.00330162
24 1 0.749986 0.868029 0.684743 0 0 -7.05719e-05
25 1 0.999986 0.368029 0.684742 0 0 -1.90735e-05
26 1 0.249986 0.418504 0.809742 0 0 -0.00326729
27 1 0.749986 0.418504 0.809742 0 0 -0.00326729
28 1 0.499986 0.368029 0.684742 0 0 -1.90735e-05
29 1 0.249986 0.637161 0.934748 0 0 -0.0615749
30 1 0.749986 0.637161 0.934748 0 0 -0.0615749
31 1 0.999986 0.137162 0.934746 0 0 -0.0615406
32 1 0.499986 0.137162 0.934746 0 0 -0.0615406
ITEM: TIMESTEP
1
ITEM: NUMBER OF ATOMS
32
ITEM: BOX BOUNDS xy xz yz pp pp pp
-2.4071335792541504e-03 6.3992393016815186e+00 0.0000000000000000e+00
-9.1621279716491699e-03 1.0644467055797577e+01 0.0000000000000000e+00
5.4966151714324951e-02 2.0670420289039612e+01 5.1148737668991089e+00
ITEM: ATOMS id type xs ys zs fx fy fz
1 1 0.999986 0.610461 0.0604534 0 0 -0.00481033
2 1 0.499986 0.610461 0.0604534 0 0 -0.00481033
3 1 0.249986 0.110462 0.0604524 0 0 -0.00478935
4 1 0.749986 0.110462 0.0604524 0 0 -0.00478935
5 1 0.999986 0.380247 0.30976 0 0 0.00141716
6 1 0.249986 0.329733 0.184796 0 0 0.0221119
7 1 0.749986 0.329733 0.184796 0 0 0.0221119
8 1 0.499986 0.380247 0.30976 0 0 0.00141716
9 1 0.999986 0.829734 0.184795 0 0 0.0221405
10 1 0.249986 0.880246 0.309759 0 0 0.00144386
11 1 0.499986 0.829734 0.184795 0 0 0.0221405
12 1 0.749986 0.880246 0.309759 0 0 0.00144386
13 1 0.999986 0.149371 0.559749 0 0 -0.000320435
14 1 0.499986 0.149371 0.559749 0 0 -0.000320435
15 1 0.249986 0.649372 0.559749 0 0 -0.000314713
16 1 0.749986 0.649372 0.559749 0 0 -0.000314713
17 1 0.249986 0.0989085 0.434752 0 0 0.000303268
18 1 0.749986 0.0989085 0.434752 0 0 0.000303268
19 1 0.999986 0.59891 0.434752 0 0 0.00030899
20 1 0.499986 0.59891 0.434752 0 0 0.00030899
21 1 0.999986 0.918537 0.809706 0 0 -0.0221252
22 1 0.249986 0.86803 0.684743 0 0 -0.00144005
23 1 0.499986 0.918537 0.809706 0 0 -0.0221252
24 1 0.749986 0.86803 0.684743 0 0 -0.00144005
25 1 0.999986 0.368029 0.684742 0 0 -0.0014286
26 1 0.249986 0.418538 0.809705 0 0 -0.0221024
27 1 0.749986 0.418538 0.809705 0 0 -0.0221024
28 1 0.499986 0.368029 0.684742 0 0 -0.0014286
29 1 0.249986 0.637807 0.934049 0 0 0.00479126
30 1 0.749986 0.637807 0.934049 0 0 0.00479126
31 1 0.999986 0.137807 0.934047 0 0 0.00481415
32 1 0.499986 0.137807 0.934047 0 0 0.00481415
ITEM: TIMESTEP
2
ITEM: NUMBER OF ATOMS
32
ITEM: BOX BOUNDS xy xz yz pp pp pp
-2.4071335792541504e-03 6.3992393016815186e+00 0.0000000000000000e+00
-9.1621279716491699e-03 1.0644467055797577e+01 0.0000000000000000e+00
5.4966151714324951e-02 2.0670420289039612e+01 5.1148737668991089e+00
ITEM: ATOMS id type xs ys zs fx fy fz
1 1 0.999986 0.610343 0.0605815 0 0 -0.00435638
2 1 0.499986 0.610343 0.0605815 0 0 -0.00435638
3 1 0.249986 0.110343 0.0605811 0 0 -0.00435066
4 1 0.749986 0.110343 0.0605811 0 0 -0.00435066
5 1 0.999986 0.380223 0.309785 0 0 0.012722
6 1 0.249986 0.329355 0.185205 0 0 0.000623703
7 1 0.749986 0.329355 0.185205 0 0 0.000623703
8 1 0.499986 0.380223 0.309785 0 0 0.012722
9 1 0.999986 0.829356 0.185205 0 0 0.000623703
10 1 0.249986 0.880222 0.309785 0 0 0.0126991
11 1 0.499986 0.829356 0.185205 0 0 0.000623703
12 1 0.749986 0.880222 0.309785 0 0 0.0126991
13 1 0.999986 0.149376 0.559744 0 0 -0.000818253
14 1 0.499986 0.149376 0.559744 0 0 -0.000818253
15 1 0.249986 0.649376 0.559744 0 0 -0.000810623
16 1 0.749986 0.649376 0.559744 0 0 -0.000810623
17 1 0.249986 0.098904 0.434757 0 0 0.000806808
18 1 0.749986 0.098904 0.434757 0 0 0.000806808
19 1 0.999986 0.598905 0.434757 0 0 0.000827789
20 1 0.499986 0.598905 0.434757 0 0 0.000827789
21 1 0.999986 0.918915 0.809297 0 0 -0.000627518
22 1 0.249986 0.868054 0.684716 0 0 -0.0127163
23 1 0.499986 0.918915 0.809297 0 0 -0.000627518
24 1 0.749986 0.868054 0.684716 0 0 -0.0127163
25 1 0.999986 0.368053 0.684716 0 0 -0.0127125
26 1 0.249986 0.418915 0.809297 0 0 -0.000635147
27 1 0.749986 0.418915 0.809297 0 0 -0.000635147
28 1 0.499986 0.368053 0.684716 0 0 -0.0127125
29 1 0.249986 0.637926 0.93392 0 0 0.00434875
30 1 0.749986 0.637926 0.93392 0 0 0.00434875
31 1 0.999986 0.137925 0.933919 0 0 0.00437546
32 1 0.499986 0.137925 0.933919 0 0 0.00437546
ITEM: TIMESTEP
3
ITEM: NUMBER OF ATOMS
32
ITEM: BOX BOUNDS xy xz yz pp pp pp
-2.4071335792541504e-03 6.3992393016815186e+00 0.0000000000000000e+00
-9.1621279716491699e-03 1.0644467055797577e+01 0.0000000000000000e+00
5.4966151714324951e-02 2.0670420289039612e+01 5.1148737668991089e+00
ITEM: ATOMS id type xs ys zs fx fy fz
1 1 0.999986 0.610389 0.0605313 0 0 0.00420189
2 1 0.499986 0.610389 0.0605313 0 0 0.00420189
3 1 0.249986 0.11039 0.0605312 0 0 0.00421715
4 1 0.749986 0.11039 0.0605312 0 0 0.00421715
5 1 0.999986 0.379988 0.31004 0 0 0.00075531
6 1 0.249986 0.329242 0.185327 0 0 -0.00078392
7 1 0.749986 0.329242 0.185327 0 0 -0.00078392
8 1 0.499986 0.379988 0.31004 0 0 0.00075531
9 1 0.999986 0.829242 0.185328 0 0 -0.000806808
10 1 0.249986 0.879987 0.31004 0 0 0.000766754
11 1 0.499986 0.829242 0.185328 0 0 -0.000806808
12 1 0.749986 0.879987 0.31004 0 0 0.000766754
13 1 0.999986 0.149392 0.559727 0 0 -0.00695038
14 1 0.499986 0.149392 0.559727 0 0 -0.00695038
15 1 0.249986 0.649392 0.559727 0 0 -0.0069561
16 1 0.749986 0.649392 0.559727 0 0 -0.0069561
17 1 0.249986 0.0988883 0.434774 0 0 0.00695801
18 1 0.749986 0.0988883 0.434774 0 0 0.00695801
19 1 0.999986 0.598889 0.434775 0 0 0.00694466
20 1 0.499986 0.598889 0.434775 0 0 0.00694466
21 1 0.999986 0.919028 0.809174 0 0 0.000801086
22 1 0.249986 0.868289 0.684462 0 0 -0.000759125
23 1 0.499986 0.919028 0.809174 0 0 0.000801086
24 1 0.749986 0.868289 0.684462 0 0 -0.000759125
25 1 0.999986 0.368288 0.684462 0 0 -0.000768661
26 1 0.249986 0.419029 0.809174 0 0 0.000795364
27 1 0.749986 0.419029 0.809174 0 0 0.000795364
28 1 0.499986 0.368288 0.684462 0 0 -0.000768661
29 1 0.249986 0.637879 0.93397 0 0 -0.0042038
30 1 0.749986 0.637879 0.93397 0 0 -0.0042038
31 1 0.999986 0.137878 0.93397 0 0 -0.00421143
32 1 0.499986 0.137878 0.93397 0 0 -0.00421143
ITEM: TIMESTEP
4
ITEM: NUMBER OF ATOMS
32
ITEM: BOX BOUNDS xy xz yz pp pp pp
-2.4071335792541504e-03 6.3992393016815186e+00 0.0000000000000000e+00
-9.1621279716491699e-03 1.0644467055797577e+01 0.0000000000000000e+00
5.4966151714324951e-02 2.0670420289039612e+01 5.1148737668991089e+00
ITEM: ATOMS id type xs ys zs fx fy fz
1 1 0.999986 0.610348 0.0605759 0 0 0.000793457
2 1 0.499986 0.610348 0.0605759 0 0 0.000793457
3 1 0.249986 0.110348 0.060576 0 0 0.000776291
4 1 0.749986 0.110348 0.060576 0 0 0.000776291
5 1 0.999986 0.379913 0.310121 0 0 -0.000631332
6 1 0.249986 0.329221 0.185351 0 0 0.00170326
7 1 0.749986 0.329221 0.185351 0 0 0.00170326
8 1 0.499986 0.379913 0.310121 0 0 -0.000631332
9 1 0.999986 0.829221 0.185351 0 0 0.00170708
10 1 0.249986 0.879912 0.310121 0 0 -0.000627518
11 1 0.499986 0.829221 0.185351 0 0 0.00170708
12 1 0.749986 0.879912 0.310121 0 0 -0.000627518
13 1 0.999986 0.149486 0.559625 0 0 0.000198364
14 1 0.499986 0.149486 0.559625 0 0 0.000198364
15 1 0.249986 0.649486 0.559625 0 0 0.000196457
16 1 0.749986 0.649486 0.559625 0 0 0.000196457
17 1 0.249986 0.0987943 0.434876 0 0 -0.000204086
18 1 0.749986 0.0987943 0.434876 0 0 -0.000204086
19 1 0.999986 0.598795 0.434876 0 0 -0.000198364
20 1 0.499986 0.598795 0.434876 0 0 -0.000198364
21 1 0.999986 0.91905 0.809151 0 0 -0.00170517
22 1 0.249986 0.868364 0.68438 0 0 0.000629425
23 1 0.499986 0.91905 0.809151 0 0 -0.00170517
24 1 0.749986 0.868364 0.68438 0 0 0.000629425
25 1 0.999986 0.368363 0.68438 0 0 0.000629425
26 1 0.249986 0.41905 0.809151 0 0 -0.00170898
27 1 0.749986 0.41905 0.809151 0 0 -0.00170898
28 1 0.499986 0.368363 0.68438 0 0 0.000629425
29 1 0.249986 0.637921 0.933925 0 0 -0.000776291
30 1 0.749986 0.637921 0.933925 0 0 -0.000776291
31 1 0.999986 0.13792 0.933925 0 0 -0.000782013
32 1 0.499986 0.13792 0.933925 0 0 -0.000782013
ITEM: TIMESTEP
5
ITEM: NUMBER OF ATOMS
32
ITEM: BOX BOUNDS xy xz yz pp pp pp
-2.4071335792541504e-03 6.3992393016815186e+00 0.0000000000000000e+00
-9.1621279716491699e-03 1.0644467055797577e+01 0.0000000000000000e+00
5.4966151714324951e-02 2.0670420289039612e+01 5.1148737668991089e+00
ITEM: ATOMS id type xs ys zs fx fy fz
1 1 0.999986 0.610348 0.0605759 0 0 0.000793457
2 1 0.499986 0.610348 0.0605759 0 0 0.000793457
3 1 0.249986 0.110348 0.060576 0 0 0.000776291
4 1 0.749986 0.110348 0.060576 0 0 0.000776291
5 1 0.999986 0.379913 0.310121 0 0 -0.000631332
6 1 0.249986 0.329221 0.185351 0 0 0.00170326
7 1 0.749986 0.329221 0.185351 0 0 0.00170326
8 1 0.499986 0.379913 0.310121 0 0 -0.000631332
9 1 0.999986 0.829221 0.185351 0 0 0.00170708
10 1 0.249986 0.879912 0.310121 0 0 -0.000627518
11 1 0.499986 0.829221 0.185351 0 0 0.00170708
12 1 0.749986 0.879912 0.310121 0 0 -0.000627518
13 1 0.999986 0.149486 0.559625 0 0 0.000198364
14 1 0.499986 0.149486 0.559625 0 0 0.000198364
15 1 0.249986 0.649486 0.559625 0 0 0.000196457
16 1 0.749986 0.649486 0.559625 0 0 0.000196457
17 1 0.249986 0.0987943 0.434876 0 0 -0.000204086
18 1 0.749986 0.0987943 0.434876 0 0 -0.000204086
19 1 0.999986 0.598795 0.434876 0 0 -0.000198364
20 1 0.499986 0.598795 0.434876 0 0 -0.000198364
21 1 0.999986 0.91905 0.809151 0 0 -0.00170517
22 1 0.249986 0.868364 0.68438 0 0 0.000629425
23 1 0.499986 0.91905 0.809151 0 0 -0.00170517
24 1 0.749986 0.868364 0.68438 0 0 0.000629425
25 1 0.999986 0.368363 0.68438 0 0 0.000629425
26 1 0.249986 0.41905 0.809151 0 0 -0.00170898
27 1 0.749986 0.41905 0.809151 0 0 -0.00170898
28 1 0.499986 0.368363 0.68438 0 0 0.000629425
29 1 0.249986 0.637921 0.933925 0 0 -0.000776291
30 1 0.749986 0.637921 0.933925 0 0 -0.000776291
31 1 0.999986 0.13792 0.933925 0 0 -0.000782013
32 1 0.499986 0.13792 0.933925 0 0 -0.000782013
