ITEM: TIMESTEP
0
ITEM: NUMBER OF ATOMS
56
ITEM: BOX BOUNDS xy xz yz pp pp pp
-2.9273429512977600e+00 1.2203788340091705e+01 0.0000000000000000e+00
-8.4733366966247559e-03 5.5348814725875854e+00 -2.9086544513702393e+00
-2.9168844223022461e-02 1.9049128890037537e+01 0.0000000000000000e+00
ITEM: ATOMS id type xs ys zs fx fy fz
1 1 0.581571 4.41887e-05 0.132366 0 0.036026 0.403933
2 1 0.331572 0.166624 0.132366 0 -0.0360584 0.403971
3 1 0.252977 2.39879e-05 0.275225 0 0.000692368 -0.00210762
4 1 0.00297695 0.166644 0.275225 0 -0.000717163 -0.00210381
5 1 0.924329 1.9421e-05 0.418082 0 -6.67572e-05 0.000587463
6 1 0.081572 4.41295e-05 0.132366 0 0.0360432 0.403954
7 1 0.995842 0.500074 0.0609403 0 0.596764 0.726841
8 1 0.831573 0.166623 0.132366 0 -0.0360432 0.403997
9 1 0.745843 0.666593 0.0609403 0 -0.59675 0.726881
10 1 0.752978 2.39872e-05 0.275225 0 0.000694275 -0.00209808
11 1 0.674328 0.166647 0.418082 0 7.24792e-05 0.000579834
12 1 0.59567 2.47556e-05 0.560942 0 -7.05719e-05 -0.000278473
13 1 0.345671 0.166643 0.560942 0 6.10352e-05 -0.00028038
14 1 0.26702 2.39811e-05 0.703801 0 -0.000425339 0.000291824
15 1 0.0170206 0.166644 0.703801 0 0.000394821 0.000284195
16 1 0.938383 2.63435e-05 0.846651 0 0.00735664 -0.00578308
17 1 0.667292 0.500026 0.203802 0 0.00737762 0.00579453
18 1 0.502977 0.166645 0.275225 0 -0.000728607 -0.00209618
19 1 0.417293 0.66664 0.203802 0 -0.00735283 0.00579643
20 1 0.42433 2.01694e-05 0.418082 0 -8.39233e-05 0.000585556
21 1 0.338654 0.500023 0.346651 0 -0.000402451 -0.000274658
22 1 0.174329 0.166648 0.418082 0 6.67572e-05 0.000585556
23 1 0.0886541 0.666642 0.346651 0 0.000440598 -0.000291824
24 1 0.0956708 2.49573e-05 0.560941 0 -7.43866e-05 -0.000270844
25 1 0.010003 0.500025 0.489511 0 -6.67572e-05 0.000265121
26 1 0.845672 0.166643 0.560941 0 6.10352e-05 -0.000265121
27 1 0.760004 0.666642 0.489511 0 7.24792e-05 0.00028801
28 1 0.495841 0.500073 0.0609404 0 0.596809 0.726873
29 1 0.245842 0.666593 0.0609403 0 -0.596775 0.726866
30 1 0.167293 0.500026 0.203802 0 0.00737572 0.00579071
31 1 0.917293 0.666641 0.203802 0 -0.00737572 0.00580025
32 1 0.838655 0.500024 0.346651 0 -0.000425339 -0.000293732
33 1 0.688382 0.166641 0.846652 0 -0.00736618 -0.00581932
34 1 0.609833 7.47473e-05 0.989512 0 0.596746 -0.726818
35 1 0.359833 0.166594 0.989513 0 -0.5968 -0.726885
36 1 0.767019 2.44315e-05 0.703801 0 -0.000432968 0.000289917
37 1 0.681344 0.50002 0.632371 0 -7.24792e-05 -0.000600815
38 1 0.517021 0.166643 0.703801 0 0.000408173 0.000293732
39 1 0.431345 0.666647 0.632371 0 7.62939e-05 -0.000585556
40 1 0.438382 2.63314e-05 0.846651 0 0.00737572 -0.00579453
41 1 0.352697 0.500023 0.775228 0 0.000707626 0.00210381
42 1 0.188382 0.166641 0.846651 0 -0.00736427 -0.00580025
43 1 0.102697 0.666644 0.775228 0 -0.000699997 0.00208855
44 1 0.109833 7.37033e-05 0.989512 0 0.596779 -0.726843
45 1 0.024103 0.500043 0.918087 0 0.0360489 -0.403936
46 1 0.588654 0.666643 0.346651 0 0.000436783 -0.000286102
47 1 0.510003 0.500025 0.489511 0 -6.29425e-05 0.000268936
48 1 0.260003 0.666642 0.489511 0 7.62939e-05 0.000268936
49 1 0.181345 0.500019 0.632371 0 -5.91278e-05 -0.000579834
50 1 0.931346 0.666647 0.63237 0 8.96454e-05 -0.000562668
51 1 0.852698 0.500022 0.775228 0 0.000717163 0.00209808
52 1 0.859831 0.166594 0.989513 0 -0.596756 -0.726887
53 1 0.774102 0.666624 0.918087 0 -0.036047 -0.404013
54 1 0.602697 0.666643 0.775228 0 -0.000701904 0.0021019
55 1 0.524103 0.500044 0.918087 0 0.0360527 -0.403965
56 1 0.274103 0.666624 0.918087 0 -0.0360432 -0.403959
ITEM: TIMESTEP
1
ITEM: NUMBER OF ATOMS
56
ITEM: BOX BOUNDS xy xz yz pp pp pp
-2.9273429512977600e+00 1.2203788340091705e+01 0.0000000000000000e+00
-8.4733366966247559e-03 5.5348814725875854e+00 -2.9086544513702393e+00
-2.9168844223022461e-02 1.9049128890037537e+01 0.0000000000000000e+00
ITEM: ATOMS id type xs ys zs fx fy fz
1 1 0.582264 0.000938269 0.135279 0 0.0920582 0.0721645
2 1 0.332265 0.165729 0.135279 0 -0.092062 0.072155
3 1 0.252974 4.11708e-05 0.27521 0 -0.00803757 0.0540657
4 1 0.00297334 0.166626 0.27521 0 0.00802994 0.0540752
5 1 0.92433 1.77643e-05 0.418086 0 -0.000717163 -0.00155258
6 1 0.0822652 0.000938636 0.135279 0 0.0920601 0.072155
7 1 0.997089 0.514884 0.0661815 0 0.150822 0.0623188
8 1 0.832266 0.165729 0.135279 0 -0.0920677 0.072155
9 1 0.74709 0.651783 0.0661818 0 -0.150816 0.0623207
10 1 0.752975 4.12174e-05 0.27521 0 -0.00803566 0.0540714
11 1 0.674329 0.166649 0.418086 0 0.000730515 -0.0015564
12 1 0.59567 2.30042e-05 0.56094 0 6.29425e-05 0.00166893
13 1 0.345671 0.166644 0.56094 0 -6.86646e-05 0.00166702
14 1 0.267021 1.34252e-05 0.703803 0 -0.00158501 -0.00519562
15 1 0.017021 0.166654 0.703803 0 0.00157356 -0.00519753
16 1 0.938373 0.000208918 0.846609 0 -0.00641251 -0.135777
17 1 0.667302 0.500209 0.203843 0 -0.00641251 0.13578
18 1 0.502974 0.166627 0.27521 0 0.00801849 0.0540695
19 1 0.417303 0.666457 0.203843 0 0.00642586 0.135799
20 1 0.424331 1.80866e-05 0.418086 0 -0.000732422 -0.0015564
21 1 0.338654 0.500013 0.346649 0 -0.00157928 0.00519753
22 1 0.17433 0.16665 0.418086 0 0.000722885 -0.0015564
23 1 0.0886536 0.666653 0.346649 0 0.00158691 0.0051899
24 1 0.0956704 2.31112e-05 0.56094 0 6.48499e-05 0.00167084
25 1 0.0100035 0.500023 0.489513 0 6.48499e-05 -0.00167084
26 1 0.845672 0.166644 0.56094 0 -6.86646e-05 0.00168419
27 1 0.760005 0.666644 0.489513 0 -5.14984e-05 -0.0016613
28 1 0.497089 0.514885 0.0661818 0 0.150829 0.0622902
29 1 0.247089 0.651782 0.0661817 0 -0.150826 0.0622997
30 1 0.167303 0.500209 0.203843 0 -0.00642204 0.135794
31 1 0.917303 0.666458 0.203843 0 0.00641632 0.135801
32 1 0.838654 0.500014 0.346649 0 -0.00159264 0.00519562
33 1 0.688372 0.166458 0.84661 0 0.00642014 -0.135818
34 1 0.608586 0.0148846 0.984271 0 0.150812 -0.0623131
35 1 0.358586 0.151782 0.984271 0 -0.150824 -0.062294
36 1 0.76702 1.36862e-05 0.703803 0 -0.00159645 -0.00518799
37 1 0.681343 0.500018 0.632367 0 -0.000730515 0.00154686
38 1 0.517021 0.166653 0.703804 0 0.00158119 -0.0051899
39 1 0.431344 0.666649 0.632367 0 0.000728607 0.00155258
40 1 0.438372 0.000209379 0.84661 0 -0.00642204 -0.135798
41 1 0.352701 0.500041 0.775243 0 -0.00803375 -0.0540676
42 1 0.188372 0.166458 0.846609 0 0.00641632 -0.135799
43 1 0.102701 0.666626 0.775243 0 0.00802994 -0.0540733
44 1 0.108586 0.0148843 0.984271 0 0.150829 -0.0623074
45 1 0.0234098 0.500938 0.915174 0 0.0920677 -0.0721474
46 1 0.588653 0.666653 0.346649 0 0.00159264 0.0051899
47 1 0.510004 0.500023 0.489513 0 6.86646e-05 -0.00166702
48 1 0.260004 0.666644 0.489513 0 -5.72205e-05 -0.00167274
49 1 0.181344 0.500017 0.632366 0 -0.000720978 0.0015583
50 1 0.931345 0.666649 0.632366 0 0.000734329 0.00156593
51 1 0.852702 0.50004 0.775243 0 -0.00802994 -0.0540714
52 1 0.858584 0.151784 0.984271 0 -0.150822 -0.0623207
53 1 0.773409 0.665729 0.915174 0 -0.0920677 -0.0721741
54 1 0.602701 0.666626 0.775243 0 0.00803566 -0.0540752
55 1 0.523409 0.500938 0.915174 0 0.0920715 -0.0721455
56 1 0.273409 0.665729 0.915174 0 -0.0920639 -0.0721569
ITEM: TIMESTEP
2
ITEM: NUMBER OF ATOMS
56
ITEM: BOX BOUNDS xy xz yz pp pp pp
-2.9273429512977600e+00 1.2203788340091705e+01 0.0000000000000000e+00
-8.4733366966247559e-03 5.5348814725875854e+00 -2.9086544513702393e+00
-2.9168844223022461e-02 1.9049128890037537e+01 0.0000000000000000e+00
ITEM: ATOMS id type xs ys zs fx fy fz
1 1 0.582702 0.00901617 0.137119 0 0.0356121 -0.0262146
2 1 0.332703 0.15765 0.137119 0 -0.0356064 -0.0261974
3 1 0.253302 -0.000664108 0.276588 0 -0.000465393 0.0518684
4 1 0.00330144 0.167331 0.276589 0 0.000465393 0.0518551
5 1 0.924321 -4.51652e-05 0.418047 0 -0.0045414 0.022953
6 1 0.0827029 0.0090167 0.137119 0 0.0355911 -0.0261993
7 1 0.997467 0.528118 0.0677704 0 -0.0149059 -0.0934181
8 1 0.832704 0.15765 0.137119 0 -0.035593 -0.0262012
9 1 0.747468 0.638549 0.0677707 0 0.0149059 -0.0934372
10 1 0.753303 -0.000663894 0.276588 0 -0.000469208 0.0518665
11 1 0.67432 0.166713 0.418047 0 0.00453758 0.0229473
12 1 0.59568 2.85272e-05 0.560982 0 -0.00178528 -0.00416565
13 1 0.345681 0.166638 0.560982 0 0.00178528 -0.00416946
14 1 0.266989 -0.000125656 0.703671 0 -0.00951385 -0.0667667
15 1 0.0169895 0.166792 0.703671 0 0.00951576 -0.0667648
16 1 0.937549 -0.000353765 0.843148 0 0.024641 -0.0111485
17 1 0.668126 0.499646 0.207305 0 0.0246334 0.0111485
18 1 0.503302 0.16733 0.276588 0 0.00047493 0.0518684
19 1 0.418127 0.667021 0.207306 0 -0.0246487 0.0111256
20 1 0.424321 -4.61818e-05 0.418047 0 -0.00452614 0.0229435
21 1 0.338685 0.499875 0.346782 0 -0.00951385 0.0667667
22 1 0.174321 0.166713 0.418047 0 0.0045414 0.0229397
23 1 0.0886851 0.666793 0.346782 0 0.00951004 0.0667744
24 1 0.0956805 2.88016e-05 0.560982 0 -0.00177956 -0.00417328
25 1 0.00999331 0.500029 0.489471 0 -0.00178146 0.00417519
26 1 0.845682 0.166638 0.560982 0 0.00179291 -0.00416946
27 1 0.759995 0.666639 0.489471 0 0.00177574 0.00415993
28 1 0.497467 0.528119 0.06777 0 -0.0149021 -0.0934048
29 1 0.247467 0.638547 0.0677701 0 0.0149097 -0.0934105
30 1 0.168127 0.499646 0.207305 0 0.0246487 0.0111351
31 1 0.918127 0.667021 0.207306 0 -0.0246468 0.0111294
32 1 0.838686 0.499874 0.346782 0 -0.00950623 0.066761
33 1 0.687548 0.167021 0.843147 0 -0.0246429 -0.0111141
34 1 0.608208 0.028118 0.982683 0 -0.0149021 0.0934181
35 1 0.358208 0.138548 0.982683 0 0.0149002 0.093401
36 1 0.766988 -0.000126399 0.703671 0 -0.00951385 -0.0667667
37 1 0.681352 0.499954 0.632406 0 -0.00453758 -0.0229492
38 1 0.51699 0.166792 0.703671 0 0.00951767 -0.0667782
39 1 0.431354 0.666713 0.632406 0 0.00452614 -0.0229378
40 1 0.437548 -0.000354141 0.843147 0 0.0246544 -0.0111275
41 1 0.352373 0.499336 0.773864 0 -0.0004673 -0.051857
42 1 0.187548 0.167021 0.843147 0 -0.0246429 -0.011137
43 1 0.102373 0.667331 0.773864 0 0.000465393 -0.0518475
44 1 0.108208 0.0281193 0.982683 0 -0.0149021 0.0934334
45 1 0.0229721 0.509017 0.913334 0 0.0356045 0.0262108
46 1 0.588685 0.666793 0.346782 0 0.00950813 0.0667686
47 1 0.509993 0.500029 0.489471 0 -0.00177956 0.00415421
48 1 0.259994 0.666639 0.489471 0 0.00177574 0.00416946
49 1 0.181353 0.499954 0.632406 0 -0.0045414 -0.022953
50 1 0.931354 0.666714 0.632406 0 0.00452614 -0.0229473
51 1 0.852374 0.499336 0.773864 0 -0.000453949 -0.0518684
52 1 0.858206 0.138549 0.982682 0 0.0149097 0.0934162
53 1 0.772971 0.65765 0.913334 0 -0.0356007 0.0262146
54 1 0.602372 0.667331 0.773864 0 0.000461578 -0.0518627
55 1 0.522972 0.509017 0.913335 0 0.0355854 0.0261803
56 1 0.272972 0.657651 0.913334 0 -0.0356064 0.0262032
ITEM: TIMESTEP
3
ITEM: NUMBER OF ATOMS
56
ITEM: BOX BOUNDS xy xz yz pp pp pp
-2.9273429512977600e+00 1.2203788340091705e+01 0.0000000000000000e+00
-8.4733366966247559e-03 5.5348814725875854e+00 -2.9086544513702393e+00
-2.9168844223022461e-02 1.9049128890037537e+01 0.0000000000000000e+00
ITEM: ATOMS id type xs ys zs fx fy fz
1 1 0.582697 0.0140794 0.137098 0 -0.0157032 0.0302887
2 1 0.332698 0.152588 0.137098 0 0.0157185 0.0302773
3 1 0.253667 -0.000908836 0.278124 0 0.00828171 0.00222588
4 1 0.00366675 0.167576 0.278124 0 -0.00828171 0.00221252
5 1 0.924437 -0.000402869 0.418533 0 -0.00498199 0.0353966
6 1 0.0826981 0.0140784 0.137098 0 -0.0157032 0.0302982
7 1 0.997097 0.530946 0.0662175 0 0.0158997 0.0183468
8 1 0.832699 0.152588 0.137098 0 0.0157032 0.0302792
9 1 0.747099 0.635721 0.0662174 0 -0.0159073 0.0183487
10 1 0.753668 -0.000908857 0.278124 0 0.00828934 0.00221062
11 1 0.674436 0.167071 0.418533 0 0.00498772 0.0354061
12 1 0.595661 -0.00010308 0.560904 0 -0.00702095 -0.0193138
13 1 0.345662 0.16677 0.560904 0 0.00702667 -0.0192986
14 1 0.266635 -0.000877175 0.702184 0 -0.00225067 -0.0332394
15 1 0.0166355 0.167544 0.702184 0 0.00225258 -0.0332336
16 1 0.937247 0.00131789 0.841875 0 0.026968 0.0477772
17 1 0.668428 0.501317 0.208578 0 0.026968 -0.0477772
18 1 0.503667 0.167575 0.278124 0 -0.0082798 0.00221252
19 1 0.418429 0.665349 0.208578 0 -0.0269737 -0.0477791
20 1 0.424437 -0.000403146 0.418532 0 -0.00498581 0.0353928
21 1 0.339039 0.499123 0.348269 0 -0.00225067 0.0332413
22 1 0.174436 0.167071 0.418532 0 0.00497818 0.0354061
23 1 0.0890391 0.667544 0.348269 0 0.0022583 0.0332451
24 1 0.095662 -0.000102329 0.560904 0 -0.0070343 -0.0192986
25 1 0.0100118 0.499898 0.489548 0 -0.00702858 0.0192947
26 1 0.845663 0.16677 0.560905 0 0.00702286 -0.0193062
27 1 0.760013 0.66677 0.489548 0 0.00702095 0.0193043
28 1 0.497097 0.530948 0.0662172 0 0.0159016 0.0183353
29 1 0.247097 0.63572 0.0662172 0 -0.0159111 0.0183487
30 1 0.168429 0.501318 0.208578 0 0.0269566 -0.0477753
31 1 0.918429 0.665349 0.208578 0 -0.0269623 -0.0477791
32 1 0.83904 0.499123 0.348269 0 -0.00225639 0.033247
33 1 0.687245 0.16535 0.841875 0 -0.0269642 0.0477753
34 1 0.608578 0.0309459 0.984236 0 0.0159073 -0.0183506
35 1 0.358577 0.13572 0.984235 0 -0.0159054 -0.0183411
36 1 0.766634 -0.000878217 0.702184 0 -0.00224686 -0.0332375
37 1 0.681236 0.499596 0.63192 0 -0.00497818 -0.0353985
38 1 0.516636 0.167544 0.702184 0 0.00224686 -0.0332432
39 1 0.431238 0.66707 0.631921 0 0.00498581 -0.0354023
40 1 0.437245 0.00131827 0.841875 0 0.0269527 0.0477715
41 1 0.352007 0.499091 0.772329 0 0.00828552 -0.00222588
42 1 0.187245 0.165349 0.841875 0 -0.0269661 0.0477886
43 1 0.102007 0.667575 0.772329 0 -0.00828171 -0.00222015
44 1 0.108578 0.0309476 0.984236 0 0.0159149 -0.0183544
45 1 0.022977 0.51408 0.913355 0 -0.0157051 -0.0302925
46 1 0.589039 0.667545 0.348269 0 0.00225067 0.033247
47 1 0.510012 0.499898 0.489548 0 -0.00702477 0.0193062
48 1 0.260012 0.66677 0.489548 0 0.00702858 0.0192909
49 1 0.181238 0.499596 0.63192 0 -0.0049839 -0.0353889
50 1 0.931239 0.667071 0.631921 0 0.00498772 -0.0354023
51 1 0.852008 0.499092 0.772329 0 0.00827408 -0.00221825
52 1 0.858575 0.135722 0.984235 0 -0.0159035 -0.0183353
53 1 0.772976 0.652588 0.913354 0 0.0157089 -0.0302887
54 1 0.602007 0.667576 0.772329 0 -0.00828552 -0.00221252
55 1 0.522976 0.514079 0.913355 0 -0.0157089 -0.0302811
56 1 0.272976 0.652588 0.913355 0 0.0157089 -0.0302811
ITEM: TIMESTEP
4
ITEM: NUMBER OF ATOMS
56
ITEM: BOX BOUNDS xy xz yz pp pp pp
-2.9273429512977600e+00 1.2203788340091705e+01 0.0000000000000000e+00
-8.4733366966247559e-03 5.5348814725875854e+00 -2.9086544513702393e+00
-2.9168844223022461e-02 1.9049128890037537e+01 0.0000000000000000e+00
ITEM: ATOMS id type xs ys zs fx fy fz
1 1 0.58285 0.0148607 0.137739 0 -0.00907516 0.00979042
2 1 0.332851 0.151808 0.137739 0 0.00905609 0.00980568
3 1 0.253818 -0.000392105 0.278759 0 0.00652122 0.00408173
4 1 0.00381791 0.167059 0.278759 0 -0.00652313 0.00410271
5 1 0.924661 -0.00090706 0.419477 0 -0.00334358 0.0071888
6 1 0.0828506 0.0148591 0.137739 0 -0.00907135 0.00978661
7 1 0.997049 0.533201 0.0660158 0 -0.000759125 -0.00568008
8 1 0.832851 0.151807 0.137739 0 0.00907898 0.00979614
9 1 0.747051 0.633466 0.0660156 0 0.000753403 -0.00567627
10 1 0.753819 -0.000391653 0.278759 0 0.00652122 0.00409126
11 1 0.67466 0.167576 0.419477 0 0.00333595 0.00718498
12 1 0.595556 -0.000670986 0.560461 0 -0.00718498 -0.00781822
13 1 0.345557 0.167338 0.560461 0 0.00717926 -0.00781822
14 1 0.26633 -0.00133084 0.700902 0 0.0055809 0.0169792
15 1 0.0163306 0.167997 0.700902 0 -0.00558472 0.0169697
16 1 0.937374 0.00394579 0.842411 0 0.00400734 -0.00478363
17 1 0.668301 0.503945 0.208042 0 0.00401688 0.00478554
18 1 0.503818 0.167059 0.278759 0 -0.00652885 0.00408363
19 1 0.418302 0.662721 0.208042 0 -0.00399017 0.00478745
20 1 0.424661 -0.000907334 0.419476 0 -0.00333214 0.00720024
21 1 0.339344 0.49867 0.349551 0 0.00558281 -0.0169811
22 1 0.174661 0.167575 0.419477 0 0.00334549 0.00719643
23 1 0.0893441 0.667998 0.349551 0 -0.00558662 -0.0169754
24 1 0.0955565 -0.000671036 0.560461 0 -0.00718117 -0.0078125
25 1 0.0101173 0.499329 0.489992 0 -0.00718307 0.00780869
26 1 0.845558 0.167339 0.560462 0 0.00717735 -0.00781441
27 1 0.760119 0.667338 0.489992 0 0.0071907 0.00781631
28 1 0.497049 0.533203 0.0660152 0 -0.000761032 -0.00567818
29 1 0.247049 0.633464 0.0660156 0 0.000761032 -0.00569344
30 1 0.168302 0.503945 0.208042 0 0.00401306 0.00478745
31 1 0.918302 0.662721 0.208042 0 -0.00402069 0.00478745
32 1 0.839345 0.498669 0.349551 0 0.00559044 -0.0169811
33 1 0.687372 0.162722 0.842411 0 -0.00401878 -0.00478935
34 1 0.608626 0.0332012 0.984437 0 -0.000761032 0.00567818
35 1 0.358625 0.133464 0.984437 0 0.000768661 0.00568962
36 1 0.766329 -0.00133171 0.700902 0 0.00559616 0.0169544
37 1 0.681012 0.499092 0.630976 0 -0.00333786 -0.00717926
38 1 0.516331 0.167997 0.700902 0 -0.00559044 0.0169811
39 1 0.431013 0.667574 0.630976 0 0.00334358 -0.00720215
40 1 0.437373 0.00394533 0.842411 0 0.00400543 -0.00478745
41 1 0.351856 0.499608 0.771694 0 0.00652122 -0.00408745
42 1 0.187373 0.162722 0.842411 0 -0.00400925 -0.00477982
43 1 0.101856 0.667059 0.771694 0 -0.00651932 -0.00408936
44 1 0.108626 0.0332037 0.984438 0 -0.000762939 0.00569153
45 1 0.0228245 0.514861 0.912714 0 -0.00906944 -0.00979424
46 1 0.589344 0.667998 0.349551 0 -0.00558281 -0.0169735
47 1 0.510117 0.49933 0.489991 0 -0.00718689 0.00781631
48 1 0.260117 0.667338 0.489991 0 0.00717926 0.00782204
49 1 0.181013 0.499092 0.630976 0 -0.00333405 -0.00719261
50 1 0.931014 0.667575 0.630976 0 0.00333786 -0.00718689
51 1 0.851857 0.499608 0.771694 0 0.00651741 -0.00408936
52 1 0.858623 0.133467 0.984437 0 0.00075531 0.00568962
53 1 0.772823 0.651807 0.912714 0 0.00908089 -0.00979805
54 1 0.601856 0.667058 0.771694 0 -0.00651932 -0.00409889
55 1 0.522824 0.514859 0.912714 0 -0.00906944 -0.00979614
56 1 0.272824 0.651807 0.912714 0 0.00906944 -0.00979614
ITEM: TIMESTEP
5
ITEM: NUMBER OF ATOMS
56
ITEM: BOX BOUNDS xy xz yz pp pp pp
-2.9273429512977600e+00 1.2203788340091705e+01 0.0000000000000000e+00
-8.4733366966247559e-03 5.5348814725875854e+00 -2.9086544513702393e+00
-2.9168844223022461e-02 1.9049128890037537e+01 0.0000000000000000e+00
ITEM: ATOMS id type xs ys zs fx fy fz
1 1 0.582909 0.0142915 0.137988 0 -0.00132179 0.00208473
2 1 0.33291 0.152375 0.137988 0 0.00132561 0.00208092
3 1 0.25385 0.00010249 0.278892 0 0.00354767 0.00513649
4 1 0.00384964 0.166564 0.278892 0 -0.00354767 0.00512695
5 1 0.924714 -0.00117964 0.419697 0 -0.00239944 -0.003479
6 1 0.0829098 0.0142901 0.137988 0 -0.00131989 0.00209618
7 1 0.997018 0.533327 0.065885 0 -0.00113869 -0.00339508
8 1 0.832911 0.152377 0.137988 0 0.00130844 0.00209618
9 1 0.74702 0.63334 0.0658849 0 0.00113487 -0.00340271
10 1 0.753851 0.000102979 0.278892 0 0.00354385 0.00513077
11 1 0.674713 0.167848 0.419697 0 0.00239754 -0.00348282
12 1 0.59551 -0.00121581 0.560268 0 -0.00190163 0.00845718
13 1 0.345511 0.167882 0.560268 0 0.00190926 0.00845337
14 1 0.266388 -0.000978676 0.701144 0 0.00172424 -0.000429153
15 1 0.016388 0.167645 0.701144 0 -0.00171852 -0.000419617
16 1 0.937361 0.00443312 0.842357 0 -0.00264168 0.00242996
17 1 0.668314 0.504433 0.208096 0 -0.00263596 -0.00242805
18 1 0.50385 0.166564 0.278892 0 -0.00353813 0.0051384
19 1 0.418315 0.662235 0.208096 0 0.00263405 -0.00242424
20 1 0.424714 -0.00117912 0.419697 0 -0.00240898 -0.00348091
21 1 0.339287 0.499022 0.349309 0 0.00172806 0.000427246
22 1 0.174714 0.167848 0.419697 0 0.00239372 -0.00348473
23 1 0.0892867 0.667646 0.34931 0 -0.00172234 0.000419617
24 1 0.0955106 -0.00121566 0.560268 0 -0.00190544 0.00845146
25 1 0.0101632 0.498785 0.490185 0 -0.00189972 -0.00844765
26 1 0.845512 0.167883 0.560268 0 0.00190163 0.00843811
27 1 0.760165 0.667883 0.490185 0 0.00189781 -0.00844193
28 1 0.497018 0.533329 0.0658845 0 -0.00113106 -0.0033989
29 1 0.247018 0.633338 0.0658845 0 0.00113297 -0.00338936
30 1 0.168315 0.504433 0.208096 0 -0.0026474 -0.00242996
31 1 0.918315 0.662233 0.208096 0 0.00264931 -0.00242805
32 1 0.839287 0.499022 0.349309 0 0.00172424 0.000436783
33 1 0.687359 0.162234 0.842357 0 0.00264931 0.00241661
34 1 0.608657 0.0333273 0.984568 0 -0.00113487 0.00341034
35 1 0.358656 0.133339 0.984568 0 0.00112724 0.00339508
36 1 0.766387 -0.000978476 0.701143 0 0.00171471 -0.000419617
37 1 0.680959 0.49882 0.630756 0 -0.00239563 0.00346375
38 1 0.516388 0.167644 0.701143 0 -0.00172234 -0.000425339
39 1 0.430961 0.667847 0.630756 0 0.00239754 0.0034771
40 1 0.43736 0.00443246 0.842357 0 -0.00263977 0.00242805
41 1 0.351824 0.500103 0.771561 0 0.00353813 -0.00513268
42 1 0.18736 0.162234 0.842357 0 0.00264549 0.00242424
43 1 0.101824 0.666564 0.771561 0 -0.00354004 -0.00513458
44 1 0.108657 0.0333297 0.984569 0 -0.00113297 0.00339699
45 1 0.0227653 0.514292 0.912466 0 -0.00131035 -0.00209427
46 1 0.589286 0.667646 0.349309 0 -0.00172234 0.000417709
47 1 0.510163 0.498785 0.490184 0 -0.00190163 -0.00844955
48 1 0.260163 0.667883 0.490185 0 0.00191307 -0.00844193
49 1 0.180961 0.49882 0.630756 0 -0.00240517 0.00347328
50 1 0.930962 0.667847 0.630756 0 0.00239372 0.00346947
51 1 0.851825 0.500103 0.771561 0 0.00354385 -0.00511932
52 1 0.858655 0.13334 0.984568 0 0.00113487 0.00339508
53 1 0.772764 0.652377 0.912465 0 0.00131607 -0.00208855
54 1 0.601824 0.666564 0.771561 0 -0.00354385 -0.00512505
55 1 0.522765 0.51429 0.912465 0 -0.00131989 -0.00209236
56 1 0.272765 0.652376 0.912465 0 0.00131989 -0.00208664
ITEM: TIMESTEP
6
ITEM: NUMBER OF ATOMS
56
ITEM: BOX BOUNDS xy xz yz pp pp pp
-2.9273429512977600e+00 1.2203788340091705e+01 0.0000000000000000e+00
-8.4733366966247559e-03 5.5348814725875854e+00 -2.9086544513702393e+00
-2.9168844223022461e-02 1.9049128890037537e+01 0.0000000000000000e+00
ITEM: ATOMS id type xs ys zs fx fy fz
1 1 0.582932 0.014071 0.138086 0 -0.000108719 0.000818253
2 1 0.332933 0.152596 0.138086 0 0.000120163 0.000806808
3 1 0.253883 0.00047397 0.279032 0 -0.00136375 -0.000459671
4 1 0.00388299 0.166193 0.279032 0 0.00136948 -0.000461578
5 1 0.924707 -0.00141768 0.419668 0 0.000703812 0.00207901
6 1 0.0829333 0.0140698 0.138087 0 -0.000114441 0.000808716
7 1 0.996994 0.533269 0.0657831 0 0.000988007 0.00053978
8 1 0.832934 0.152596 0.138086 0 0.000123978 0.000804901
9 1 0.746995 0.633398 0.0657829 0 -0.000997543 0.000547409
10 1 0.753884 0.000474181 0.279032 0 -0.00136185 -0.000459671
11 1 0.674706 0.168085 0.419668 0 -0.000696182 0.00208473
12 1 0.595544 -0.00147458 0.560411 0 -0.000389099 0.00130081
13 1 0.345545 0.168142 0.560411 0 0.000389099 0.0012989
14 1 0.266398 -0.000774292 0.701186 0 -0.000385284 0.000436783
15 1 0.0163981 0.167441 0.701186 0 0.000385284 0.000436783
16 1 0.937371 0.00433896 0.842398 0 -0.000526428 0.00169182
17 1 0.668304 0.50434 0.208055 0 -0.000551224 -0.00170135
18 1 0.503883 0.166193 0.279032 0 0.00136375 -0.000463486
19 1 0.418305 0.662329 0.208055 0 0.00053215 -0.00169563
20 1 0.424707 -0.00141771 0.419668 0 0.000703812 0.00208282
21 1 0.339277 0.499227 0.349267 0 -0.000389099 -0.000431061
22 1 0.174707 0.168085 0.419668 0 -0.000692368 0.00209045
23 1 0.0892766 0.667441 0.349267 0 0.000385284 -0.000436783
24 1 0.0955446 -0.00147467 0.560411 0 -0.000389099 0.00130653
25 1 0.0101292 0.498526 0.490042 0 -0.000396729 -0.00130463
26 1 0.845546 0.168142 0.560411 0 0.000396729 0.00131607
27 1 0.760131 0.668142 0.490042 0 0.000392914 -0.00131226
28 1 0.496994 0.533271 0.0657825 0 0.000997543 0.000547409
29 1 0.246994 0.633396 0.0657827 0 -0.000997543 0.000553131
30 1 0.168305 0.504338 0.208055 0 -0.000534058 -0.00169563
31 1 0.918305 0.662328 0.208055 0 0.00053215 -0.00169754
32 1 0.839277 0.499226 0.349267 0 -0.000391006 -0.000436783
33 1 0.687369 0.162328 0.842398 0 0.000537872 0.00170708
34 1 0.608681 0.0332691 0.98467 0 0.000995636 -0.000556946
35 1 0.358681 0.133397 0.98467 0 -0.000997543 -0.000553131
36 1 0.766397 -0.000774579 0.701185 0 -0.000385284 0.000434875
37 1 0.680966 0.498582 0.630784 0 0.000688553 -0.0020771
38 1 0.516398 0.16744 0.701186 0 0.000394821 0.000431061
39 1 0.430968 0.668085 0.630785 0 -0.00069809 -0.0020752
40 1 0.43737 0.0043384 0.842398 0 -0.000537872 0.00170517
41 1 0.351791 0.500473 0.771421 0 -0.00136566 0.000450134
42 1 0.18737 0.162329 0.842398 0 0.000535965 0.00170517
43 1 0.101791 0.666193 0.771421 0 0.00135803 0.000455856
44 1 0.108681 0.0332716 0.984671 0 0.000999451 -0.000556946
45 1 0.0227418 0.514072 0.912367 0 -0.000123978 -0.000797272
46 1 0.589276 0.667442 0.349267 0 0.000385284 -0.000429153
47 1 0.510129 0.498526 0.490042 0 -0.000396729 -0.00131035
48 1 0.260129 0.668142 0.490042 0 0.000392914 -0.00131989
49 1 0.180968 0.498582 0.630785 0 0.000696182 -0.00207901
50 1 0.930968 0.668085 0.630785 0 -0.000699997 -0.00207329
51 1 0.851792 0.500474 0.771421 0 -0.00136566 0.000450134
52 1 0.858679 0.133398 0.98467 0 -0.000993729 -0.000551224
53 1 0.77274 0.652597 0.912366 0 0.000114441 -0.000801086
54 1 0.601791 0.666193 0.771421 0 0.00135994 0.000453949
55 1 0.522741 0.51407 0.912366 0 -0.000120163 -0.000797272
56 1 0.272741 0.652596 0.912367 0 0.000125885 -0.000810623
ITEM: TIMESTEP
7
ITEM: NUMBER OF ATOMS
56
ITEM: BOX BOUNDS xy xz yz pp pp pp
-2.9273429512977600e+00 1.2203788340091705e+01 0.0000000000000000e+00
-8.4733366966247559e-03 5.5348814725875854e+00 -2.9086544513702393e+00
-2.9168844223022461e-02 1.9049128890037537e+01 0.0000000000000000e+00
ITEM: ATOMS id type xs ys zs fx fy fz
1 1 0.582939 0.0140408 0.138115 0 0.00021553 -0.000835419
2 1 0.33294 0.152627 0.138115 0 -0.000228882 -0.000833511
3 1 0.253884 0.00039952 0.279035 0 -0.000680923 0.000452042
4 1 0.00388364 0.166267 0.279035 0 0.000677109 0.000450134
5 1 0.924718 -0.00138376 0.419714 0 0.000221252 0.000427246
6 1 0.0829401 0.0140392 0.138115 0 0.000228882 -0.000846863
7 1 0.996995 0.533343 0.0657859 0 -2.86102e-05 -0.00141907
8 1 0.832941 0.152628 0.138115 0 -0.000240326 -0.000839233
9 1 0.746996 0.633322 0.0657859 0 4.00543e-05 -0.00142288
10 1 0.753885 0.000399858 0.279035 0 -0.000692368 0.000448227
11 1 0.674717 0.168052 0.419714 0 -0.000228882 0.000421524
12 1 0.595555 -0.00153123 0.560455 0 0.000165939 -2.67029e-05
13 1 0.345555 0.168198 0.560456 0 -0.000171661 -1.33514e-05
14 1 0.266401 -0.000785673 0.7012 0 -0.000461578 0.000947952
15 1 0.0164015 0.167452 0.7012 0 0.000450134 0.000944138
16 1 0.937382 0.00428717 0.842442 0 -9.91821e-05 -0.000434875
17 1 0.668293 0.504286 0.20801 0 -8.2016e-05 0.000442505
18 1 0.503884 0.166267 0.279035 0 0.000692368 0.000461578
19 1 0.418294 0.662381 0.208011 0 8.7738e-05 0.000440598
20 1 0.424718 -0.00138383 0.419714 0 0.000230789 0.000413895
21 1 0.339273 0.499215 0.349253 0 -0.000461578 -0.00094986
22 1 0.174718 0.168052 0.419714 0 -0.000230789 0.000415802
23 1 0.0892732 0.667453 0.349253 0 0.000463486 -0.000947952
24 1 0.0955552 -0.00153134 0.560456 0 0.000169754 -1.90735e-05
25 1 0.0101186 0.498469 0.489997 0 0.000181198 2.67029e-05
26 1 0.845556 0.168199 0.560456 0 -0.000179291 -2.09808e-05
27 1 0.76012 0.668199 0.489997 0 -0.000169754 3.24249e-05
28 1 0.496994 0.533346 0.0657855 0 -3.8147e-05 -0.00143051
29 1 0.246995 0.633321 0.0657859 0 4.3869e-05 -0.00143433
30 1 0.168294 0.504286 0.208011 0 -8.2016e-05 0.00043869
31 1 0.918294 0.66238 0.208011 0 9.72748e-05 0.00043869
32 1 0.839274 0.499214 0.349253 0 -0.000453949 -0.000955582
33 1 0.68738 0.162381 0.842442 0 8.58307e-05 -0.000444412
34 1 0.60868 0.0333442 0.984667 0 -4.00543e-05 0.00143433
35 1 0.35868 0.133321 0.984667 0 4.3869e-05 0.00143623
36 1 0.7664 -0.000786007 0.7012 0 -0.000461578 0.000957489
37 1 0.680955 0.498615 0.630738 0 0.000230789 -0.000429153
38 1 0.516402 0.167452 0.7012 0 0.000452042 0.000947952
39 1 0.430957 0.668051 0.630739 0 -0.000221252 -0.000425339
40 1 0.43738 0.00428568 0.842442 0 -8.58307e-05 -0.000455856
41 1 0.35179 0.500399 0.771418 0 -0.000680923 -0.00044632
42 1 0.18738 0.162381 0.842442 0 9.34601e-05 -0.000453949
43 1 0.10179 0.666267 0.771418 0 0.00069046 -0.000452042
44 1 0.10868 0.033347 0.984667 0 -4.76837e-05 0.00144958
45 1 0.0227351 0.514041 0.912338 0 0.000228882 0.00082016
46 1 0.589273 0.667453 0.349253 0 0.000455856 -0.000947952
47 1 0.510119 0.498469 0.489997 0 0.000177383 2.67029e-05
48 1 0.260119 0.668199 0.489997 0 -0.000179291 3.24249e-05
49 1 0.180957 0.498615 0.630738 0 0.000230789 -0.000421524
50 1 0.930958 0.668051 0.630739 0 -0.000219345 -0.000421524
51 1 0.851791 0.500399 0.771418 0 -0.000679016 -0.000453949
52 1 0.858678 0.133324 0.984667 0 3.62396e-05 0.0014267
53 1 0.772734 0.652628 0.912338 0 -0.000230789 0.000827789
54 1 0.60179 0.666267 0.771418 0 0.000684738 -0.00044632
55 1 0.522734 0.514039 0.912338 0 0.000234604 0.000831604
56 1 0.272734 0.652628 0.912338 0 -0.000234604 0.000835419
ITEM: TIMESTEP
8
ITEM: NUMBER OF ATOMS
56
ITEM: BOX BOUNDS xy xz yz pp pp pp
-2.9273429512977600e+00 1.2203788340091705e+01 0.0000000000000000e+00
-8.4733366966247559e-03 5.5348814725875854e+00 -2.9086544513702393e+00
-2.9168844223022461e-02 1.9049128890037537e+01 0.0000000000000000e+00
ITEM: ATOMS id type xs ys zs fx fy fz
1 1 0.582938 0.0140457 0.138108 0 9.53674e-05 0.000137329
2 1 0.332939 0.152622 0.138108 0 -9.34601e-05 0.000143051
3 1 0.253886 0.000340204 0.279044 0 4.3869e-05 8.01086e-05
4 1 0.00388564 0.166327 0.279043 0 -4.3869e-05 9.15527e-05
5 1 0.924722 -0.00136198 0.419734 0 -0.00019455 -0.00028801
6 1 0.0829384 0.0140448 0.138108 0 8.58307e-05 0.000152588
7 1 0.996989 0.533361 0.0657623 0 0.000301361 -1.90735e-05
8 1 0.832939 0.152622 0.138108 0 -8.96454e-05 0.000143051
9 1 0.74699 0.633305 0.0657623 0 -0.000303268 -2.28882e-05
10 1 0.753887 0.0003399 0.279043 0 4.57764e-05 8.7738e-05
11 1 0.674721 0.16803 0.419733 0 0.000192642 -0.00028038
12 1 0.595557 -0.00153603 0.560466 0 0.000314713 6.48499e-05
13 1 0.345558 0.168203 0.560467 0 -0.000314713 5.72205e-05
14 1 0.266406 -0.00081582 0.70122 0 -0.000211716 0.000133514
15 1 0.0164063 0.167482 0.70122 0 0.000217438 0.000137329
16 1 0.937382 0.00426798 0.842446 0 -2.86102e-05 0.000146866
17 1 0.668292 0.504267 0.208007 0 -3.05176e-05 -0.000137329
18 1 0.503886 0.166327 0.279044 0 -5.14984e-05 8.39233e-05
19 1 0.418294 0.662399 0.208007 0 3.05176e-05 -0.000141144
20 1 0.424723 -0.00136151 0.419733 0 -0.000202179 -0.000276566
21 1 0.339268 0.499185 0.349233 0 -0.000207901 -0.000135422
22 1 0.174722 0.16803 0.419734 0 0.000188828 -0.000295639
23 1 0.0892684 0.667483 0.349233 0 0.00021553 -0.000133514