ITEM: TIMESTEP
0
ITEM: NUMBER OF ATOMS
32
ITEM: BOX BOUNDS xy xz yz pp pp pp
3.0272657245757604e-03 6.3938049081754240e+00 0.0000000000000000e+00
-3.1320509042145829e-03 1.0770948291293216e+01 0.0000000000000000e+00
2.7435269680358088e-02 2.0697951192719628e+01 5.2473850649890030e+00
ITEM: ATOMS id type xs ys zs fx fy fz
1 1 0.999986 0.60955 0.0597554 3.36251e-07 0 0.0294214
2 1 0.499986 0.60955 0.0597554 1.96346e-08 0 0.0294213
3 1 0.249986 0.109552 0.0597529 -4.2349e-07 0 0.0294975
4 1 0.749986 0.109552 0.0597529 3.00683e-07 0 0.0294975
5 1 0.999986 0.372192 0.309761 1.67465e-07 0 1.96499e-05
6 1 0.249986 0.324967 0.18476 -3.30912e-07 0 0.000286804
7 1 0.749986 0.324967 0.18476 2.2079e-07 0 0.000287104
8 1 0.499986 0.372192 0.309761 -3.59279e-10 0 1.93316e-05
9 1 0.999986 0.824969 0.184758 8.73692e-08 0 0.000344987
10 1 0.249986 0.872192 0.309759 -3.47477e-07 0 9.74395e-05
11 1 0.499986 0.824969 0.184758 -2.87727e-07 0 0.000345103
12 1 0.749986 0.872192 0.309759 4.11862e-07 0 9.733e-05
13 1 0.999986 0.13482 0.559747 1.81724e-07 0 0.000131404
14 1 0.499986 0.13482 0.559747 -3.76093e-07 0 0.000131468
15 1 0.249986 0.634822 0.559747 -4.47578e-07 0 0.000118975
16 1 0.749986 0.634822 0.559747 3.10421e-07 0 0.0001185
17 1 0.249986 0.0876097 0.434755 -4.41591e-07 0 -0.000126713
18 1 0.749986 0.0876097 0.434755 5.11876e-07 0 -0.000127058
19 1 0.999986 0.587612 0.434755 1.44704e-07 0 -0.000142915
20 1 0.499986 0.587612 0.434755 -1.92667e-07 0 -0.00014265
21 1 0.999986 0.897453 0.809742 1.19234e-07 0 -0.000330395
22 1 0.249986 0.850235 0.684743 -3.96944e-07 0 -9.60164e-05
23 1 0.499986 0.897453 0.809742 -7.07147e-08 0 -0.000330398
24 1 0.749986 0.850235 0.684743 3.66493e-07 0 -9.58831e-05
25 1 0.999986 0.350235 0.684741 3.10052e-07 0 -3.5839e-05
26 1 0.249986 0.397455 0.809741 -4.75088e-07 0 -0.000299828
27 1 0.749986 0.397455 0.809741 2.35368e-07 0 -0.000299925
28 1 0.499986 0.350235 0.684741 -1.82074e-07 0 -3.55201e-05
29 1 0.249986 0.612869 0.934748 -3.225e-07 0 -0.0294613
30 1 0.749986 0.612869 0.934748 2.87003e-07 0 -0.0294613
31 1 0.999986 0.11287 0.934746 3.06288e-07 0 -0.029425
32 1 0.499986 0.11287 0.934746 2.24183e-08 0 -0.0294251
ITEM: TIMESTEP
9
ITEM: NUMBER OF ATOMS
32
ITEM: BOX BOUNDS xy xz yz pp pp pp
3.0272657245757604e-03 6.3938049081754240e+00 0.0000000000000000e+00
-3.1320509042145829e-03 1.0770948291293216e+01 0.0000000000000000e+00
2.7435269680358088e-02 2.0697951192719628e+01 5.2473850649890030e+00
ITEM: ATOMS id type xs ys zs fx fy fz
1 1 0.999986 0.609155 0.0601708 6.24932e-07 0 1.33179e-06
2 1 0.499986 0.609155 0.0601708 -1.20273e-06 0 2.8449e-07
3 1 0.249986 0.109155 0.0601707 3.38201e-07 0 1.80494e-06
4 1 0.749986 0.109155 0.0601707 5.89428e-08 0 1.75074e-06
5 1 0.999986 0.372028 0.309933 -6.64077e-07 0 6.57391e-07
6 1 0.249986 0.324705 0.185037 -8.61294e-08 0 4.11404e-06
7 1 0.749986 0.324705 0.185036 4.00522e-07 0 4.54503e-06
8 1 0.499986 0.372028 0.309933 3.56115e-07 0 6.80793e-07
9 1 0.999986 0.824705 0.185036 1.32102e-07 0 4.51893e-06
10 1 0.249986 0.872027 0.309933 -9.01345e-07 0 1.64142e-06
11 1 0.499986 0.824705 0.185036 -1.29432e-07 0 4.26154e-06
12 1 0.749986 0.872027 0.309933 8.67627e-07 0 1.92569e-06
13 1 0.999986 0.134874 0.559691 4.88071e-07 0 7.72382e-06
14 1 0.499986 0.134874 0.559691 -2.3591e-08 0 7.15663e-06
15 1 0.249986 0.634876 0.559691 1.93118e-07 0 5.27881e-06
16 1 0.749986 0.634876 0.559691 -3.2346e-07 0 5.37225e-06
17 1 0.249986 0.0875565 0.434811 8.04876e-07 0 -6.71868e-06
18 1 0.749986 0.0875565 0.434811 -6.08253e-07 0 -6.9562e-06
19 1 0.999986 0.587558 0.434811 -3.38681e-07 0 -5.95427e-06
20 1 0.499986 0.587558 0.434811 2.96975e-07 0 -5.63652e-06
21 1 0.999986 0.897717 0.809465 6.47498e-07 0 -7.26691e-06
22 1 0.249986 0.8504 0.684568 -4.47529e-07 0 -1.98521e-06
23 1 0.499986 0.897717 0.809465 -1.58401e-07 0 -7.41488e-06
24 1 0.749986 0.8504 0.684568 -7.35559e-07 0 -2.34268e-06
25 1 0.999986 0.350399 0.684568 7.48458e-07 0 -2.10795e-06
26 1 0.249986 0.397717 0.809465 7.74643e-09 0 -3.28145e-06
27 1 0.749986 0.397717 0.809465 -7.65169e-07 0 -3.26047e-06
28 1 0.499986 0.3504 0.684568 3.24159e-07 0 6.05469e-07
29 1 0.249986 0.613265 0.934331 5.47152e-07 0 1.16699e-07
30 1 0.749986 0.613265 0.934331 -9.82512e-07 0 -4.17e-07
31 1 0.999986 0.113264 0.934331 2.2113e-07 0 -4.36448e-07
32 1 0.499986 0.113264 0.934331 2.95906e-07 0 -1.47635e-07
