ITEM: TIMESTEP
0
ITEM: NUMBER OF ATOMS
48
ITEM: BOX BOUNDS xy xz yz pp pp pp
-3.8097597360610962e+00 8.5982638597488403e+00 2.5251476168632507e+00
-1.1132121086120605e-02 9.5149352550506592e+00 -3.8219659328460693e+00
-4.7147274017333984e-03 1.9521842360496521e+01 2.6099252700805664e-01
ITEM: ATOMS id type xs ys zs fx fy fz
1 1 0.941068 0.166857 0.0318549 0 0 1.14669
2 1 0.491778 0.0743484 0.0530456 0 0 0.12104
3 1 0.462662 0.124689 0.656895 0 0 0.000101089
4 1 0.617732 0.949019 0.927975 0 0 -1.14669
5 1 0.317393 0.157245 0.802828 0 0 0.00389671
6 1 0.0670225 0.041528 0.906785 0 0 -0.12104
7 1 0.766556 0.249629 0.781799 0 0 -0.0144196
8 1 0.850824 0.208292 0.407038 0 0 -0.000957489
9 1 0.0136492 0.032398 0.677762 0 0 0.00545311
10 1 0.707977 0.240917 0.552793 0 0 0.000957489
11 1 0.792245 0.199581 0.178031 0 0 0.0144196
12 1 0.545152 0.0834783 0.282068 0 0 -0.00545311
13 1 0.241408 0.291965 0.157002 0 0 -0.0038929
14 1 0.401846 0.116061 0.427856 0 0 -0.00239563
15 1 0.941068 0.50019 0.0318549 0 0 1.14669
16 1 0.491778 0.407682 0.0530456 0 0 0.12104
17 1 0.462662 0.458022 0.656895 0 0 0.000106812
18 1 0.617733 0.282353 0.927975 0 0 -1.14669
19 1 0.317393 0.490578 0.802828 0 0 0.0038929
20 1 0.0670224 0.374861 0.906785 0 0 -0.121044
21 1 0.766556 0.582962 0.781799 0 0 -0.0144234
22 1 0.156955 0.333148 0.531974 0 0 0.00239754
23 1 0.850824 0.541626 0.407038 0 0 -0.000959396
24 1 0.0136491 0.365731 0.677762 0 0 0.0054512
25 1 0.707977 0.574251 0.552793 0 0 0.000959396
26 1 0.0961387 0.324521 0.302936 0 0 -0.000102997
27 1 0.792245 0.532914 0.178031 0 0 0.0144215
28 1 0.545152 0.416812 0.282068 0 0 -0.0054512
29 1 0.241408 0.625298 0.157002 0 0 -0.00388908
30 1 0.401846 0.449395 0.427856 0 0 -0.002388
31 1 0.941068 0.833524 0.031855 0 0 1.14669
32 1 0.491778 0.741015 0.0530456 0 0 0.121037
33 1 0.462662 0.791356 0.656895 0 0 0.000104904
34 1 0.617733 0.615686 0.927975 0 0 -1.1467
35 1 0.317393 0.823911 0.802828 0 0 0.0038929
36 1 0.0670226 0.708195 0.906785 0 0 -0.121042
37 1 0.766556 0.916296 0.781799 0 0 -0.0144196
38 1 0.156955 0.666482 0.531974 0 0 0.00238991
39 1 0.850824 0.874959 0.407038 0 0 -0.000961304
40 1 0.0136491 0.699065 0.677762 0 0 0.00545311
41 1 0.707977 0.907584 0.552793 0 0 0.000961304
42 1 0.0961387 0.657854 0.302936 0 0 -0.000104904
43 1 0.792245 0.866247 0.178031 0 0 0.0144196
44 1 0.545152 0.750145 0.282068 0 0 -0.0054512
45 1 0.241408 0.958632 0.157002 0 0 -0.00389481
46 1 0.401846 0.782728 0.427856 0 0 -0.00239372
47 1 0.156955 0.999815 0.531974 0 0 0.00239372
48 1 0.0961387 0.991187 0.302936 0 0 -0.000101089
ITEM: TIMESTEP
1
ITEM: NUMBER OF ATOMS
48
ITEM: BOX BOUNDS xy xz yz pp pp pp
-3.8097597360610962e+00 8.5982638597488403e+00 2.5251476168632507e+00
-1.1132121086120605e-02 9.5149352550506592e+00 -3.8219659328460693e+00
-4.7147274017333984e-03 1.9521842360496521e+01 2.6099252700805664e-01
ITEM: ATOMS id type xs ys zs fx fy fz
1 1 0.944357 0.166713 0.0369762 0 0 0.440811
2 1 0.492125 0.0743332 0.0535862 0 0 -0.0348854
3 1 0.462662 0.124689 0.656895 0 0 -0.00413322
4 1 0.614443 0.949164 0.922854 0 0 -0.440813
5 1 0.317404 0.157244 0.802845 0 0 -0.0862827
6 1 0.0666753 0.0415433 0.906244 0 0 0.0348854
7 1 0.766515 0.249631 0.781735 0 0 -0.0796967
8 1 0.850821 0.208292 0.407033 0 0 -0.000413895
9 1 0.0136648 0.0323974 0.677787 0 0 0.00363159
10 1 0.707979 0.240917 0.552797 0 0 0.000413895
11 1 0.792286 0.199579 0.178096 0 0 0.0796909
12 1 0.545136 0.083479 0.282044 0 0 -0.00362587
13 1 0.241397 0.291966 0.156985 0 0 0.0862865
14 1 0.401839 0.116062 0.427846 0 0 -0.0013752
15 1 0.944357 0.500046 0.0369762 0 0 0.440811
16 1 0.492125 0.407667 0.0535862 0 0 -0.0348854
17 1 0.462662 0.458022 0.656895 0 0 -0.00413513
18 1 0.614443 0.282497 0.922854 0 0 -0.440815
19 1 0.317404 0.490577 0.802845 0 0 -0.0862808
20 1 0.0666752 0.374877 0.906244 0 0 0.0348835
21 1 0.766515 0.582964 0.781734 0 0 -0.0796928
22 1 0.156962 0.333148 0.531984 0 0 0.0013752
23 1 0.850821 0.541626 0.407033 0 0 -0.000425339
24 1 0.0136648 0.365731 0.677787 0 0 0.0036335
25 1 0.70798 0.574251 0.552797 0 0 0.000421524
26 1 0.0961384 0.324521 0.302935 0 0 0.00413132
27 1 0.792286 0.532912 0.178096 0 0 0.0796909
28 1 0.545136 0.416812 0.282044 0 0 -0.0036335
29 1 0.241397 0.625299 0.156985 0 0 0.086277
30 1 0.401839 0.449395 0.427846 0 0 -0.0013752
31 1 0.944358 0.83338 0.0369762 0 0 0.440813
32 1 0.492125 0.741 0.0535862 0 0 -0.0348835
33 1 0.462662 0.791356 0.656895 0 0 -0.00413513
34 1 0.614443 0.61583 0.922854 0 0 -0.440807
35 1 0.317404 0.823911 0.802845 0 0 -0.086277
36 1 0.0666753 0.70821 0.906244 0 0 0.0348854
37 1 0.766515 0.916298 0.781735 0 0 -0.0796947
38 1 0.156962 0.666481 0.531984 0 0 0.00137901
39 1 0.850821 0.874959 0.407033 0 0 -0.000419617
40 1 0.0136648 0.699064 0.677787 0 0 0.00362968
41 1 0.707979 0.907584 0.552797 0 0 0.000423431
42 1 0.0961384 0.657854 0.302935 0 0 0.00413895
43 1 0.792286 0.866245 0.178096 0 0 0.0796928
44 1 0.545136 0.750146 0.282044 0 0 -0.00362968
45 1 0.241397 0.958632 0.156985 0 0 0.0862827
46 1 0.401839 0.782728 0.427846 0 0 -0.00137901
47 1 0.156962 0.999815 0.531984 0 0 0.00137329
48 1 0.0961384 0.991187 0.302935 0 0 0.00413322
ITEM: TIMESTEP
2
ITEM: NUMBER OF ATOMS
48
ITEM: BOX BOUNDS xy xz yz pp pp pp
-3.8097597360610962e+00 8.5982638597488403e+00 2.5251476168632507e+00
-1.1132121086120605e-02 9.5149352550506592e+00 -3.8219659328460693e+00
-4.7147274017333984e-03 1.9521842360496521e+01 2.6099252700805664e-01
ITEM: ATOMS id type xs ys zs fx fy fz
1 1 0.947347 0.166582 0.0416302 0 0 -0.0518646
2 1 0.491889 0.0743435 0.0532178 0 0 -0.0897598
3 1 0.462634 0.12469 0.656851 0 0 -0.0294704
4 1 0.611454 0.949295 0.9182 0 0 0.0518684
5 1 0.316819 0.15727 0.801934 0 0 -0.118195
6 1 0.0669118 0.0415329 0.906612 0 0 0.0897617
7 1 0.765974 0.249655 0.780893 0 0 -0.0949173
8 1 0.850818 0.208292 0.407029 0 0 0.000358582
9 1 0.0136895 0.0323963 0.677825 0 0 -0.0230103
10 1 0.707982 0.240917 0.552801 0 0 -0.000356674
11 1 0.792826 0.199555 0.178937 0 0 0.0949211
12 1 0.545111 0.0834801 0.282005 0 0 0.0229988
13 1 0.241982 0.29194 0.157896 0 0 0.118196
14 1 0.40183 0.116062 0.427831 0 0 0.00126076
15 1 0.947347 0.499915 0.0416302 0 0 -0.0518608
16 1 0.491889 0.407677 0.0532179 0 0 -0.0897579
17 1 0.462634 0.458023 0.656851 0 0 -0.0294685
18 1 0.611454 0.282628 0.9182 0 0 0.0518646
19 1 0.316819 0.490603 0.801934 0 0 -0.118195
20 1 0.0669117 0.374866 0.906612 0 0 0.0897579
21 1 0.765974 0.582988 0.780893 0 0 -0.0949173
22 1 0.156971 0.333148 0.531999 0 0 -0.00126266
23 1 0.850818 0.541626 0.407029 0 0 0.000368118
24 1 0.0136894 0.36573 0.677825 0 0 -0.0230103
25 1 0.707982 0.57425 0.552801 0 0 -0.000366211
26 1 0.0961664 0.32452 0.302979 0 0 0.0294666
27 1 0.792826 0.532888 0.178937 0 0 0.0949192
28 1 0.545111 0.416813 0.282005 0 0 0.0230064
29 1 0.241982 0.625273 0.157896 0 0 0.118198
30 1 0.40183 0.449395 0.427831 0 0 0.00126076
31 1 0.947347 0.833248 0.0416302 0 0 -0.0518684
32 1 0.491889 0.74101 0.0532179 0 0 -0.0897598
33 1 0.462634 0.791357 0.656851 0 0 -0.0294647
34 1 0.611454 0.615961 0.9182 0 0 0.0518608
35 1 0.316819 0.823936 0.801934 0 0 -0.118196
36 1 0.0669119 0.7082 0.906612 0 0 0.0897522
37 1 0.765974 0.916321 0.780893 0 0 -0.0949173
38 1 0.156971 0.666481 0.531999 0 0 -0.00126648
39 1 0.850818 0.874959 0.407029 0 0 0.000368118
40 1 0.0136894 0.699063 0.677825 0 0 -0.0230026
41 1 0.707982 0.907584 0.552801 0 0 -0.000360489
42 1 0.0961665 0.657853 0.302979 0 0 0.0294571
43 1 0.792826 0.866222 0.178937 0 0 0.0949287
44 1 0.545111 0.750147 0.282005 0 0 0.0230026
45 1 0.241982 0.958607 0.157896 0 0 0.118198
46 1 0.40183 0.782729 0.427831 0 0 0.00126457
47 1 0.156971 0.999814 0.531999 0 0 -0.00125694
48 1 0.0961665 0.991186 0.302979 0 0 0.0294647
ITEM: TIMESTEP
3
ITEM: NUMBER OF ATOMS
48
ITEM: BOX BOUNDS xy xz yz pp pp pp
-3.8097597360610962e+00 8.5982638597488403e+00 2.5251476168632507e+00
-1.1132121086120605e-02 9.5149352550506592e+00 -3.8219659328460693e+00
-4.7147274017333984e-03 1.9521842360496521e+01 2.6099252700805664e-01
ITEM: ATOMS id type xs ys zs fx fy fz
1 1 0.947617 0.16657 0.0420504 0 0 0.00828743
2 1 0.490899 0.0743869 0.0516769 0 0 0.0165653
3 1 0.462323 0.124704 0.656366 0 0 -0.0568981
4 1 0.611184 0.949307 0.91778 0 0 -0.00828934
5 1 0.315442 0.15733 0.79979 0 0 0.0107498
6 1 0.0679017 0.0414895 0.908153 0 0 -0.0165577
7 1 0.764849 0.249704 0.779142 0 0 0.0146179
8 1 0.850821 0.208292 0.407033 0 0 0.0106983
9 1 0.0134587 0.0324064 0.677466 0 0 -0.0578136
10 1 0.707979 0.240917 0.552797 0 0 -0.0107002
11 1 0.793951 0.199506 0.180688 0 0 -0.0146179
12 1 0.545342 0.0834699 0.282364 0 0 0.0578175
13 1 0.243359 0.29188 0.16004 0 0 -0.0107574
14 1 0.40184 0.116062 0.427848 0 0 0.0136909
15 1 0.947617 0.499903 0.0420505 0 0 0.00827789
16 1 0.490899 0.40772 0.0516769 0 0 0.0165443
17 1 0.462322 0.458037 0.656366 0 0 -0.0569038
18 1 0.611184 0.28264 0.91778 0 0 -0.00828171
19 1 0.315442 0.490664 0.79979 0 0 0.0107479
20 1 0.0679015 0.374823 0.908153 0 0 -0.0165539
21 1 0.764849 0.583037 0.779142 0 0 0.0146141
22 1 0.156961 0.333148 0.531983 0 0 -0.0136871
23 1 0.850821 0.541626 0.407033 0 0 0.0107002
24 1 0.0134586 0.36574 0.677466 0 0 -0.0578098
25 1 0.707979 0.574251 0.552797 0 0 -0.0106964
26 1 0.096478 0.324506 0.303464 0 0 0.0569077
27 1 0.793951 0.532839 0.180688 0 0 -0.0146141
28 1 0.545342 0.416803 0.282364 0 0 0.0578213
29 1 0.243359 0.625213 0.16004 0 0 -0.0107498
30 1 0.40184 0.449395 0.427848 0 0 0.013689
31 1 0.947617 0.833237 0.0420504 0 0 0.00828934
32 1 0.490899 0.741054 0.0516769 0 0 0.0165596
33 1 0.462323 0.79137 0.656366 0 0 -0.0569019
34 1 0.611184 0.615973 0.91778 0 0 -0.00828743
35 1 0.315442 0.823997 0.79979 0 0 0.0107536
36 1 0.0679016 0.708156 0.908153 0 0 -0.0165482
37 1 0.764849 0.916371 0.779142 0 0 0.014616
38 1 0.156961 0.666481 0.531983 0 0 -0.0136814
39 1 0.850821 0.874959 0.407034 0 0 0.0106964
40 1 0.0134587 0.699073 0.677466 0 0 -0.0578213
41 1 0.707979 0.907584 0.552797 0 0 -0.0107079
42 1 0.096478 0.657839 0.303464 0 0 0.0569096
43 1 0.793951 0.866172 0.180688 0 0 -0.0146313
44 1 0.545342 0.750137 0.282364 0 0 0.0578175
45 1 0.243359 0.958546 0.16004 0 0 -0.0107651
46 1 0.40184 0.782728 0.427848 0 0 0.0136852
47 1 0.156961 0.999815 0.531983 0 0 -0.0136871
48 1 0.096478 0.991173 0.303464 0 0 0.0569057
ITEM: TIMESTEP
4
ITEM: NUMBER OF ATOMS
48
ITEM: BOX BOUNDS xy xz yz pp pp pp
-3.8097597360610962e+00 8.5982638597488403e+00 2.5251476168632507e+00
-1.1132121086120605e-02 9.5149352550506592e+00 -3.8219659328460693e+00
-4.7147274017333984e-03 1.9521842360496521e+01 2.6099252700805664e-01
ITEM: ATOMS id type xs ys zs fx fy fz
1 1 0.947824 0.166561 0.0423722 0 0 -0.0039444
2 1 0.490785 0.0743919 0.0514998 0 0 0.0261288
3 1 0.461434 0.124743 0.654984 0 0 0.0055809
4 1 0.610977 0.949316 0.917458 0 0 0.0039444
5 1 0.315115 0.157345 0.799281 0 0 -0.00300598
6 1 0.0680155 0.0414845 0.908331 0 0 -0.0261345
7 1 0.764662 0.249712 0.778851 0 0 -0.00906372
8 1 0.850969 0.208286 0.407264 0 0 0.0263119
9 1 0.0125859 0.0324447 0.676107 0 0 0.00344276
10 1 0.707832 0.240924 0.552567 0 0 -0.0263062
11 1 0.794138 0.199497 0.180979 0 0 0.00906563
12 1 0.546215 0.0834317 0.283723 0 0 -0.00343513
13 1 0.243686 0.291865 0.160549 0 0 0.00301361
14 1 0.402032 0.116053 0.428146 0 0 0.0283699
15 1 0.947823 0.499894 0.0423721 0 0 -0.00393486
16 1 0.490785 0.407725 0.0514994 0 0 0.0261383
17 1 0.461434 0.458076 0.654984 0 0 0.00559235
18 1 0.610977 0.282649 0.917458 0 0 0.00393486
19 1 0.315115 0.490678 0.799281 0 0 -0.00300217
20 1 0.0680154 0.374818 0.908331 0 0 -0.0261364
21 1 0.764662 0.583046 0.778851 0 0 -0.00906754
22 1 0.156769 0.333156 0.531685 0 0 -0.0283756
23 1 0.850969 0.541619 0.407264 0 0 0.0263062
24 1 0.012586 0.365778 0.676107 0 0 0.00343704
25 1 0.707832 0.574257 0.552567 0 0 -0.0263062
26 1 0.0973661 0.324467 0.304846 0 0 -0.00558472
27 1 0.794138 0.532831 0.180979 0 0 0.009058
28 1 0.546215 0.416765 0.283723 0 0 -0.00344658
29 1 0.243686 0.625199 0.160549 0 0 0.00300407
30 1 0.402032 0.449386 0.428146 0 0 0.0283699
31 1 0.947824 0.833228 0.0423722 0 0 -0.0039444
32 1 0.490785 0.741059 0.0514997 0 0 0.0261288
33 1 0.461435 0.791409 0.654984 0 0 0.00558281
34 1 0.610977 0.615982 0.917458 0 0 0.0039444
35 1 0.315115 0.824011 0.799281 0 0 -0.00301552
36 1 0.0680156 0.708151 0.908331 0 0 -0.0261326
37 1 0.764662 0.916379 0.778851 0 0 -0.00906181
38 1 0.156769 0.66649 0.531685 0 0 -0.0283756
39 1 0.850969 0.874953 0.407264 0 0 0.02631
40 1 0.0125859 0.699111 0.676107 0 0 0.00343895
41 1 0.707831 0.90759 0.552566 0 0 -0.0263023
42 1 0.0973661 0.6578 0.304846 0 0 -0.00558662
43 1 0.794138 0.866164 0.180979 0 0 0.00906563
44 1 0.546215 0.750098 0.283723 0 0 -0.00344276
45 1 0.243686 0.958532 0.160549 0 0 0.00302887
46 1 0.402032 0.78272 0.428146 0 0 0.0283756
47 1 0.156769 0.999823 0.531685 0 0 -0.0283756
48 1 0.0973661 0.991134 0.304846 0 0 -0.00559235
ITEM: TIMESTEP
5
ITEM: NUMBER OF ATOMS
48
ITEM: BOX BOUNDS xy xz yz pp pp pp
-3.8097597360610962e+00 8.5982638597488403e+00 2.5251476168632507e+00
-1.1132121086120605e-02 9.5149352550506592e+00 -3.8219659328460693e+00
-4.7147274017333984e-03 1.9521842360496521e+01 2.6099252700805664e-01
ITEM: ATOMS id type xs ys zs fx fy fz
1 1 0.947823 0.166561 0.0423711 0 0 -0.00493622
2 1 0.491019 0.0743817 0.0518638 0 0 0.0136395
3 1 0.461327 0.124747 0.654816 0 0 -0.00202179
4 1 0.610978 0.949316 0.917459 0 0 0.00493431
5 1 0.315026 0.157348 0.799143 0 0 -0.00316048
6 1 0.0677817 0.0414947 0.907966 0 0 -0.0136452
7 1 0.76454 0.249718 0.77866 0 0 -0.00764847
8 1 0.851253 0.208273 0.407705 0 0 -0.00736427
9 1 0.0124602 0.0324502 0.675911 0 0 -0.00209999
10 1 0.707548 0.240936 0.552126 0 0 0.00736427
11 1 0.794261 0.199492 0.18117 0 0 0.00765038
12 1 0.546341 0.0834261 0.283919 0 0 0.00209999
13 1 0.243775 0.291861 0.160687 0 0 0.00315857
14 1 0.402343 0.11604 0.42863 0 0 -0.00710678
15 1 0.947823 0.499894 0.0423711 0 0 -0.00493431
16 1 0.491019 0.407715 0.0518635 0 0 0.013649
17 1 0.461327 0.458081 0.654816 0 0 -0.0020256
18 1 0.610978 0.282649 0.917459 0 0 0.00493431
19 1 0.315026 0.490682 0.799143 0 0 -0.00316429
20 1 0.0677815 0.374828 0.907966 0 0 -0.0136433
21 1 0.76454 0.583051 0.77866 0 0 -0.00764656
22 1 0.156458 0.33317 0.5312 0 0 0.00710487
23 1 0.851253 0.541607 0.407705 0 0 -0.00736237
24 1 0.0124601 0.365784 0.675911 0 0 -0.00209808
25 1 0.707548 0.57427 0.552125 0 0 0.00736618
26 1 0.0974738 0.324462 0.305014 0 0 0.00202179
27 1 0.794261 0.532825 0.18117 0 0 0.00765228
28 1 0.546341 0.41676 0.283919 0 0 0.00209618
29 1 0.243775 0.625195 0.160687 0 0 0.00315666
30 1 0.402343 0.449373 0.42863 0 0 -0.00710297
31 1 0.947823 0.833228 0.0423711 0 0 -0.00493431
32 1 0.491019 0.741048 0.0518637 0 0 0.0136414
33 1 0.461327 0.791414 0.654816 0 0 -0.00201607
34 1 0.610978 0.615982 0.917459 0 0 0.00493813
35 1 0.315026 0.824015 0.799143 0 0 -0.00316238
36 1 0.0677818 0.708161 0.907967 0 0 -0.013649
37 1 0.76454 0.916384 0.77866 0 0 -0.00765038
38 1 0.156458 0.666503 0.5312 0 0 0.00710106
39 1 0.851253 0.87494 0.407705 0 0 -0.00737
40 1 0.0124601 0.699117 0.675911 0 0 -0.00209045
41 1 0.707548 0.907603 0.552125 0 0 0.0073719
42 1 0.0974738 0.657796 0.305014 0 0 0.00201988
43 1 0.794261 0.866159 0.18117 0 0 0.007658
44 1 0.54634 0.750093 0.283919 0 0 0.00209808
45 1 0.243775 0.958528 0.160687 0 0 0.00315475
46 1 0.402343 0.782706 0.42863 0 0 -0.00710487
47 1 0.156458 0.999837 0.5312 0 0 0.00710297
48 1 0.0974737 0.991129 0.305014 0 0 0.0020237
ITEM: TIMESTEP
6
ITEM: NUMBER OF ATOMS
48
ITEM: BOX BOUNDS xy xz yz pp pp pp
-3.8097597360610962e+00 8.5982638597488403e+00 2.5251476168632507e+00
-1.1132121086120605e-02 9.5149352550506592e+00 -3.8219659328460693e+00
-4.7147274017333984e-03 1.9521842360496521e+01 2.6099252700805664e-01
ITEM: ATOMS id type xs ys zs fx fy fz
1 1 0.947746 0.166564 0.0422518 0 0 0.00479126
2 1 0.491286 0.0743699 0.0522801 0 0 0.00157166
3 1 0.46127 0.12475 0.654727 0 0 -5.72205e-06
4 1 0.611054 0.949312 0.917578 0 0 -0.00479698
5 1 0.314955 0.157352 0.799033 0 0 -0.000108719
6 1 0.0675142 0.0415065 0.90755 0 0 -0.00156784
7 1 0.764392 0.249724 0.77843 0 0 -0.00028038
8 1 0.851206 0.208275 0.407633 0 0 0.00117683
9 1 0.0123975 0.0324529 0.675814 0 0 0.00097084
10 1 0.707594 0.240934 0.552197 0 0 -0.00118446
11 1 0.794409 0.199486 0.1814 0 0 0.000268936
12 1 0.546403 0.0834234 0.284017 0 0 -0.000976562
13 1 0.243845 0.291858 0.160797 0 0 0.000112534
14 1 0.402308 0.116041 0.428575 0 0 0.00060463
15 1 0.947746 0.499898 0.0422519 0 0 0.00478745
16 1 0.491286 0.407703 0.05228 0 0 0.00156784
17 1 0.46127 0.458083 0.654727 0 0 -9.53674e-06
18 1 0.611054 0.282645 0.917578 0 0 -0.00478363
19 1 0.314955 0.490685 0.799033 0 0 -0.000106812
20 1 0.0675141 0.37484 0.90755 0 0 -0.00156403
21 1 0.764392 0.583057 0.77843 0 0 -0.000263214
22 1 0.156493 0.333169 0.531255 0 0 -0.000600815
23 1 0.851206 0.541609 0.407633 0 0 0.00117493
24 1 0.0123975 0.365786 0.675814 0 0 0.000972748
25 1 0.707594 0.574267 0.552197 0 0 -0.00118065
26 1 0.097531 0.32446 0.305103 0 0 1.90735e-06
27 1 0.794409 0.532819 0.1814 0 0 0.000263214
28 1 0.546403 0.416757 0.284017 0 0 -0.000965118
29 1 0.243845 0.625192 0.160797 0 0 0.000112534
30 1 0.402308 0.449374 0.428575 0 0 0.000598907
31 1 0.947746 0.833231 0.0422518 0 0 0.00479126
32 1 0.491286 0.741037 0.05228 0 0 0.00157547
33 1 0.46127 0.791417 0.654727 0 0 -1.90735e-05
34 1 0.611054 0.615979 0.917578 0 0 -0.00479698
35 1 0.314955 0.824018 0.799033 0 0 -0.000104904
36 1 0.0675142 0.708173 0.90755 0 0 -0.00156403
37 1 0.764392 0.916391 0.77843 0 0 -0.000267029
38 1 0.156493 0.666502 0.531255 0 0 -0.000591278
39 1 0.851206 0.874942 0.407633 0 0 0.00118637
40 1 0.0123975 0.69912 0.675814 0 0 0.000965118
41 1 0.707594 0.907601 0.552198 0 0 -0.00118828
42 1 0.0975309 0.657793 0.305103 0 0 1.14441e-05
43 1 0.794409 0.866152 0.1814 0 0 0.000261307
44 1 0.546403 0.75009 0.284017 0 0 -0.000963211
45 1 0.243845 0.958525 0.160797 0 0 0.000104904
46 1 0.402308 0.782708 0.428575 0 0 0.000600815
47 1 0.156493 0.999835 0.531255 0 0 -0.000600815
48 1 0.0975309 0.991126 0.305103 0 0 1.71661e-05
ITEM: TIMESTEP
7
ITEM: NUMBER OF ATOMS
48
ITEM: BOX BOUNDS xy xz yz pp pp pp
-3.8097597360610962e+00 8.5982638597488403e+00 2.5251476168632507e+00
-1.1132121086120605e-02 9.5149352550506592e+00 -3.8219659328460693e+00
-4.7147274017333984e-03 1.9521842360496521e+01 2.6099252700805664e-01
ITEM: ATOMS id type xs ys zs fx fy fz
1 1 0.947775 0.166563 0.0422963 0 0 1.14441e-05
2 1 0.49131 0.0743689 0.0523164 0 0 -0.00063324
3 1 0.461267 0.12475 0.654723 0 0 -0.000261307
4 1 0.611026 0.949313 0.917534 0 0 -5.72205e-06
5 1 0.314951 0.157352 0.799027 0 0 -0.000858307
6 1 0.0674909 0.0415075 0.907514 0 0 0.000631332
7 1 0.764383 0.249724 0.778416 0 0 -0.000640869
8 1 0.851212 0.208275 0.407642 0 0 0.000463486
9 1 0.012401 0.0324528 0.675819 0 0 0.000183105
10 1 0.707589 0.240934 0.552188 0 0 -0.0004673
11 1 0.794417 0.199485 0.181414 0 0 0.000640869
12 1 0.5464 0.0834236 0.284011 0 0 -0.000190735
13 1 0.243849 0.291858 0.160803 0 0 0.000858307
14 1 0.40231 0.116041 0.428579 0 0 0.000204086
15 1 0.947775 0.499896 0.0422963 0 0 1.52588e-05
16 1 0.49131 0.407702 0.0523163 0 0 -0.000627518
17 1 0.461267 0.458083 0.654723 0 0 -0.000261307
18 1 0.611026 0.282647 0.917534 0 0 -1.90735e-05
19 1 0.314951 0.490685 0.799027 0 0 -0.000858307
20 1 0.0674908 0.374841 0.907514 0 0 0.000627518
21 1 0.764383 0.583058 0.778416 0 0 -0.000648499
22 1 0.156491 0.333169 0.531251 0 0 -0.000198364
23 1 0.851212 0.541609 0.407642 0 0 0.000465393
24 1 0.012401 0.365786 0.675819 0 0 0.000183105
25 1 0.707589 0.574268 0.552188 0 0 -0.0004673
26 1 0.0975337 0.32446 0.305107 0 0 0.000261307
27 1 0.794417 0.532819 0.181414 0 0 0.000650406
28 1 0.5464 0.416757 0.284011 0 0 -0.000185013
29 1 0.243849 0.625191 0.160803 0 0 0.000864029
30 1 0.40231 0.449374 0.428579 0 0 0.000202179
31 1 0.947775 0.83323 0.0422963 0 0 0
32 1 0.49131 0.741036 0.0523163 0 0 -0.000631332
33 1 0.461267 0.791417 0.654723 0 0 -0.000257492
34 1 0.611026 0.61598 0.917534 0 0 -1.33514e-05
35 1 0.314951 0.824018 0.799027 0 0 -0.000860214
36 1 0.067491 0.708174 0.907514 0 0 0.000631332
37 1 0.764383 0.916391 0.778416 0 0 -0.000644684
38 1 0.156491 0.666502 0.531251 0 0 -0.000204086
39 1 0.851212 0.874942 0.407642 0 0 0.000471115
40 1 0.012401 0.699119 0.675819 0 0 0.000183105
41 1 0.707589 0.907601 0.552189 0 0 -0.000469208
42 1 0.0975337 0.657793 0.305107 0 0 0.000263214
43 1 0.794418 0.866152 0.181414 0 0 0.000648499
44 1 0.5464 0.75009 0.284011 0 0 -0.00018692
45 1 0.243849 0.958525 0.160803 0 0 0.000869751
46 1 0.40231 0.782708 0.428579 0 0 0.000204086
47 1 0.156491 0.999835 0.531251 0 0 -0.000200272
48 1 0.0975337 0.991126 0.305107 0 0 0.000257492
ITEM: TIMESTEP
8
ITEM: NUMBER OF ATOMS
48
ITEM: BOX BOUNDS xy xz yz pp pp pp
-3.8097597360610962e+00 8.5982638597488403e+00 2.5251476168632507e+00
-1.1132121086120605e-02 9.5149352550506592e+00 -3.8219659328460693e+00
-4.7147274017333984e-03 1.9521842360496521e+01 2.6099252700805664e-01
ITEM: ATOMS id type xs ys zs fx fy fz
1 1 0.947778 0.166563 0.042301 0 0 0.000181198
2 1 0.491305 0.0743691 0.052309 0 0 -0.000102997
3 1 0.461264 0.12475 0.654718 0 0 -0.000545502
4 1 0.611023 0.949314 0.917529 0 0 -0.000188828
5 1 0.314941 0.157352 0.799011 0 0 7.62939e-05
6 1 0.0674956 0.0415073 0.907521 0 0 0.000102997
7 1 0.764375 0.249725 0.778403 0 0 7.82013e-05
8 1 0.851218 0.208275 0.407651 0 0 -0.00021553
9 1 0.0124035 0.0324527 0.675823 0 0 -0.000621796
10 1 0.707583 0.240935 0.552179 0 0 0.00022316
11 1 0.794426 0.199485 0.181427 0 0 -8.2016e-05
12 1 0.546397 0.0834237 0.284007 0 0 0.00063324
13 1 0.243859 0.291858 0.160819 0 0 -7.82013e-05
14 1 0.402312 0.116041 0.428583 0 0 -0.000177383
15 1 0.947778 0.499896 0.0423011 0 0 0.000181198
16 1 0.491305 0.407703 0.052309 0 0 -0.000104904
17 1 0.461264 0.458084 0.654718 0 0 -0.000537872
18 1 0.611023 0.282647 0.917529 0 0 -0.000169754
19 1 0.314941 0.490685 0.799011 0 0 7.82013e-05
20 1 0.0674955 0.374841 0.907521 0 0 0.000104904
21 1 0.764375 0.583058 0.778403 0 0 8.01086e-05
22 1 0.156488 0.333169 0.531247 0 0 0.000173569
23 1 0.851218 0.541608 0.407651 0 0 -0.000221252
24 1 0.0124034 0.365786 0.675823 0 0 -0.000629425
25 1 0.707583 0.574268 0.552179 0 0 0.000221252
26 1 0.0975369 0.324459 0.305112 0 0 0.000535965
27 1 0.794426 0.532818 0.181427 0 0 -8.39233e-05
28 1 0.546397 0.416757 0.284007 0 0 0.000621796
29 1 0.243859 0.625191 0.160819 0 0 -8.39233e-05
30 1 0.402312 0.449374 0.428583 0 0 -0.000173569
31 1 0.947778 0.83323 0.0423009 0 0 0.000200272
32 1 0.491305 0.741036 0.052309 0 0 -0.000102997
33 1 0.461264 0.791417 0.654718 0 0 -0.000553131
34 1 0.611023 0.61598 0.917529 0 0 -0.000179291
35 1 0.314941 0.824019 0.799011 0 0 7.82013e-05
36 1 0.0674957 0.708174 0.907521 0 0 0.000101089
37 1 0.764375 0.916391 0.778403 0 0 8.01086e-05
38 1 0.156488 0.666502 0.531247 0 0 0.000179291
39 1 0.851218 0.874942 0.407651 0 0 -0.000226974
40 1 0.0124034 0.699119 0.675823 0 0 -0.000621796
41 1 0.707583 0.907601 0.552179 0 0 0.000225067
42 1 0.097537 0.657793 0.305112 0 0 0.000543594
43 1 0.794426 0.866152 0.181427 0 0 -8.96454e-05
44 1 0.546397 0.75009 0.284007 0 0 0.000629425
45 1 0.243859 0.958524 0.160819 0 0 -8.01086e-05
46 1 0.402312 0.782708 0.428583 0 0 -0.000177383
47 1 0.156488 0.999835 0.531247 0 0 0.000169754
48 1 0.0975369 0.991126 0.305112 0 0 0.000549316
ITEM: TIMESTEP
9
ITEM: NUMBER OF ATOMS
48
ITEM: BOX BOUNDS xy xz yz pp pp pp
-3.8097597360610962e+00 8.5982638597488403e+00 2.5251476168632507e+00
-1.1132121086120605e-02 9.5149352550506592e+00 -3.8219659328460693e+00
-4.7147274017333984e-03 1.9521842360496521e+01 2.6099252700805664e-01
ITEM: ATOMS id type xs ys zs fx fy fz
1 1 0.947781 0.166563 0.0423065 0 0 -3.8147e-05
2 1 0.491301 0.0743693 0.0523036 0 0 0.000143051
3 1 0.461256 0.124751 0.654706 0 0 -2.67029e-05
4 1 0.611019 0.949314 0.917524 0 0 3.62396e-05
5 1 0.314937 0.157352 0.799005 0 0 0.0001297
6 1 0.0674991 0.0415071 0.907527 0 0 -0.000146866
7 1 0.764372 0.249725 0.778398 0 0 8.58307e-05
8 1 0.851218 0.208275 0.407652 0 0 -5.72205e-06
9 1 0.0123979 0.0324529 0.675814 0 0 -0.000286102
10 1 0.707582 0.240935 0.552179 0 0 7.62939e-06
11 1 0.794429 0.199485 0.181432 0 0 -7.43866e-05
12 1 0.546403 0.0834234 0.284016 0 0 0.000282288
13 1 0.243863 0.291857 0.160825 0 0 -0.000131607
14 1 0.402312 0.116041 0.428582 0 0 0.000202179
15 1 0.947781 0.499896 0.0423066 0 0 -4.00543e-05
16 1 0.491301 0.407703 0.0523036 0 0 0.000144958
17 1 0.461256 0.458084 0.654706 0 0 -3.05176e-05
18 1 0.611019 0.282647 0.917524 0 0 3.43323e-05
19 1 0.314937 0.490686 0.799005 0 0 0.000127792
20 1 0.067499 0.37484 0.907527 0 0 -0.000141144
21 1 0.764372 0.583058 0.778398 0 0 8.39233e-05
22 1 0.156489 0.333169 0.531248 0 0 -0.000211716
23 1 0.851218 0.541608 0.407652 0 0 -1.90735e-06
24 1 0.0123978 0.365786 0.675814 0 0 -0.000276566
25 1 0.707582 0.574268 0.552179 0 0 3.8147e-06
26 1 0.0975443 0.324459 0.305124 0 0 3.8147e-05
27 1 0.794429 0.532818 0.181432 0 0 -8.2016e-05
28 1 0.546403 0.416757 0.284016 0 0 0.000284195
29 1 0.243863 0.625191 0.160825 0 0 -0.000125885
30 1 0.402312 0.449374 0.428582 0 0 0.000204086
31 1 0.947781 0.833229 0.0423065 0 0 -3.8147e-05
32 1 0.491301 0.741036 0.0523036 0 0 0.000146866
33 1 0.461256 0.791417 0.654706 0 0 -2.86102e-05
34 1 0.611019 0.61598 0.917524 0 0 3.24249e-05
35 1 0.314937 0.824019 0.799005 0 0 0.000127792
36 1 0.0674991 0.708174 0.907527 0 0 -0.000144958
37 1 0.764372 0.916392 0.778398 0 0 8.2016e-05
38 1 0.156489 0.666502 0.531248 0 0 -0.000211716
39 1 0.851218 0.874942 0.407652 0 0 -5.72205e-06
40 1 0.0123979 0.69912 0.675814 0 0 -0.000286102
41 1 0.707582 0.907601 0.552179 0 0 5.72205e-06
42 1 0.0975445 0.657792 0.305124 0 0 3.05176e-05
43 1 0.794429 0.866151 0.181432 0 0 -8.2016e-05
44 1 0.546403 0.75009 0.284016 0 0 0.000278473
45 1 0.243864 0.958524 0.160826 0 0 -0.000133514
46 1 0.402312 0.782708 0.428582 0 0 0.000209808
47 1 0.156489 0.999835 0.531248 0 0 -0.00019455
48 1 0.0975445 0.991126 0.305124 0 0 2.28882e-05
ITEM: TIMESTEP
10
ITEM: NUMBER OF ATOMS
48
ITEM: BOX BOUNDS xy xz yz pp pp pp
-3.8097597360610962e+00 8.5982638597488403e+00 2.5251476168632507e+00
-1.1132121086120605e-02 9.5149352550506592e+00 -3.8219659328460693e+00
-4.7147274017333984e-03 1.9521842360496521e+01 2.6099252700805664e-01
ITEM: ATOMS id type xs ys zs fx fy fz
1 1 0.947781 0.166563 0.042306 0 0 -7.24792e-05
2 1 0.491303 0.0743692 0.0523058 0 0 2.47955e-05
3 1 0.461256 0.124751 0.654705 0 0 3.8147e-06
4 1 0.611019 0.949314 0.917524 0 0 7.62939e-05
5 1 0.314938 0.157352 0.799007 0 0 -8.58307e-05
6 1 0.0674976 0.0415072 0.907524 0 0 -2.28882e-05
7 1 0.764373 0.249725 0.7784 0 0 -8.01086e-05
8 1 0.851218 0.208275 0.407652 0 0 2.67029e-05
9 1 0.0123949 0.032453 0.67581 0 0 -9.53674e-06
10 1 0.707582 0.240935 0.552179 0 0 -2.67029e-05
11 1 0.794428 0.199485 0.181431 0 0 7.05719e-05
12 1 0.546406 0.0834233 0.284021 0 0 1.52588e-05
13 1 0.243862 0.291858 0.160823 0 0 8.2016e-05
14 1 0.402314 0.116041 0.428585 0 0 4.00543e-05
15 1 0.947781 0.499896 0.0423061 0 0 -7.82013e-05
16 1 0.491303 0.407703 0.0523058 0 0 2.67029e-05
17 1 0.461256 0.458084 0.654706 0 0 0
18 1 0.611019 0.282647 0.917524 0 0 7.43866e-05
19 1 0.314938 0.490686 0.799007 0 0 -7.82013e-05
20 1 0.0674976 0.37484 0.907524 0 0 -2.47955e-05
21 1 0.764373 0.583058 0.7784 0 0 -7.24792e-05
22 1 0.156487 0.333169 0.531245 0 0 -3.24249e-05
23 1 0.851218 0.541608 0.407652 0 0 1.90735e-05
24 1 0.0123949 0.365786 0.67581 0 0 -1.33514e-05
25 1 0.707582 0.574268 0.552179 0 0 -2.28882e-05
26 1 0.0975448 0.324459 0.305125 0 0 -7.62939e-06
27 1 0.794428 0.532818 0.181431 0 0 7.43866e-05
28 1 0.546406 0.416757 0.284021 0 0 1.90735e-05
29 1 0.243862 0.625191 0.160824 0 0 8.58307e-05
30 1 0.402314 0.449374 0.428585 0 0 3.43323e-05
31 1 0.947781 0.833229 0.042306 0 0 -7.43866e-05
32 1 0.491303 0.741036 0.0523059 0 0 1.90735e-05
33 1 0.461256 0.791417 0.654705 0 0 7.62939e-06
34 1 0.611019 0.61598 0.917524 0 0 8.01086e-05
35 1 0.314938 0.824019 0.799007 0 0 -7.82013e-05
36 1 0.0674977 0.708174 0.907524 0 0 -2.47955e-05
37 1 0.764373 0.916392 0.7784 0 0 -7.82013e-05
38 1 0.156487 0.666502 0.531245 0 0 -3.43323e-05
39 1 0.851218 0.874942 0.407652 0 0 2.47955e-05
40 1 0.0123949 0.69912 0.67581 0 0 -9.53674e-06
41 1 0.707582 0.907601 0.552179 0 0 -2.47955e-05
42 1 0.0975449 0.657792 0.305125 0 0 -1.14441e-05
43 1 0.794428 0.866151 0.18143 0 0 7.82013e-05
44 1 0.546406 0.75009 0.284021 0 0 1.71661e-05
45 1 0.243862 0.958524 0.160824 0 0 7.82013e-05
46 1 0.402314 0.782708 0.428585 0 0 3.24249e-05
47 1 0.156487 0.999835 0.531245 0 0 -4.76837e-05
48 1 0.0975448 0.991126 0.305125 0 0 0
ITEM: TIMESTEP
11
ITEM: NUMBER OF ATOMS
48
ITEM: BOX BOUNDS xy xz yz pp pp pp
-3.8097597360610962e+00 8.5982638597488403e+00 2.5251476168632507e+00
-1.1132121086120605e-02 9.5149352550506592e+00 -3.8219659328460693e+00
-4.7147274017333984e-03 1.9521842360496521e+01 2.6099252700805664e-01
ITEM: ATOMS id type xs ys zs fx fy fz
1 1 0.947781 0.166563 0.042306 0 0 -7.24792e-05
2 1 0.491303 0.0743692 0.0523058 0 0 2.47955e-05
3 1 0.461256 0.124751 0.654705 0 0 3.8147e-06
4 1 0.611019 0.949314 0.917524 0 0 7.62939e-05
5 1 0.314938 0.157352 0.799007 0 0 -8.58307e-05
6 1 0.0674976 0.0415072 0.907524 0 0 -2.28882e-05
7 1 0.764373 0.249725 0.7784 0 0 -8.01086e-05
8 1 0.851218 0.208275 0.407652 0 0 2.67029e-05
9 1 0.0123949 0.032453 0.67581 0 0 -9.53674e-06
10 1 0.707582 0.240935 0.552179 0 0 -2.67029e-05
11 1 0.794428 0.199485 0.181431 0 0 7.05719e-05
12 1 0.546406 0.0834233 0.284021 0 0 1.52588e-05
13 1 0.243862 0.291858 0.160823 0 0 8.2016e-05
14 1 0.402314 0.116041 0.428585 0 0 4.00543e-05
15 1 0.947781 0.499896 0.0423061 0 0 -7.82013e-05
16 1 0.491303 0.407703 0.0523058 0 0 2.67029e-05
17 1 0.461256 0.458084 0.654706 0 0 0
18 1 0.611019 0.282647 0.917524 0 0 7.43866e-05
19 1 0.314938 0.490686 0.799007 0 0 -7.82013e-05
20 1 0.0674976 0.37484 0.907524 0 0 -2.47955e-05
21 1 0.764373 0.583058 0.7784 0 0 -7.24792e-05
22 1 0.156487 0.333169 0.531245 0 0 -3.24249e-05