LAMMPS data file via write_data, version 4 May 2022, timestep = 343

48 atoms
3 atom types

-0.012037098407745361 6.097359538078308 xlo xhi
-0.009497344493865967 9.252307951450348 ylo yhi
-0.028691649436950684 19.54581928253174 zlo zhi
2.509420692920685 -4.0389998644590368 0.07130426168441772 xy xz yz
Masses

1 24.305
2 65.40900000000001
3 88.90600000000001

Atoms # atomic

1 1 6.0375280566045335 1.5397812196522713 0.5981199417947297 0 0 0
2 1 2.9729134260048866 0.6784741468296698 1.0050440313225166 0 0 0
3 1 0.44720726309928027 1.19798914865904 12.832210817511097 0 0 0
4 1 2.375252225493786 8.844695147334367 18.132701873432207 0 0 0
5 1 5.1520756014163345 1.5032985599955153 15.685819766885778 0 0 0
6 1 2.9304451923634685 0.4441967828399407 17.72577740749163 0 0 0
7 1 2.107263138241893 2.364631667828805 15.278970231394966 0 0 0
8 1 4.071842926425162 1.9525775255974565 7.938705599700132 0 0 0
9 1 3.4920302769158695 0.33656734668903504 13.238948546260438 0 0 0
10 1 2.6679923934513337 2.2573613412009035 10.79211470927385 0 0 0
11 1 4.632571284038104 1.8453065710387488 3.451852738616219 0 0 0
12 1 2.4113312882056004 0.7861003875368433 5.491874915758665 0 0 0
13 1 1.587759276179475 2.7066393084971314 3.045004216728187 0 0 0
14 1 1.007268043001859 1.091060394709761 8.345347202404673 0 0 0
15 1 6.8740030517684305 4.627049997012514 0.5981218343512549 0 0 0
16 1 3.809387632377129 3.765742060627041 1.0050448513424954 0 0 0
17 1 1.2836807534611978 4.28525713329654 12.832208414584976 0 0 0
18 1 0.7023038552535683 2.670158465356203 18.132702453413334 0 0 0
19 1 5.988549090959166 4.590568870013618 15.685817793492323 0 0 0
20 1 3.766919673164125 3.531465265663489 17.725776896497006 0 0 0
21 1 2.943736432451913 5.451900350015712 15.278971031449212 0 0 0
22 1 5.7325690687301805 3.1188768548499857 10.385476836343805 0 0 0
23 1 4.908317616349243 5.0398456099849716 7.938708340749511 0 0 0
24 1 4.328504212940844 3.4238355526498148 13.238947995548923 0 0 0
25 1 3.504464551592541 5.3446265899808845 10.792115275917503 0 0 0
26 1 6.292627529277358 3.0119480745402205 5.8986123725147985 0 0 0
27 1 5.469044630813917 4.932574335093363 3.4518522049208786 0 0 0
28 1 3.247804706124189 3.873369679450044 5.491874078326776 0 0 0
29 1 2.424232632515773 5.793907783732283 3.0450051094789385 0 0 0
30 1 1.8437395935314504 4.178329713309928 8.345346820543005 0 0 0
31 1 7.71047621224138 7.714318048011519 0.5981223443702955 0 0 0
32 1 4.64586101232178 6.8530108704811825 1.0050458929246793 0 0 0
33 1 2.1201531432521055 7.372525614873762 12.832208458978151 0 0 0
34 1 1.5387774077295018 5.757427272084882 18.13270237227197 0 0 0
35 1 6.825022936665183 7.677835701714824 15.685817239459752 0 0 0
36 1 4.603392458381307 6.6187337685989664 17.72577793534798 0 0 0
37 1 3.7802101653171762 8.53916736288612 15.278970504947061 0 0 0
38 1 6.569041501912833 6.20614644519414 10.385476721034097 0 0 0
39 1 5.744789815215212 8.127113239954559 7.938708175750392 0 0 0
40 1 5.164975800211444 6.511105093618018 13.238946927675421 0 0 0
41 1 4.340936830937513 8.431897041324934 10.792114853719644 0 0 0
42 1 7.129100212172351 6.099216261764848 5.898612559366123 0 0 0
43 1 6.30551905337282 8.019843370751081 3.4518529438214474 0 0 0
44 1 4.084278619839669 6.960637814501277 5.491875425073362 0 0 0
45 1 3.260707061863903 8.881176294836285 3.0450061120130547 0 0 0
46 1 2.6802144368198917 7.2655982833346915 8.345347131026074 0 0 0
47 1 4.896092788887331 0.03160955397114206 10.3854765400261 0 1 0
48 1 7.965574937921328 9.186484324233696 5.8986131385968505 0 0 0

Velocities

1 0 0 0
2 0 0 0
3 0 0 0
4 0 0 0
5 0 0 0
6 0 0 0
7 0 0 0
8 0 0 0
9 0 0 0
10 0 0 0
11 0 0 0
12 0 0 0
13 0 0 0
14 0 0 0
15 0 0 0
16 0 0 0
17 0 0 0
18 0 0 0
19 0 0 0
20 0 0 0
21 0 0 0
22 0 0 0
23 0 0 0
24 0 0 0
25 0 0 0
26 0 0 0
27 0 0 0
28 0 0 0
29 0 0 0
30 0 0 0
31 0 0 0
32 0 0 0
33 0 0 0
34 0 0 0
35 0 0 0
36 0 0 0
37 0 0 0
38 0 0 0
39 0 0 0
40 0 0 0
41 0 0 0
42 0 0 0
43 0 0 0
44 0 0 0
45 0 0 0
46 0 0 0
47 0 0 0
48 0 0 0
