ITEM: TIMESTEP
0
ITEM: NUMBER OF ATOMS
32
ITEM: BOX BOUNDS xy xz yz pp pp pp
-4.7826766967773438e-03 6.5593149662017822e+00 1.5998327732086182e-01
-3.7661075592041016e-02 2.2120539069175720e+01 0.0000000000000000e+00
-1.1393904685974121e-02 5.1938598752021790e+00 0.0000000000000000e+00
ITEM: ATOMS id type xs ys zs fx fy fz
1 1 0.0108063 0.336542 0.593597 0 0.000837326 5.72205e-06
2 1 0.510807 0.336542 0.593597 0 0.000833511 5.72205e-06
3 1 0.261844 0.295033 0.0935973 0 -0.000972748 -3.8147e-06
4 1 0.761844 0.295033 0.0935973 0 -0.00097084 -1.90735e-06
5 1 0.257684 0.461543 0.593597 0 0.000995636 0
6 1 0.757684 0.461543 0.593597 0 0.000999451 5.72205e-06
7 1 0.00872052 0.420037 0.0935973 0 -0.000951767 -7.62939e-06
8 1 0.508721 0.420037 0.0935973 0 -0.000951767 -3.8147e-06
9 1 0.00456098 0.586543 0.593597 0 0.000886917 0
10 1 0.504561 0.586543 0.593597 0 0.00088501 0
11 1 0.251439 0.711539 0.593597 0 0.00106049 7.62939e-06
12 1 0.751439 0.711539 0.593597 0 0.00105858 3.8147e-06
13 1 0.00247506 0.670042 0.0935972 0 -0.00108337 -3.8147e-06
14 1 0.255598 0.545043 0.0935972 0 -0.00110245 0
15 1 0.755598 0.545043 0.0935972 0 -0.00109863 0
16 1 0.502475 0.670042 0.0935972 0 -0.00108719 -7.62939e-06
17 1 0.998316 0.836533 0.593597 0 0.00240898 0
18 1 0.498316 0.836533 0.593597 0 0.00241089 5.72205e-06
19 1 0.245194 0.961533 0.593597 0 -0.00352859 0
20 1 0.745194 0.961533 0.593597 0 -0.00352287 1.90735e-06
21 1 0.249353 0.795035 0.0935971 0 -0.000648499 -3.8147e-06
22 1 0.749353 0.795035 0.0935971 0 -0.000658035 0
23 1 0.99623 0.920032 0.0935971 0 -0.010231 -3.8147e-06
24 1 0.49623 0.920032 0.0935971 0 -0.0102329 0
25 1 0.0170518 0.0865377 0.593597 0 0.0101795 0
26 1 0.517052 0.0865377 0.593597 0 0.0101814 0
27 1 0.268089 0.045031 0.093597 0 0.00366592 0
28 1 0.768089 0.045031 0.093597 0 0.00366974 0
29 1 0.263929 0.211541 0.593597 0 0.000659943 0
30 1 0.763929 0.211541 0.593597 0 0.000659943 0
31 1 0.014966 0.170031 0.093597 0 -0.00217438 0
32 1 0.514966 0.170031 0.093597 0 -0.00217819 0
ITEM: TIMESTEP
1
ITEM: NUMBER OF ATOMS
32
ITEM: BOX BOUNDS xy xz yz pp pp pp
-4.7826766967773438e-03 6.5593149662017822e+00 1.5998327732086182e-01
-3.7661075592041016e-02 2.2120539069175720e+01 0.0000000000000000e+00
-1.1393904685974121e-02 5.1938598752021790e+00 0.0000000000000000e+00
ITEM: ATOMS id type xs ys zs fx fy fz
1 1 0.010806 0.336555 0.593597 0 0.000518799 -3.8147e-06
2 1 0.510806 0.336555 0.593597 0 0.000520706 -3.8147e-06
3 1 0.261844 0.295018 0.093597 0 -0.000785828 -1.90735e-06
4 1 0.761844 0.295018 0.0935972 0 -0.000793457 1.90735e-06
5 1 0.257684 0.461558 0.593597 0 0.000534058 0
6 1 0.757684 0.461558 0.593597 0 0.00053215 -3.8147e-06
7 1 0.00872089 0.420023 0.0935968 0 -0.000671387 5.72205e-06
8 1 0.508721 0.420023 0.093597 0 -0.000677109 0
9 1 0.00456063 0.586557 0.593597 0 0.000627518 0
10 1 0.504561 0.586557 0.593597 0 0.000621796 -1.90735e-06
11 1 0.251438 0.711556 0.593598 0 0.000850677 -9.53674e-06
12 1 0.751438 0.711556 0.593597 0 0.000854492 -3.8147e-06
13 1 0.00247548 0.670025 0.0935969 0 -0.00062561 5.72205e-06
14 1 0.255599 0.545026 0.0935972 0 -0.000675201 0
15 1 0.755599 0.545026 0.0935972 0 -0.000682831 -1.90735e-06
16 1 0.502476 0.670025 0.0935967 0 -0.000617981 9.53674e-06
17 1 0.998315 0.83657 0.593597 0 -0.00149536 -1.90735e-06
18 1 0.498315 0.83657 0.593597 0 -0.00150108 -5.72205e-06
19 1 0.245195 0.961478 0.593597 0 0.00316429 1.90735e-06
20 1 0.745195 0.961478 0.593597 0 0.0031662 -1.90735e-06
21 1 0.249353 0.795024 0.0935968 0 -0.00321388 5.72205e-06
22 1 0.749353 0.795024 0.0935971 0 -0.00321388 -1.90735e-06
23 1 0.996234 0.919873 0.0935968 0 -0.000902176 3.8147e-06
24 1 0.496234 0.919873 0.0935971 0 -0.000892639 0
25 1 0.0170478 0.0866958 0.593597 0 0.000968933 0
26 1 0.517048 0.0866958 0.593597 0 0.000968933 0
27 1 0.268088 0.045088 0.093597 0 -0.00305176 0
28 1 0.768088 0.045088 0.093597 0 -0.00305939 1.90735e-06
29 1 0.263929 0.211551 0.593597 0 0.00315094 3.8147e-06
30 1 0.763929 0.211551 0.593597 0 0.00315285 1.90735e-06
31 1 0.0149669 0.169997 0.093597 0 0.00161171 0
32 1 0.514967 0.169997 0.093597 0 0.00161552 0
ITEM: TIMESTEP
2
ITEM: NUMBER OF ATOMS
32
ITEM: BOX BOUNDS xy xz yz pp pp pp
-4.7826766967773438e-03 6.5593149662017822e+00 1.5998327732086182e-01
-3.7661075592041016e-02 2.2120539069175720e+01 0.0000000000000000e+00
-1.1393904685974121e-02 5.1938598752021790e+00 0.0000000000000000e+00
ITEM: ATOMS id type xs ys zs fx fy fz
1 1 0.0108056 0.336574 0.593597 0 0.00139809 0
2 1 0.510806 0.336574 0.593597 0 0.00139999 0
3 1 0.261845 0.294992 0.0935967 0 0.0015049 5.72205e-06
4 1 0.761845 0.294992 0.0935973 0 0.00150871 -1.90735e-06
5 1 0.257683 0.461577 0.593597 0 3.62396e-05 1.90735e-06
6 1 0.757683 0.461577 0.593597 0 3.24249e-05 -1.90735e-06
7 1 0.00872146 0.42 0.0935973 0 -0.000205994 -1.90735e-06
8 1 0.508722 0.42 0.093597 0 -0.000198364 1.90735e-06
9 1 0.0045601 0.586578 0.593597 0 0.0001297 0
10 1 0.50456 0.586578 0.593597 0 0.000144958 9.53674e-06
11 1 0.251438 0.711584 0.593597 0 -0.00152779 1.52588e-05
12 1 0.751438 0.711584 0.593597 0 -0.00153732 1.90735e-06
13 1 0.00247604 0.670003 0.0935975 0 -0.00138855 -9.53674e-06
14 1 0.255599 0.545002 0.0935972 0 -0.000106812 -3.8147e-06
15 1 0.755599 0.545002 0.093597 0 -0.000104904 0
16 1 0.502476 0.670003 0.0935976 0 -0.00139427 -1.14441e-05
17 1 0.998316 0.836544 0.593597 0 0.000688553 7.62939e-06
18 1 0.498316 0.836543 0.593597 0 0.000701904 5.72205e-06
19 1 0.245193 0.961542 0.593597 0 0.000177383 -1.90735e-06
20 1 0.745193 0.961543 0.593597 0 0.000179291 5.72205e-06
21 1 0.249355 0.794936 0.0935974 0 -0.000429153 -1.14441e-05
22 1 0.749355 0.794936 0.0935969 0 -0.000413895 0
23 1 0.996236 0.919795 0.0935972 0 0.000265121 -3.8147e-06
24 1 0.496236 0.919795 0.0935971 0 0.00025177 -1.90735e-06
25 1 0.0170459 0.0867752 0.593597 0 -0.00018692 0
26 1 0.517046 0.0867752 0.593597 0 -0.000190735 0
27 1 0.268089 0.0450269 0.093597 0 -0.000101089 0
28 1 0.768089 0.0450267 0.0935972 0 -0.000102997 -1.90735e-06
29 1 0.263927 0.211638 0.593597 0 0.000425339 -7.62939e-06
30 1 0.763927 0.211638 0.593597 0 0.000425339 0
31 1 0.0149661 0.170028 0.093597 0 -0.00069046 1.90735e-06
32 1 0.514966 0.170028 0.093597 0 -0.00069046 1.90735e-06
ITEM: TIMESTEP
3
ITEM: NUMBER OF ATOMS
32
ITEM: BOX BOUNDS xy xz yz pp pp pp
-4.7826766967773438e-03 6.5593149662017822e+00 1.5998327732086182e-01
-3.7661075592041016e-02 2.2120539069175720e+01 0.0000000000000000e+00
-1.1393904685974121e-02 5.1938598752021790e+00 0.0000000000000000e+00
ITEM: ATOMS id type xs ys zs fx fy fz
1 1 0.0108047 0.336607 0.593597 0 0.000177383 3.8147e-06
2 1 0.510805 0.336607 0.593597 0 0.000175476 1.90735e-06
3 1 0.261844 0.29502 0.0935972 0 -2.09808e-05 0
4 1 0.761844 0.29502 0.0935972 0 -2.47955e-05 -3.8147e-06
5 1 0.257683 0.461581 0.593597 0 0.000476837 -1.90735e-06
6 1 0.757683 0.461581 0.593597 0 0.000484467 3.8147e-06
7 1 0.00872166 0.419992 0.0935972 0 0.000965118 0
8 1 0.508722 0.419992 0.0935971 0 0.000963211 1.90735e-06
9 1 0.00455995 0.586585 0.593597 0 -0.000989914 -1.90735e-06
10 1 0.50456 0.586585 0.593598 0 -0.000993729 -1.14441e-05
11 1 0.251438 0.711555 0.593598 0 -5.72205e-06 -1.90735e-05
12 1 0.751438 0.711555 0.593597 0 0 -1.90735e-06
13 1 0.00247689 0.669969 0.0935967 0 -0.00022316 5.72205e-06
14 1 0.255599 0.544996 0.0935968 0 -0.000511169 5.72205e-06
15 1 0.755599 0.544996 0.0935969 0 -0.000511169 -1.90735e-06
16 1 0.502477 0.669969 0.0935967 0 -0.000221252 1.14441e-05
17 1 0.998315 0.836554 0.593597 0 -0.000247955 -1.14441e-05
18 1 0.498316 0.836555 0.593597 0 -0.000257492 -7.62939e-06
19 1 0.245193 0.961557 0.593597 0 -0.00030899 0
20 1 0.745193 0.961557 0.593597 0 -0.000322342 -3.8147e-06
21 1 0.249356 0.794913 0.0935964 0 -0.000202179 1.52588e-05
22 1 0.749356 0.794913 0.0935968 0 -0.000217438 5.72205e-06
23 1 0.996236 0.919788 0.0935969 0 1.90735e-05 5.72205e-06
24 1 0.496236 0.919788 0.0935969 0 2.86102e-05 1.90735e-06
25 1 0.0170456 0.0867838 0.593597 0 5.72205e-06 1.90735e-06
26 1 0.517046 0.0867838 0.593597 0 1.14441e-05 1.90735e-06
27 1 0.268089 0.0450149 0.093597 0 0.000333786 -1.90735e-06
28 1 0.768089 0.0450147 0.0935971 0 0.000341415 1.90735e-06
29 1 0.263926 0.211661 0.593597 0 0.000244141 3.8147e-06
30 1 0.763926 0.211661 0.593597 0 0.000247955 -3.8147e-06
31 1 0.0149663 0.170018 0.0935972 0 0.000289917 0
32 1 0.514967 0.170018 0.0935972 0 0.000293732 -1.90735e-06
ITEM: TIMESTEP
4
ITEM: NUMBER OF ATOMS
32
ITEM: BOX BOUNDS xy xz yz pp pp pp
-4.7826766967773438e-03 6.5593149662017822e+00 1.5998327732086182e-01
-3.7661075592041016e-02 2.2120539069175720e+01 0.0000000000000000e+00
-1.1393904685974121e-02 5.1938598752021790e+00 0.0000000000000000e+00
ITEM: ATOMS id type xs ys zs fx fy fz
1 1 0.0108043 0.336623 0.593597 0 7.24792e-05 -3.8147e-06
2 1 0.510805 0.336623 0.593597 0 7.24792e-05 -1.90735e-06
3 1 0.261844 0.29503 0.0935974 0 0.000143051 -1.90735e-06
4 1 0.761844 0.295029 0.0935967 0 0.00015831 7.62939e-06
5 1 0.257683 0.461595 0.593597 0 -0.000425339 1.90735e-06
6 1 0.757683 0.461595 0.593597 0 -0.000431061 -3.8147e-06
7 1 0.00872112 0.420013 0.0935971 0 -7.24792e-05 -1.90735e-06
8 1 0.508722 0.420013 0.0935974 0 -7.62939e-05 -3.8147e-06
9 1 0.00456052 0.586562 0.593597 0 5.72205e-05 3.8147e-06
10 1 0.504561 0.586562 0.593597 0 5.91278e-05 3.8147e-06
11 1 0.251439 0.711545 0.593596 0 -0.000135422 1.71661e-05
12 1 0.751439 0.711545 0.593597 0 -0.000137329 3.8147e-06
13 1 0.00247731 0.669952 0.093597 0 -7.24792e-05 -7.62939e-06
14 1 0.2556 0.544981 0.0935973 0 0.000408173 -5.72205e-06
15 1 0.7556 0.544981 0.0935967 0 0.00041008 5.72205e-06
16 1 0.502478 0.669952 0.0935976 0 -6.48499e-05 -7.62939e-06
17 1 0.998315 0.836552 0.593596 0 -0.000423431 1.90735e-05
18 1 0.498316 0.836552 0.593597 0 -0.000421524 5.72205e-06
19 1 0.245193 0.961554 0.593597 0 -0.000102997 0
20 1 0.745193 0.961554 0.593597 0 -9.91821e-05 0
21 1 0.249356 0.7949 0.0935977 0 -1.52588e-05 -1.90735e-05
22 1 0.749356 0.7949 0.0935975 0 -3.8147e-06 -7.62939e-06
23 1 0.996236 0.919786 0.0935974 0 -9.15527e-05 -7.62939e-06
24 1 0.496237 0.919787 0.0935971 0 -9.34601e-05 0
25 1 0.0170456 0.0867869 0.593597 0 0.000112534 0
26 1 0.517046 0.086787 0.593597 0 0.000108719 -3.8147e-06
27 1 0.268089 0.0450192 0.0935968 0 0.000137329 3.8147e-06
28 1 0.768089 0.0450192 0.0935972 0 0.000127792 1.90735e-06
29 1 0.263926 0.211675 0.593597 0 3.8147e-06 7.62939e-06
30 1 0.763926 0.211675 0.593597 0 -1.14441e-05 0
31 1 0.0149662 0.170022 0.0935972 0 0.000408173 -1.90735e-06
32 1 0.514967 0.170022 0.093597 0 0.000398636 -3.8147e-06
ITEM: TIMESTEP
5
ITEM: NUMBER OF ATOMS
32
ITEM: BOX BOUNDS xy xz yz pp pp pp
-4.7826766967773438e-03 6.5593149662017822e+00 1.5998327732086182e-01
-3.7661075592041016e-02 2.2120539069175720e+01 0.0000000000000000e+00
-1.1393904685974121e-02 5.1938598752021790e+00 0.0000000000000000e+00
ITEM: ATOMS id type xs ys zs fx fy fz
1 1 0.0108041 0.33663 0.593597 0 -0.000297546 0
2 1 0.510805 0.33663 0.593597 0 -0.000295639 0
3 1 0.261844 0.295037 0.0935972 0 0.000190735 -1.90735e-06
4 1 0.761844 0.295037 0.0935974 0 0.000173569 -5.72205e-06
5 1 0.257683 0.461588 0.593597 0 -2.86102e-05 -1.90735e-06
6 1 0.757683 0.461588 0.593597 0 -2.67029e-05 3.8147e-06
7 1 0.00872098 0.420019 0.0935969 0 -6.29425e-05 1.90735e-06
8 1 0.508721 0.420019 0.093597 0 -5.53131e-05 1.90735e-06
9 1 0.00456068 0.586555 0.593597 0 6.67572e-05 -5.72205e-06
10 1 0.504561 0.586555 0.593597 0 6.48499e-05 3.8147e-06
11 1 0.251439 0.711538 0.593598 0 -0.000202179 -1.71661e-05
12 1 0.751439 0.711538 0.593597 0 -0.000190735 -5.72205e-06
13 1 0.00247751 0.669944 0.0935963 0 0.000297546 1.33514e-05
14 1 0.2556 0.544986 0.0935969 0 3.43323e-05 1.90735e-06
15 1 0.7556 0.544986 0.0935973 0 3.24249e-05 -5.72205e-06
16 1 0.502478 0.669944 0.0935971 0 0.000282288 5.72205e-06
17 1 0.998316 0.83654 0.593598 0 -4.19617e-05 -1.90735e-05
18 1 0.498316 0.83654 0.593597 0 -3.8147e-05 -1.90735e-06
19 1 0.245193 0.96155 0.593597 0 -1.90735e-05 7.62939e-06
20 1 0.745193 0.96155 0.593597 0 -1.14441e-05 -1.90735e-06
21 1 0.249356 0.794895 0.0935961 0 -4.57764e-05 1.71661e-05
22 1 0.749356 0.794895 0.0935968 0 -4.19617e-05 7.62939e-06
23 1 0.996236 0.919783 0.0935967 0 -5.34058e-05 9.53674e-06
24 1 0.496237 0.919784 0.0935971 0 -6.29425e-05 -3.8147e-06
25 1 0.0170455 0.086791 0.593597 0 5.53131e-05 1.90735e-06
26 1 0.517046 0.086791 0.593597 0 4.57764e-05 3.8147e-06
27 1 0.268089 0.0450243 0.0935971 0 5.72205e-06 -5.72205e-06
28 1 0.768089 0.0450241 0.0935975 0 1.52588e-05 -7.62939e-06
29 1 0.263926 0.21168 0.593598 0 3.43323e-05 -9.53674e-06
30 1 0.763926 0.21168 0.593597 0 4.57764e-05 5.72205e-06
31 1 0.0149659 0.170034 0.093597 0 6.29425e-05 1.90735e-06
32 1 0.514966 0.170034 0.0935966 0 6.67572e-05 5.72205e-06
ITEM: TIMESTEP
6
ITEM: NUMBER OF ATOMS
32
ITEM: BOX BOUNDS xy xz yz pp pp pp
-4.7826766967773438e-03 6.5593149662017822e+00 1.5998327732086182e-01
-3.7661075592041016e-02 2.2120539069175720e+01 0.0000000000000000e+00
-1.1393904685974121e-02 5.1938598752021790e+00 0.0000000000000000e+00
ITEM: ATOMS id type xs ys zs fx fy fz
1 1 0.0108041 0.33663 0.593597 0 -0.000297546 0
2 1 0.510805 0.33663 0.593597 0 -0.000295639 0
3 1 0.261844 0.295037 0.0935972 0 0.000190735 -1.90735e-06
4 1 0.761844 0.295037 0.0935974 0 0.000173569 -5.72205e-06
5 1 0.257683 0.461588 0.593597 0 -2.86102e-05 -1.90735e-06
6 1 0.757683 0.461588 0.593597 0 -2.67029e-05 3.8147e-06
7 1 0.00872098 0.420019 0.0935969 0 -6.29425e-05 1.90735e-06
8 1 0.508721 0.420019 0.093597 0 -5.53131e-05 1.90735e-06
9 1 0.00456068 0.586555 0.593597 0 6.67572e-05 -5.72205e-06
10 1 0.504561 0.586555 0.593597 0 6.48499e-05 3.8147e-06
11 1 0.251439 0.711538 0.593598 0 -0.000202179 -1.71661e-05
12 1 0.751439 0.711538 0.593597 0 -0.000190735 -5.72205e-06
13 1 0.00247751 0.669944 0.0935963 0 0.000297546 1.33514e-05
14 1 0.2556 0.544986 0.0935969 0 3.43323e-05 1.90735e-06
15 1 0.7556 0.544986 0.0935973 0 3.24249e-05 -5.72205e-06
16 1 0.502478 0.669944 0.0935971 0 0.000282288 5.72205e-06
17 1 0.998316 0.83654 0.593598 0 -4.19617e-05 -1.90735e-05
18 1 0.498316 0.83654 0.593597 0 -3.8147e-05 -1.90735e-06
19 1 0.245193 0.96155 0.593597 0 -1.90735e-05 7.62939e-06
20 1 0.745193 0.96155 0.593597 0 -1.14441e-05 -1.90735e-06
21 1 0.249356 0.794895 0.0935961 0 -4.57764e-05 1.71661e-05
22 1 0.749356 0.794895 0.0935968 0 -4.19617e-05 7.62939e-06
23 1 0.996236 0.919783 0.0935967 0 -5.34058e-05 9.53674e-06
24 1 0.496237 0.919784 0.0935971 0 -6.29425e-05 -3.8147e-06
25 1 0.0170455 0.086791 0.593597 0 5.53131e-05 1.90735e-06
26 1 0.517046 0.086791 0.593597 0 4.57764e-05 3.8147e-06
27 1 0.268089 0.0450243 0.0935971 0 5.72205e-06 -5.72205e-06
28 1 0.768089 0.0450241 0.0935975 0 1.52588e-05 -7.62939e-06
29 1 0.263926 0.21168 0.593598 0 3.43323e-05 -9.53674e-06
30 1 0.763926 0.21168 0.593597 0 4.57764e-05 5.72205e-06
31 1 0.0149659 0.170034 0.093597 0 6.29425e-05 1.90735e-06
32 1 0.514966 0.170034 0.0935966 0 6.67572e-05 5.72205e-06
