ITEM: TIMESTEP
0
ITEM: NUMBER OF ATOMS
56
ITEM: BOX BOUNDS xy xz yz pp pp pp
-9.4422733783721924e-01 1.2203788340091705e+01 0.0000000000000000e+00
-8.4733366966247559e-03 5.5348814725875854e+00 -9.2553883790969849e-01
-2.9168844223022461e-02 1.9049128890037537e+01 0.0000000000000000e+00
ITEM: ATOMS id type xs ys zs fx fy fz
1 1 0.560095 4.41887e-05 0.132366 0 0.018404 0.118141
2 1 0.310096 0.166624 0.132366 0 -0.0184345 0.118156
3 1 0.208322 2.39879e-05 0.275225 0 0.000471115 0.00113678
4 1 0.958321 0.166644 0.275225 0 -0.000492096 0.00113678
5 1 0.856495 1.9421e-05 0.418082 0 1.52588e-05 0.000432968
6 1 0.0600954 4.41295e-05 0.132366 0 0.0184078 0.118145
7 1 0.985954 0.500074 0.0609403 0 -0.0538387 0.127594
8 1 0.810096 0.166623 0.132366 0 -0.018425 0.118139
9 1 0.735955 0.666593 0.0609403 0 0.0538597 0.127583
10 1 0.708323 2.39872e-05 0.275225 0 0.000476837 0.00115013
11 1 0.606494 0.166647 0.418082 0 -1.14441e-05 0.000427246
12 1 0.504657 2.47556e-05 0.560942 0 -4.95911e-05 -0.000188828
13 1 0.254657 0.166643 0.560942 0 4.00543e-05 -0.000190735
14 1 0.152828 2.39811e-05 0.703801 0 -0.000169754 -5.53131e-05
15 1 0.902828 0.166644 0.703801 0 0.000137329 -6.10352e-05
16 1 0.801013 2.63435e-05 0.846651 0 0.00202942 0.000530243
17 1 0.634225 0.500026 0.203802 0 0.00203514 -0.000522614
18 1 0.458321 0.166645 0.275225 0 -0.00050354 0.00114632
19 1 0.384226 0.66664 0.203802 0 -0.00201607 -0.000513077
20 1 0.356495 2.01694e-05 0.418082 0 -1.90735e-06 0.000432968
21 1 0.282409 0.500023 0.346651 0 -0.000143051 7.05719e-05
22 1 0.106495 0.166648 0.418082 0 -1.52588e-05 0.000432968
23 1 0.0324094 0.666642 0.346651 0 0.000181198 5.53131e-05
24 1 0.0046572 2.49573e-05 0.560941 0 -5.34058e-05 -0.000181198
25 1 0.930579 0.500025 0.489511 0 -4.57764e-05 0.000175476
26 1 0.754658 0.166643 0.560941 0 4.00543e-05 -0.000175476
27 1 0.68058 0.666642 0.489511 0 5.14984e-05 0.000198364
28 1 0.485954 0.500073 0.0609404 0 -0.0538139 0.127586
29 1 0.235954 0.666593 0.0609403 0 0.0538597 0.127584
30 1 0.134226 0.500026 0.203802 0 0.00204468 -0.000518799
31 1 0.884226 0.666641 0.203802 0 -0.00204277 -0.000511169
32 1 0.78241 0.500024 0.346651 0 -0.000165939 5.34058e-05
33 1 0.551011 0.166641 0.846652 0 -0.00202942 0.000490189
34 1 0.449283 7.47473e-05 0.989512 0 -0.0538654 -0.127579
35 1 0.199283 0.166594 0.989513 0 0.0538254 -0.12759
36 1 0.652827 2.44315e-05 0.703801 0 -0.000173569 -5.72205e-05
37 1 0.57874 0.50002 0.632371 0 9.53674e-06 -0.000452042
38 1 0.402828 0.166643 0.703801 0 0.000148773 -5.34058e-05
39 1 0.328742 0.666647 0.632371 0 -5.72205e-06 -0.000434875
40 1 0.301012 2.63314e-05 0.846651 0 0.00203133 0.000511169
41 1 0.226915 0.500023 0.775228 0 0.000488281 -0.00113678
42 1 0.0510111 0.166641 0.846651 0 -0.00203514 0.000509262
43 1 0.976915 0.666644 0.775228 0 -0.000478745 -0.00115395
44 1 0.949284 7.37033e-05 0.989512 0 -0.053833 -0.127586
45 1 0.875142 0.500043 0.918087 0 0.0184307 -0.118132
46 1 0.532409 0.666643 0.346651 0 0.000179291 6.10352e-05
47 1 0.430579 0.500025 0.489511 0 -4.19617e-05 0.000179291
48 1 0.180579 0.666642 0.489511 0 5.53131e-05 0.000179291
49 1 0.0787419 0.500019 0.632371 0 2.28882e-05 -0.000427246
50 1 0.828743 0.666647 0.63237 0 7.62939e-06 -0.00041008
51 1 0.726916 0.500022 0.775228 0 0.00050354 -0.00114632
52 1 0.699281 0.166594 0.989513 0 0.053833 -0.127575
53 1 0.625141 0.666624 0.918087 0 -0.0184307 -0.11816
54 1 0.476915 0.666643 0.775228 0 -0.000484467 -0.00113297
55 1 0.375141 0.500044 0.918087 0 0.0184383 -0.118149
56 1 0.125142 0.666624 0.918087 0 -0.0184269 -0.118145
ITEM: TIMESTEP
1
ITEM: NUMBER OF ATOMS
56
ITEM: BOX BOUNDS xy xz yz pp pp pp
-9.4422733783721924e-01 1.2203788340091705e+01 0.0000000000000000e+00
-8.4733366966247559e-03 5.5348814725875854e+00 -9.2553883790969849e-01
-2.9168844223022461e-02 1.9049128890037537e+01 0.0000000000000000e+00
ITEM: ATOMS id type xs ys zs fx fy fz
1 1 0.560238 0.0010565 0.134254 0 -0.00399208 -0.00879288
2 1 0.310239 0.16561 0.134254 0 0.00401306 -0.00880432
3 1 0.208323 4.99015e-05 0.275243 0 -0.00550652 0.0323505
4 1 0.958323 0.166617 0.275243 0 0.00551987 0.0323486
5 1 0.856495 2.02603e-05 0.418089 0 -0.000356674 0.000118256
6 1 0.0602384 0.00105665 0.134254 0 -0.00398827 -0.00880051
7 1 0.986108 0.497113 0.0629795 0 -0.0294075 -0.0222378
8 1 0.810239 0.16561 0.134254 0 0.00400543 -0.00879478
9 1 0.73611 0.669555 0.0629793 0 0.0293999 -0.022234
10 1 0.708324 5.02155e-05 0.275243 0 -0.00551796 0.0323391
11 1 0.606494 0.166647 0.418089 0 0.000364304 0.000116348
12 1 0.504656 2.20279e-05 0.560939 0 3.62396e-05 0.00106239
13 1 0.254657 0.166645 0.560939 0 -3.62396e-05 0.0010643
14 1 0.152827 1.46438e-05 0.7038 0 -0.00075531 -0.00248909
15 1 0.902828 0.166652 0.7038 0 0.000764847 -0.00248337
16 1 0.801013 0.000137971 0.84666 0 0.00408936 -0.0394039
17 1 0.634224 0.500138 0.203793 0 0.00407791 0.0394173
18 1 0.458323 0.166617 0.275243 0 0.00551605 0.0323544
19 1 0.384225 0.666529 0.203793 0 -0.00408745 0.0394154
20 1 0.356496 2.00645e-05 0.418089 0 -0.000352859 0.000110626
21 1 0.282409 0.500015 0.346652 0 -0.000768661 0.00247574
22 1 0.106495 0.166647 0.418089 0 0.000354767 0.000108719
23 1 0.0324095 0.666652 0.346652 0 0.000764847 0.00247955
24 1 0.00465698 2.20197e-05 0.560939 0 4.00543e-05 0.00106239
25 1 0.930579 0.500022 0.489514 0 3.62396e-05 -0.00106049
26 1 0.754658 0.166645 0.560939 0 -3.43323e-05 0.00107574
27 1 0.680581 0.666645 0.489514 0 -3.43323e-05 -0.00106049
28 1 0.486108 0.497113 0.0629795 0 -0.0294247 -0.0222397
29 1 0.236108 0.669555 0.0629794 0 0.0293961 -0.0222321
30 1 0.134225 0.500139 0.203793 0 0.00406647 0.0394115
31 1 0.884225 0.666529 0.203793 0 -0.00408554 0.0394115
32 1 0.78241 0.500015 0.346652 0 -0.000770569 0.00248146
33 1 0.551012 0.166529 0.846659 0 -0.00408363 -0.0394135
34 1 0.449129 -0.00288811 0.987473 0 -0.0293903 0.0222301
35 1 0.199129 0.169554 0.987473 0 0.0294151 0.0222321
36 1 0.652826 1.48844e-05 0.7038 0 -0.000768661 -0.00247765
37 1 0.57874 0.50002 0.632364 0 -0.000358582 -0.000114441
38 1 0.402828 0.166651 0.703801 0 0.000772476 -0.00247955
39 1 0.328741 0.666647 0.632364 0 0.000354767 -0.000102997
40 1 0.301012 0.000138064 0.846659 0 0.00409126 -0.0394173
41 1 0.226914 0.50005 0.77521 0 -0.00551987 -0.0323544
42 1 0.0510118 0.166529 0.846659 0 -0.00408173 -0.0394154
43 1 0.976914 0.666617 0.775209 0 0.00551033 -0.032341
44 1 0.949129 -0.00288737 0.987473 0 -0.0294056 0.0222473
45 1 0.874999 0.501057 0.916199 0 -0.00400543 0.00880241
46 1 0.532409 0.666652 0.346652 0 0.000753403 0.00247765
47 1 0.430579 0.500022 0.489514 0 4.00543e-05 -0.00107384
48 1 0.180579 0.666645 0.489514 0 -3.43323e-05 -0.00106239
49 1 0.0787413 0.50002 0.632364 0 -0.000360489 -0.000108719
50 1 0.828742 0.666647 0.632364 0 0.000349045 -0.000114441
51 1 0.726915 0.50005 0.77521 0 -0.00551605 -0.0323524
52 1 0.699127 0.169555 0.987474 0 0.0294151 0.0222206
53 1 0.624998 0.66561 0.916199 0 0.00399971 0.00879669
54 1 0.476914 0.666617 0.77521 0 0.00551033 -0.0323563
55 1 0.374999 0.501058 0.916199 0 -0.00401306 0.00880623
56 1 0.124999 0.66561 0.916199 0 0.00399971 0.00880051
ITEM: TIMESTEP
2
ITEM: NUMBER OF ATOMS
56
ITEM: BOX BOUNDS xy xz yz pp pp pp
-9.4422733783721924e-01 1.2203788340091705e+01 0.0000000000000000e+00
-8.4733366966247559e-03 5.5348814725875854e+00 -9.2553883790969849e-01
-2.9168844223022461e-02 1.9049128890037537e+01 0.0000000000000000e+00
ITEM: ATOMS id type xs ys zs fx fy fz
1 1 0.560265 0.00101728 0.134612 0 -0.0141907 -0.00244713
2 1 0.310266 0.16565 0.134611 0 0.0141754 -0.0024395
3 1 0.208386 -0.000426877 0.276076 0 0.00259781 0.00533867
4 1 0.958386 0.167095 0.276076 0 -0.00261688 0.00534058
5 1 0.856496 -1.08809e-05 0.418094 0 -0.0023365 0.0138664
6 1 0.0602654 0.00101783 0.134611 0 -0.0141888 -0.00243568
7 1 0.986113 0.49361 0.0630396 0 0.00147057 -0.0159912
8 1 0.810266 0.16565 0.134611 0 0.0141773 -0.00245476
9 1 0.736114 0.673057 0.0630395 0 -0.00145721 -0.0160046
10 1 0.708387 -0.000427473 0.276076 0 0.00260162 0.00534058
11 1 0.606495 0.166678 0.418094 0 0.00233269 0.0138645
12 1 0.504658 2.43769e-05 0.560965 0 -0.000898361 -0.0018425
13 1 0.254659 0.166642 0.560965 0 0.000904083 -0.00183487
14 1 0.152823 -5.47304e-05 0.703737 0 -0.00273132 -0.0197926
15 1 0.902823 0.166722 0.703737 0 0.00272751 -0.0197964
16 1 0.800937 0.000532411 0.845654 0 -0.00289917 0.00209999
17 1 0.6343 0.500531 0.204799 0 -0.00289154 -0.00211525
18 1 0.458386 0.167094 0.276077 0 -0.00261307 0.00533104
19 1 0.384301 0.666135 0.204799 0 0.00289345 -0.00211143
20 1 0.356496 -1.10322e-05 0.418094 0 -0.00233269 0.0138607
21 1 0.282414 0.499945 0.346716 0 -0.0027256 0.0198021
22 1 0.106496 0.166678 0.418094 0 0.00233841 0.0138702
23 1 0.0324143 0.666723 0.346716 0 0.00271797 0.0198021
24 1 0.00465897 2.46399e-05 0.560965 0 -0.000894547 -0.00184441
25 1 0.930577 0.500025 0.489488 0 -0.000894547 0.00184441
26 1 0.75466 0.166643 0.560965 0 0.000892639 -0.00185204
27 1 0.680579 0.666643 0.489488 0 0.000896454 0.00183868
28 1 0.486113 0.49361 0.0630395 0 0.00147629 -0.0159893
29 1 0.236113 0.673057 0.0630396 0 -0.00144958 -0.0160007
30 1 0.134301 0.500531 0.204799 0 -0.002882 -0.00210381
31 1 0.884301 0.666134 0.204799 0 0.00290489 -0.00211143
32 1 0.782415 0.499945 0.346716 0 -0.00272179 0.0198021
33 1 0.550935 0.166135 0.845654 0 0.00289917 0.00211143
34 1 0.449124 -0.00638935 0.987413 0 0.00144958 0.0159931
35 1 0.199124 0.173057 0.987413 0 -0.00146294 0.015995
36 1 0.652822 -5.573e-05 0.703737 0 -0.00271988 -0.0198021
37 1 0.578739 0.499989 0.632359 0 -0.00233459 -0.0138664
38 1 0.402823 0.166722 0.703737 0 0.00271797 -0.0198135
39 1 0.328741 0.666678 0.632359 0 0.00232887 -0.0138779
40 1 0.300936 0.000532704 0.845654 0 -0.00291443 0.00211716
41 1 0.226851 0.499572 0.774376 0 0.00261879 -0.00532913
42 1 0.0509356 0.166135 0.845654 0 0.00288963 0.00211525
43 1 0.976851 0.667094 0.774376 0 -0.00260735 -0.00533104
44 1 0.949125 -0.0063894 0.987413 0 0.00146103 0.0159969
45 1 0.874972 0.501017 0.915841 0 -0.0141773 0.00244141
46 1 0.532414 0.666722 0.346716 0 0.00273705 0.0198059
47 1 0.430577 0.500025 0.489488 0 -0.000892639 0.00185204
48 1 0.180577 0.666643 0.489488 0 0.000890732 0.0018425
49 1 0.078741 0.499989 0.632359 0 -0.00233078 -0.0138702
50 1 0.828742 0.666678 0.632359 0 0.00233078 -0.0138664
51 1 0.726852 0.499573 0.774376 0 0.00260162 -0.00532913
52 1 0.699122 0.173058 0.987413 0 -0.00146484 0.0160084
53 1 0.624971 0.665649 0.915841 0 0.0141869 0.00244713
54 1 0.476851 0.667094 0.774377 0 -0.00260544 -0.00533676
55 1 0.374971 0.501017 0.915842 0 -0.0141735 0.00242615
56 1 0.124972 0.665649 0.915841 0 0.0141888 0.00243568
ITEM: TIMESTEP
3
ITEM: NUMBER OF ATOMS
56
ITEM: BOX BOUNDS xy xz yz pp pp pp
-9.4422733783721924e-01 1.2203788340091705e+01 0.0000000000000000e+00
-8.4733366966247559e-03 5.5348814725875854e+00 -9.2553883790969849e-01
-2.9168844223022461e-02 1.9049128890037537e+01 0.0000000000000000e+00
ITEM: ATOMS id type xs ys zs fx fy fz
1 1 0.560264 -0.000233243 0.134602 0 0.000894547 0.00873566
2 1 0.310265 0.1669 0.134602 0 -0.00088501 0.00874329
3 1 0.208406 -0.000269449 0.276335 0 -0.000558853 0.00150299
4 1 0.958405 0.166936 0.276335 0 0.000576019 0.00150108
5 1 0.856523 -0.000220426 0.418448 0 -0.000780106 0.00494003
6 1 0.0602647 -0.000232466 0.134602 0 0.000888824 0.0087471
7 1 0.986083 0.493222 0.0626409 0 0.000267029 0.00726318
8 1 0.810266 0.166899 0.134602 0 -0.000879288 0.00876617
9 1 0.736084 0.673447 0.0626405 0 -0.000284195 0.00728416
10 1 0.708407 -0.000269845 0.276335 0 -0.000562668 0.0015049
11 1 0.606522 0.166888 0.418448 0 0.000785828 0.00494576
12 1 0.504655 -5.40752e-05 0.560922 0 -0.00247383 -0.00403404
13 1 0.254656 0.166721 0.560922 0 0.00247383 -0.00404739
14 1 0.152784 -0.000304556 0.703223 0 -4.76837e-05 -0.00196838
15 1 0.902784 0.166971 0.703223 0 5.14984e-05 -0.00197029
16 1 0.80093 0.000336384 0.845559 0 -0.00243759 0.00236511
17 1 0.634307 0.500336 0.204894 0 -0.00244522 -0.00234985
18 1 0.458406 0.166935 0.276335 0 0.000572205 0.0015049
19 1 0.384308 0.66633 0.204894 0 0.00243378 -0.00235367
20 1 0.356523 -0.000220236 0.418448 0 -0.000780106 0.00495529
21 1 0.282453 0.499696 0.34723 0 -5.91278e-05 0.0019722
22 1 0.106523 0.166888 0.418448 0 0.00078392 0.00494385
23 1 0.0324532 0.666972 0.34723 0 5.14984e-05 0.00197601
24 1 0.00465571 -5.34376e-05 0.560922 0 -0.00248528 -0.00402451
25 1 0.930581 0.499947 0.489531 0 -0.00249481 0.00402641
26 1 0.754657 0.166721 0.560922 0 0.00248337 -0.00402832
27 1 0.680582 0.666721 0.489531 0 0.0024929 0.00403023
28 1 0.486082 0.493222 0.0626409 0 0.000272751 0.00726318
29 1 0.236083 0.673447 0.0626407 0 -0.000282288 0.00727654
30 1 0.134308 0.500337 0.204894 0 -0.00244522 -0.00235939
31 1 0.884308 0.666331 0.204894 0 0.00242996 -0.00235558
32 1 0.782454 0.499695 0.34723 0 -5.34058e-05 0.00196457
33 1 0.550928 0.166331 0.845559 0 0.00243378 0.0023613
34 1 0.449155 -0.00677945 0.987812 0 0.000293732 -0.00726509
35 1 0.199154 0.173446 0.987812 0 -0.000267029 -0.00727081
36 1 0.652783 -0.000304735 0.703223 0 -5.72205e-05 -0.00196838
37 1 0.578713 0.499779 0.632005 0 -0.000793457 -0.00493622
38 1 0.402784 0.166971 0.703223 0 5.91278e-05 -0.00195885
39 1 0.328714 0.666887 0.632005 0 0.000793457 -0.00494766
40 1 0.300929 0.000335368 0.845559 0 -0.00242043 0.00234985
41 1 0.226831 0.499731 0.774117 0 -0.000587463 -0.00150871
42 1 0.0509284 0.16633 0.845559 0 0.00244713 0.00235748
43 1 0.976831 0.666936 0.774117 0 0.000566483 -0.00151443
44 1 0.949155 -0.00677862 0.987812 0 0.000286102 -0.00728416
45 1 0.874973 0.499768 0.915851 0 0.000879288 -0.00873756
46 1 0.532453 0.666972 0.34723 0 3.8147e-05 0.00196266
47 1 0.430581 0.499947 0.489531 0 -0.00248909 0.00402641
48 1 0.180581 0.666721 0.489531 0 0.00249481 0.00402641
49 1 0.0787141 0.49978 0.632005 0 -0.000789642 -0.00493813
50 1 0.828715 0.666887 0.632005 0 0.00079155 -0.00494576
51 1 0.726832 0.499731 0.774117 0 -0.00056839 -0.00151443
52 1 0.699153 0.173447 0.987812 0 -0.000282288 -0.00728798
53 1 0.624972 0.6669 0.915851 0 -0.000881195 -0.00875664
54 1 0.476831 0.666936 0.774117 0 0.000570297 -0.00150871
55 1 0.374972 0.499768 0.915851 0 0.000864029 -0.00873184
56 1 0.124972 0.6669 0.915851 0 -0.00088501 -0.00872993
ITEM: TIMESTEP
4
ITEM: NUMBER OF ATOMS
56
ITEM: BOX BOUNDS xy xz yz pp pp pp
-9.4422733783721924e-01 1.2203788340091705e+01 0.0000000000000000e+00
-8.4733366966247559e-03 5.5348814725875854e+00 -9.2553883790969849e-01
-2.9168844223022461e-02 1.9049128890037537e+01 0.0000000000000000e+00
ITEM: ATOMS id type xs ys zs fx fy fz
1 1 0.560277 -0.000353258 0.134774 0 0.00188446 0.000253677
2 1 0.310278 0.16702 0.134774 0 -0.00188446 0.000234604
3 1 0.208411 -0.000284731 0.276403 0 -0.00149727 0.00424004
4 1 0.95841 0.166952 0.276403 0 0.00148582 0.00423813
5 1 0.856534 -0.000303874 0.418597 0 -0.00087738 -0.000829697
6 1 0.0602777 -0.000352837 0.134774 0 0.00187683 0.000228882
7 1 0.986089 0.493184 0.062727 0 -0.000406265 -3.43323e-05
8 1 0.810279 0.16702 0.134774 0 -0.00188065 0.000234604
9 1 0.736091 0.673484 0.0627269 0 0.000400543 -5.72205e-05
10 1 0.708412 -0.000285358 0.276403 0 -0.00149345 0.00423431
11 1 0.606533 0.166972 0.418597 0 0.000869751 -0.000841141
12 1 0.504649 -0.000233905 0.560836 0 -0.00128555 0.000148773
13 1 0.254649 0.166901 0.560836 0 0.00128365 0.000154495
14 1 0.152775 -0.00034395 0.703109 0 0.000123978 0.000965118
15 1 0.902775 0.167011 0.703109 0 -0.000127792 0.000974655
16 1 0.800932 0.000142011 0.845592 0 2.67029e-05 -0.00360489
17 1 0.634305 0.500141 0.204861 0 3.24249e-05 0.00359344
18 1 0.458411 0.166951 0.276403 0 0.00149345 0.00423241
19 1 0.384306 0.666525 0.204861 0 -1.71661e-05 0.00359535
20 1 0.356534 -0.000303634 0.418597 0 -0.000883102 -0.000841141
21 1 0.282462 0.499656 0.347344 0 0.000135422 -0.000965118
22 1 0.106534 0.166971 0.418597 0 0.000879288 -0.000839233
23 1 0.0324618 0.667011 0.347344 0 -0.000123978 -0.000976562
24 1 0.0046492 -0.000233992 0.560836 0 -0.00127983 0.000150681
25 1 0.930587 0.499765 0.489617 0 -0.00127602 -0.000143051
26 1 0.75465 0.166901 0.560836 0 0.00129318 0.000150681
27 1 0.680588 0.666902 0.489617 0 0.00127029 -0.000146866
28 1 0.486089 0.493184 0.0627269 0 -0.000400543 -4.95911e-05
29 1 0.236089 0.673484 0.062727 0 0.000404358 -4.76837e-05
30 1 0.134306 0.500142 0.204861 0 2.09808e-05 0.00359917
31 1 0.884306 0.666525 0.204861 0 -1.90735e-05 0.00360298
32 1 0.782463 0.499656 0.347343 0 0.000131607 -0.000963211
33 1 0.550931 0.166525 0.845592 0 -2.09808e-05 -0.0036068
34 1 0.449148 -0.00681589 0.987726 0 -0.000411987 4.00543e-05
35 1 0.199148 0.173484 0.987726 0 0.000394821 5.72205e-05
36 1 0.652774 -0.00034466 0.703109 0 0.000127792 0.000967026
37 1 0.578701 0.499695 0.631856 0 -0.000871658 0.000831604
38 1 0.402775 0.167011 0.703109 0 -0.0001297 0.000967026
39 1 0.328703 0.666971 0.631856 0 0.000873566 0.000841141
40 1 0.300931 0.000141975 0.845592 0 1.52588e-05 -0.00359154
41 1 0.226826 0.499715 0.77405 0 -0.00148582 -0.00423622
42 1 0.0509309 0.166525 0.845592 0 -2.47955e-05 -0.00360107
43 1 0.976826 0.666952 0.77405 0 0.00149155 -0.00423431
44 1 0.949148 -0.00681545 0.987726 0 -0.000402451 5.72205e-05
45 1 0.87496 0.499647 0.915679 0 0.00188828 -0.000247955
46 1 0.532461 0.667011 0.347344 0 -0.000127792 -0.000965118
47 1 0.430587 0.499766 0.489617 0 -0.00127792 -0.000144958
48 1 0.180587 0.666902 0.489617 0 0.00127792 -0.000154495
49 1 0.0787029 0.499696 0.631856 0 -0.000873566 0.000827789
50 1 0.828704 0.666971 0.631856 0 0.000867844 0.000835419
51 1 0.726827 0.499715 0.77405 0 -0.00149345 -0.00423241
52 1 0.699146 0.173484 0.987726 0 0.000402451 5.91278e-05
53 1 0.624959 0.667021 0.915679 0 -0.00188637 -0.000232697
54 1 0.476826 0.666952 0.77405 0 0.00148964 -0.00423431
55 1 0.374959 0.499646 0.915679 0 0.00190353 -0.000244141
56 1 0.124959 0.66702 0.915679 0 -0.00188637 -0.000249863
ITEM: TIMESTEP
5
ITEM: NUMBER OF ATOMS
56
ITEM: BOX BOUNDS xy xz yz pp pp pp
-9.4422733783721924e-01 1.2203788340091705e+01 0.0000000000000000e+00
-8.4733366966247559e-03 5.5348814725875854e+00 -9.2553883790969849e-01
-2.9168844223022461e-02 1.9049128890037537e+01 0.0000000000000000e+00
ITEM: ATOMS id type xs ys zs fx fy fz
1 1 0.560282 -0.000204405 0.134834 0 -0.000379562 -2.28882e-05
2 1 0.310282 0.166871 0.134834 0 0.00038147 -1.90735e-06
3 1 0.208422 -0.000437217 0.276545 0 0.000356674 -7.24792e-05
4 1 0.958421 0.167104 0.276545 0 -0.000352859 -6.29425e-05
5 1 0.856536 -0.000416267 0.418619 0 -0.000526428 0.000255585
6 1 0.0602822 -0.000204847 0.134834 0 -0.000375748 -5.72205e-06
7 1 0.986091 0.493132 0.0627526 0 0.000703812 -0.000703812
8 1 0.810283 0.166872 0.134834 0 0.000368118 -1.52588e-05
9 1 0.736092 0.673535 0.062752 0 -0.000684738 -0.000684738
10 1 0.708423 -0.000437539 0.276545 0 0.000358582 -6.29425e-05
11 1 0.606535 0.167083 0.418619 0 0.000524521 0.000267029
12 1 0.504647 -0.000416387 0.560813 0 -1.90735e-06 0.00127029
13 1 0.254648 0.167084 0.560814 0 -1.90735e-06 0.0012722
14 1 0.152775 -0.000343899 0.703102 0 -0.000703812 -0.00152779
15 1 0.902775 0.16701 0.703102 0 0.000699997 -0.00153732
16 1 0.800925 8.45325e-05 0.845499 0 0.000692368 -0.000812531
17 1 0.634312 0.500084 0.204954 0 0.000696182 0.00082016
18 1 0.458421 0.167104 0.276545 0 -0.000354767 -5.91278e-05
19 1 0.384313 0.666583 0.204954 0 -0.000699997 0.000810623
20 1 0.356536 -0.000416577 0.418619 0 -0.000516891 0.000263214
21 1 0.282462 0.499657 0.347351 0 -0.000705719 0.00152588
22 1 0.106536 0.167084 0.418619 0 0.000520706 0.000261307
23 1 0.0324624 0.667011 0.347351 0 0.000699997 0.00153542
24 1 0.00464752 -0.000416134 0.560814 0 -1.90735e-06 0.0012722
25 1 0.930589 0.499583 0.489639 0 1.14441e-05 -0.00128365
26 1 0.754649 0.167085 0.560814 0 -2.09808e-05 0.00128174
27 1 0.68059 0.667083 0.489639 0 3.8147e-06 -0.00127411
28 1 0.486091 0.493133 0.0627521 0 0.000684738 -0.00069046
29 1 0.236091 0.673536 0.0627523 0 -0.000699997 -0.000699997
30 1 0.134313 0.500084 0.204954 0 0.00069809 0.000818253
31 1 0.884313 0.666583 0.204954 0 -0.000696182 0.000808716
32 1 0.782463 0.499656 0.347351 0 -0.000701904 0.00153351
33 1 0.550924 0.166583 0.845499 0 -0.00069809 -0.000806808
34 1 0.449146 -0.00686782 0.9877 0 0.000699997 0.000707626
35 1 0.199146 0.173535 0.987701 0 -0.000682831 0.000686646
36 1 0.652774 -0.000344396 0.703102 0 -0.000703812 -0.0015316
37 1 0.5787 0.499583 0.631833 0 -0.000518799 -0.000261307
38 1 0.402775 0.16701 0.703102 0 0.000703812 -0.00152588
39 1 0.328701 0.667084 0.631834 0 0.000524521 -0.000268936
40 1 0.300924 8.36701e-05 0.845499 0 0.000705719 -0.00082016
41 1 0.226815 0.499563 0.773908 0 0.000349045 6.29425e-05
42 1 0.0509239 0.166583 0.845499 0 -0.000699997 -0.000808716
43 1 0.976815 0.667104 0.773908 0 -0.000349045 6.67572e-05
44 1 0.949146 -0.00686655 0.987701 0 0.000677109 0.000686646
45 1 0.874955 0.499796 0.915619 0 -0.000379562 1.71661e-05
46 1 0.532462 0.66701 0.347351 0 0.000707626 0.0015316
47 1 0.430589 0.499584 0.489639 0 -7.62939e-06 -0.00127792
48 1 0.180589 0.667084 0.489639 0 0 -0.00126648
49 1 0.0787012 0.499584 0.631833 0 -0.000522614 -0.000257492
50 1 0.828702 0.667083 0.631834 0 0.000537872 -0.000263214
51 1 0.726816 0.499563 0.773908 0 0.000356674 6.10352e-05
52 1 0.699144 0.173535 0.987701 0 -0.000680923 0.00069046
53 1 0.624954 0.666872 0.915619 0 0.00037384 5.72205e-06
54 1 0.476815 0.667104 0.773908 0 -0.000350952 6.67572e-05
55 1 0.374955 0.499796 0.915619 0 -0.000392914 7.62939e-06
56 1 0.124955 0.666872 0.915619 0 0.000375748 1.90735e-05
ITEM: TIMESTEP
6
ITEM: NUMBER OF ATOMS
56
ITEM: BOX BOUNDS xy xz yz pp pp pp
-9.4422733783721924e-01 1.2203788340091705e+01 0.0000000000000000e+00
-8.4733366966247559e-03 5.5348814725875854e+00 -9.2553883790969849e-01
-2.9168844223022461e-02 1.9049128890037537e+01 0.0000000000000000e+00
ITEM: ATOMS id type xs ys zs fx fy fz
1 1 0.560282 -0.000213738 0.134842 0 3.8147e-05 0.000209808
2 1 0.310283 0.166881 0.134842 0 -4.19617e-05 0.000202179
3 1 0.208423 -0.000430233 0.276564 0 0.000228882 -0.000255585
4 1 0.958423 0.167097 0.276564 0 -0.000217438 -0.000259399
5 1 0.856536 -0.000474408 0.418629 0 7.43866e-05 0.000669479
6 1 0.0602829 -0.000213997 0.134842 0 4.19617e-05 0.000213623
7 1 0.98609 0.493181 0.0627398 0 0.000310898 0.000429153
8 1 0.810284 0.166881 0.134842 0 -3.05176e-05 0.000207901
9 1 0.736091 0.673487 0.0627396 0 -0.000318527 0.000432968
10 1 0.708424 -0.000430359 0.276564 0 0.000225067 -0.00025177
11 1 0.606535 0.167141 0.418629 0 -5.53131e-05 0.000673294
12 1 0.504649 -0.000442406 0.56084 0 -0.000116348 -0.000556946
13 1 0.25465 0.167109 0.56084 0 0.00012207 -0.00056076
14 1 0.152772 -0.000400324 0.703065 0 -0.000263214 -0.000179291
15 1 0.902772 0.167066 0.703065 0 0.000270844 -0.000181198
16 1 0.800923 0.0001319 0.845467 0 0.000148773 2.28882e-05
17 1 0.634314 0.500132 0.204986 0 0.000154495 -2.67029e-05
18 1 0.458423 0.167097 0.276564 0 -0.000225067 -0.000261307
19 1 0.384315 0.666535 0.204986 0 -0.000156403 -2.47955e-05
20 1 0.356537 -0.000474031 0.418629 0 6.10352e-05 0.000665665
21 1 0.282465 0.4996 0.347388 0 -0.000265121 0.000181198
22 1 0.106536 0.167142 0.418628 0 -6.86646e-05 0.000667572
23 1 0.0324651 0.667067 0.347388 0 0.000263214 0.000175476
24 1 0.00464953 -0.000442105 0.56084 0 -0.000112534 -0.000572205
25 1 0.930587 0.499559 0.489613 0 -0.00012207 0.000572205
26 1 0.754651 0.167109 0.56084 0 0.000120163 -0.000577927
27 1 0.680588 0.667109 0.489613 0 0.000112534 0.00056839
28 1 0.48609 0.493181 0.0627396 0 0.000324249 0.000436783
29 1 0.23609 0.673487 0.0627396 0 -0.000312805 0.00044632
30 1 0.134315 0.500131 0.204986 0 0.000154495 -2.47955e-05
31 1 0.884315 0.666535 0.204986 0 -0.000164032 -2.47955e-05
32 1 0.782466 0.4996 0.347388 0 -0.000270844 0.000179291
33 1 0.550921 0.166535 0.845467 0 -0.000164032 2.28882e-05
34 1 0.449147 -0.00681905 0.987713 0 0.00030899 -0.000452042
35 1 0.199147 0.173487 0.987713 0 -0.000326157 -0.000436783
36 1 0.652771 -0.000400791 0.703065 0 -0.000261307 -0.000181198
37 1 0.578699 0.499525 0.631824 0 6.29425e-05 -0.000669479
38 1 0.402772 0.167067 0.703066 0 0.000265121 -0.000188828
39 1 0.328701 0.667142 0.631824 0 -7.43866e-05 -0.000663757
40 1 0.300922 0.000131991 0.845467 0 0.000146866 2.86102e-05
41 1 0.226814 0.499569 0.773889 0 0.000238419 0.000259399
42 1 0.0509215 0.166535 0.845467 0 -0.00015831 2.28882e-05
43 1 0.976814 0.667097 0.773889 0 -0.000230789 0.000259399
44 1 0.949147 -0.00681951 0.987713 0 0.000322342 -0.000440598
45 1 0.874955 0.499786 0.915611 0 3.24249e-05 -0.000204086
46 1 0.532465 0.667067 0.347388 0 0.000265121 0.000181198
47 1 0.430587 0.499558 0.489613 0 -0.000114441 0.000570297
48 1 0.180587 0.66711 0.489613 0 0.000110626 0.000562668
49 1 0.0787005 0.499526 0.631824 0 6.48499e-05 -0.000669479
50 1 0.828701 0.667142 0.631824 0 -7.05719e-05 -0.00066185
51 1 0.726815 0.49957 0.773889 0 0.000228882 0.000268936
52 1 0.699145 0.173487 0.987713 0 -0.000318527 -0.000442505
53 1 0.624953 0.666881 0.915611 0 -2.67029e-05 -0.000196457
54 1 0.476814 0.667097 0.773889 0 -0.000226974 0.000247955
55 1 0.374954 0.499786 0.915611 0 4.19617e-05 -0.000200272
56 1 0.124954 0.666881 0.915611 0 -2.67029e-05 -0.000213623
ITEM: TIMESTEP
7
ITEM: NUMBER OF ATOMS
56
ITEM: BOX BOUNDS xy xz yz pp pp pp
-9.4422733783721924e-01 1.2203788340091705e+01 0.0000000000000000e+00
-8.4733366966247559e-03 5.5348814725875854e+00 -9.2553883790969849e-01
-2.9168844223022461e-02 1.9049128890037537e+01 0.0000000000000000e+00
ITEM: ATOMS id type xs ys zs fx fy fz
1 1 0.560283 -0.000212639 0.134848 0 0.000185013 -0.000209808
2 1 0.310283 0.166879 0.134848 0 -0.000181198 -0.000207901
3 1 0.208423 -0.000412633 0.276561 0 -2.09808e-05 0.00025177
4 1 0.958422 0.16708 0.276562 0 3.8147e-06 0.000244141
5 1 0.856538 -0.000479243 0.418644 0 -1.14441e-05 -3.05176e-05
6 1 0.0602833 -0.000212593 0.134848 0 0.000181198 -0.000207901
7 1 0.986091 0.493212 0.0627465 0 7.82013e-05 8.58307e-05
8 1 0.810284 0.16688 0.134847 0 -0.000185013 -0.000202179
9 1 0.736092 0.673456 0.0627464 0 -7.05719e-05 8.39233e-05
10 1 0.708424 -0.000412998 0.276562 0 -1.33514e-05 0.000244141
11 1 0.606536 0.167147 0.418644 0 7.62939e-06 -3.43323e-05
12 1 0.504648 -0.000455279 0.560833 0 -3.24249e-05 -0.000183105
13 1 0.254649 0.167122 0.560833 0 2.67029e-05 -0.000183105
14 1 0.152771 -0.000429019 0.703055 0 9.72748e-05 -2.67029e-05
15 1 0.902771 0.167096 0.703055 0 -9.91821e-05 -2.28882e-05
16 1 0.800923 0.000150823 0.845462 0 -1.33514e-05 -0.000101089
17 1 0.634315 0.500151 0.204991 0 -1.52588e-05 0.000106812
18 1 0.458423 0.16708 0.276562 0 9.53674e-06 0.000253677
19 1 0.384316 0.666515 0.204991 0 2.09808e-05 0.000102997
20 1 0.356538 -0.000479702 0.418644 0 -1.14441e-05 -2.86102e-05
21 1 0.282466 0.499571 0.347398 0 9.72748e-05 2.67029e-05
22 1 0.106537 0.167147 0.418644 0 1.52588e-05 -2.86102e-05
23 1 0.0324659 0.667096 0.347398 0 -9.72748e-05 3.05176e-05
24 1 0.00464898 -0.000454696 0.560833 0 -3.8147e-05 -0.000177383
25 1 0.930587 0.499546 0.48962 0 -3.62396e-05 0.000185013
26 1 0.75465 0.167122 0.560833 0 3.8147e-05 -0.000175476
27 1 0.680589 0.667122 0.48962 0 3.43323e-05 0.000171661
28 1 0.48609 0.493212 0.0627465 0 7.24792e-05 8.2016e-05
29 1 0.236091 0.673456 0.0627466 0 -8.01086e-05 7.62939e-05
30 1 0.134316 0.500151 0.204991 0 -1.14441e-05 0.000101089
31 1 0.884316 0.666515 0.204991 0 2.09808e-05 0.000101089
32 1 0.782467 0.499571 0.347398 0 0.000102997 2.09808e-05
33 1 0.550921 0.166515 0.845462 0 2.86102e-05 -9.91821e-05
34 1 0.449147 -0.00678842 0.987706 0 7.62939e-05 -7.05719e-05
35 1 0.199146 0.173456 0.987706 0 -7.62939e-05 -7.43866e-05
36 1 0.65277 -0.000429345 0.703055 0 0.000102997 -1.90735e-05
37 1 0.578698 0.49952 0.631809 0 -9.53674e-06 3.24249e-05
38 1 0.402771 0.167096 0.703055 0 -0.000101089 -2.28882e-05
39 1 0.328699 0.667146 0.631809 0 1.90735e-05 3.24249e-05
40 1 0.300921 0.000150944 0.845462 0 -7.62939e-06 -0.000104904
41 1 0.226814 0.499587 0.773891 0 -2.09808e-05 -0.00025177
42 1 0.0509211 0.166515 0.845462 0 2.47955e-05 -0.000104904
43 1 0.976814 0.66708 0.773891 0 1.14441e-05 -0.00025177
44 1 0.949147 -0.00678822 0.987706 0 7.62939e-05 -6.86646e-05
45 1 0.874954 0.499787 0.915605 0 0.000190735 0.000196457
46 1 0.532466 0.667096 0.347398 0 -9.72748e-05 2.47955e-05
47 1 0.430587 0.499545 0.48962 0 -3.62396e-05 0.000179291
48 1 0.180587 0.667122 0.48962 0 4.19617e-05 0.000179291
49 1 0.0786993 0.49952 0.631809 0 -5.72205e-06 2.67029e-05
50 1 0.8287 0.667147 0.631809 0 5.72205e-06 2.86102e-05
51 1 0.726815 0.499587 0.773891 0 -1.90735e-05 -0.000257492
52 1 0.699145 0.173456 0.987706 0 -7.82013e-05 -8.01086e-05
53 1 0.624953 0.66688 0.915605 0 -0.000192642 0.000190735
54 1 0.476814 0.66708 0.773891 0 5.72205e-06 -0.000244141
55 1 0.374954 0.499787 0.915605 0 0.000185013 0.000205994
56 1 0.124954 0.66688 0.915605 0 -0.000198364 0.000204086
ITEM: TIMESTEP
8
ITEM: NUMBER OF ATOMS
56
ITEM: BOX BOUNDS xy xz yz pp pp pp
-9.4422733783721924e-01 1.2203788340091705e+01 0.0000000000000000e+00
-8.4733366966247559e-03 5.5348814725875854e+00 -9.2553883790969849e-01
-2.9168844223022461e-02 1.9049128890037537e+01 0.0000000000000000e+00
ITEM: ATOMS id type xs ys zs fx fy fz
1 1 0.560282 -0.000196173 0.134843 0 3.05176e-05 5.91278e-05
2 1 0.310283 0.166863 0.134843 0 -2.28882e-05 5.72205e-05
3 1 0.208423 -0.000411419 0.276568 0 1.52588e-05 -2.09808e-05
4 1 0.958423 0.167078 0.276567 0 -1.52588e-05 -9.53674e-06
5 1 0.856538 -0.000481091 0.418646 0 -3.05176e-05 -6.86646e-05
6 1 0.060283 -0.000196409 0.134844 0 2.86102e-05 5.53131e-05
7 1 0.986091 0.493224 0.0627499 0 7.43866e-05 1.33514e-05
8 1 0.810284 0.166863 0.134843 0 -2.28882e-05 4.76837e-05
9 1 0.736092 0.673444 0.0627497 0 -8.2016e-05 -3.8147e-06
10 1 0.708424 -0.000411154 0.276567 0 1.52588e-05 -1.52588e-05
11 1 0.606537 0.167149 0.418646 0 3.05176e-05 -6.48499e-05
12 1 0.504648 -0.000460369 0.560827 0 9.53674e-06 9.91821e-05
13 1 0.254649 0.167127 0.560827 0 -3.8147e-06 8.96454e-05
14 1 0.152771 -0.00042545 0.703053 0 6.29425e-05 -0.00012207