ITEM: TIMESTEP
0
ITEM: NUMBER OF ATOMS
32
ITEM: BOX BOUNDS xy xz yz pp pp pp
-4.7826766967773438e-03 7.9191729426383972e+00 1.5198412537574768e+00
-3.7661075592041016e-02 2.2120539069175720e+01 0.0000000000000000e+00
-1.1393904685974121e-02 5.1938598752021790e+00 0.0000000000000000e+00
ITEM: ATOMS id type xs ys zs fx fy fz
1 1 0.939344 0.336542 0.593597 0 0.000795364 5.72205e-06
2 1 0.439345 0.336542 0.593597 0 0.00079155 5.72205e-06
3 1 0.199196 0.295033 0.0935973 0 -0.00220871 -5.72205e-06
4 1 0.699196 0.295033 0.0935973 0 -0.0022068 -3.8147e-06
5 1 0.159679 0.461543 0.593597 0 0.000879288 0
6 1 0.659679 0.461543 0.593597 0 0.000883102 5.72205e-06
7 1 0.919529 0.420037 0.0935973 0 -0.00148392 -7.62939e-06
8 1 0.41953 0.420037 0.0935973 0 -0.00148392 -3.8147e-06
9 1 0.880014 0.586543 0.593597 0 0.00141525 0
10 1 0.380014 0.586543 0.593597 0 0.00141335 0
11 1 0.10035 0.711539 0.593597 0 0.00229454 7.62939e-06
12 1 0.60035 0.711539 0.593597 0 0.00229263 3.8147e-06
13 1 0.860197 0.670042 0.0935972 0 -0.00103569 -3.8147e-06
14 1 0.139863 0.545043 0.0935972 0 -0.000986099 0
15 1 0.639863 0.545043 0.0935972 0 -0.000982285 0
16 1 0.360198 0.670042 0.0935972 0 -0.0010376 -7.62939e-06
17 1 0.820685 0.836533 0.593597 0 0.0127163 0
18 1 0.320686 0.836533 0.593597 0 0.0127163 1.90735e-06
19 1 0.0410206 0.961533 0.593597 0 -0.407967 3.8147e-06
20 1 0.541021 0.961533 0.593597 0 -0.407965 1.90735e-06
21 1 0.0805343 0.795035 0.0935971 0 0.00429535 0
22 1 0.580534 0.795035 0.0935971 0 0.00429726 0
23 1 0.800869 0.920032 0.0935971 0 -0.671413 -3.8147e-06
24 1 0.30087 0.920032 0.0935971 0 -0.671412 -3.8147e-06
25 1 0.998676 0.0865377 0.593597 0 0.671108 0
26 1 0.498677 0.0865377 0.593597 0 0.67111 0
27 1 0.258527 0.045031 0.093597 0 0.408352 0
28 1 0.758527 0.045031 0.093597 0 0.408348 0
29 1 0.219011 0.211541 0.593597 0 -0.00427818 1.90735e-06
30 1 0.719011 0.211541 0.593597 0 -0.00426865 1.90735e-06
31 1 0.978861 0.170031 0.093597 0 -0.0124874 0
32 1 0.478862 0.170031 0.093597 0 -0.0124931 0
ITEM: TIMESTEP
1
ITEM: NUMBER OF ATOMS
32
ITEM: BOX BOUNDS xy xz yz pp pp pp
-4.7826766967773438e-03 7.9191729426383972e+00 1.5198412537574768e+00
-3.7661075592041016e-02 2.2120539069175720e+01 0.0000000000000000e+00
-1.1393904685974121e-02 5.1938598752021790e+00 0.0000000000000000e+00
ITEM: ATOMS id type xs ys zs fx fy fz
1 1 0.939343 0.336548 0.593597 0 -6.10352e-05 0
2 1 0.439344 0.336548 0.593597 0 -6.10352e-05 0
3 1 0.1992 0.295018 0.0935971 0 0.000341415 0
4 1 0.6992 0.295018 0.0935972 0 0.000339508 0
5 1 0.159678 0.461549 0.593597 0 0.00134468 3.8147e-06
6 1 0.659678 0.461549 0.593597 0 0.00135231 0
7 1 0.919532 0.420027 0.0935971 0 -0.00197411 0
8 1 0.419532 0.420027 0.0935972 0 -0.00197792 0
9 1 0.880011 0.586553 0.593597 0 0.00193024 3.8147e-06
10 1 0.380012 0.586553 0.593597 0 0.00193214 -1.90735e-06
11 1 0.100346 0.711555 0.593597 0 -0.000257492 0
12 1 0.600346 0.711555 0.593597 0 -0.000257492 -3.8147e-06
13 1 0.860199 0.670035 0.0935971 0 -0.000118256 -1.90735e-06
14 1 0.139865 0.545036 0.0935972 0 -0.00148773 -5.72205e-06
15 1 0.639865 0.545036 0.0935972 0 -0.00148964 0
16 1 0.360199 0.670035 0.093597 0 -0.000110626 3.8147e-06
17 1 0.820665 0.836618 0.593597 0 -0.0947342 0
18 1 0.320666 0.836618 0.593597 0 -0.0947361 3.8147e-06
19 1 0.0416714 0.95879 0.593597 0 0.0288315 0
20 1 0.541671 0.95879 0.593597 0 0.028841 -5.72205e-06
21 1 0.0805275 0.795063 0.0935971 0 -0.106264 -1.90735e-06
22 1 0.580527 0.795063 0.0935971 0 -0.10627 0
23 1 0.80194 0.915519 0.093597 0 -0.137894 1.90735e-06
24 1 0.301941 0.915519 0.093597 0 -0.137897 3.8147e-06
25 1 0.997606 0.0910487 0.593597 0 0.138048 -1.90735e-06
26 1 0.497606 0.0910487 0.593597 0 0.138046 0
27 1 0.257876 0.0477758 0.093597 0 -0.0288067 0
28 1 0.757876 0.0477758 0.093597 0 -0.0288067 0
29 1 0.219017 0.211512 0.593597 0 0.106155 -1.90735e-06
30 1 0.719017 0.211512 0.593597 0 0.106159 -3.8147e-06
31 1 0.978881 0.169947 0.093597 0 0.0949383 5.72205e-06
32 1 0.478882 0.169947 0.093597 0 0.094944 1.90735e-06
ITEM: TIMESTEP
2
ITEM: NUMBER OF ATOMS
32
ITEM: BOX BOUNDS xy xz yz pp pp pp
-4.7826766967773438e-03 7.9191729426383972e+00 1.5198412537574768e+00
-3.7661075592041016e-02 2.2120539069175720e+01 0.0000000000000000e+00
-1.1393904685974121e-02 5.1938598752021790e+00 0.0000000000000000e+00
ITEM: ATOMS id type xs ys zs fx fy fz
1 1 0.939344 0.336546 0.593597 0 0.0610733 -1.90735e-06
2 1 0.439344 0.336546 0.593597 0 0.0610733 0
3 1 0.199197 0.295027 0.0935971 0 0.0769215 -1.90735e-06
4 1 0.699197 0.295027 0.0935972 0 0.0769234 -1.90735e-06
5 1 0.159669 0.461585 0.593597 0 0.000116348 -7.62939e-06
6 1 0.659669 0.461585 0.593597 0 9.72748e-05 0
7 1 0.919544 0.419974 0.0935971 0 0.000965118 5.72205e-06
8 1 0.419545 0.419974 0.0935972 0 0.000972748 0
9 1 0.879999 0.586605 0.593597 0 -0.00103188 -5.72205e-06
10 1 0.379999 0.586605 0.593597 0 -0.00103569 3.8147e-06
11 1 0.100348 0.711548 0.593597 0 -0.0769196 -1.90735e-06
12 1 0.600348 0.711548 0.593597 0 -0.0769196 9.53674e-06
13 1 0.8602 0.670032 0.0935969 0 -0.0611458 1.90735e-06
14 1 0.139874 0.544996 0.0935965 0 -0.00019455 7.62939e-06
15 1 0.639874 0.544996 0.0935972 0 -0.000196457 -1.90735e-06
16 1 0.3602 0.670032 0.0935974 0 -0.0611591 -5.72205e-06
17 1 0.821272 0.83406 0.593597 0 0.0164433 1.90735e-06
18 1 0.321273 0.83406 0.593597 0 0.016449 -1.90735e-06
19 1 0.0414866 0.959569 0.593597 0 0.0367584 5.72205e-06
20 1 0.541487 0.959569 0.593596 0 0.0367374 5.72205e-06
21 1 0.0812085 0.792194 0.0935969 0 -0.0424709 0
22 1 0.581209 0.792194 0.0935971 0 -0.0424652 -3.8147e-06
23 1 0.802824 0.911795 0.0935972 0 0.0286102 -5.72205e-06
24 1 0.302824 0.911795 0.0935974 0 0.0286198 -5.72205e-06
25 1 0.996721 0.0947765 0.593597 0 -0.0287476 9.53674e-06
26 1 0.496721 0.0947764 0.593597 0 -0.0287399 0
27 1 0.25806 0.0469979 0.093597 0 -0.0364952 0
28 1 0.75806 0.0469979 0.093597 0 -0.0364952 -1.90735e-06
29 1 0.218337 0.214379 0.593597 0 0.0425682 5.72205e-06
30 1 0.718337 0.214379 0.593597 0 0.0425625 7.62939e-06
31 1 0.978273 0.172511 0.0935977 0 -0.0164318 -1.52588e-05
32 1 0.478273 0.172511 0.0935972 0 -0.0164433 -1.90735e-06
ITEM: TIMESTEP
3
ITEM: NUMBER OF ATOMS
32
ITEM: BOX BOUNDS xy xz yz pp pp pp
-4.7826766967773438e-03 7.9191729426383972e+00 1.5198412537574768e+00
-3.7661075592041016e-02 2.2120539069175720e+01 0.0000000000000000e+00
-1.1393904685974121e-02 5.1938598752021790e+00 0.0000000000000000e+00
ITEM: ATOMS id type xs ys zs fx fy fz
1 1 0.939 0.337995 0.593597 0 0.0285797 1.90735e-06
2 1 0.439 0.337995 0.593597 0 0.0285873 0
3 1 0.198763 0.296855 0.0935969 0 0.00675964 3.8147e-06
4 1 0.698763 0.296855 0.093597 0 0.00675583 0
5 1 0.159666 0.461599 0.593597 0 0.0256405 3.8147e-06
6 1 0.659666 0.461598 0.593597 0 0.0256481 3.8147e-06
7 1 0.919543 0.419981 0.0935977 0 0.0489044 -9.53674e-06
8 1 0.419543 0.419981 0.0935972 0 0.0488987 0
9 1 0.880001 0.586596 0.593597 0 -0.0489655 0
10 1 0.380001 0.586596 0.593597 0 -0.0489655 -1.90735e-06
11 1 0.100781 0.70972 0.593597 0 -0.00679588 -9.53674e-06
12 1 0.600781 0.70972 0.593598 0 -0.00679588 -9.53674e-06
13 1 0.860544 0.66858 0.093597 0 -0.0285358 7.62939e-06
14 1 0.139878 0.544979 0.0935971 0 -0.0256977 0
15 1 0.639878 0.544979 0.093597 0 -0.025692 0
16 1 0.360545 0.66858 0.093597 0 -0.028532 7.62939e-06
17 1 0.821363 0.833677 0.593597 0 0.00868797 -1.14441e-05
18 1 0.321364 0.833677 0.593597 0 0.00868416 -9.53674e-06
19 1 0.0412237 0.960677 0.593598 0 -0.0312729 -9.53674e-06
20 1 0.541224 0.960677 0.593597 0 -0.0312538 -1.90735e-06
21 1 0.0816537 0.790318 0.0935968 0 0.0137653 9.53674e-06
22 1 0.581654 0.790318 0.0935967 0 0.0137711 1.14441e-05
23 1 0.80293 0.911348 0.0935967 0 -0.024889 1.33514e-05
24 1 0.30293 0.911348 0.093597 0 -0.0248852 3.8147e-06
25 1 0.996615 0.0952217 0.593598 0 0.0251865 -1.52588e-05
26 1 0.496616 0.0952218 0.593597 0 0.0251732 -1.90735e-06
27 1 0.258322 0.0458965 0.093597 0 0.0311298 1.90735e-06
28 1 0.758322 0.0458965 0.0935968 0 0.0311298 5.72205e-06
29 1 0.217892 0.216256 0.593597 0 -0.0138283 -7.62939e-06
30 1 0.717892 0.216256 0.593597 0 -0.013834 -3.8147e-06
31 1 0.978181 0.172896 0.0935963 0 -0.00868416 1.71661e-05
32 1 0.478182 0.172896 0.0935971 0 -0.00867462 0
ITEM: TIMESTEP
4
ITEM: NUMBER OF ATOMS
32
ITEM: BOX BOUNDS xy xz yz pp pp pp
-4.7826766967773438e-03 7.9191729426383972e+00 1.5198412537574768e+00
-3.7661075592041016e-02 2.2120539069175720e+01 0.0000000000000000e+00
-1.1393904685974121e-02 5.1938598752021790e+00 0.0000000000000000e+00
ITEM: ATOMS id type xs ys zs fx fy fz
1 1 0.938755 0.339027 0.593597 0 -4.00543e-05 0
2 1 0.438755 0.339027 0.593597 0 -4.95911e-05 -1.90735e-06
3 1 0.198588 0.297597 0.0935972 0 -0.00715828 0
4 1 0.698588 0.297597 0.0935969 0 -0.00716591 1.90735e-06
5 1 0.159549 0.462094 0.593597 0 0.00066185 5.72205e-06
6 1 0.659549 0.462094 0.593597 0 0.000680923 -3.8147e-06
7 1 0.91932 0.420919 0.0935971 0 0.016428 -1.90735e-06
8 1 0.41932 0.420919 0.0935972 0 0.0164261 -3.8147e-06
9 1 0.880224 0.585656 0.593597 0 -0.016428 7.62939e-06
10 1 0.380225 0.585656 0.593597 0 -0.0164223 1.90735e-06
11 1 0.100957 0.708978 0.593596 0 0.00713158 1.71661e-05
12 1 0.600957 0.708978 0.593597 0 0.00713921 9.53674e-06
13 1 0.860789 0.667548 0.0935977 0 2.09808e-05 -1.14441e-05
14 1 0.139996 0.544482 0.0935973 0 -0.000686646 -5.72205e-06
15 1 0.639996 0.544482 0.0935969 0 -0.000696182 3.8147e-06
16 1 0.36079 0.667548 0.0935974 0 2.47955e-05 -5.72205e-06
17 1 0.821354 0.833715 0.593596 0 -0.0190125 1.90735e-05
18 1 0.321355 0.833715 0.593597 0 -0.0190144 7.62939e-06
19 1 0.0412777 0.960449 0.593597 0 -0.000286102 7.62939e-06
20 1 0.541278 0.960449 0.593597 0 -0.000286102 5.72205e-06
21 1 0.0817401 0.789954 0.0935976 0 -0.0105457 -1.71661e-05
22 1 0.58174 0.789954 0.0935975 0 -0.0105495 -1.14441e-05
23 1 0.803079 0.910722 0.0935976 0 0.0199127 -1.33514e-05
24 1 0.303079 0.910722 0.0935971 0 0.0198898 -7.62939e-06
25 1 0.996466 0.0958529 0.593597 0 -0.0200138 1.14441e-05
26 1 0.496466 0.0958528 0.593597 0 -0.0200081 0
27 1 0.258268 0.0461238 0.0935972 0 0.000371933 -3.8147e-06
28 1 0.758268 0.0461237 0.0935972 0 0.000360489 -3.8147e-06
29 1 0.217805 0.21662 0.593597 0 0.010622 1.90735e-06
30 1 0.717805 0.21662 0.593597 0 0.0106297 0
31 1 0.97819 0.172859 0.0935973 0 0.0190296 -9.53674e-06
32 1 0.478191 0.172859 0.0935971 0 0.0190334 0
ITEM: TIMESTEP
5
ITEM: NUMBER OF ATOMS
32
ITEM: BOX BOUNDS xy xz yz pp pp pp
-4.7826766967773438e-03 7.9191729426383972e+00 1.5198412537574768e+00
-3.7661075592041016e-02 2.2120539069175720e+01 0.0000000000000000e+00
-1.1393904685974121e-02 5.1938598752021790e+00 0.0000000000000000e+00
ITEM: ATOMS id type xs ys zs fx fy fz
1 1 0.938718 0.339182 0.593597 0 0.000816345 0
2 1 0.438719 0.339182 0.593597 0 0.000810623 -1.90735e-06
3 1 0.198584 0.297611 0.0935972 0 0.00663567 -3.8147e-06
4 1 0.698584 0.297611 0.093597 0 0.00665283 0
5 1 0.159529 0.462177 0.593597 0 -0.00795937 -7.62939e-06
6 1 0.659529 0.462178 0.593597 0 -0.00796127 -3.8147e-06
7 1 0.919234 0.421283 0.0935969 0 -0.00234222 3.8147e-06
8 1 0.419234 0.421283 0.093597 0 -0.00234222 9.53674e-06
9 1 0.880311 0.585292 0.593597 0 0.00230789 -3.8147e-06
10 1 0.380311 0.585292 0.593597 0 0.00230789 0
11 1 0.100961 0.708964 0.593597 0 -0.00663185 -1.90735e-06
12 1 0.600961 0.708964 0.593597 0 -0.00663948 -7.62939e-06
13 1 0.860826 0.667393 0.0935971 0 -0.000806808 5.72205e-06
14 1 0.140016 0.544398 0.093597 0 0.00796127 3.8147e-06
15 1 0.640016 0.544397 0.0935971 0 0.00795937 1.90735e-06
16 1 0.360827 0.667393 0.0935972 0 -0.000802994 -1.90735e-06
17 1 0.821414 0.833462 0.593597 0 -0.00588417 -3.8147e-06
18 1 0.321415 0.833462 0.593597 0 -0.00588417 -1.90735e-06
19 1 0.0412868 0.960411 0.593597 0 -0.00703049 -1.90735e-06
20 1 0.541287 0.960411 0.593597 0 -0.00703621 -1.90735e-06
21 1 0.0817871 0.789756 0.0935967 0 0.00213051 5.72205e-06
22 1 0.581787 0.789756 0.093597 0 0.00212669 3.8147e-06
23 1 0.803037 0.910898 0.093597 0 -0.000644684 1.90735e-06
24 1 0.303037 0.910898 0.0935967 0 -0.00063324 3.8147e-06
25 1 0.996508 0.0956757 0.593597 0 0.000637054 -5.72205e-06
26 1 0.496508 0.0956757 0.593597 0 0.000646591 1.90735e-06
27 1 0.258258 0.0461629 0.093597 0 0.00704575 1.90735e-06
28 1 0.758259 0.0461627 0.093597 0 0.00705147 0
29 1 0.217758 0.216819 0.593597 0 -0.00212669 1.90735e-06
30 1 0.717758 0.216819 0.593597 0 -0.00213242 -1.90735e-06
31 1 0.97813 0.173112 0.0935969 0 0.00588799 5.72205e-06
32 1 0.478131 0.173112 0.093597 0 0.00588036 -1.90735e-06
ITEM: TIMESTEP
6
ITEM: NUMBER OF ATOMS
32
ITEM: BOX BOUNDS xy xz yz pp pp pp
-4.7826766967773438e-03 7.9191729426383972e+00 1.5198412537574768e+00
-3.7661075592041016e-02 2.2120539069175720e+01 0.0000000000000000e+00
-1.1393904685974121e-02 5.1938598752021790e+00 0.0000000000000000e+00
ITEM: ATOMS id type xs ys zs fx fy fz
1 1 0.938701 0.339253 0.593597 0 -0.00559807 0
2 1 0.438702 0.339253 0.593597 0 -0.00559235 1.90735e-06
3 1 0.198544 0.297781 0.0935968 0 0.00399017 3.8147e-06
4 1 0.698544 0.297781 0.0935971 0 0.00398064 0
5 1 0.159569 0.462007 0.593597 0 0.00288582 9.53674e-06
6 1 0.659569 0.462007 0.593597 0 0.00287247 7.62939e-06
7 1 0.919219 0.421345 0.0935972 0 0.001894 -3.8147e-06
8 1 0.419219 0.421345 0.0935979 0 0.00188828 -1.14441e-05
9 1 0.880326 0.585229 0.593597 0 -0.00187111 9.53674e-06
10 1 0.380326 0.585229 0.593597 0 -0.0018692 1.90735e-06
11 1 0.101001 0.708794 0.593597 0 -0.00400543 -3.8147e-06
12 1 0.601001 0.708794 0.593597 0 -0.0039978 5.72205e-06
13 1 0.860843 0.667322 0.0935975 0 0.00558853 -3.8147e-06
14 1 0.139976 0.544568 0.0935973 0 -0.00289536 -1.90735e-06
15 1 0.639976 0.544568 0.0935974 0 -0.00288773 -9.53674e-06
16 1 0.360843 0.667322 0.0935969 0 0.00558472 0
17 1 0.821469 0.833232 0.593597 0 -0.000278473 -1.90735e-06
18 1 0.321469 0.833232 0.593597 0 -0.000270844 0
19 1 0.0413313 0.960223 0.593597 0 -0.00047493 -3.8147e-06
20 1 0.541331 0.960223 0.593597 0 -0.000469208 0
21 1 0.08179 0.789743 0.093597 0 3.43323e-05 1.90735e-06
22 1 0.58179 0.789743 0.0935972 0 3.24249e-05 -3.8147e-06
23 1 0.803027 0.91094 0.093597 0 -0.001791 1.90735e-06
24 1 0.303027 0.910941 0.093597 0 -0.00179482 3.8147e-06
25 1 0.996518 0.0956331 0.593597 0 0.00184441 3.8147e-06
26 1 0.496518 0.0956333 0.593597 0 0.00182724 -1.90735e-06
27 1 0.258214 0.0463513 0.0935971 0 0.000444412 0
28 1 0.758214 0.0463512 0.093597 0 0.000450134 0
29 1 0.217755 0.216831 0.593597 0 -5.53131e-05 -3.8147e-06
30 1 0.717755 0.216831 0.593597 0 -3.24249e-05 1.90735e-06
31 1 0.978076 0.173342 0.0935973 0 0.00028038 -7.62939e-06
32 1 0.478076 0.173342 0.0935968 0 0.000286102 3.8147e-06
ITEM: TIMESTEP
7
ITEM: NUMBER OF ATOMS
32
ITEM: BOX BOUNDS xy xz yz pp pp pp
-4.7826766967773438e-03 7.9191729426383972e+00 1.5198412537574768e+00
-3.7661075592041016e-02 2.2120539069175720e+01 0.0000000000000000e+00
-1.1393904685974121e-02 5.1938598752021790e+00 0.0000000000000000e+00
ITEM: ATOMS id type xs ys zs fx fy fz
1 1 0.93872 0.339172 0.593597 0 -0.000102997 -1.90735e-06
2 1 0.438721 0.339172 0.593597 0 -9.53674e-05 0
3 1 0.198519 0.297885 0.093597 0 0.000392914 -3.8147e-06
4 1 0.698519 0.297885 0.0935971 0 0.000389099 1.90735e-06
5 1 0.159566 0.46202 0.593597 0 -0.000663757 3.8147e-06
6 1 0.659566 0.46202 0.593597 0 -0.000659943 -5.72205e-06
7 1 0.919208 0.421391 0.093597 0 0.000734329 1.90735e-06
8 1 0.419208 0.42139 0.0935973 0 0.000741959 1.90735e-06
9 1 0.880336 0.585184 0.593598 0 -0.000734329 -9.53674e-06
10 1 0.380337 0.585184 0.593597 0 -0.000734329 -9.53674e-06
11 1 0.101026 0.708689 0.593597 0 -0.000389099 1.90735e-06
12 1 0.601026 0.708689 0.593597 0 -0.000391006 -3.8147e-06
13 1 0.860824 0.667403 0.0935973 0 9.53674e-05 -1.90735e-06
14 1 0.139979 0.544554 0.0935972 0 0.000658035 1.90735e-06
15 1 0.639979 0.544554 0.0935968 0 0.000663757 1.14441e-05
16 1 0.360824 0.667403 0.0935968 0 9.53674e-05 7.62939e-06
17 1 0.821481 0.833179 0.593597 0 -0.00056076 1.90735e-06
18 1 0.321482 0.833179 0.593597 0 -0.000564575 5.72205e-06
19 1 0.0413426 0.960176 0.593597 0 0.00199127 5.72205e-06
20 1 0.541343 0.960176 0.593597 0 0.00199318 3.8147e-06
21 1 0.0817905 0.789741 0.0935972 0 8.7738e-05 -3.8147e-06
22 1 0.581791 0.789741 0.093597 0 8.96454e-05 1.90735e-06
23 1 0.803032 0.910919 0.0935971 0 0.000553131 -3.8147e-06
24 1 0.303032 0.910919 0.0935973 0 0.000551224 -9.53674e-06
25 1 0.996512 0.0956558 0.593597 0 -0.00056839 0
26 1 0.496513 0.0956558 0.593597 0 -0.00056839 5.72205e-06
27 1 0.258203 0.0463985 0.0935971 0 -0.00197029 0
28 1 0.758203 0.0463985 0.093597 0 -0.00197601 -3.8147e-06
29 1 0.217755 0.216833 0.593597 0 -8.39233e-05 1.90735e-06
30 1 0.717755 0.216833 0.593597 0 -8.96454e-05 1.90735e-06
31 1 0.978063 0.173395 0.0935969 0 0.000556946 0
32 1 0.478063 0.173395 0.0935971 0 0.000558853 -3.8147e-06
ITEM: TIMESTEP
8
ITEM: NUMBER OF ATOMS
32
ITEM: BOX BOUNDS xy xz yz pp pp pp
-4.7826766967773438e-03 7.9191729426383972e+00 1.5198412537574768e+00
-3.7661075592041016e-02 2.2120539069175720e+01 0.0000000000000000e+00
-1.1393904685974121e-02 5.1938598752021790e+00 0.0000000000000000e+00
ITEM: ATOMS id type xs ys zs fx fy fz
1 1 0.938722 0.339164 0.593597 0 0.000331879 0
2 1 0.438723 0.339164 0.593597 0 0.000326157 1.90735e-06
3 1 0.198516 0.2979 0.0935968 0 0.000123978 1.90735e-06
4 1 0.698516 0.2979 0.0935972 0 0.000123978 0
5 1 0.159568 0.462011 0.593597 0 -0.000583649 -1.90735e-06
6 1 0.659568 0.462011 0.593597 0 -0.000581741 5.72205e-06
7 1 0.919205 0.421406 0.0935971 0 0.00034523 0
8 1 0.419205 0.421406 0.0935973 0 0.00034523 -5.72205e-06
9 1 0.88034 0.585169 0.593597 0 -0.000343323 7.62939e-06
10 1 0.38034 0.585169 0.593597 0 -0.000350952 7.62939e-06
11 1 0.101029 0.708675 0.593597 0 -0.000112534 0
12 1 0.601029 0.708675 0.593597 0 -0.00012207 3.8147e-06
13 1 0.860822 0.667411 0.0935972 0 -0.000333786 -5.72205e-06
14 1 0.139977 0.544563 0.0935973 0 0.000587463 0
15 1 0.639977 0.544563 0.0935975 0 0.000587463 -9.53674e-06
16 1 0.360822 0.667411 0.0935973 0 -0.000335693 -5.72205e-06
17 1 0.821484 0.833166 0.593597 0 0.000284195 0
18 1 0.321485 0.833166 0.593597 0 0.00028038 -5.72205e-06
19 1 0.0413363 0.960202 0.593597 0 -4.00543e-05 0
20 1 0.541336 0.960202 0.593597 0 -3.8147e-05 0
21 1 0.0817902 0.789743 0.093597 0 0.000272751 0
22 1 0.58179 0.789743 0.0935971 0 0.000278473 0
23 1 0.80303 0.910925 0.0935969 0 -0.000747681 0
24 1 0.303031 0.910925 0.0935967 0 -0.000751495 5.72205e-06
25 1 0.996514 0.095649 0.593597 0 0.000761032 1.90735e-06
26 1 0.496514 0.095649 0.593597 0 0.000759125 -7.62939e-06
27 1 0.258209 0.0463724 0.0935971 0 3.24249e-05 -1.90735e-06
28 1 0.758209 0.0463724 0.0935967 0 3.24249e-05 1.90735e-06
29 1 0.217755 0.216832 0.593597 0 -0.000274658 -3.8147e-06
30 1 0.717755 0.216832 0.593597 0 -0.000286102 -3.8147e-06
31 1 0.97806 0.173408 0.0935968 0 -0.00028801 5.72205e-06
32 1 0.47806 0.173408 0.0935968 0 -0.000282288 7.62939e-06
ITEM: TIMESTEP
9
ITEM: NUMBER OF ATOMS
32
ITEM: BOX BOUNDS xy xz yz pp pp pp
-4.7826766967773438e-03 7.9191729426383972e+00 1.5198412537574768e+00
-3.7661075592041016e-02 2.2120539069175720e+01 0.0000000000000000e+00
-1.1393904685974121e-02 5.1938598752021790e+00 0.0000000000000000e+00
ITEM: ATOMS id type xs ys zs fx fy fz
1 1 0.938722 0.339167 0.593597 0 -5.14984e-05 1.90735e-06
2 1 0.438722 0.339167 0.593597 0 -4.57764e-05 0
3 1 0.198514 0.297905 0.0935969 0 -2.47955e-05 0
4 1 0.698514 0.297905 0.0935972 0 -2.09808e-05 -1.90735e-06
5 1 0.159571 0.462001 0.593597 0 1.33514e-05 1.90735e-06
6 1 0.659571 0.462001 0.593597 0 1.33514e-05 -3.8147e-06
7 1 0.919202 0.421414 0.0935971 0 0.000249863 1.90735e-06
8 1 0.419203 0.421414 0.093597 0 0.000249863 0
9 1 0.880342 0.58516 0.593597 0 -0.000242233 -7.62939e-06
10 1 0.380342 0.58516 0.593597 0 -0.000253677 0
11 1 0.101031 0.70867 0.593597 0 1.71661e-05 0
12 1 0.601031 0.70867 0.593597 0 3.05176e-05 -1.90735e-06
13 1 0.860823 0.667408 0.0935968 0 5.34058e-05 5.72205e-06
14 1 0.139974 0.544574 0.0935974 0 -1.71661e-05 -1.90735e-06
15 1 0.639974 0.544574 0.093597 0 -2.09808e-05 5.72205e-06
16 1 0.360823 0.667408 0.0935971 0 5.72205e-05 1.90735e-06
17 1 0.821484 0.833167 0.593597 0 0.000123978 -7.62939e-06
18 1 0.321484 0.833167 0.593597 0 0.00012207 -3.8147e-06
19 1 0.0413351 0.960207 0.593598 0 -8.2016e-05 -3.8147e-06
20 1 0.541335 0.960207 0.593597 0 -8.39233e-05 -3.8147e-06
21 1 0.0817892 0.789747 0.0935969 0 -0.000337601 1.90735e-06
22 1 0.581789 0.789747 0.0935971 0 -0.000343323 1.90735e-06
23 1 0.803033 0.910916 0.0935968 0 -2.09808e-05 7.62939e-06
24 1 0.303033 0.910916 0.093597 0 -1.90735e-05 5.72205e-06
25 1 0.996512 0.0956589 0.593597 0 1.33514e-05 0
26 1 0.496512 0.0956588 0.593597 0 2.67029e-05 3.8147e-06
27 1 0.25821 0.0463671 0.093597 0 8.58307e-05 0
28 1 0.75821 0.046367 0.0935968 0 8.01086e-05 0
29 1 0.217756 0.216827 0.593597 0 0.000337601 1.90735e-06
30 1 0.717756 0.216827 0.593597 0 0.000333786 1.90735e-06
31 1 0.97806 0.173407 0.0935972 0 -0.000120163 -1.90735e-06
32 1 0.478061 0.173407 0.0935973 0 -0.000123978 -5.72205e-06
ITEM: TIMESTEP
10
ITEM: NUMBER OF ATOMS
32
ITEM: BOX BOUNDS xy xz yz pp pp pp
-4.7826766967773438e-03 7.9191729426383972e+00 1.5198412537574768e+00
-3.7661075592041016e-02 2.2120539069175720e+01 0.0000000000000000e+00
-1.1393904685974121e-02 5.1938598752021790e+00 0.0000000000000000e+00
ITEM: ATOMS id type xs ys zs fx fy fz
1 1 0.938722 0.339166 0.593597 0 7.62939e-05 1.90735e-06
2 1 0.438722 0.339166 0.593597 0 8.2016e-05 -3.8147e-06
3 1 0.198514 0.297905 0.0935969 0 8.39233e-05 0
4 1 0.698514 0.297905 0.0935971 0 7.82013e-05 -3.8147e-06
5 1 0.159571 0.461999 0.593597 0 -1.90735e-06 -3.8147e-06
6 1 0.659571 0.461999 0.593597 0 -3.8147e-06 0
7 1 0.919201 0.42142 0.0935973 0 -1.33514e-05 0
8 1 0.419202 0.42142 0.0935969 0 -9.53674e-06 5.72205e-06
9 1 0.880343 0.585155 0.593597 0 5.72205e-06 5.72205e-06
10 1 0.380344 0.585155 0.593597 0 1.52588e-05 0
11 1 0.101031 0.708669 0.593597 0 -8.58307e-05 0
12 1 0.601031 0.708669 0.593597 0 -8.96454e-05 0
13 1 0.860823 0.667408 0.0935971 0 -8.2016e-05 1.90735e-06
14 1 0.139974 0.544575 0.0935972 0 7.62939e-06 0
15 1 0.639974 0.544575 0.0935973 0 9.53674e-06 -5.72205e-06
16 1 0.360823 0.667408 0.0935972 0 -8.39233e-05 0
17 1 0.821484 0.83317 0.593597 0 -4.76837e-05 9.53674e-06
18 1 0.321484 0.83317 0.593597 0 -4.95911e-05 1.14441e-05
19 1 0.0413352 0.960207 0.593597 0 3.05176e-05 5.72205e-06
20 1 0.541335 0.960207 0.593597 0 3.8147e-05 3.8147e-06
21 1 0.0817903 0.789742 0.0935971 0 -6.67572e-05 -7.62939e-06
22 1 0.58179 0.789742 0.0935972 0 -5.91278e-05 -5.72205e-06
23 1 0.803033 0.910914 0.0935973 0 3.24249e-05 -7.62939e-06
24 1 0.303034 0.910914 0.0935974 0 3.62396e-05 -9.53674e-06
25 1 0.996511 0.0956607 0.593597 0 -4.00543e-05 -5.72205e-06
26 1 0.496512 0.0956608 0.593597 0 -4.76837e-05 -1.90735e-06
27 1 0.25821 0.0463677 0.093597 0 -3.05176e-05 1.90735e-06
28 1 0.75821 0.0463675 0.0935968 0 -3.05176e-05 1.90735e-06
29 1 0.217755 0.216832 0.593597 0 6.86646e-05 1.90735e-06
30 1 0.717755 0.216832 0.593597 0 7.62939e-05 5.72205e-06
31 1 0.978061 0.173405 0.0935971 0 5.14984e-05 -5.72205e-06
32 1 0.478061 0.173405 0.0935969 0 4.95911e-05 3.8147e-06
ITEM: TIMESTEP
11
ITEM: NUMBER OF ATOMS
32
ITEM: BOX BOUNDS xy xz yz pp pp pp
-4.7826766967773438e-03 7.9191729426383972e+00 1.5198412537574768e+00
-3.7661075592041016e-02 2.2120539069175720e+01 0.0000000000000000e+00
-1.1393904685974121e-02 5.1938598752021790e+00 0.0000000000000000e+00
ITEM: ATOMS id type xs ys zs fx fy fz
1 1 0.938722 0.339166 0.593597 0 7.62939e-05 1.90735e-06
2 1 0.438722 0.339166 0.593597 0 8.2016e-05 -3.8147e-06
3 1 0.198514 0.297905 0.0935969 0 8.39233e-05 0
4 1 0.698514 0.297905 0.0935971 0 7.82013e-05 -3.8147e-06
5 1 0.159571 0.461999 0.593597 0 -1.90735e-06 -3.8147e-06
6 1 0.659571 0.461999 0.593597 0 -3.8147e-06 0
7 1 0.919201 0.42142 0.0935973 0 -1.33514e-05 0
8 1 0.419202 0.42142 0.0935969 0 -9.53674e-06 5.72205e-06
9 1 0.880343 0.585155 0.593597 0 5.72205e-06 5.72205e-06
10 1 0.380344 0.585155 0.593597 0 1.52588e-05 0
11 1 0.101031 0.708669 0.593597 0 -8.58307e-05 0
12 1 0.601031 0.708669 0.593597 0 -8.96454e-05 0
13 1 0.860823 0.667408 0.0935971 0 -8.2016e-05 1.90735e-06
14 1 0.139974 0.544575 0.0935972 0 7.62939e-06 0
15 1 0.639974 0.544575 0.0935973 0 9.53674e-06 -5.72205e-06
16 1 0.360823 0.667408 0.0935972 0 -8.39233e-05 0
17 1 0.821484 0.83317 0.593597 0 -4.76837e-05 9.53674e-06
18 1 0.321484 0.83317 0.593597 0 -4.95911e-05 1.14441e-05
19 1 0.0413352 0.960207 0.593597 0 3.05176e-05 5.72205e-06
20 1 0.541335 0.960207 0.593597 0 3.8147e-05 3.8147e-06
21 1 0.0817903 0.789742 0.0935971 0 -6.67572e-05 -7.62939e-06
22 1 0.58179 0.789742 0.0935972 0 -5.91278e-05 -5.72205e-06
23 1 0.803033 0.910914 0.0935973 0 3.24249e-05 -7.62939e-06
24 1 0.303034 0.910914 0.0935974 0 3.62396e-05 -9.53674e-06
25 1 0.996511 0.0956607 0.593597 0 -4.00543e-05 -5.72205e-06
26 1 0.496512 0.0956608 0.593597 0 -4.76837e-05 -1.90735e-06
27 1 0.25821 0.0463677 0.093597 0 -3.05176e-05 1.90735e-06
28 1 0.75821 0.0463675 0.0935968 0 -3.05176e-05 1.90735e-06
29 1 0.217755 0.216832 0.593597 0 6.86646e-05 1.90735e-06
30 1 0.717755 0.216832 0.593597 0 7.62939e-05 5.72205e-06
31 1 0.978061 0.173405 0.0935971 0 5.14984e-05 -5.72205e-06
32 1 0.478061 0.173405 0.0935969 0 4.95911e-05 3.8147e-06
