ITEM: TIMESTEP
0
ITEM: NUMBER OF ATOMS
56
ITEM: BOX BOUNDS xy xz yz pp pp pp
-3.2324376106262207e+00 1.2203788340091705e+01 0.0000000000000000e+00
-8.4733366966247559e-03 5.5348814725875854e+00 -3.2137491106987000e+00
-2.9168844223022461e-02 1.9049128890037537e+01 0.0000000000000000e+00
ITEM: ATOMS id type xs ys zs fx fy fz
1 1 0.584875 4.41887e-05 0.132366 0 0.0417767 0.18821
2 1 0.334876 0.166624 0.132366 0 -0.0418053 0.188244
3 1 0.259847 2.39879e-05 0.275225 0 0.00128937 -0.00202942
4 1 0.00984705 0.166644 0.275225 0 -0.00130653 -0.00203133
5 1 0.934765 1.9421e-05 0.418082 0 -4.19617e-05 0.000694275
6 1 0.084876 4.41295e-05 0.132366 0 0.0417824 0.188223
7 1 0.997363 0.500074 0.0609403 0 1.06054 0.844452
8 1 0.834877 0.166623 0.132366 0 -0.0417824 0.188265
9 1 0.747364 0.666593 0.0609403 0 -1.06052 0.844479
10 1 0.759849 2.39872e-05 0.275225 0 0.00128746 -0.00202179
11 1 0.684764 0.166647 0.418082 0 4.76837e-05 0.000688553
12 1 0.609672 2.47556e-05 0.560942 0 -8.58307e-05 -0.000347137
13 1 0.359673 0.166643 0.560942 0 7.62939e-05 -0.000349045
14 1 0.284589 2.39811e-05 0.703801 0 -0.000469208 9.53674e-06
15 1 0.0345887 0.166644 0.703801 0 0.000436783 1.90735e-06
16 1 0.959517 2.63435e-05 0.846651 0 0.00724411 -0.00520897
17 1 0.672379 0.500026 0.203802 0 0.00726509 0.00522232
18 1 0.509847 0.166645 0.275225 0 -0.00133133 -0.0020256
19 1 0.42238 0.66664 0.203802 0 -0.00723076 0.00522614
20 1 0.434766 2.01694e-05 0.418082 0 -5.91278e-05 0.000692368
21 1 0.347307 0.500023 0.346651 0 -0.000440598 7.62939e-06
22 1 0.184765 0.166648 0.418082 0 4.3869e-05 0.00069046
23 1 0.0973072 0.666642 0.346651 0 0.000476837 -1.33514e-05
24 1 0.109673 2.49573e-05 0.560941 0 -8.96454e-05 -0.000337601
25 1 0.0222221 0.500025 0.489511 0 -8.2016e-05 0.000333786
26 1 0.859674 0.166643 0.560941 0 7.62939e-05 -0.000333786
27 1 0.772223 0.666642 0.489511 0 8.7738e-05 0.000354767
28 1 0.497362 0.500073 0.0609404 0 1.06059 0.844484
29 1 0.247363 0.666593 0.0609403 0 -1.06055 0.844479
30 1 0.17238 0.500026 0.203802 0 0.00725937 0.00522232
31 1 0.92238 0.666641 0.203802 0 -0.00726318 0.00522423
32 1 0.847308 0.500024 0.346651 0 -0.000469208 -9.53674e-06
33 1 0.709515 0.166641 0.846652 0 -0.00724792 -0.00525093
34 1 0.634533 7.47473e-05 0.989512 0 1.06051 -0.844421
35 1 0.384533 0.166594 0.989513 0 -1.06059 -0.844501
36 1 0.784587 2.44315e-05 0.703801 0 -0.000471115 3.8147e-06
37 1 0.697129 0.50002 0.632371 0 -4.57764e-05 -0.000707626
38 1 0.534589 0.166643 0.703801 0 0.00044632 1.33514e-05
39 1 0.44713 0.666647 0.632371 0 5.14984e-05 -0.000692368
40 1 0.459516 2.63314e-05 0.846651 0 0.00725555 -0.00523186
41 1 0.372048 0.500023 0.775228 0 0.00130463 0.00204277
42 1 0.209516 0.166641 0.846651 0 -0.00725555 -0.00522995
43 1 0.122048 0.666644 0.775228 0 -0.00129509 0.00201225
44 1 0.134533 7.37033e-05 0.989512 0 1.06057 -0.844465
45 1 0.0470201 0.500043 0.918087 0 0.0417938 -0.18821
46 1 0.597307 0.666643 0.346651 0 0.000478745 -5.72205e-06
47 1 0.522222 0.500025 0.489511 0 -7.82013e-05 0.000337601
48 1 0.272222 0.666642 0.489511 0 9.15527e-05 0.000335693
49 1 0.19713 0.500019 0.632371 0 -3.43323e-05 -0.000686646
50 1 0.947131 0.666647 0.63237 0 6.48499e-05 -0.000669479
51 1 0.872049 0.500022 0.775228 0 0.00131798 0.00202942
52 1 0.884531 0.166594 0.989513 0 -1.06054 -0.844488
53 1 0.797019 0.666624 0.918087 0 -0.0417919 -0.188282
54 1 0.622048 0.666643 0.775228 0 -0.001297 0.00203514
55 1 0.54702 0.500044 0.918087 0 0.0417995 -0.188232
56 1 0.29702 0.666624 0.918087 0 -0.0417938 -0.188231
ITEM: TIMESTEP
1
ITEM: NUMBER OF ATOMS
56
ITEM: BOX BOUNDS xy xz yz pp pp pp
-3.2324376106262207e+00 1.2203788340091705e+01 0.0000000000000000e+00
-8.4733366966247559e-03 5.5348814725875854e+00 -3.2137491106987000e+00
-2.9168844223022461e-02 1.9049128890037537e+01 0.0000000000000000e+00
ITEM: ATOMS id type xs ys zs fx fy fz
1 1 0.58512 0.000754766 0.133296 0 0.12191 0.0587559
2 1 0.335121 0.165913 0.133296 0 -0.12192 0.0587597
3 1 0.259845 4.59187e-05 0.275215 0 -0.000772476 0.0164185
4 1 0.00984442 0.166622 0.275215 0 0.000762939 0.0164223
5 1 0.934766 1.87073e-05 0.418085 0 -0.000427246 -0.00136948
6 1 0.0851206 0.000754805 0.133296 0 0.121912 0.0587597
7 1 0.99846 0.518113 0.0651136 0 0.368042 0.167053
8 1 0.835121 0.165913 0.133296 0 -0.121918 0.058773
9 1 0.748461 0.648555 0.0651138 0 -0.368027 0.167068
10 1 0.759846 4.58855e-05 0.275215 0 -0.000774384 0.0164146
11 1 0.684765 0.166648 0.418086 0 0.000434875 -0.0013752
12 1 0.609672 2.32957e-05 0.56094 0 0 0.000549316
13 1 0.359673 0.166644 0.56094 0 -3.8147e-06 0.000547409
14 1 0.284589 1.60004e-05 0.703801 0 -0.000753403 -0.00418282
15 1 0.0345887 0.166652 0.703801 0 0.000743866 -0.00418663
16 1 0.95951 0.000149558 0.846625 0 -0.00738716 -0.101353
17 1 0.672386 0.50015 0.203827 0 -0.00738335 0.101366
18 1 0.509845 0.166622 0.275215 0 0.000753403 0.0164204
19 1 0.422387 0.666517 0.203827 0 0.00739288 0.101377
20 1 0.434767 1.91637e-05 0.418086 0 -0.000440598 -0.0013752
21 1 0.347307 0.500016 0.346651 0 -0.000759125 0.00418282
22 1 0.184766 0.166649 0.418085 0 0.000431061 -0.00137138
23 1 0.0973072 0.666651 0.346651 0 0.000761032 0.004179
24 1 0.109672 2.34325e-05 0.56094 0 3.8147e-06 0.000549316
25 1 0.0222225 0.500023 0.489513 0 5.72205e-06 -0.00056076
26 1 0.859674 0.166644 0.56094 0 -5.72205e-06 0.000564575
27 1 0.772224 0.666643 0.489513 0 5.72205e-06 -0.000547409
28 1 0.49846 0.518113 0.0651139 0 0.36804 0.16704
29 1 0.24846 0.648554 0.0651138 0 -0.368031 0.167051
30 1 0.172387 0.50015 0.203827 0 -0.00738716 0.101366
31 1 0.922387 0.666518 0.203827 0 0.00738525 0.101372
32 1 0.847308 0.500016 0.346651 0 -0.000751495 0.00418282
33 1 0.709509 0.166517 0.846626 0 0.00739098 -0.101381
34 1 0.633436 0.018113 0.985339 0 0.368032 -0.167049
35 1 0.383436 0.148554 0.985339 0 -0.368042 -0.167042
36 1 0.784587 1.64183e-05 0.703801 0 -0.000761032 -0.00417137
37 1 0.697128 0.500019 0.632368 0 -0.00043869 0.00135803
38 1 0.534589 0.166651 0.703802 0 0.000757217 -0.00418091
39 1 0.447129 0.666648 0.632367 0 0.000434875 0.0013752
40 1 0.459509 0.000149741 0.846625 0 -0.00739098 -0.10137
41 1 0.372051 0.500045 0.775238 0 -0.000772476 -0.0164146
42 1 0.209509 0.166517 0.846625 0 0.00738716 -0.101387
43 1 0.122051 0.666622 0.775238 0 0.000766754 -0.0164185
44 1 0.133436 0.0181128 0.985339 0 0.368036 -0.16703
45 1 0.0467755 0.500754 0.917156 0 0.121918 -0.0587502
46 1 0.597307 0.666651 0.346651 0 0.000759125 0.00418091
47 1 0.522223 0.500023 0.489513 0 1.14441e-05 -0.000555038
48 1 0.272223 0.666643 0.489513 0 3.8147e-06 -0.00056076
49 1 0.197129 0.500018 0.632367 0 -0.000431061 0.00138664
50 1 0.94713 0.666648 0.632367 0 0.000434875 0.00138664
51 1 0.872052 0.500045 0.775238 0 -0.000762939 -0.0164223
52 1 0.883434 0.148555 0.985339 0 -0.368034 -0.167078
53 1 0.796774 0.665913 0.917157 0 -0.121918 -0.0587864
54 1 0.622051 0.666621 0.775238 0 0.000772476 -0.0164165
55 1 0.546775 0.500755 0.917157 0 0.121916 -0.0587597
56 1 0.296775 0.665913 0.917157 0 -0.121914 -0.0587654
ITEM: TIMESTEP
2
ITEM: NUMBER OF ATOMS
56
ITEM: BOX BOUNDS xy xz yz pp pp pp
-3.2324376106262207e+00 1.2203788340091705e+01 0.0000000000000000e+00
-8.4733366966247559e-03 5.5348814725875854e+00 -3.2137491106987000e+00
-2.9168844223022461e-02 1.9049128890037537e+01 0.0000000000000000e+00
ITEM: ATOMS id type xs ys zs fx fy fz
1 1 0.585338 0.00668966 0.134127 0 0.140905 -0.00108147
2 1 0.335339 0.159977 0.134127 0 -0.140903 -0.00108528
3 1 0.259906 8.31254e-06 0.275447 0 -0.00174141 0.0354176
4 1 0.00990549 0.166659 0.275447 0 0.00173378 0.0354137
5 1 0.934761 -2.09216e-06 0.418066 0 -0.00142288 0.00290108
6 1 0.0853392 0.00668979 0.134127 0 0.140903 -0.00108528
7 1 0.999081 0.53603 0.0674766 0 0.000717163 -0.169342
8 1 0.83534 0.159977 0.134128 0 -0.14089 -0.00109482
9 1 0.749083 0.630638 0.067477 0 -0.000730515 -0.169348
10 1 0.759907 8.18654e-06 0.275447 0 -0.00173569 0.0354233
11 1 0.68476 0.166669 0.418066 0 0.0014286 0.00289726
12 1 0.609674 2.32957e-05 0.560948 0 -0.00050354 -0.00149727
13 1 0.359675 0.166644 0.560948 0 0.00050354 -0.00150299
14 1 0.284573 -2.06772e-05 0.703742 0 -0.00349236 -0.0279198
15 1 0.0345731 0.166688 0.703742 0 0.0034771 -0.0279198
16 1 0.959133 -0.000210068 0.845192 0 0.00909042 -0.0991287
17 1 0.672763 0.49979 0.205261 0 0.00908661 0.0991287
18 1 0.509906 0.166659 0.275447 0 0.00173569 0.0354233
19 1 0.422764 0.666877 0.205261 0 -0.00908852 0.0991268
20 1 0.434762 -2.28571e-06 0.418066 0 -0.00142097 0.00289536
21 1 0.347323 0.499979 0.34671 0 -0.00348091 0.0279255
22 1 0.184761 0.16667 0.418066 0 0.00141907 0.00289726
23 1 0.0973227 0.666688 0.346711 0 0.00349998 0.0279217
24 1 0.109675 2.36182e-05 0.560948 0 -0.000509262 -0.00149918
25 1 0.0222204 0.500024 0.489505 0 -0.00050354 0.0015049
26 1 0.859676 0.166644 0.560948 0 0.000497818 -0.00149536
27 1 0.772222 0.666644 0.489505 0 0.000509262 0.00151825
28 1 0.499081 0.53603 0.0674767 0 0.000728607 -0.16934
29 1 0.249081 0.630637 0.0674768 0 -0.000732422 -0.169342
30 1 0.172764 0.49979 0.205261 0 0.00908661 0.0991287
31 1 0.922764 0.666877 0.205261 0 -0.00909805 0.0991325
32 1 0.847324 0.49998 0.346711 0 -0.00349808 0.027916
33 1 0.709132 0.166877 0.845192 0 -0.0090847 -0.0991459
34 1 0.632815 0.0360297 0.982976 0 0.000724792 0.16934
35 1 0.382814 0.130637 0.982976 0 -0.000722885 0.169336
36 1 0.784572 -2.06307e-05 0.703742 0 -0.00349617 -0.0279274
37 1 0.697133 0.499998 0.632387 0 -0.00141525 -0.00290489
38 1 0.534573 0.166688 0.703742 0 0.00349426 -0.027916
39 1 0.447134 0.666669 0.632387 0 0.00142288 -0.00289917
40 1 0.459132 -0.000210071 0.845192 0 0.00908852 -0.0991287
41 1 0.37199 0.500008 0.775006 0 -0.00173378 -0.0354137
42 1 0.209132 0.166877 0.845191 0 -0.00908852 -0.0991096
43 1 0.12199 0.666659 0.775006 0 0.00173759 -0.0354176
44 1 0.132815 0.0360298 0.982976 0 0.000736237 0.169336
45 1 0.046557 0.506689 0.916325 0 0.140903 0.0010891
46 1 0.597322 0.666688 0.346711 0 0.00348854 0.027916
47 1 0.522221 0.500024 0.489505 0 -0.00050354 0.00149345
48 1 0.272221 0.666644 0.489505 0 0.00050354 0.00150299
49 1 0.197134 0.499997 0.632387 0 -0.00141907 -0.00290489
50 1 0.947135 0.666669 0.632387 0 0.00143051 -0.00289536
51 1 0.871991 0.500008 0.775006 0 -0.00173187 -0.0354233
52 1 0.882813 0.130638 0.982976 0 -0.000722885 0.169353
53 1 0.796556 0.659978 0.916325 0 -0.1409 0.00108528
54 1 0.62199 0.666659 0.775006 0 0.00172424 -0.0354214
55 1 0.546556 0.50669 0.916326 0 0.140902 0.00107956
56 1 0.296556 0.659978 0.916325 0 -0.140909 0.00108528
ITEM: TIMESTEP
3
ITEM: NUMBER OF ATOMS
56
ITEM: BOX BOUNDS xy xz yz pp pp pp
-3.2324376106262207e+00 1.2203788340091705e+01 0.0000000000000000e+00
-8.4733366966247559e-03 5.5348814725875854e+00 -3.2137491106987000e+00
-2.9168844223022461e-02 1.9049128890037537e+01 0.0000000000000000e+00
ITEM: ATOMS id type xs ys zs fx fy fz
1 1 0.585433 0.0194491 0.134488 0 -0.00528717 0.0231953
2 1 0.335434 0.147218 0.134488 0 0.00528908 0.0231934
3 1 0.260127 -0.000132887 0.276286 0 0.00452042 0.029953
4 1 0.0101261 0.1668 0.276286 0 -0.00452042 0.0299606
5 1 0.934775 -0.000112884 0.418117 0 -0.00257492 0.0181427
6 1 0.0854341 0.0194492 0.134488 0 -0.00529861 0.0231915
7 1 0.998448 0.544347 0.0650675 0 0.0301361 -0.00837326
8 1 0.835435 0.147219 0.134489 0 0.00528526 0.0231915
9 1 0.748449 0.62232 0.0650678 0 -0.0301342 -0.00839615
10 1 0.760128 -0.000132649 0.276286 0 0.00451469 0.029953
11 1 0.684774 0.166781 0.418117 0 0.00257683 0.0181503
12 1 0.609667 -1.25161e-05 0.56092 0 -0.00309944 -0.0104427
13 1 0.359667 0.16668 0.56092 0 0.00310516 -0.0104389
14 1 0.284414 -0.000285976 0.703138 0 -0.00570869 -0.0519981
15 1 0.0344142 0.166952 0.703138 0 0.00571442 -0.0519981
16 1 0.958421 0.00027052 0.842482 0 0.0588398 0.0696812
17 1 0.673475 0.500271 0.207971 0 0.0588341 -0.0696888
18 1 0.510126 0.166799 0.276286 0 -0.00451469 0.0299511
19 1 0.423476 0.666396 0.207971 0 -0.0588303 -0.0697041
20 1 0.434775 -0.000113242 0.418117 0 -0.00257492 0.0181484
21 1 0.347482 0.499714 0.347315 0 -0.0057106 0.0520077
22 1 0.184775 0.16678 0.418117 0 0.00258255 0.0181446
23 1 0.0974816 0.666954 0.347315 0 0.00569916 0.0520096
24 1 0.109667 -1.25149e-05 0.56092 0 -0.00310135 -0.0104408
25 1 0.0222276 0.499988 0.489532 0 -0.00310326 0.010437
26 1 0.859669 0.166679 0.560921 0 0.00311089 -0.0104446
27 1 0.772229 0.66668 0.489533 0 0.00310707 0.0104294
28 1 0.498448 0.544348 0.0650675 0 0.0301399 -0.00838661
29 1 0.248448 0.622318 0.0650676 0 -0.0301304 -0.00838661
30 1 0.173476 0.50027 0.207971 0 0.0588303 -0.0696869
31 1 0.923476 0.666396 0.207971 0 -0.0588264 -0.0697002
32 1 0.847482 0.499714 0.347315 0 -0.00570869 0.0520153
33 1 0.708419 0.166397 0.842481 0 -0.0588417 0.0697079
34 1 0.633448 0.0443477 0.985385 0 0.0301285 0.00837135
35 1 0.383448 0.122319 0.985385 0 -0.0301304 0.00837898
36 1 0.784413 -0.000286372 0.703138 0 -0.00570488 -0.052002
37 1 0.697119 0.499887 0.632336 0 -0.00258636 -0.018137
38 1 0.534414 0.166953 0.703138 0 0.00569725 -0.052021
39 1 0.447121 0.66678 0.632336 0 0.00258255 -0.0181465
40 1 0.45842 0.000270295 0.842482 0 0.0588341 0.0696888
41 1 0.371769 0.499867 0.774167 0 0.0045166 -0.0299625
42 1 0.208419 0.166397 0.842482 0 -0.0588284 0.0696907
43 1 0.121769 0.6668 0.774166 0 -0.00451851 -0.0299511
44 1 0.133448 0.0443487 0.985385 0 0.0301323 0.0083828
45 1 0.0464621 0.519449 0.915965 0 -0.00528717 -0.0231915
46 1 0.597481 0.666953 0.347315 0 0.00570679 0.0520172
47 1 0.522228 0.499988 0.489532 0 -0.00310707 0.0104408
48 1 0.272228 0.66668 0.489533 0 0.00310326 0.0104351
49 1 0.197121 0.499887 0.632336 0 -0.00258064 -0.0181484
50 1 0.947122 0.666781 0.632336 0 0.00256729 -0.0181446
51 1 0.87177 0.499867 0.774166 0 0.00450516 -0.0299606
52 1 0.883446 0.12232 0.985385 0 -0.030138 0.00837517
53 1 0.796461 0.647218 0.915964 0 0.00529861 -0.0231781
54 1 0.621769 0.666799 0.774167 0 -0.00450325 -0.0299587
55 1 0.546461 0.519449 0.915964 0 -0.00530052 -0.02318
56 1 0.296462 0.647218 0.915964 0 0.00529289 -0.0231762
ITEM: TIMESTEP
4
ITEM: NUMBER OF ATOMS
56
ITEM: BOX BOUNDS xy xz yz pp pp pp
-3.2324376106262207e+00 1.2203788340091705e+01 0.0000000000000000e+00
-8.4733366966247559e-03 5.5348814725875854e+00 -3.2137491106987000e+00
-2.9168844223022461e-02 1.9049128890037537e+01 0.0000000000000000e+00
ITEM: ATOMS id type xs ys zs fx fy fz
1 1 0.585658 0.0241986 0.135344 0 -0.0212116 0.0215721
2 1 0.335659 0.142468 0.135344 0 0.0212231 0.0215816
3 1 0.260458 0.000281844 0.277546 0 0.0140667 0.000377655
4 1 0.0104575 0.166385 0.277547 0 -0.0140705 0.000364304
5 1 0.934925 -0.000428602 0.41869 0 -0.00297928 0.0219898
6 1 0.0856591 0.0241974 0.135344 0 -0.021204 0.0215874
7 1 0.998118 0.550961 0.0638114 0 0.000455856 -0.011097
8 1 0.83566 0.14247 0.135344 0 0.0212078 0.0215912
9 1 0.748119 0.615706 0.063811 0 -0.000469208 -0.0110664
10 1 0.760459 0.000281635 0.277546 0 0.0140686 0.000371933
11 1 0.684924 0.167097 0.41869 0 0.00297737 0.0219822
12 1 0.60958 -0.000352002 0.560591 0 -0.00647354 -0.0166626
13 1 0.359581 0.16702 0.560591 0 0.00646782 -0.0166588
14 1 0.283932 -0.000994109 0.701305 0 0.00901031 0.0297451
15 1 0.0339321 0.16766 0.701305 0 -0.00900841 0.0297451
16 1 0.958682 0.0066325 0.843476 0 0.011858 -0.00144768
17 1 0.673214 0.506632 0.206977 0 0.0118732 0.00145531
18 1 0.510458 0.166385 0.277547 0 -0.0140705 0.000366211
19 1 0.423215 0.660036 0.206977 0 -0.0118752 0.00147057
20 1 0.434926 -0.000429028 0.41869 0 -0.00298119 0.0219746
21 1 0.347964 0.499006 0.349149 0 0.00901604 -0.0297623
22 1 0.184925 0.167097 0.41869 0 0.00297546 0.0219803
23 1 0.0979638 0.667661 0.349149 0 -0.00901031 -0.0297623
24 1 0.109581 -0.000352334 0.560591 0 -0.006464 -0.0166492
25 1 0.0223141 0.499648 0.489861 0 -0.00646591 0.016674
26 1 0.859582 0.16702 0.560591 0 0.00646973 -0.0166607
27 1 0.772316 0.667021 0.489862 0 0.00645638 0.0166588
28 1 0.498117 0.550962 0.063811 0 0.0004673 -0.0110779
29 1 0.248118 0.615706 0.0638111 0 -0.000465393 -0.0110741
30 1 0.173215 0.506631 0.206977 0 0.0118618 0.00145531
31 1 0.923215 0.660035 0.206977 0 -0.0118694 0.00146103
32 1 0.847965 0.499006 0.349149 0 0.00901985 -0.0297604
33 1 0.70868 0.160035 0.843476 0 -0.0118465 -0.00147057
34 1 0.633778 0.0509603 0.986641 0 0.000457764 0.011097
35 1 0.383778 0.115706 0.986641 0 -0.000465393 0.0110874
36 1 0.783931 -0.00099429 0.701304 0 0.00900841 0.0297451
37 1 0.696969 0.49957 0.631762 0 -0.00296974 -0.0219879
38 1 0.533932 0.16766 0.701304 0 -0.00900078 0.0297642
39 1 0.44697 0.667097 0.631763 0 0.00297165 -0.021986
40 1 0.458681 0.00663159 0.843476 0 0.0118599 -0.0014534
41 1 0.371438 0.500282 0.772906 0 0.0140724 -0.000360489
42 1 0.208681 0.160036 0.843476 0 -0.0118694 -0.00147247
43 1 0.121438 0.666385 0.772906 0 -0.0140705 -0.000358582
44 1 0.133779 0.050962 0.986642 0 0.000465393 0.0110874
45 1 0.0462371 0.524198 0.915109 0 -0.0212059 -0.0215893
46 1 0.597963 0.667661 0.349149 0 -0.00900841 -0.0297623
47 1 0.522314 0.499648 0.489861 0 -0.00646591 0.0166702
48 1 0.272314 0.667019 0.489861 0 0.00647545 0.0166664
49 1 0.19697 0.499571 0.631762 0 -0.00297928 -0.0219879
50 1 0.946971 0.667096 0.631763 0 0.00298119 -0.021986
51 1 0.871439 0.500281 0.772906 0 0.0140762 -0.000349045
52 1 0.883776 0.115707 0.986641 0 -0.000461578 0.011095
53 1 0.796236 0.64247 0.915108 0 0.0211945 -0.0216122
54 1 0.621438 0.666386 0.772906 0 -0.0140877 -0.000360489
55 1 0.546237 0.524197 0.915109 0 -0.0212021 -0.0216007
56 1 0.296237 0.642469 0.915109 0 0.0212135 -0.0216007
ITEM: TIMESTEP
5
ITEM: NUMBER OF ATOMS
56
ITEM: BOX BOUNDS xy xz yz pp pp pp
-3.2324376106262207e+00 1.2203788340091705e+01 0.0000000000000000e+00
-8.4733366966247559e-03 5.5348814725875854e+00 -3.2137491106987000e+00
-2.9168844223022461e-02 1.9049128890037537e+01 0.0000000000000000e+00
ITEM: ATOMS id type xs ys zs fx fy fz
1 1 0.585813 0.0232854 0.135933 0 -0.00583458 0.00425339
2 1 0.335814 0.143382 0.135933 0 0.00583076 0.0042572
3 1 0.260507 0.00139047 0.277733 0 0.00833511 0.00860405
4 1 0.0105064 0.165276 0.277732 0 -0.00833321 0.00861168
5 1 0.935072 -0.000695565 0.419248 0 -0.00265121 -0.00538635
6 1 0.085814 0.0232846 0.135933 0 -0.00584602 0.00426102
7 1 0.998008 0.551928 0.0633934 0 -0.00313568 -0.00933838
8 1 0.835815 0.143382 0.135933 0 0.00584221 0.00425148
9 1 0.748009 0.614738 0.0633936 0 0.00313377 -0.00934982
10 1 0.760508 0.00139034 0.277732 0 0.00834274 0.00860977
11 1 0.685071 0.167364 0.419248 0 0.00265503 -0.00539398
12 1 0.609473 -0.000883171 0.560183 0 -0.000558853 0.0161362
13 1 0.359474 0.16755 0.560183 0 0.000556946 0.0161343
14 1 0.284034 -0.000421417 0.701691 0 0.00449371 0.0026226
15 1 0.0340338 0.167088 0.701691 0 -0.00449371 0.00262833
16 1 0.958711 0.00841557 0.843585 0 -0.00729179 0.00397301
17 1 0.673185 0.508416 0.206868 0 -0.00729561 -0.00396919
18 1 0.510507 0.165276 0.277732 0 -0.00833511 0.00861359
19 1 0.423186 0.658251 0.206868 0 0.00729942 -0.00397491
20 1 0.435072 -0.000696143 0.419248 0 -0.00265503 -0.00538445
21 1 0.347862 0.499579 0.348762 0 0.00449371 -0.00261879
22 1 0.185072 0.167363 0.419248 0 0.00266075 -0.00537872
23 1 0.0978621 0.667088 0.348762 0 -0.00449944 -0.00262642
24 1 0.109474 -0.000882838 0.560184 0 -0.000555038 0.0161381
25 1 0.0224214 0.499118 0.49027 0 -0.00056076 -0.0161476
26 1 0.859475 0.167551 0.560184 0 0.000547409 0.0161419
27 1 0.772423 0.667551 0.49027 0 0.000558853 -0.0161362
28 1 0.498007 0.551931 0.0633934 0 -0.00314331 -0.00935173
29 1 0.248008 0.614738 0.0633936 0 0.00314903 -0.00935364
30 1 0.173186 0.508414 0.206868 0 -0.00728798 -0.00397301
31 1 0.923186 0.658251 0.206868 0 0.00728798 -0.00396919
32 1 0.847863 0.499579 0.348762 0 0.00449371 -0.0026226
33 1 0.708709 0.158253 0.843584 0 0.00727654 0.00397682
34 1 0.633888 0.0519277 0.987059 0 -0.00313568 0.0093441
35 1 0.383888 0.114738 0.987059 0 0.0031395 0.00934792
36 1 0.784033 -0.000421709 0.701691 0 0.00450516 0.00263214
37 1 0.696822 0.499304 0.631205 0 -0.00265884 0.00539017
38 1 0.534034 0.167088 0.701691 0 -0.00449181 0.00263023
39 1 0.446824 0.667363 0.631205 0 0.00265694 0.00539017
40 1 0.45871 0.0084147 0.843585 0 -0.00728989 0.0039711
41 1 0.371389 0.501391 0.772721 0 0.00832176 -0.00862503
42 1 0.208709 0.158252 0.843584 0 0.00728798 0.00398064
43 1 0.121389 0.665276 0.772721 0 -0.0083313 -0.00862312
44 1 0.133888 0.0519301 0.98706 0 -0.00313759 0.00933838
45 1 0.0460822 0.523286 0.91452 0 -0.00584793 -0.00425148
46 1 0.597862 0.667088 0.348762 0 -0.00449371 -0.00262642
47 1 0.522422 0.499117 0.490269 0 -0.000556946 -0.01614
48 1 0.272422 0.667551 0.490269 0 0.000547409 -0.0161419
49 1 0.196823 0.499303 0.631205 0 -0.0026474 0.00540352
50 1 0.946824 0.667363 0.631205 0 0.00266075 0.00539017
51 1 0.87139 0.50139 0.772721 0 0.00833893 -0.00862122
52 1 0.883886 0.114739 0.987059 0 0.00312614 0.00933838
53 1 0.796081 0.643382 0.914519 0 0.00585175 -0.00424004
54 1 0.621389 0.665276 0.772721 0 -0.00832748 -0.00862694
55 1 0.546082 0.523284 0.91452 0 -0.00584793 -0.00425148
56 1 0.296082 0.643382 0.91452 0 0.00584984 -0.00424767
ITEM: TIMESTEP
6
ITEM: NUMBER OF ATOMS
56
ITEM: BOX BOUNDS xy xz yz pp pp pp
-3.2324376106262207e+00 1.2203788340091705e+01 0.0000000000000000e+00
-8.4733366966247559e-03 5.5348814725875854e+00 -3.2137491106987000e+00
-2.9168844223022461e-02 1.9049128890037537e+01 0.0000000000000000e+00
ITEM: ATOMS id type xs ys zs fx fy fz
1 1 0.585875 0.0225793 0.136169 0 -0.00273705 0.00165749
2 1 0.335876 0.144088 0.13617 0 0.00274277 0.00164795
3 1 0.260575 0.00235617 0.27799 0 -0.00421333 -0.00108147
4 1 0.0105741 0.16431 0.27799 0 0.00421143 -0.00107956
5 1 0.935069 -0.000983926 0.419235 0 0.00268936 0.00305367
6 1 0.0858762 0.0225776 0.13617 0 -0.00273705 0.00164795
7 1 0.997922 0.551869 0.0630665 0 0.00352478 0.00291634
8 1 0.835877 0.144089 0.13617 0 0.0027256 0.00165558
9 1 0.747923 0.614797 0.0630665 0 -0.0035305 0.00290871
10 1 0.760576 0.00235672 0.27799 0 -0.00421333 -0.00108337
11 1 0.685068 0.167652 0.419235 0 -0.00269318 0.00306129
12 1 0.609556 -0.00104821 0.5605 0 -0.000167847 0.00211525
13 1 0.359557 0.167715 0.5605 0 0.000175476 0.00211525
14 1 0.284073 9.37338e-05 0.701842 0 0.00028801 0.00261116
15 1 0.0340735 0.166572 0.701842 0 -0.00028038 0.00261497
16 1 0.958743 0.00817513 0.843709 0 -0.00202179 0.00388527
17 1 0.673153 0.508175 0.206744 0 -0.00201607 -0.0038929
18 1 0.510574 0.16431 0.27799 0 0.00421906 -0.00108719
19 1 0.423154 0.658492 0.206744 0 0.00201225 -0.00388527
20 1 0.435069 -0.000984868 0.419235 0 0.00269699 0.00305939
21 1 0.347822 0.500094 0.348611 0 0.000282288 -0.0026226
22 1 0.185069 0.167653 0.419235 0 -0.00270271 0.00304985
23 1 0.0978223 0.666573 0.348611 0 -0.000278473 -0.00260735
24 1 0.109557 -0.0010474 0.5605 0 -0.000181198 0.00210381
25 1 0.0223381 0.498952 0.489953 0 -0.000167847 -0.00210381
26 1 0.859558 0.167715 0.5605 0 0.000179291 0.00210381
27 1 0.772339 0.667715 0.489953 0 0.000173569 -0.00211334
28 1 0.497921 0.551871 0.0630662 0 0.00354385 0.00292778
29 1 0.247922 0.614798 0.0630664 0 -0.00354767 0.00292778
30 1 0.173154 0.508174 0.206744 0 -0.00201797 -0.00388718
31 1 0.923154 0.658491 0.206744 0 0.0020237 -0.00389099
32 1 0.847823 0.500095 0.348611 0 0.000282288 -0.0026207
33 1 0.708742 0.158492 0.843708 0 0.0020237 0.00389862
34 1 0.633974 0.0518683 0.987386 0 0.00353813 -0.00292206
35 1 0.383974 0.114798 0.987386 0 -0.00354195 -0.00292206
36 1 0.784072 9.44084e-05 0.701842 0 0.000276566 0.00261497
37 1 0.696825 0.499015 0.631218 0 0.00269699 -0.00306129
38 1 0.534074 0.166573 0.701842 0 -0.000295639 0.00260162
39 1 0.446827 0.667652 0.631218 0 -0.00269508 -0.0030632
40 1 0.458742 0.00817443 0.843708 0 -0.0020237 0.00388908
41 1 0.371321 0.502355 0.772463 0 -0.00420761 0.00109482
42 1 0.208742 0.158492 0.843708 0 0.00202751 0.00389862
43 1 0.121321 0.664311 0.772463 0 0.00421143 0.001091
44 1 0.133974 0.0518707 0.987387 0 0.00354004 -0.00291443
45 1 0.0460201 0.522579 0.914283 0 -0.0027256 -0.00165558
46 1 0.597822 0.666573 0.348611 0 -0.000289917 -0.00260544
47 1 0.522338 0.498953 0.489953 0 -0.000177383 -0.00211906
48 1 0.272338 0.667715 0.489953 0 0.000188828 -0.00210381
49 1 0.196827 0.499015 0.631218 0 0.00269127 -0.0030632
50 1 0.946828 0.667652 0.631218 0 -0.0026989 -0.00305939
51 1 0.871322 0.502356 0.772463 0 -0.00421143 0.00108528
52 1 0.883972 0.114797 0.987386 0 -0.00352287 -0.00291061
53 1 0.796019 0.64409 0.914283 0 0.00271606 -0.00164986
54 1 0.621321 0.66431 0.772463 0 0.00422287 0.00109291
55 1 0.546019 0.522577 0.914283 0 -0.00273323 -0.00166321
56 1 0.29602 0.64409 0.914283 0 0.0027256 -0.0016613
ITEM: TIMESTEP
7
ITEM: NUMBER OF ATOMS
56
ITEM: BOX BOUNDS xy xz yz pp pp pp
-3.2324376106262207e+00 1.2203788340091705e+01 0.0000000000000000e+00
-8.4733366966247559e-03 5.5348814725875854e+00 -3.2137491106987000e+00
-2.9168844223022461e-02 1.9049128890037537e+01 0.0000000000000000e+00
ITEM: ATOMS id type xs ys zs fx fy fz
1 1 0.585893 0.0222787 0.136238 0 0.000806808 -0.00149536
2 1 0.335894 0.144389 0.136238 0 -0.000806808 -0.00148964
3 1 0.260578 0.00217299 0.278002 0 -0.00240326 -0.000362396
4 1 0.0105772 0.164493 0.278002 0 0.00241089 -0.000375748
5 1 0.935086 -0.000822318 0.4193 0 0.00102043 0.000692368
6 1 0.0858941 0.0222769 0.136238 0 0.000801086 -0.00149536
7 1 0.997927 0.552124 0.0630853 0 -0.00159073 -0.00352859
8 1 0.835895 0.144389 0.136238 0 -0.000801086 -0.00149155
9 1 0.747928 0.614541 0.0630851 0 0.00159454 -0.00352478
10 1 0.760579 0.00217363 0.278002 0 -0.00240517 -0.000368118
11 1 0.685085 0.16749 0.419299 0 -0.00102425 0.000699997
12 1 0.60958 -0.00108323 0.560589 0 0.000711441 -6.86646e-05
13 1 0.35958 0.167751 0.560589 0 -0.000707626 -7.05719e-05
14 1 0.284094 0.000185423 0.701919 0 -0.00105476 0.00180244
15 1 0.0340938 0.166481 0.701919 0 0.00104332 0.00180054
16 1 0.95877 0.00799135 0.84381 0 -0.00132561 -0.000253677
17 1 0.673126 0.507992 0.206643 0 -0.0013237 0.000255585
18 1 0.510577 0.164494 0.278002 0 0.00239754 -0.000364304
19 1 0.423127 0.658675 0.206643 0 0.00133514 0.000261307
20 1 0.435086 -0.000822739 0.419299 0 0.00101852 0.000699997
21 1 0.347802 0.500186 0.348534 0 -0.00104904 -0.00177765
22 1 0.185085 0.16749 0.419299 0 -0.0010128 0.00069809
23 1 0.0978021 0.666482 0.348534 0 0.00104523 -0.00178909
24 1 0.10958 -0.00108336 0.560589 0 0.000709534 -7.05719e-05
25 1 0.0223147 0.498917 0.489864 0 0.000705719 7.43866e-05
26 1 0.859581 0.167751 0.560589 0 -0.000705719 -7.43866e-05
27 1 0.772316 0.667751 0.489864 0 -0.000703812 7.24792e-05
28 1 0.497926 0.552127 0.0630852 0 -0.00160027 -0.00354576
29 1 0.247927 0.614541 0.0630853 0 0.00160027 -0.00354195
30 1 0.173127 0.507991 0.206643 0 -0.00133705 0.000265121
31 1 0.923127 0.658675 0.206643 0 0.0013237 0.000261307
32 1 0.847803 0.500186 0.348534 0 -0.00104523 -0.00178528
33 1 0.708768 0.158676 0.84381 0 0.0013237 -0.000270844
34 1 0.633969 0.0521245 0.987368 0 -0.00159454 0.00353622
35 1 0.383969 0.114541 0.987367 0 0.00160027 0.00354385
36 1 0.784093 0.000185374 0.701919 0 -0.00104713 0.00178337
37 1 0.696808 0.499177 0.631153 0 0.00101662 -0.000699997
38 1 0.534094 0.166481 0.701919 0 0.00105286 0.00179482
39 1 0.44681 0.66749 0.631153 0 -0.00101852 -0.000692368
40 1 0.458769 0.00799053 0.84381 0 -0.0013237 -0.000265121
41 1 0.371318 0.502172 0.772451 0 -0.00240135 0.000360489
42 1 0.208768 0.158676 0.84381 0 0.00131989 -0.000276566
43 1 0.121318 0.664494 0.772451 0 0.00240707 0.000358582
44 1 0.133969 0.052127 0.987368 0 -0.00158882 0.00354385
45 1 0.0460021 0.522279 0.914215 0 0.000799179 0.00149155
46 1 0.597802 0.666481 0.348534 0 0.00105667 -0.00180244
47 1 0.522315 0.498917 0.489863 0 0.000701904 7.82013e-05
48 1 0.272315 0.667751 0.489864 0 -0.000711441 6.29425e-05
49 1 0.19681 0.499177 0.631154 0 0.00101852 -0.000707626
50 1 0.946811 0.66749 0.631154 0 -0.00102043 -0.000694275
51 1 0.871319 0.502173 0.772451 0 -0.00239754 0.000368118
52 1 0.883967 0.114542 0.987367 0 0.00158501 0.00352478
53 1 0.796001 0.644389 0.914215 0 -0.000787735 0.00148773
54 1 0.621318 0.664494 0.772451 0 0.00239372 0.000360489
55 1 0.546001 0.522277 0.914215 0 0.000795364 0.00150681
56 1 0.296002 0.64439 0.914215 0 -0.000806808 0.00149727
ITEM: TIMESTEP
8
ITEM: NUMBER OF ATOMS
56
ITEM: BOX BOUNDS xy xz yz pp pp pp
-3.2324376106262207e+00 1.2203788340091705e+01 0.0000000000000000e+00
-8.4733366966247559e-03 5.5348814725875854e+00 -3.2137491106987000e+00
-2.9168844223022461e-02 1.9049128890037537e+01 0.0000000000000000e+00
ITEM: ATOMS id type xs ys zs fx fy fz
1 1 0.585891 0.0222455 0.136228 0 -2.86102e-05 -0.000102997
2 1 0.335892 0.144423 0.136228 0 3.05176e-05 -0.000101089
3 1 0.260577 0.00195806 0.277998 0 -0.000135422 -0.000368118
4 1 0.0105761 0.164708 0.277998 0 0.000131607 -0.000360489
5 1 0.935094 -0.000706674 0.419332 0 -0.00047493 -0.00097847
6 1 0.0858916 0.0222433 0.136228 0 -3.24249e-05 -0.000102997
7 1 0.99791 0.552091 0.0630217 0 0.000164032 0.000183105
8 1 0.835893 0.144422 0.136229 0 3.62396e-05 -0.000118256
9 1 0.747911 0.614574 0.0630216 0 -0.000169754 0.000183105
10 1 0.760578 0.0019586 0.277998 0 -0.000133514 -0.000358582
11 1 0.685093 0.167374 0.419332 0 0.000480652 -0.000986099
12 1 0.609586 -0.00104556 0.560614 0 0.000841141 0.00018692
13 1 0.359587 0.167714 0.560614 0 -0.000850677 0.000192642
14 1 0.284109 0.000141137 0.701977 0 -0.000860214 -0.000110626
15 1 0.034109 0.166525 0.701977 0 0.000869751 -0.000116348
16 1 0.958776 0.00784873 0.843834 0 -0.000297546 0.000789642
17 1 0.67312 0.50785 0.206619 0 -0.000312805 -0.000789642
18 1 0.510576 0.164708 0.277998 0 0.000139236 -0.000362396
19 1 0.423121 0.658818 0.206619 0 0.000305176 -0.00079155
20 1 0.435094 -0.000707073 0.419332 0 -0.000482559 -0.000976562
21 1 0.347787 0.500142 0.348476 0 -0.000864029 0.000104904
22 1 0.185094 0.167375 0.419332 0 0.00047493 -0.00097847
23 1 0.097787 0.666525 0.348476 0 0.000869751 0.000106812
24 1 0.109587 -0.00104608 0.560614 0 0.0008564 0.000196457
25 1 0.0223083 0.498955 0.489839 0 0.00084877 -0.000202179
26 1 0.859588 0.167713 0.560614 0 -0.000850677 0.000204086
27 1 0.77231 0.667714 0.489839 0 -0.000854492 -0.000192642