ITEM: TIMESTEP
0
ITEM: NUMBER OF ATOMS
56
ITEM: BOX BOUNDS xy xz yz pp pp pp
-4.7037188410758972e+00 1.2156271994113922e+01 8.9406967163085938e-07
-8.2894563674926758e-03 5.5346975326538086e+00 -4.7325475811958313e+00
-4.5665502548217773e-03 1.9024526596069336e+01 -5.9604644775390625e-08
ITEM: ATOMS id type xs ys zs fx fy fz
1 1 0.603279 0.999993 0.132369 0 -0.0919781 0.247074
2 1 0.353279 0.166674 0.132369 0 0.0919819 0.24707
3 1 0.298032 1 0.275226 0 -0.00378799 0.000976562
4 1 0.0480307 0.166667 0.275226 0 0.00379944 0.000976562
6 1 0.103278 0.999993 0.132369 0 -0.09198 0.247072
7 1 0.00588747 0.500035 0.0609392 0 2.05375 1.7912
8 1 0.853277 0.166674 0.132369 0 0.09198 0.247068
9 1 0.755887 0.666632 0.0609392 0 -2.05375 1.79119
10 1 0.79803 1 0.275226 0 -0.00379753 0.00097847
11 1 0.742757 0.166667 0.418084 0 9.91821e-05 0.000520706
12 1 0.687484 3.67832e-07 0.560938 0 -0.000391006 0.00097847
13 1 0.437483 0.166667 0.560938 0 0.000398636 0.000982285
14 1 0.3822 1 0.703795 0 -0.00392151 0.00294495
15 1 0.132199 0.166667 0.703795 0 0.00392723 0.00294304
16 1 0.0769376 0.999999 0.846658 0 -0.00961876 -0.00678062
17 1 0.700662 0.499999 0.203795 0 -0.00962257 0.00677299
18 1 0.548032 0.166667 0.275226 0 0.00380898 0.000980377
19 1 0.450662 0.666668 0.203795 0 0.00961876 0.00677299
20 1 0.492757 1 0.418084 0 -8.7738e-05 0.000518799
21 1 0.3954 0.5 0.346658 0 -0.00393295 -0.00294876
22 1 0.242756 0.166667 0.418084 0 8.7738e-05 0.000516891
23 1 0.145399 0.666667 0.346658 0 0.00391769 -0.00293732
24 1 0.187482 3.50169e-07 0.560938 0 -0.000385284 0.000980377
25 1 0.0901158 0.5 0.489515 0 -0.000396729 -0.000980377
27 1 0.840115 0.666667 0.489515 0 0.000396729 -0.000984192
28 1 0.505889 0.500035 0.0609392 0 2.05379 1.79124
29 1 0.255888 0.666632 0.0609392 0 -2.05381 1.79125
30 1 0.200661 0.499999 0.203795 0 -0.00962067 0.00677299
32 1 0.895399 0.5 0.346658 0 -0.00392723 -0.00293922
33 1 0.826939 0.166668 0.846658 0 0.00961876 -0.0067749
34 1 0.771712 3.5121e-05 0.989514 0 2.05376 -1.79121
35 1 0.521711 0.166632 0.989514 0 -2.0538 -1.79124
36 1 0.882201 1 0.703795 0 -0.0039196 0.00294495
37 1 0.784844 0.5 0.632369 0 -0.000104904 -0.000511169
38 1 0.632201 0.166667 0.703795 0 0.00392342 0.00294113
39 1 0.534844 0.666668 0.632369 0 8.7738e-05 -0.000520706
40 1 0.576939 0.999999 0.846658 0 -0.00961304 -0.00677872
41 1 0.479568 0.5 0.775226 0 -0.00379944 -0.000976562
42 1 0.326938 0.166668 0.846658 0 0.00961876 -0.00677299
43 1 0.229567 0.666667 0.775226 0 0.00379562 -0.000974655
44 1 0.271711 3.50854e-05 0.989514 0 2.05381 -1.79124
45 1 0.174321 0.499993 0.918084 0 -0.0919819 -0.247076
46 1 0.6454 0.666667 0.346658 0 0.00391769 -0.00294304
47 1 0.590117 0.5 0.489515 0 -0.000398636 -0.000980377
48 1 0.340117 0.666667 0.489515 0 0.000394821 -0.00097847
49 1 0.284843 0.5 0.632369 0 -9.34601e-05 -0.000522614
50 1 0.0348423 0.666667 0.632369 0 8.39233e-05 -0.000518799
52 1 0.0217126 0.166632 0.989514 0 -2.05374 -1.79118
54 1 0.729569 0.666667 0.775226 0 0.00379562 -0.000982285
55 1 0.674322 0.499993 0.918084 0 -0.09198 -0.247065
56 1 0.424321 0.666674 0.918084 0 0.0919819 -0.24707
5 1 0.992756 1 0.418084 0 -9.34601e-05 0.000520706
26 1 0.937482 0.166667 0.560938 0 0.000398636 0.000976562
31 1 0.95066 0.666668 0.203795 0 0.00961876 0.00677299
51 1 0.979567 0.5 0.775226 0 -0.00379753 -0.000986099
53 1 0.924322 0.666674 0.918084 0 0.0919762 -0.247063
ITEM: TIMESTEP
1
ITEM: NUMBER OF ATOMS
56
ITEM: BOX BOUNDS xy xz yz pp pp pp
-4.7037188410758972e+00 1.2156271994113922e+01 8.9406967163085938e-07
-8.2894563674926758e-03 5.5346975326538086e+00 -4.7325475811958313e+00
-4.5665502548217773e-03 1.9024526596069336e+01 -5.9604644775390625e-08
ITEM: ATOMS id type xs ys zs fx fy fz
1 1 0.603526 0.999185 0.133001 0 0.0546684 0.164928
2 1 0.353525 0.167482 0.133001 0 -0.0546722 0.164936
3 1 0.298033 0.999967 0.275229 0 -0.00695419 0.0136242
4 1 0.0480317 0.166701 0.275229 0 0.0069561 0.0136223
6 1 0.103524 0.999185 0.133001 0 0.0546551 0.164936
7 1 0.00767598 0.518076 0.0655224 0 0.755049 0.665726
8 1 0.853524 0.167482 0.133001 0 -0.0546608 0.164936
9 1 0.757676 0.648592 0.0655224 0 -0.755056 0.665722
10 1 0.798031 0.999966 0.275229 0 -0.00694847 0.0136223
11 1 0.742758 0.166668 0.418086 0 0.000329971 0.000616074
12 1 0.687485 -3.0668e-06 0.560941 0 -0.000261307 0.00134659
13 1 0.437484 0.16667 0.560941 0 0.000267029 0.0013485
14 1 0.382203 0.999965 0.703802 0 -0.00413895 0.000921249
15 1 0.132202 0.166702 0.703802 0 0.00413895 0.000923157
16 1 0.0769308 0.999915 0.84664 0 -0.0348148 -0.12949
17 1 0.700669 0.499915 0.203812 0 -0.0348186 0.129488
18 1 0.548033 0.166701 0.275229 0 0.00695419 0.0136299
19 1 0.450669 0.666753 0.203812 0 0.0348091 0.129482
20 1 0.492757 0.999999 0.418086 0 -0.000320435 0.00060463
21 1 0.395397 0.499965 0.34665 0 -0.00413322 -0.000923157
22 1 0.242757 0.166668 0.418086 0 0.000320435 0.000606537
23 1 0.145396 0.666702 0.346651 0 0.00414467 -0.000919342
24 1 0.187483 -3.0342e-06 0.560941 0 -0.000263214 0.00134277
25 1 0.0901148 0.499997 0.489512 0 -0.000268936 -0.00133896
27 1 0.840114 0.66667 0.489512 0 0.000261307 -0.00134468
28 1 0.507677 0.518076 0.0655224 0 0.755066 0.665731
29 1 0.257677 0.648591 0.0655225 0 -0.755056 0.665722
30 1 0.200668 0.499915 0.203812 0 -0.0348148 0.12948
32 1 0.895396 0.499966 0.346651 0 -0.00413704 -0.000925064
33 1 0.826932 0.166752 0.84664 0 0.0348167 -0.129469
34 1 0.769924 0.0180755 0.98493 0 0.755056 -0.665733
35 1 0.519923 0.148591 0.98493 0 -0.755058 -0.665737
36 1 0.882204 0.999965 0.703802 0 -0.00413513 0.000928879
37 1 0.784843 0.499999 0.632367 0 -0.000335693 -0.00060463
38 1 0.632204 0.166702 0.703802 0 0.00414467 0.000925064
39 1 0.534843 0.666668 0.632367 0 0.000326157 -0.000610352
40 1 0.576932 0.999915 0.84664 0 -0.0348129 -0.129484
41 1 0.479567 0.499967 0.775224 0 -0.00695992 -0.013628
42 1 0.326931 0.166752 0.84664 0 0.0348186 -0.129482
43 1 0.229567 0.666701 0.775224 0 0.00695038 -0.0136242
44 1 0.269922 0.0180759 0.98493 0 0.755058 -0.665726
45 1 0.174074 0.499185 0.917452 0 0.0546741 -0.164934
46 1 0.645397 0.666702 0.34665 0 0.00413322 -0.000925064
47 1 0.590116 0.499997 0.489512 0 -0.000274658 -0.00133896
48 1 0.340116 0.66667 0.489512 0 0.000261307 -0.00134468
49 1 0.284842 0.499999 0.632367 0 -0.000318527 -0.000610352
50 1 0.0348418 0.666668 0.632367 0 0.000326157 -0.000612259
52 1 0.0199241 0.148592 0.98493 0 -0.755043 -0.665714
54 1 0.729568 0.666701 0.775224 0 0.00695038 -0.0136185
55 1 0.674075 0.499185 0.917452 0 0.0546551 -0.164938
56 1 0.424074 0.667482 0.917452 0 -0.0546741 -0.164938
5 1 0.992756 0.999999 0.418086 0 -0.000335693 0.000610352
26 1 0.937483 0.16667 0.560941 0 0.000265121 0.00133324
31 1 0.950667 0.666753 0.203813 0 0.0348186 0.129477
51 1 0.979566 0.499967 0.775224 0 -0.00694847 -0.0136337
53 1 0.924076 0.667482 0.917452 0 -0.0546589 -0.164923
ITEM: TIMESTEP
2
ITEM: NUMBER OF ATOMS
56
ITEM: BOX BOUNDS xy xz yz pp pp pp
-4.7037188410758972e+00 1.2156271994113922e+01 8.9406967163085938e-07
-8.2894563674926758e-03 5.5346975326538086e+00 -4.7325475811958313e+00
-4.5665502548217773e-03 1.9024526596069336e+01 -5.9604644775390625e-08
ITEM: ATOMS id type xs ys zs fx fy fz
1 1 0.603974 1.00049 0.134149 0 0.189377 0.08181
2 1 0.353973 0.166176 0.134149 0 -0.189365 0.08181
3 1 0.29807 0.9998 0.275324 0 -0.0119572 0.0444832
4 1 0.0480687 0.166867 0.275324 0 0.0119534 0.0444775
6 1 0.103972 1.00049 0.134149 0 0.189365 0.08181
7 1 0.00948406 0.536116 0.0701557 0 0.0166187 -0.0717831
8 1 0.853972 0.166176 0.134149 0 -0.189358 0.0818081
9 1 0.759484 0.630551 0.0701557 0 -0.0166168 -0.0717983
10 1 0.798068 0.9998 0.275324 0 -0.0119514 0.0444832
11 1 0.74276 0.166676 0.41809 0 0.00136566 0.0027771
12 1 0.687488 -9.31021e-06 0.56095 0 -0.000110626 0.00132179
13 1 0.437488 0.166676 0.56095 0 0.000104904 0.00131989
14 1 0.382205 0.999866 0.703809 0 -0.00652695 -0.0194111
15 1 0.132205 0.166801 0.703809 0 0.00653458 -0.0194111
16 1 0.0765791 0.999083 0.845739 0 -0.0432453 -0.227987
17 1 0.701021 0.499083 0.204714 0 -0.0432491 0.227995
18 1 0.54807 0.166867 0.275324 0 0.0119591 0.0444736
19 1 0.45102 0.667584 0.204714 0 0.0432491 0.227982
20 1 0.492759 0.999991 0.41809 0 -0.00137711 0.00278473
21 1 0.395394 0.499867 0.346644 0 -0.00652885 0.0194073
22 1 0.242758 0.166676 0.41809 0 0.00137901 0.00278282
23 1 0.145394 0.666801 0.346644 0 0.00652504 0.0194149
24 1 0.187487 -9.32318e-06 0.56095 0 -0.000104904 0.00131989
25 1 0.0901112 0.499991 0.489503 0 -0.000102997 -0.00131989
27 1 0.840111 0.666677 0.489503 0 0.000104904 -0.00131607
28 1 0.509485 0.536117 0.0701558 0 0.0166092 -0.0717964
29 1 0.259485 0.630551 0.0701558 0 -0.0166225 -0.0717888
30 1 0.201019 0.499083 0.204714 0 -0.0432491 0.227972
32 1 0.895393 0.499867 0.346644 0 -0.00652313 0.0194206
33 1 0.826581 0.167584 0.845739 0 0.0432491 -0.22797
34 1 0.768116 0.0361161 0.980297 0 0.0166206 0.0717983
35 1 0.518115 0.13055 0.980297 0 -0.0166187 0.0717926
36 1 0.882207 0.999867 0.703809 0 -0.00652313 -0.0194149
37 1 0.784842 0.499991 0.632363 0 -0.00136375 -0.00278091
38 1 0.632206 0.166801 0.703809 0 0.00652313 -0.019413
39 1 0.534841 0.666676 0.632363 0 0.00137138 -0.00278091
40 1 0.57658 0.999083 0.845739 0 -0.043251 -0.22797
41 1 0.47953 0.4998 0.775129 0 -0.0119553 -0.0444832
42 1 0.32658 0.167584 0.845739 0 0.043251 -0.227987
43 1 0.22953 0.666867 0.775129 0 0.0119553 -0.0444889
44 1 0.268114 0.0361165 0.980297 0 0.0166168 0.0717888
45 1 0.173626 0.500491 0.916304 0 0.189363 -0.0818119
46 1 0.645395 0.6668 0.346644 0 0.00651932 0.019413
47 1 0.590112 0.49999 0.489503 0 -0.000106812 -0.00132561
48 1 0.340112 0.666677 0.489503 0 0.000104904 -0.00132179
49 1 0.28484 0.499991 0.632363 0 -0.0013752 -0.00277901
50 1 0.0348401 0.666676 0.632363 0 0.00136757 -0.00277328
52 1 0.0181161 0.130551 0.980297 0 -0.0166187 0.0717907
54 1 0.729531 0.666867 0.775129 0 0.0119629 -0.0444813
55 1 0.673627 0.500491 0.916304 0 0.189362 -0.0818081
56 1 0.423626 0.666176 0.916304 0 -0.189371 -0.0818081
5 1 0.992758 0.999991 0.41809 0 -0.00138092 0.00277519
26 1 0.937487 0.166676 0.56095 0 0.000108719 0.00132179
31 1 0.951019 0.667584 0.204714 0 0.0432587 0.227976
51 1 0.979529 0.499801 0.775129 0 -0.0119667 -0.0444908
53 1 0.923628 0.666176 0.916304 0 -0.18936 -0.0818081
ITEM: TIMESTEP
3
ITEM: NUMBER OF ATOMS
56
ITEM: BOX BOUNDS xy xz yz pp pp pp
-4.7037188410758972e+00 1.2156271994113922e+01 8.9406967163085938e-07
-8.2894563674926758e-03 5.5346975326538086e+00 -4.7325475811958313e+00
-4.5665502548217773e-03 1.9024526596069336e+01 -5.9604644775390625e-08
ITEM: ATOMS id type xs ys zs fx fy fz
1 1 0.604642 1.01249 0.13586 0 -5.72205e-06 0.0239582
2 1 0.354641 0.154179 0.13586 0 -1.90735e-06 0.023962
3 1 0.29839 0.999026 0.276146 0 -0.0130177 0.0812912
4 1 0.0483894 0.167641 0.276146 0 0.0130348 0.0812969
6 1 0.10464 1.01249 0.13586 0 3.8147e-06 0.0239601
7 1 0.00934973 0.540848 0.0698115 0 0.0459538 0.0443382
8 1 0.85464 0.15418 0.13586 0 1.90735e-06 0.0239658
9 1 0.759349 0.625819 0.0698112 0 -0.0459518 0.044342
10 1 0.798389 0.999026 0.276146 0 -0.0130253 0.0812969
11 1 0.742779 0.166762 0.418141 0 0.0048275 0.0210323
12 1 0.687498 -1.74435e-05 0.560976 0 -0.00194931 -0.00673676
13 1 0.437498 0.166684 0.560976 0 0.00196075 -0.00673485
14 1 0.382069 0.999442 0.70346 0 -0.017458 -0.0989037
15 1 0.132069 0.167226 0.70346 0 0.0174503 -0.0989132
16 1 0.0749018 0.996234 0.841441 0 0.0541096 0.0413074
17 1 0.702698 0.496233 0.209012 0 0.0541191 -0.0413208
18 1 0.548391 0.167642 0.276146 0 0.0130138 0.0813007
19 1 0.452697 0.670434 0.209012 0 -0.0541058 -0.0412979
20 1 0.492779 0.999904 0.418141 0 -0.00482178 0.0210152
21 1 0.395531 0.499442 0.346993 0 -0.0174541 0.0989075
22 1 0.242778 0.166763 0.418141 0 0.00482178 0.0210285
23 1 0.14553 0.667225 0.346993 0 0.0174561 0.0988941
24 1 0.187497 -1.71114e-05 0.560976 0 -0.00195312 -0.00673866
25 1 0.0901011 0.499983 0.489477 0 -0.00196075 0.00674248
27 1 0.840101 0.666684 0.489477 0 0.00194931 0.00673676
28 1 0.509351 0.540848 0.0698113 0 0.0459499 0.0443516
29 1 0.259351 0.625819 0.0698114 0 -0.0459518 0.0443363
30 1 0.202697 0.496233 0.209012 0 0.0541077 -0.0412865
32 1 0.895529 0.499442 0.346993 0 -0.0174541 0.0988998
33 1 0.824904 0.170434 0.841441 0 -0.0541077 0.041296
34 1 0.76825 0.040848 0.980642 0 0.0459538 -0.044342
35 1 0.518249 0.125819 0.980641 0 -0.0459576 -0.0443439
36 1 0.88207 0.999442 0.70346 0 -0.0174541 -0.0989056
37 1 0.784822 0.499905 0.632312 0 -0.00482941 -0.0210266
38 1 0.63207 0.167225 0.70346 0 0.0174618 -0.0988979
39 1 0.534821 0.666763 0.632312 0 0.00481796 -0.0210266
40 1 0.574903 0.996233 0.841441 0 0.0541134 0.041296
41 1 0.47921 0.499026 0.774307 0 -0.0130215 -0.0812893
42 1 0.324902 0.170434 0.841441 0 -0.0541172 0.0413055
43 1 0.229209 0.667641 0.774307 0 0.0130196 -0.0812893
44 1 0.268249 0.0408482 0.980641 0 0.0459442 -0.044342
45 1 0.172958 0.512488 0.914592 0 3.8147e-06 -0.0239716
46 1 0.645531 0.667225 0.346993 0 0.0174618 0.0989075
47 1 0.590102 0.499982 0.489477 0 -0.00196075 0.00674438
48 1 0.340102 0.666684 0.489477 0 0.00195503 0.00674057
49 1 0.284821 0.499905 0.632312 0 -0.00482559 -0.0210285
50 1 0.0348202 0.666762 0.632312 0 0.00483322 -0.0210457
52 1 0.0182505 0.12582 0.980642 0 -0.0459518 -0.0443382
54 1 0.72921 0.667642 0.774307 0 0.0130157 -0.0812912
55 1 0.672959 0.512488 0.914592 0 3.8147e-06 -0.0239601
56 1 0.422958 0.654179 0.914593 0 0 -0.0239697
5 1 0.992778 0.999903 0.418141 0 -0.00481987 0.0210285
26 1 0.937497 0.166684 0.560976 0 0.0019474 -0.00675201
31 1 0.952696 0.670435 0.209012 0 -0.0541229 -0.0412941
51 1 0.979208 0.499025 0.774307 0 -0.0130081 -0.0812778
53 1 0.92296 0.65418 0.914593 0 -3.8147e-06 -0.0239582
ITEM: TIMESTEP
4
ITEM: NUMBER OF ATOMS
56
ITEM: BOX BOUNDS xy xz yz pp pp pp
-4.7037188410758972e+00 1.2156271994113922e+01 8.9406967163085938e-07
-8.2894563674926758e-03 5.5346975326538086e+00 -4.7325475811958313e+00
-4.5665502548217773e-03 1.9024526596069336e+01 -5.9604644775390625e-08
ITEM: ATOMS id type xs ys zs fx fy fz
1 1 0.605112 1.01719 0.137065 0 -0.0135384 0.00580215
2 1 0.355112 0.149481 0.137066 0 0.0135326 0.00580406
3 1 0.299224 0.997724 0.278283 0 0.00743675 0.0147533
4 1 0.0492235 0.168944 0.278283 0 -0.00745583 0.014761
6 1 0.105111 1.01719 0.137066 0 -0.0135326 0.00581741
7 1 0.00968354 0.546224 0.0706669 0 -0.0357456 -0.0587883
8 1 0.85511 0.149482 0.137066 0 0.013525 0.00580215
9 1 0.759683 0.620444 0.0706666 0 0.0357494 -0.0587845
10 1 0.799223 0.997724 0.278283 0 0.00744438 0.0147533
11 1 0.742971 0.167166 0.41863 0 0.00733948 0.051693
12 1 0.687444 -0.000170078 0.560836 0 -0.0112171 -0.0392494
13 1 0.437443 0.166838 0.560836 0 0.0112019 -0.0392494
14 1 0.381154 0.997937 0.701114 0 0.00221062 -0.00157547
15 1 0.131153 0.16873 0.701114 0 -0.00221443 -0.00157166
16 1 0.074605 0.999266 0.84068 0 0.0235195 -0.0129662
17 1 0.702995 0.499267 0.209772 0 0.0235062 0.01297
18 1 0.549225 0.168943 0.278283 0 -0.00743103 0.0147572
19 1 0.452994 0.667401 0.209773 0 -0.0235138 0.0129528
20 1 0.49297 0.999501 0.41863 0 -0.00735474 0.0517063
21 1 0.396446 0.497938 0.349338 0 0.00221825 0.00157547
22 1 0.242969 0.167166 0.41863 0 0.00733757 0.0516949
23 1 0.146445 0.66873 0.349338 0 -0.00220871 0.00159073
24 1 0.187442 -0.000169903 0.560836 0 -0.0112171 -0.0392456
25 1 0.0901559 0.49983 0.489618 0 -0.0112133 0.0392342
27 1 0.840156 0.666837 0.489617 0 0.0112152 0.0392437
28 1 0.509685 0.546223 0.070667 0 -0.0357475 -0.0587902
29 1 0.259684 0.620443 0.0706668 0 0.0357437 -0.0587902
30 1 0.202993 0.499266 0.209773 0 0.0235176 0.0129585
32 1 0.896445 0.497938 0.349339 0 0.00220871 0.00158119
33 1 0.824607 0.167401 0.840681 0 -0.0235062 -0.0129623
34 1 0.767916 0.0462239 0.979786 0 -0.0357494 0.0588036
35 1 0.517915 0.120442 0.979786 0 0.0357533 0.058794
36 1 0.881155 0.997938 0.701114 0 0.00221634 -0.00156975
37 1 0.784631 0.499501 0.631822 0 -0.00734138 -0.0517006
38 1 0.631155 0.16873 0.701115 0 -0.00222206 -0.0015831
39 1 0.53463 0.667166 0.631822 0 0.00734901 -0.0516949
40 1 0.574606 0.999266 0.84068 0 0.0235062 -0.01297
41 1 0.478376 0.497724 0.77217 0 0.00744629 -0.0147629
42 1 0.324605 0.167401 0.84068 0 -0.0235119 -0.0129719
43 1 0.228375 0.668943 0.77217 0 -0.00744629 -0.0147648
44 1 0.267915 0.0462233 0.979786 0 -0.0357437 0.0587883
45 1 0.172488 0.517186 0.913387 0 -0.0135403 -0.00579643
46 1 0.646446 0.668729 0.349338 0 -0.00222015 0.00157166
47 1 0.590157 0.499829 0.489617 0 -0.0112038 0.0392456
48 1 0.340157 0.666837 0.489617 0 0.0112228 0.0392456
49 1 0.28463 0.499501 0.631822 0 -0.00733948 -0.0516968
50 1 0.034629 0.667167 0.631822 0 0.00733376 -0.0516911
52 1 0.0179167 0.120444 0.979786 0 0.0357437 0.0587883
54 1 0.728376 0.668943 0.77217 0 -0.00743484 -0.0147552
55 1 0.672489 0.517185 0.913387 0 -0.0135231 -0.00581932
56 1 0.422488 0.649481 0.913387 0 0.0135326 -0.00579453
5 1 0.992969 0.9995 0.41863 0 -0.00733566 0.0517006
26 1 0.937442 0.166837 0.560835 0 0.0112152 -0.0392361
31 1 0.952993 0.667401 0.209772 0 -0.0234966 0.0129604
51 1 0.978374 0.497724 0.77217 0 0.00744438 -0.0147686
53 1 0.92249 0.649482 0.913387 0 0.0135345 -0.00580025
ITEM: TIMESTEP
5
ITEM: NUMBER OF ATOMS
56
ITEM: BOX BOUNDS xy xz yz pp pp pp
-4.7037188410758972e+00 1.2156271994113922e+01 8.9406967163085938e-07
-8.2894563674926758e-03 5.5346975326538086e+00 -4.7325475811958313e+00
-4.5665502548217773e-03 1.9024526596069336e+01 -5.9604644775390625e-08
ITEM: ATOMS id type xs ys zs fx fy fz
1 1 0.605293 1.01786 0.137531 0 -0.0238476 0.0136528
2 1 0.355293 0.148805 0.137531 0 0.0238361 0.0136356
3 1 0.299575 0.997746 0.279182 0 0.0170918 0.000234604
4 1 0.0495743 0.168922 0.279182 0 -0.0170918 0.000232697
6 1 0.105292 1.01786 0.137531 0 -0.0238361 0.0136414
7 1 0.00940797 0.545851 0.0699607 0 0.00392723 -0.00104523
8 1 0.855292 0.148806 0.137531 0 0.0238419 0.0136604
9 1 0.759407 0.620816 0.0699604 0 -0.00392723 -0.0010376
10 1 0.799574 0.997746 0.279182 0 0.0170956 0.000228882
11 1 0.743362 0.167705 0.419632 0 0.00859451 0.00807381
12 1 0.687174 -0.0008514 0.560146 0 -0.00712967 0.00314522
13 1 0.437174 0.167518 0.560146 0 0.0071373 0.00313568
14 1 0.380863 0.997601 0.700369 0 0.0050602 0.00323868
15 1 0.130862 0.169066 0.700369 0 -0.00505447 0.0032444
16 1 0.0744305 1.00153 0.840233 0 -0.00213242 0.00798607
17 1 0.703169 0.501527 0.210219 0 -0.00213814 -0.00798035
18 1 0.549576 0.168922 0.279182 0 -0.0170975 0.000228882
19 1 0.453169 0.665141 0.210219 0 0.00212669 -0.00797272
20 1 0.493361 0.998961 0.419632 0 -0.00857925 0.00808334
21 1 0.396737 0.497601 0.350084 0 0.00504684 -0.00324821
22 1 0.24336 0.167705 0.419632 0 0.00860405 0.00806618
23 1 0.146736 0.669066 0.350084 0 -0.00506401 -0.00324059
24 1 0.187173 -0.000851274 0.560146 0 -0.00713348 0.00313759
25 1 0.090425 0.499148 0.490307 0 -0.00713539 -0.0031414
27 1 0.840425 0.667518 0.490307 0 0.00714493 -0.00314522
28 1 0.509409 0.545851 0.0699608 0 0.00392914 -0.00106049
29 1 0.259409 0.620815 0.0699605 0 -0.00393105 -0.00103951
30 1 0.203168 0.501527 0.21022 0 -0.00212479 -0.00798416
32 1 0.896736 0.497601 0.350084 0 0.00505257 -0.00325394
33 1 0.824432 0.165141 0.840234 0 0.00212097 0.00797844
34 1 0.768192 0.0458513 0.980493 0 0.00394249 0.00103188
35 1 0.518191 0.120815 0.980492 0 -0.00392532 0.00103951
36 1 0.880864 0.997602 0.700369 0 0.00505257 0.00324249
37 1 0.78424 0.498962 0.63082 0 -0.00859451 -0.00806236
38 1 0.630864 0.169066 0.700369 0 -0.00505066 0.00324821
39 1 0.534239 0.667705 0.63082 0 0.00859261 -0.00806618
40 1 0.574432 1.00153 0.840233 0 -0.00211906 0.00798416
41 1 0.478025 0.497746 0.771271 0 0.0170784 -0.000232697
42 1 0.324431 0.16514 0.840233 0 0.00213242 0.00798607
43 1 0.228024 0.668921 0.771271 0 -0.0170841 -0.00022316
44 1 0.26819 0.0458507 0.980492 0 0.00393486 0.00104332
45 1 0.172306 0.517861 0.912922 0 -0.0238438 -0.0136318
46 1 0.646737 0.669065 0.350084 0 -0.00504303 -0.00325012
47 1 0.590426 0.499148 0.490307 0 -0.00714874 -0.00314331
48 1 0.340426 0.667519 0.490307 0 0.00712585 -0.00314522
49 1 0.284239 0.498962 0.63082 0 -0.00859451 -0.00806808
50 1 0.034238 0.667706 0.63082 0 0.00859451 -0.00806618
52 1 0.0181923 0.120816 0.980492 0 -0.00391769 0.0010376
54 1 0.728025 0.668922 0.771271 0 -0.0170822 -0.000246048
55 1 0.672307 0.517862 0.912922 0 -0.0238438 -0.0136395
56 1 0.422306 0.648805 0.912922 0 0.0238323 -0.0136452
5 1 0.99336 0.998961 0.419632 0 -0.00859833 0.00806427
26 1 0.937173 0.167518 0.560145 0 0.00713539 0.00314903
31 1 0.953167 0.665141 0.210219 0 0.00211906 -0.00797653
51 1 0.978023 0.497746 0.771271 0 0.0170803 -0.000234604
53 1 0.922308 0.648806 0.912922 0 0.023838 -0.0136509
ITEM: TIMESTEP
6
ITEM: NUMBER OF ATOMS
56
ITEM: BOX BOUNDS xy xz yz pp pp pp
-4.7037188410758972e+00 1.2156271994113922e+01 8.9406967163085938e-07
-8.2894563674926758e-03 5.5346975326538086e+00 -4.7325475811958313e+00
-4.5665502548217773e-03 1.9024526596069336e+01 -5.9604644775390625e-08
ITEM: ATOMS id type xs ys zs fx fy fz
1 1 0.605423 1.01614 0.137863 0 -0.0012188 -0.000110626
2 1 0.355423 0.150521 0.137863 0 0.0012188 -8.96454e-05
3 1 0.299605 0.999016 0.279258 0 -0.00235939 0.00657463
4 1 0.0496041 0.167651 0.279258 0 0.00234795 0.006567
6 1 0.105422 1.01615 0.137863 0 -0.00122833 -9.91821e-05
7 1 0.00937732 0.546113 0.0698822 0 -0.00556564 -0.011858
8 1 0.855422 0.150523 0.137863 0 0.00122261 -0.000114441
9 1 0.759377 0.620554 0.0698821 0 0.0055809 -0.0118771
10 1 0.799604 0.999017 0.279258 0 -0.0023632 0.00656319
11 1 0.743461 0.168386 0.419886 0 -0.00114632 -0.00395393
12 1 0.68718 -0.00143466 0.560159 0 -0.00293159 0.0050106
13 1 0.437179 0.168102 0.560159 0 0.00291252 0.00501442
14 1 0.380867 0.99795 0.70038 0 0.00161362 0.00467491
15 1 0.130867 0.168718 0.70038 0 -0.0016098 0.00467682
16 1 0.0744841 1.00155 0.840371 0 -0.00194168 -0.00169563
17 1 0.703116 0.501548 0.210082 0 -0.00193024 0.00170326
18 1 0.549605 0.167651 0.279258 0 0.00236702 0.00656319
19 1 0.453115 0.66512 0.210082 0 0.00192642 0.0016861
20 1 0.49346 0.998281 0.419886 0 0.00115013 -0.0039711
21 1 0.396732 0.49795 0.350073 0 0.00161934 -0.00466537
22 1 0.243459 0.168387 0.419886 0 -0.00117302 -0.00395584
23 1 0.146732 0.668717 0.350073 0 -0.0016098 -0.00468636
24 1 0.187178 -0.00143482 0.560159 0 -0.00292587 0.00500679
25 1 0.0904198 0.498565 0.490294 0 -0.00290871 -0.00500679
27 1 0.840419 0.668102 0.490294 0 0.00289726 -0.00500298
28 1 0.509379 0.546113 0.0698819 0 -0.00557137 -0.0118542
29 1 0.259378 0.620553 0.0698821 0 0.00558472 -0.0118694
30 1 0.203114 0.501548 0.210082 0 -0.00193596 0.00169563
32 1 0.896731 0.49795 0.350073 0 0.00161743 -0.0046711
33 1 0.824486 0.165119 0.840371 0 0.00194359 -0.00170326
34 1 0.768222 0.0461144 0.980571 0 -0.00558472 0.011879
35 1 0.518221 0.120553 0.980571 0 0.00556374 0.0118732
36 1 0.880869 0.99795 0.70038 0 0.00160408 0.004673
37 1 0.784141 0.498281 0.630567 0 0.00116158 0.00394821
38 1 0.630868 0.168718 0.70038 0 -0.00161934 0.004673
39 1 0.53414 0.668386 0.630567 0 -0.00115585 0.00394821
40 1 0.574485 1.00155 0.840371 0 -0.00194359 -0.00170135
41 1 0.477995 0.499015 0.771194 0 -0.00234222 -0.00656891
42 1 0.324484 0.165119 0.840371 0 0.00192642 -0.00169754
43 1 0.227994 0.667651 0.771195 0 0.0023613 -0.00656319
44 1 0.268221 0.0461133 0.980571 0 -0.00558472 0.0118656
45 1 0.172177 0.516145 0.91259 0 -0.0012188 9.34601e-05
46 1 0.646733 0.668718 0.350073 0 -0.00162125 -0.00466728
47 1 0.590421 0.498564 0.490294 0 -0.00288963 -0.00500488
48 1 0.340421 0.668102 0.490294 0 0.00291634 -0.00499916
49 1 0.284139 0.498281 0.630567 0 0.00116348 0.00394249
50 1 0.034139 0.668386 0.630566 0 -0.00115204 0.00395393
52 1 0.0182229 0.120555 0.980571 0 0.00556564 0.0118656
54 1 0.727995 0.667652 0.771194 0 0.00234413 -0.00654793
55 1 0.672178 0.516145 0.91259 0 -0.00121498 8.96454e-05
56 1 0.422177 0.650521 0.91259 0 0.00123405 9.34601e-05
5 1 0.993459 0.99828 0.419886 0 0.00115967 -0.00394821
26 1 0.937178 0.168102 0.560159 0 0.00292587 0.00500488
31 1 0.953114 0.66512 0.210082 0 0.0019474 0.00169754
51 1 0.977994 0.499016 0.771194 0 -0.00235367 -0.00655556
53 1 0.922178 0.650522 0.91259 0 0.00122452 0.000101089
ITEM: TIMESTEP
7
ITEM: NUMBER OF ATOMS
56
ITEM: BOX BOUNDS xy xz yz pp pp pp
-4.7037188410758972e+00 1.2156271994113922e+01 8.9406967163085938e-07
-8.2894563674926758e-03 5.5346975326538086e+00 -4.7325475811958313e+00
-4.5665502548217773e-03 1.9024526596069336e+01 -5.9604644775390625e-08
ITEM: ATOMS id type xs ys zs fx fy fz
1 1 0.605441 1.01584 0.137909 0 -0.000545502 0.00171089
2 1 0.355441 0.150823 0.137909 0 0.000555038 0.00170135
3 1 0.299644 0.99909 0.279357 0 -0.0034256 0.000673294
4 1 0.0496428 0.167577 0.279357 0 0.00343513 0.000673294
6 1 0.10544 1.01584 0.137909 0 -0.000541687 0.00170517
7 1 0.00931077 0.545894 0.0697116 0 0.00260162 0.000968933
8 1 0.85544 0.150825 0.13791 0 0.00056076 0.00170326
9 1 0.75931 0.620774 0.0697113 0 -0.00261688 0.000963211
10 1 0.799642 0.99909 0.279357 0 -0.00343704 0.000684738
11 1 0.743454 0.168431 0.41987 0 -0.00150681 -0.000198364
12 1 0.687207 -0.00165344 0.560228 0 -0.000360489 0.0014801
13 1 0.437206 0.16832 0.560228 0 0.000362396 0.00148582
14 1 0.380892 0.998074 0.700444 0 -9.15527e-05 0.00165558
15 1 0.130892 0.168593 0.700444 0 9.72748e-05 0.00165939
16 1 0.0744829 1.00146 0.840368 0 -0.00100899 0.00340271
17 1 0.703117 0.501461 0.210085 0 -0.00100708 -0.00341606
18 1 0.549644 0.167578 0.279357 0 0.00343132 0.000684738
19 1 0.453116 0.665205 0.210085 0 0.00100708 -0.00340462
20 1 0.493454 0.998237 0.41987 0 0.00149536 -0.000181198
21 1 0.396707 0.498074 0.350009 0 -9.53674e-05 -0.00165558
22 1 0.243453 0.16843 0.41987 0 -0.00148964 -0.000179291
23 1 0.146706 0.668593 0.350009 0 0.000101089 -0.00165367
24 1 0.187205 -0.00165338 0.560228 0 -0.000350952 0.00148964
25 1 0.0903929 0.498347 0.490225 0 -0.000370026 -0.00148582
27 1 0.840392 0.66832 0.490225 0 0.000375748 -0.00149536
28 1 0.509312 0.545893 0.0697114 0 0.00259781 0.000959396
29 1 0.259312 0.620773 0.0697114 0 -0.00261116 0.000972748
30 1 0.203116 0.501462 0.210085 0 -0.00101852 -0.00341034
32 1 0.896706 0.498074 0.350009 0 -0.000104904 -0.00165749
33 1 0.824485 0.165206 0.840368 0 0.0010128 0.00341606
34 1 0.768289 0.0458946 0.980742 0 0.00261307 -0.00097847
35 1 0.518288 0.120772 0.980741 0 -0.00260735 -0.000965118
36 1 0.880894 0.998074 0.700444 0 -0.000106812 0.00166512
37 1 0.784147 0.498237 0.630583 0 0.00149345 0.000185013
38 1 0.630893 0.168593 0.700444 0 0.000101089 0.00164795
39 1 0.534147 0.66843 0.630583 0 -0.00148773 0.000190735
40 1 0.574484 1.00146 0.840367 0 -0.00101662 0.00341415
41 1 0.477956 0.499089 0.771095 0 -0.0034256 -0.000675201
42 1 0.324483 0.165205 0.840367 0 0.00101471 0.00340652
43 1 0.227955 0.667578 0.771096 0 0.00342178 -0.000688553
44 1 0.268288 0.0458935 0.980741 0 0.00260544 -0.000961304
45 1 0.172159 0.515843 0.912544 0 -0.000545502 -0.00171471
46 1 0.646708 0.668593 0.350008 0 9.53674e-05 -0.00165367
47 1 0.590394 0.498346 0.490225 0 -0.000360489 -0.00149155
48 1 0.340394 0.66832 0.490225 0 0.000356674 -0.00149345
49 1 0.284146 0.498237 0.630583 0 0.00148964 0.00018692
50 1 0.0341455 0.668431 0.630583 0 -0.00150299 0.000196457
52 1 0.0182894 0.120774 0.980741 0 -0.00260353 -0.000953674
54 1 0.727957 0.667578 0.771095 0 0.00342941 -0.000679016
55 1 0.67216 0.515843 0.912543 0 -0.000551224 -0.00169945
56 1 0.422159 0.650824 0.912543 0 0.000547409 -0.00170326
5 1 0.993452 0.998236 0.41987 0 0.00149918 -0.000185013
26 1 0.937205 0.16832 0.560228 0 0.000358582 0.00149727
31 1 0.953115 0.665206 0.210085 0 0.00100899 -0.00341225
51 1 0.977955 0.49909 0.771095 0 -0.00343132 -0.000680923
53 1 0.92216 0.650825 0.912544 0 0.000553131 -0.00170708
ITEM: TIMESTEP
8
ITEM: NUMBER OF ATOMS
56
ITEM: BOX BOUNDS xy xz yz pp pp pp
-4.7037188410758972e+00 1.2156271994113922e+01 8.9406967163085938e-07
-8.2894563674926758e-03 5.5346975326538086e+00 -4.7325475811958313e+00
-4.5665502548217773e-03 1.9024526596069336e+01 -5.9604644775390625e-08
ITEM: ATOMS id type xs ys zs fx fy fz
1 1 0.605459 1.01574 0.137956 0 0.00097084 0.000398636
2 1 0.355459 0.15093 0.137956 0 -0.000986099 0.000413895
3 1 0.299658 0.998854 0.279393 0 -0.000253677 -0.0014801
4 1 0.0496568 0.167813 0.279393 0 0.000253677 -0.00148201
6 1 0.105458 1.01574 0.137956 0 0.000974655 0.00041008
7 1 0.00930442 0.546037 0.0696953 0 0.000278473 -0.00188065
8 1 0.855458 0.150932 0.137956 0 -0.000995636 0.000406265
9 1 0.759304 0.62063 0.0696948 0 -0.000265121 -0.00187683
10 1 0.799656 0.998854 0.279393 0 -0.000240326 -0.00150108
11 1 0.743451 0.16833 0.419862 0 0.000160217 0.00116348
12 1 0.687225 -0.00172732 0.560275 0 0.000974655 -0.000360489
13 1 0.437224 0.168394 0.560275 0 -0.000963211 -0.000375748
14 1 0.380912 0.998094 0.700494 0 -0.000627518 0.000852585
15 1 0.130911 0.168574 0.700494 0 0.000617981 0.000850677
16 1 0.074511 1.00137 0.84044 0 -0.000835419 -4.19617e-05
17 1 0.703089 0.501369 0.210013 0 -0.000835419 4.57764e-05
18 1 0.549658 0.167813 0.279393 0 0.000246048 -0.00149727
19 1 0.453088 0.665298 0.210013 0 0.000837326 3.43323e-05
20 1 0.493451 0.998337 0.419862 0 -0.000146866 0.00114632
21 1 0.396688 0.498094 0.349959 0 -0.000631332 -0.00084877
22 1 0.24345 0.168331 0.419862 0 0.000141144 0.00113869
23 1 0.146687 0.668573 0.349959 0 0.00062561 -0.00084877
24 1 0.187224 -0.00172651 0.560275 0 0.000947952 -0.00037384
25 1 0.0903746 0.498272 0.490178 0 0.000972748 0.00037384
27 1 0.840374 0.668394 0.490178 0 -0.000972748 0.000385284
28 1 0.509306 0.546036 0.0696949 0 0.000291824 -0.00185966
29 1 0.259305 0.620629 0.0696952 0 -0.000278473 -0.00188065
30 1 0.203087 0.501369 0.210013 0 -0.000823975 3.8147e-05
32 1 0.896687 0.498094 0.349959 0 -0.000621796 -0.000850677
33 1 0.824513 0.165299 0.84044 0 0.000831604 -4.95911e-05
34 1 0.768295 0.0460386 0.980758 0 0.000263214 0.00188446
35 1 0.518294 0.120629 0.980758 0 -0.000282288 0.00186348
36 1 0.880913 0.998093 0.700494 0 -0.000612259 0.000852585
37 1 0.78415 0.498337 0.630591 0 -0.000160217 -0.00114632
38 1 0.630912 0.168573 0.700494 0 0.000627518 0.000852585