ITEM: TIMESTEP
0
ITEM: NUMBER OF ATOMS
32
ITEM: BOX BOUNDS xy xz yz pp pp pp
3.0272657245757604e-03 6.3938049081754240e+00 0.0000000000000000e+00
-3.1320509042145829e-03 7.1806321941954776e+00 0.0000000000000000e+00
2.7435269680358088e-02 2.0697951192719628e+01 1.6570689678912640e+00
ITEM: ATOMS id type xs ys zs fx fy fz
1 1 0.999986 0.648369 0.0597554 3.6307e-07 0 1.16883
2 1 0.499986 0.648369 0.0597554 -2.32103e-08 0 1.16883
3 1 0.249986 0.148369 0.0597529 -4.20885e-07 0 1.16926
4 1 0.749986 0.148369 0.0597529 4.07397e-07 0 1.16926
5 1 0.999986 0.573422 0.309761 1.96508e-07 0 0.00372653
6 1 0.249986 0.444993 0.18476 -3.91243e-07 0 0.0183354
7 1 0.749986 0.444993 0.18476 2.51719e-07 0 0.0183357
8 1 0.499986 0.573422 0.309761 1.50177e-08 0 0.00372625
9 1 0.999986 0.944994 0.184758 6.47851e-08 0 0.0183951
10 1 0.249986 0.0734212 0.309759 -3.87517e-07 0 0.00380552
11 1 0.499986 0.944994 0.184758 -2.49849e-07 0 0.0183952
12 1 0.749986 0.0734212 0.309759 4.41756e-07 0 0.00380533
13 1 0.999986 0.49845 0.559747 2.20491e-07 0 0.000872365
14 1 0.499986 0.49845 0.559747 -4.20609e-07 0 0.00087248
15 1 0.249986 0.998451 0.559747 -4.65078e-07 0 0.000860043
16 1 0.749986 0.998451 0.559747 3.32131e-07 0 0.000859503
17 1 0.249986 0.37004 0.434755 -4.35165e-07 0 -0.00086803
18 1 0.749986 0.37004 0.434755 5.00091e-07 0 -0.000868272
19 1 0.999986 0.870042 0.434755 1.74099e-07 0 -0.000884062
20 1 0.499986 0.870042 0.434755 -2.1659e-07 0 -0.000883877
21 1 0.999986 0.423487 0.809742 3.22761e-07 0 -0.0183802
22 1 0.249986 0.295065 0.684743 -5.115e-07 0 -0.00380472
23 1 0.499986 0.423487 0.809742 -1.46771e-07 0 -0.0183798
24 1 0.749986 0.295065 0.684743 3.04542e-07 0 -0.00380469
25 1 0.999986 0.795065 0.684741 3.56492e-07 0 -0.00374319
26 1 0.249986 0.923488 0.809741 -3.16562e-07 0 -0.0183469
27 1 0.749986 0.923488 0.809741 2.52272e-07 0 -0.018347
28 1 0.499986 0.795065 0.684741 -2.28989e-07 0 -0.00374278
29 1 0.249986 0.220111 0.934748 -4.36499e-07 0 -1.16924
30 1 0.749986 0.220111 0.934748 2.91533e-07 0 -1.16924
31 1 0.999986 0.72011 0.934746 4.29121e-07 0 -1.16881
32 1 0.499986 0.72011 0.934746 -1.4525e-07 0 -1.16881
ITEM: TIMESTEP
10
ITEM: NUMBER OF ATOMS
32
ITEM: BOX BOUNDS xy xz yz pp pp pp
3.0272657245757604e-03 6.3938049081754240e+00 0.0000000000000000e+00
-3.1320509042145829e-03 7.1806321941954776e+00 0.0000000000000000e+00
2.7435269680358088e-02 2.0697951192719628e+01 1.6570689678912640e+00
ITEM: ATOMS id type xs ys zs fx fy fz
1 1 0.999986 0.64561 0.068957 8.1207e-07 0 -1.35847e-05
2 1 0.499986 0.64561 0.068957 -1.09867e-08 0 -1.2323e-05
3 1 0.249986 0.14561 0.0689569 -3.73257e-08 0 -1.1813e-05
4 1 0.749986 0.14561 0.0689569 -9.27108e-07 0 -1.27818e-05
5 1 0.999986 0.57219 0.313872 5.63217e-07 0 2.35295e-06
6 1 0.249986 0.442976 0.191487 2.79426e-07 0 1.19667e-06
7 1 0.749986 0.442976 0.191487 -1.00722e-06 0 8.45734e-07
8 1 0.499986 0.57219 0.313872 -2.30386e-07 0 2.09533e-06
9 1 0.999986 0.942977 0.191486 8.65024e-07 0 1.25499e-06
10 1 0.249986 0.0721881 0.313871 -3.54339e-07 0 5.27725e-06
11 1 0.499986 0.942977 0.191486 -1.02456e-08 0 1.54113e-06
12 1 0.749986 0.0721881 0.313871 3.78509e-07 0 5.15332e-06
13 1 0.999986 0.49886 0.558379 -9.7524e-07 0 -1.37992e-07
14 1 0.499986 0.49886 0.558379 9.01637e-07 0 -3.34868e-06
15 1 0.249986 0.998862 0.558379 1.20589e-07 0 -1.72613e-06
16 1 0.749986 0.998862 0.558379 3.31177e-07 0 -1.26258e-06
17 1 0.249986 0.36963 0.436123 4.3777e-07 0 1.51449e-07
18 1 0.749986 0.36963 0.436122 -8.55563e-07 0 7.31809e-07
19 1 0.999986 0.869632 0.436123 4.26255e-07 0 2.00679e-06
20 1 0.499986 0.869632 0.436123 -6.24397e-07 0 2.87883e-06
21 1 0.999986 0.425505 0.803015 4.94649e-07 0 9.08653e-07
22 1 0.249986 0.296298 0.68063 -7.31764e-08 0 -1.58562e-06
23 1 0.499986 0.425505 0.803015 -2.33013e-07 0 -4.55029e-06
24 1 0.749986 0.296298 0.68063 2.2118e-08 0 -2.41821e-06
25 1 0.999986 0.796297 0.68063 -1.15114e-06 0 -4.54126e-06
26 1 0.249986 0.925505 0.803015 3.96673e-07 0 -3.57345e-06
27 1 0.749986 0.925505 0.803015 3.70477e-07 0 -3.47149e-06
28 1 0.499986 0.796297 0.68063 1.24797e-07 0 -2.95023e-06
29 1 0.249986 0.22287 0.925544 -8.07304e-08 0 1.23986e-05
30 1 0.749986 0.22287 0.925544 2.57672e-09 0 1.3184e-05
31 1 0.999986 0.722869 0.925544 3.40864e-07 0 1.36679e-05
32 1 0.499986 0.722869 0.925544 -2.67173e-07 0 1.42482e-05
