ITEM: TIMESTEP
0
ITEM: NUMBER OF ATOMS
56
ITEM: BOX BOUNDS xy xz yz pp pp pp
-3.4880917072296143e+00 1.2156271994113922e+01 8.9406967163085938e-07
-8.2894563674926758e-03 5.5346975326538086e+00 -3.5169204473495483e+00
-4.5665502548217773e-03 1.9024526596069336e+01 -5.9604644775390625e-08
ITEM: ATOMS id type xs ys zs fx fy fz
1 1 0.590011 0.999993 0.132369 0 0.0276661 -0.0121994
2 1 0.34001 0.166674 0.132369 0 -0.0276642 -0.0121918
3 1 0.270444 1 0.275226 0 -0.0050602 0.00253487
4 1 0.0204426 0.166667 0.275226 0 0.00506401 0.00253487
5 1 0.950848 1 0.418084 0 3.8147e-06 -0.00195885
6 1 0.0900094 0.999993 0.132369 0 0.0276661 -0.0121918
7 1 0.999779 0.500035 0.0609392 0 1.90318 1.30238
8 1 0.840009 0.166674 0.132369 0 -0.0276604 -0.0122147
9 1 0.749779 0.666632 0.0609392 0 -1.90319 1.30236
10 1 0.770442 1 0.275226 0 -0.00505829 0.00252914
11 1 0.70085 0.166667 0.418084 0 5.72205e-06 -0.00196266
12 1 0.631257 3.67832e-07 0.560938 0 -0.000522614 0.00178337
13 1 0.381256 0.166667 0.560938 0 0.000526428 0.00178146
14 1 0.311653 1 0.703795 0 -0.00173569 0.00333786
15 1 0.0616526 0.166667 0.703795 0 0.00174332 0.00333023
16 1 0.992071 0.999999 0.846658 0 -0.00518608 -0.0248394
17 1 0.680234 0.499999 0.203795 0 -0.0051899 0.0248375
18 1 0.520444 0.166667 0.275226 0 0.00507164 0.00252724
19 1 0.430234 0.666668 0.203795 0 0.00518227 0.0248318
20 1 0.450849 1 0.418084 0 5.72205e-06 -0.00196457
21 1 0.360652 0.5 0.346658 0 -0.00174141 -0.00334167
22 1 0.200848 0.166667 0.418084 0 -5.72205e-06 -0.00196648
23 1 0.110651 0.666667 0.346658 0 0.00172806 -0.00332642
24 1 0.131255 3.50169e-07 0.560938 0 -0.000514984 0.00178146
25 1 0.0410479 0.5 0.489515 0 -0.000524521 -0.00178337
26 1 0.881255 0.166667 0.560938 0 0.000526428 0.00178528
27 1 0.791048 0.666667 0.489515 0 0.000524521 -0.001791
28 1 0.49978 0.500035 0.0609392 0 1.90314 1.30232
29 1 0.24978 0.666632 0.0609392 0 -1.90316 1.30234
30 1 0.180233 0.499999 0.203795 0 -0.00518417 0.0248337
31 1 0.930232 0.666668 0.203795 0 0.00518799 0.0248318
32 1 0.86065 0.5 0.346658 0 -0.00173759 -0.00333214
33 1 0.742072 0.166668 0.846658 0 0.00518799 -0.0248318
34 1 0.672526 3.5121e-05 0.989514 0 1.9032 -1.30238
35 1 0.422525 0.166632 0.989514 0 -1.90314 -1.30234
36 1 0.811654 1 0.703795 0 -0.00173759 0.00333977
37 1 0.721457 0.5 0.632369 0 -9.53674e-06 0.00196648
38 1 0.561654 0.166667 0.703795 0 0.00173759 0.00332642
39 1 0.471456 0.666668 0.632369 0 -7.62939e-06 0.00196075
40 1 0.492072 0.999999 0.846658 0 -0.00518608 -0.0248337
41 1 0.401861 0.5 0.775226 0 -0.00505829 -0.00253296
42 1 0.242071 0.166668 0.846658 0 0.00518799 -0.0248337
43 1 0.151861 0.666667 0.775226 0 0.00505257 -0.00252724
44 1 0.172524 3.50854e-05 0.989514 0 1.90315 -1.30234
45 1 0.082294 0.499993 0.918084 0 0.0276661 0.0121956
46 1 0.610652 0.666667 0.346658 0 0.00172615 -0.00333023
47 1 0.541049 0.5 0.489515 0 -0.000524521 -0.00178146
48 1 0.291049 0.666667 0.489515 0 0.000522614 -0.00178146
49 1 0.221455 0.5 0.632369 0 0 0.00196838
50 1 0.971455 0.666667 0.632369 0 -5.72205e-06 0.00196648
51 1 0.90186 0.5 0.775226 0 -0.00506592 -0.00253105
52 1 0.922526 0.166632 0.989514 0 -1.90318 -1.30235
53 1 0.832296 0.666674 0.918084 0 -0.0276604 0.0122185
54 1 0.651862 0.666667 0.775226 0 0.00506973 -0.00253296
55 1 0.582295 0.499993 0.918084 0 0.0276585 0.0121956
56 1 0.332294 0.666674 0.918084 0 -0.0276661 0.0121899
ITEM: TIMESTEP
1
ITEM: NUMBER OF ATOMS
56
ITEM: BOX BOUNDS xy xz yz pp pp pp
-3.4880917072296143e+00 1.2156271994113922e+01 8.9406967163085938e-07
-8.2894563674926758e-03 5.5346975326538086e+00 -3.5169204473495483e+00
-4.5665502548217773e-03 1.9024526596069336e+01 -5.9604644775390625e-08
ITEM: ATOMS id type xs ys zs fx fy fz
1 1 0.590001 1.00026 0.132335 0 0.11998 -0.027914
2 1 0.340001 0.166412 0.132335 0 -0.119968 -0.027914
3 1 0.270446 0.999952 0.275233 0 -0.00539207 0.0025444
4 1 0.0204447 0.166715 0.275233 0 0.00538826 0.00254059
5 1 0.950846 1 0.418079 0 -0.000148773 -0.00117683
6 1 0.0899996 1.00026 0.132335 0 0.119974 -0.0279102
7 1 1.00082 0.518076 0.0645353 0 0.796713 0.404381
8 1 0.839999 0.166412 0.132335 0 -0.119978 -0.0279217
9 1 0.750822 0.648591 0.0645353 0 -0.796703 0.404354
10 1 0.770444 0.999952 0.275233 0 -0.00539207 0.00254059
11 1 0.700848 0.166667 0.418079 0 0.000148773 -0.00117111
12 1 0.631258 -4.58613e-06 0.560943 0 -0.000333786 0.00161552
13 1 0.381258 0.166672 0.560943 0 0.000337601 0.0016098
14 1 0.311656 0.999983 0.703804 0 -0.00226402 0.0010376
15 1 0.0616553 0.166684 0.703804 0 0.00226593 0.0010376
16 1 0.992051 0.99995 0.846589 0 -0.0276318 -0.109787
17 1 0.680254 0.49995 0.203864 0 -0.0276394 0.109781
18 1 0.520446 0.166715 0.275233 0 0.0053978 0.00255203
19 1 0.430254 0.666717 0.203864 0 0.0276279 0.109777
20 1 0.450848 1 0.418079 0 -0.000144958 -0.00117683
21 1 0.360649 0.499983 0.346649 0 -0.00227165 -0.00104523
22 1 0.200847 0.166667 0.418079 0 0.000162125 -0.0011692
23 1 0.110648 0.666684 0.346649 0 0.00227165 -0.00104141
24 1 0.131257 -4.53147e-06 0.560943 0 -0.000335693 0.00161362
25 1 0.0410465 0.499995 0.48951 0 -0.000341415 -0.00160027
26 1 0.881256 0.166672 0.560943 0 0.000339508 0.00160599
27 1 0.791046 0.666672 0.48951 0 0.000335693 -0.00161171
28 1 0.500823 0.518075 0.0645351 0 0.796703 0.404377
29 1 0.250823 0.648592 0.0645352 0 -0.796709 0.404385
30 1 0.180253 0.49995 0.203864 0 -0.0276356 0.109777
31 1 0.930252 0.666717 0.203864 0 0.0276413 0.109781
32 1 0.860648 0.499984 0.346649 0 -0.00226784 -0.00103951
33 1 0.742052 0.166717 0.846589 0 0.0276394 -0.109776
34 1 0.671483 0.0180759 0.985917 0 0.796713 -0.404383
35 1 0.421482 0.148592 0.985918 0 -0.796707 -0.404381
36 1 0.811657 0.999983 0.703804 0 -0.00226593 0.00103951
37 1 0.721458 0.5 0.632374 0 -0.000148773 0.00117683
38 1 0.561657 0.166684 0.703804 0 0.00226974 0.00105095
39 1 0.471458 0.666667 0.632374 0 0.000148773 0.00118446
40 1 0.492052 0.99995 0.846589 0 -0.0276299 -0.109772
41 1 0.401859 0.499952 0.775219 0 -0.00539207 -0.00254631
42 1 0.242051 0.166717 0.846589 0 0.0276375 -0.109776
43 1 0.151859 0.666715 0.775219 0 0.00539207 -0.00254631
44 1 0.171481 0.0180754 0.985918 0 0.796707 -0.404379
45 1 0.0823038 0.500255 0.918118 0 0.11997 0.0279083
46 1 0.610649 0.666684 0.346649 0 0.00225639 -0.00103951
47 1 0.541048 0.499995 0.48951 0 -0.00034523 -0.00160789
48 1 0.291047 0.666672 0.48951 0 0.000337601 -0.00161743
49 1 0.221457 0.5 0.632374 0 -0.000154495 0.00117111
50 1 0.971457 0.666667 0.632374 0 0.000144958 0.0011692
51 1 0.901858 0.499952 0.775219 0 -0.00540352 -0.00255394
52 1 0.921483 0.148591 0.985918 0 -0.796701 -0.404354
53 1 0.832305 0.666412 0.918118 0 -0.11998 0.0279217
54 1 0.65186 0.666715 0.775219 0 0.00539017 -0.00253868
55 1 0.582305 0.500255 0.918118 0 0.11997 0.0279064
56 1 0.332304 0.666412 0.918118 0 -0.119978 0.0279083
ITEM: TIMESTEP
2
ITEM: NUMBER OF ATOMS
56
ITEM: BOX BOUNDS xy xz yz pp pp pp
-3.4880917072296143e+00 1.2156271994113922e+01 8.9406967163085938e-07
-8.2894563674926758e-03 5.5346975326538086e+00 -3.5169204473495483e+00
-4.5665502548217773e-03 1.9024526596069336e+01 -5.9604644775390625e-08
ITEM: ATOMS id type xs ys zs fx fy fz
1 1 0.589948 1.00297 0.132151 0 0.193645 -0.0123997
2 1 0.339947 0.163695 0.132151 0 -0.193651 -0.0123978
3 1 0.27045 0.99983 0.27525 0 -0.00475502 0.00944328
4 1 0.0204495 0.166837 0.27525 0 0.00475693 0.0094471
5 1 0.950844 0.999996 0.418071 0 -0.000638962 0.000259399
6 1 0.0899462 1.00297 0.132151 0 0.193649 -0.0123882
7 1 1.0016 0.536117 0.0672026 0 0.155739 -0.112902
8 1 0.839946 0.163695 0.132151 0 -0.193642 -0.0123959
9 1 0.751595 0.630551 0.0672024 0 -0.155733 -0.112915
10 1 0.770449 0.99983 0.27525 0 -0.00475311 0.00944328
11 1 0.700846 0.166671 0.418071 0 0.000638962 0.000263214
12 1 0.631261 -1.21444e-05 0.560954 0 -0.000175476 0.00103569
13 1 0.381261 0.166679 0.560954 0 0.000169754 0.00103378
14 1 0.311658 0.999932 0.703811 0 -0.00461197 -0.0135307
15 1 0.0616573 0.166735 0.703811 0 0.00462341 -0.0135365
16 1 0.991841 0.999324 0.845865 0 -0.0269318 -0.144207
17 1 0.680464 0.499324 0.204588 0 -0.0269337 0.144205
18 1 0.520451 0.166838 0.27525 0 0.00475311 0.00945091
19 1 0.430464 0.667343 0.204588 0 0.0269375 0.144194
20 1 0.450845 0.999996 0.418071 0 -0.00063324 0.000261307
21 1 0.360647 0.499932 0.346642 0 -0.00461578 0.013525
22 1 0.200844 0.166671 0.418071 0 0.000640869 0.000257492
23 1 0.110646 0.666735 0.346642 0 0.00461197 0.0135326
24 1 0.13126 -1.21329e-05 0.560954 0 -0.000171661 0.00102043
25 1 0.0410435 0.499988 0.489499 0 -0.000171661 -0.00102806
26 1 0.881259 0.166679 0.560954 0 0.000169754 0.00102234
27 1 0.791043 0.666679 0.489499 0 0.000169754 -0.00103378
28 1 0.501597 0.536116 0.0672024 0 0.155731 -0.112907
29 1 0.251596 0.630551 0.0672025 0 -0.155733 -0.112911
30 1 0.180463 0.499324 0.204588 0 -0.0269279 0.144196
31 1 0.930462 0.667343 0.204588 0 0.0269241 0.144203
32 1 0.860646 0.499932 0.346642 0 -0.00461578 0.013525
33 1 0.741842 0.167343 0.845865 0 0.0269356 -0.144196
34 1 0.670709 0.0361168 0.98325 0 0.155737 0.112907
35 1 0.420708 0.130551 0.98325 0 -0.155735 0.112904
36 1 0.811659 0.999932 0.703811 0 -0.0046196 -0.013525
37 1 0.721461 0.499996 0.632382 0 -0.000637054 -0.000253677
38 1 0.561659 0.166735 0.703811 0 0.00461006 -0.0135307
39 1 0.47146 0.666671 0.632382 0 0.000637054 -0.000257492
40 1 0.491842 0.999324 0.845865 0 -0.0269279 -0.144199
41 1 0.401855 0.49983 0.775203 0 -0.00475311 -0.00944519
42 1 0.241841 0.167343 0.845865 0 0.026926 -0.144199
43 1 0.151854 0.666837 0.775203 0 0.00475311 -0.00944519
44 1 0.170708 0.0361161 0.98325 0 0.155731 0.112913
45 1 0.0823571 0.502972 0.918302 0 0.193642 0.0123978
46 1 0.610647 0.666735 0.346642 0 0.0046196 0.0135326
47 1 0.541045 0.499988 0.489499 0 -0.000171661 -0.00102806
48 1 0.291044 0.666679 0.489499 0 0.000164032 -0.00102997
49 1 0.221459 0.499996 0.632382 0 -0.000631332 -0.000259399
50 1 0.971459 0.666671 0.632382 0 0.000635147 -0.000259399
51 1 0.901853 0.49983 0.775203 0 -0.00475502 -0.00944328
52 1 0.92071 0.130551 0.98325 0 -0.155735 0.112917
53 1 0.832359 0.663695 0.918302 0 -0.193645 0.0123978
54 1 0.651855 0.666838 0.775203 0 0.00475502 -0.00944519
55 1 0.582358 0.502972 0.918302 0 0.193647 0.0123882
56 1 0.332358 0.663695 0.918302 0 -0.193647 0.012394
ITEM: TIMESTEP
3
ITEM: NUMBER OF ATOMS
56
ITEM: BOX BOUNDS xy xz yz pp pp pp
-3.4880917072296143e+00 1.2156271994113922e+01 8.9406967163085938e-07
-8.2894563674926758e-03 5.5346975326538086e+00 -3.5169204473495483e+00
-4.5665502548217773e-03 1.9024526596069336e+01 -5.9604644775390625e-08
ITEM: ATOMS id type xs ys zs fx fy fz
1 1 0.589867 1.01784 0.131873 0 0.00890732 0.0390606
2 1 0.339867 0.148826 0.131874 0 -0.00890541 0.0390587
3 1 0.270512 0.999465 0.275461 0 -0.00356293 0.0301399
4 1 0.0205108 0.167202 0.275462 0 0.00355721 0.0301304
5 1 0.950846 0.999947 0.418077 0 -0.00235939 0.00789642
6 1 0.0898659 1.01784 0.131874 0 0.00891685 0.0390682
7 1 1.00086 0.548075 0.0646773 0 0.104778 0.0389023
8 1 0.839865 0.148826 0.131874 0 -0.00891495 0.0390511
9 1 0.750863 0.618592 0.0646768 0 -0.104784 0.0389004
10 1 0.77051 0.999465 0.275461 0 -0.00356293 0.0301323
11 1 0.700847 0.16672 0.418077 0 0.00235367 0.00789833
12 1 0.631268 -2.56186e-05 0.560977 0 -0.00135422 -0.0062294
13 1 0.381267 0.166692 0.560977 0 0.00136185 -0.00622177
14 1 0.31157 0.999578 0.703508 0 -0.0117188 -0.0648937
15 1 0.0615695 0.16709 0.703508 0 0.0117168 -0.0648937
16 1 0.990905 0.997256 0.842639 0 0.0681915 0.098753
17 1 0.681399 0.497256 0.207813 0 0.068203 -0.0987453
18 1 0.520512 0.167203 0.275462 0 0.00356102 0.0301266
19 1 0.431399 0.669411 0.207813 0 -0.068203 -0.0987225
20 1 0.450847 0.999948 0.418077 0 -0.0023613 0.00789261
21 1 0.360735 0.499578 0.346944 0 -0.011713 0.0648899
22 1 0.200846 0.16672 0.418077 0 0.00235367 0.00789261
23 1 0.110734 0.667089 0.346945 0 0.0117302 0.0648861
24 1 0.131266 -2.53142e-05 0.560977 0 -0.00135612 -0.00622559
25 1 0.0410368 0.499975 0.489476 0 -0.00136757 0.00622559
26 1 0.881266 0.166692 0.560977 0 0.00135803 -0.00622749
27 1 0.791036 0.666692 0.489476 0 0.00136185 0.00623703
28 1 0.500864 0.548074 0.064677 0 0.104773 0.0389023
29 1 0.250864 0.618593 0.064677 0 -0.10479 0.0389099
30 1 0.181398 0.497257 0.207813 0 0.0681953 -0.0987377
31 1 0.931398 0.669411 0.207813 0 -0.0681953 -0.0987434
32 1 0.860733 0.499578 0.346945 0 -0.0117168 0.0648918
33 1 0.740907 0.169411 0.84264 0 -0.0682068 0.0987396
34 1 0.671442 0.0480753 0.985776 0 0.10478 -0.038908
35 1 0.421441 0.118592 0.985776 0 -0.104774 -0.0389023
36 1 0.811571 0.999577 0.703508 0 -0.0117111 -0.0648956
37 1 0.721459 0.499947 0.632376 0 -0.0023632 -0.00790787
38 1 0.561571 0.167089 0.703508 0 0.0117283 -0.0648823
39 1 0.471459 0.66672 0.632376 0 0.0023613 -0.00789261
40 1 0.490907 0.997257 0.84264 0 0.0681992 0.0987396
41 1 0.401793 0.499465 0.774991 0 -0.00356674 -0.0301323
42 1 0.240906 0.16941 0.84264 0 -0.0681934 0.0987358
43 1 0.151792 0.667202 0.774991 0 0.00356102 -0.0301304
44 1 0.17144 0.0480742 0.985776 0 0.104778 -0.0389156
45 1 0.0824376 0.517841 0.918579 0 0.00890923 -0.0390625
46 1 0.610735 0.667089 0.346945 0 0.0117149 0.0648804
47 1 0.541038 0.499974 0.489476 0 -0.00136185 0.00622749
48 1 0.291038 0.666692 0.489476 0 0.00136948 0.00623322
49 1 0.221458 0.499948 0.632376 0 -0.0023632 -0.00790405
50 1 0.971457 0.666719 0.632376 0 0.00235748 -0.00790787
51 1 0.901792 0.499464 0.774991 0 -0.00356102 -0.0301266
52 1 0.921442 0.118592 0.985776 0 -0.104776 -0.0388985
53 1 0.832439 0.648826 0.918579 0 -0.00890923 -0.0390472
54 1 0.651794 0.667203 0.774991 0 0.00356483 -0.0301266
55 1 0.582439 0.517841 0.918579 0 0.00892258 -0.0390587
56 1 0.332438 0.648826 0.918579 0 -0.00891304 -0.0390625
ITEM: TIMESTEP
4
ITEM: NUMBER OF ATOMS
56
ITEM: BOX BOUNDS xy xz yz pp pp pp
-3.4880917072296143e+00 1.2156271994113922e+01 8.9406967163085938e-07
-8.2894563674926758e-03 5.5346975326538086e+00 -3.5169204473495483e+00
-4.5665502548217773e-03 1.9024526596069336e+01 -5.9604644775390625e-08
ITEM: ATOMS id type xs ys zs fx fy fz
1 1 0.590038 1.02256 0.132464 0 0.00891304 0.0266151
2 1 0.340038 0.144106 0.132464 0 -0.00891113 0.0266361
3 1 0.270679 0.999152 0.276037 0 0.00544357 0.0173702
4 1 0.0206778 0.167515 0.276037 0 -0.00543594 0.0173759
5 1 0.950885 0.999795 0.418214 0 -0.00252151 0.0182209
6 1 0.0900373 1.02256 0.132465 0 0.00890732 0.026619
7 1 1.00085 0.557612 0.0646311 0 -0.0435543 -0.0681477
8 1 0.840037 0.144106 0.132464 0 -0.00891876 0.0266399
9 1 0.750849 0.609055 0.0646305 0 0.0435638 -0.0681381
10 1 0.770677 0.999152 0.276037 0 0.00543404 0.0173645
11 1 0.700887 0.166872 0.418214 0 0.00252914 0.0182133
12 1 0.631239 -0.000109064 0.560877 0 -0.00518417 -0.0217533
13 1 0.381238 0.166776 0.560877 0 0.00518227 -0.0217571
14 1 0.311223 0.998789 0.702311 0 0.00255013 0.0101528
15 1 0.0612223 0.167879 0.702311 0 -0.00256348 0.0101566
16 1 0.991132 1.00068 0.843421 0 0.0430756 0.0127048
17 1 0.681173 0.500684 0.207032 0 0.0430603 -0.0127201
18 1 0.520679 0.167515 0.276037 0 -0.00543594 0.0173683
19 1 0.431172 0.665984 0.207032 0 -0.0430698 -0.0127087
20 1 0.450887 0.999795 0.418214 0 -0.00252914 0.0182304
21 1 0.361082 0.498789 0.348141 0 0.00255013 -0.0101357
22 1 0.200886 0.166872 0.418214 0 0.0025177 0.0182152
23 1 0.111081 0.667879 0.348142 0 -0.00254822 -0.0101585
24 1 0.131237 -0.000108789 0.560877 0 -0.00518608 -0.0217438
25 1 0.0410658 0.49989 0.489576 0 -0.00517082 0.0217381
26 1 0.881237 0.166776 0.560876 0 0.00518799 -0.0217476
27 1 0.791065 0.666776 0.489576 0 0.00518417 0.0217476
28 1 0.500851 0.55761 0.0646307 0 -0.0435562 -0.0681438
29 1 0.250851 0.609055 0.0646309 0 0.0435677 -0.0681496
30 1 0.181171 0.500684 0.207032 0 0.043066 -0.0126953
31 1 0.931171 0.665983 0.207032 0 -0.0430584 -0.0127087
32 1 0.861081 0.498789 0.348142 0 0.00253868 -0.0101433
33 1 0.741134 0.165983 0.843421 0 -0.043066 0.0127087
34 1 0.671455 0.0576121 0.985822 0 -0.0435562 0.0681591
35 1 0.421454 0.109056 0.985822 0 0.0435562 0.0681438
36 1 0.811224 0.998788 0.702311 0 0.0025444 0.0101624
37 1 0.721419 0.499795 0.632239 0 -0.00251961 -0.0182133
38 1 0.561224 0.167879 0.702311 0 -0.00254631 0.0101433
39 1 0.471419 0.666872 0.632239 0 0.00251579 -0.0182209
40 1 0.491133 1.00068 0.843421 0 0.0430679 0.0127048
41 1 0.401626 0.499152 0.774416 0 0.00543976 -0.0173721
42 1 0.241132 0.165983 0.843421 0 -0.0430679 0.0126915
43 1 0.151625 0.667515 0.774416 0 -0.00543022 -0.0173779
44 1 0.171454 0.0576108 0.985822 0 -0.0435715 0.068161
45 1 0.0822662 0.522561 0.917988 0 0.0089035 -0.0266285
46 1 0.611082 0.667879 0.348142 0 -0.00255394 -0.0101471
47 1 0.541067 0.499891 0.489576 0 -0.00518036 0.0217457
48 1 0.291067 0.666776 0.489576 0 0.00518227 0.0217457
49 1 0.221418 0.499795 0.632239 0 -0.0025177 -0.0182171
50 1 0.971417 0.666872 0.632239 0 0.00253296 -0.0182152
51 1 0.901625 0.499152 0.774416 0 0.00542831 -0.017374
52 1 0.921456 0.109056 0.985822 0 0.0435581 0.06814
53 1 0.832268 0.644106 0.917989 0 -0.00891685 -0.0266457
54 1 0.651627 0.667515 0.774416 0 -0.00543022 -0.0173664
55 1 0.582267 0.522562 0.917988 0 0.00889969 -0.0266209
56 1 0.332267 0.644105 0.917988 0 -0.00889969 -0.0266247
ITEM: TIMESTEP
5
ITEM: NUMBER OF ATOMS
56
ITEM: BOX BOUNDS xy xz yz pp pp pp
-3.4880917072296143e+00 1.2156271994113922e+01 8.9406967163085938e-07
-8.2894563674926758e-03 5.5346975326538086e+00 -3.5169204473495483e+00
-4.5665502548217773e-03 1.9024526596069336e+01 -5.9604644775390625e-08
ITEM: ATOMS id type xs ys zs fx fy fz
1 1 0.590275 1.0253 0.133281 0 -0.0254688 0.0116978
2 1 0.340275 0.141368 0.133282 0 0.0254574 0.011692
3 1 0.270858 0.999402 0.276655 0 0.0154705 0.00498962
4 1 0.0208569 0.167266 0.276655 0 -0.0154629 0.00498199
5 1 0.951013 0.999547 0.418654 0 -0.00532532 0.0015316
6 1 0.0902742 1.0253 0.133282 0 -0.0254631 0.0116978
7 1 1.00043 0.558748 0.063193 0 0.00289154 -0.00810242
8 1 0.840274 0.141367 0.133281 0 0.0254726 0.0116978
9 1 0.750432 0.60792 0.0631925 0 -0.00290489 -0.00810432
10 1 0.770856 0.999401 0.276655 0 0.0154724 0.00499344
11 1 0.701015 0.167121 0.418654 0 0.00530815 0.00154686
12 1 0.631095 -0.000516427 0.56038 0 -0.00144005 0.0083313
13 1 0.381094 0.167183 0.56038 0 0.00144577 0.0083313
14 1 0.311129 0.99862 0.701989 0 0.00805092 0.018631
15 1 0.061129 0.168048 0.701989 0 -0.0080452 0.0186386
16 1 0.991309 1.00529 0.844033 0 0.000354767 -0.00693893
17 1 0.680995 0.505285 0.206419 0 0.000362396 0.00696754
18 1 0.520858 0.167266 0.276655 0 -0.0154667 0.00498962
19 1 0.430995 0.661382 0.20642 0 -0.000362396 0.00693703
20 1 0.451014 0.999547 0.418654 0 -0.00531006 0.00154495
21 1 0.361175 0.49862 0.348464 0 0.0080471 -0.0186424
22 1 0.201013 0.16712 0.418654 0 0.0053196 0.00156212
23 1 0.111174 0.668049 0.348463 0 -0.00806618 -0.0186234
24 1 0.131093 -0.000516301 0.56038 0 -0.00143623 0.00832558
25 1 0.0412099 0.499484 0.490073 0 -0.00144958 -0.00832939
26 1 0.881093 0.167184 0.560379 0 0.00143814 0.00832748
27 1 0.79121 0.667184 0.490073 0 0.00144005 -0.00832939
28 1 0.500434 0.558746 0.0631927 0 0.0029068 -0.00810242
29 1 0.250433 0.60792 0.0631928 0 -0.0029068 -0.00809479
30 1 0.180994 0.505285 0.20642 0 0.000371933 0.00694466
31 1 0.930994 0.661383 0.20642 0 -0.000364304 0.00695992
32 1 0.861174 0.498619 0.348464 0 0.00805855 -0.0186424
33 1 0.741311 0.161382 0.844033 0 -0.000360489 -0.00695801
34 1 0.671872 0.0587481 0.98726 0 0.00288963 0.00809288
35 1 0.421871 0.10792 0.98726 0 -0.00289726 0.00809669
36 1 0.811131 0.998619 0.70199 0 0.00805283 0.0186138
37 1 0.721292 0.499547 0.631799 0 -0.00531197 -0.00153923
38 1 0.56113 0.168048 0.701989 0 -0.00805664 0.0186329
39 1 0.471291 0.66712 0.631799 0 0.0053196 -0.00154686
40 1 0.491311 1.00529 0.844033 0 0.000358582 -0.00695419
41 1 0.401447 0.499401 0.773798 0 0.0154762 -0.00499344
42 1 0.24131 0.161382 0.844033 0 -0.000358582 -0.00692749
43 1 0.151446 0.667266 0.773798 0 -0.0154724 -0.0049839
44 1 0.171871 0.0587456 0.98726 0 0.00291634 0.00808334
45 1 0.0820293 0.525298 0.917171 0 -0.0254593 -0.0116901
46 1 0.611176 0.668047 0.348463 0 -0.00805092 -0.0186329
47 1 0.541211 0.499483 0.490073 0 -0.00144386 -0.00831413
48 1 0.291211 0.667184 0.490073 0 0.00144196 -0.0083313
49 1 0.22129 0.499547 0.631799 0 -0.00531006 -0.00154686
50 1 0.97129 0.667121 0.631799 0 0.00530052 -0.00153542
51 1 0.901446 0.499401 0.773798 0 0.0154781 -0.00499725
52 1 0.921873 0.10792 0.98726 0 -0.00290489 0.00809288
53 1 0.832031 0.641367 0.917171 0 0.0254765 -0.0116844
54 1 0.651448 0.667267 0.773798 0 -0.0154743 -0.00499725
55 1 0.582031 0.5253 0.917171 0 -0.0254574 -0.011694
56 1 0.33203 0.641368 0.917171 0 0.0254517 -0.0116959
ITEM: TIMESTEP
6
ITEM: NUMBER OF ATOMS
56
ITEM: BOX BOUNDS xy xz yz pp pp pp
-3.4880917072296143e+00 1.2156271994113922e+01 8.9406967163085938e-07
-8.2894563674926758e-03 5.5346975326538086e+00 -3.5169204473495483e+00
-4.5665502548217773e-03 1.9024526596069336e+01 -5.9604644775390625e-08
ITEM: ATOMS id type xs ys zs fx fy fz
1 1 0.590384 1.02348 0.133655 0 -0.00487137 0.00608444
2 1 0.340383 0.14319 0.133655 0 0.00487709 0.00605965
3 1 0.270913 1.00072 0.276844 0 7.24792e-05 7.82013e-05
4 1 0.0209117 0.165949 0.276844 0 -6.67572e-05 9.34601e-05
5 1 0.951038 0.999075 0.418739 0 0.002882 0.000869751
6 1 0.0903826 1.02348 0.133656 0 -0.00487137 0.00605965
7 1 1.00033 0.559114 0.062838 0 -0.000415802 0.00180054
8 1 0.840382 0.14319 0.133655 0 0.00487328 0.00605011
9 1 0.750329 0.607553 0.0628375 0 0.000415802 0.00180626
10 1 0.770911 1.00072 0.276844 0 6.10352e-05 8.7738e-05
11 1 0.70104 0.167591 0.41874 0 -0.00287437 0.0008564
12 1 0.631137 -0.000681317 0.560527 0 -0.000312805 0.00683022
13 1 0.381137 0.167349 0.560527 0 0.000318527 0.00683212
14 1 0.31125 0.999272 0.702407 0 6.48499e-05 -0.00549889
15 1 0.06125 0.167395 0.702407 0 -5.72205e-05 -0.0055027
16 1 0.99128 1.00582 0.843932 0 -0.00889206 0.0126343
17 1 0.681025 0.505821 0.206521 0 -0.0089016 -0.0126667
18 1 0.520913 0.165949 0.276844 0 -7.24792e-05 8.2016e-05
19 1 0.431024 0.660846 0.206521 0 0.00889397 -0.0126495
20 1 0.451039 0.999076 0.41874 0 0.00287056 0.0008564
21 1 0.361054 0.499272 0.348046 0 5.72205e-05 0.00551033
22 1 0.201038 0.167591 0.41874 0 -0.00287247 0.000846863
23 1 0.111053 0.667395 0.348046 0 -6.29425e-05 0.00550079
24 1 0.131136 -0.000680889 0.560527 0 -0.000329971 0.00683975
25 1 0.0411671 0.499318 0.489925 0 -0.000310898 -0.0068264
26 1 0.881136 0.167348 0.560527 0 0.000322342 0.00683784
27 1 0.791167 0.667349 0.489926 0 0.000312805 -0.00683784
28 1 0.500331 0.559113 0.0628377 0 -0.000419617 0.00178528
29 1 0.250331 0.607553 0.062838 0 0.000419617 0.00178528
30 1 0.181023 0.505822 0.206521 0 -0.00889969 -0.0126553
31 1 0.931023 0.660846 0.206521 0 0.0089016 -0.0126591
32 1 0.861053 0.499272 0.348046 0 6.29425e-05 0.00550079
33 1 0.741282 0.160846 0.843932 0 0.0089035 0.0126572
34 1 0.671975 0.059114 0.987615 0 -0.000408173 -0.00180244
35 1 0.421974 0.107554 0.987615 0 0.00041008 -0.00178909
36 1 0.811252 0.999272 0.702406 0 7.05719e-05 -0.005476
37 1 0.721267 0.499076 0.631713 0 0.00286293 -0.000860214
38 1 0.561251 0.167395 0.702407 0 -6.67572e-05 -0.00550079
39 1 0.471266 0.667591 0.631713 0 -0.00287056 -0.000858307
40 1 0.491281 1.00582 0.843932 0 -0.00888824 0.0126514
41 1 0.401392 0.500719 0.773609 0 7.05719e-05 -7.43866e-05
42 1 0.24128 0.160846 0.843932 0 0.00889015 0.0126381
43 1 0.151391 0.665948 0.773609 0 -6.48499e-05 -8.2016e-05
44 1 0.171974 0.0591136 0.987615 0 -0.000432968 -0.00177002
45 1 0.0819209 0.523476 0.916797 0 -0.00487328 -0.00607109
46 1 0.611055 0.667395 0.348046 0 -5.91278e-05 0.0055027
47 1 0.541169 0.499318 0.489926 0 -0.00031662 -0.0068512
48 1 0.291168 0.667349 0.489925 0 0.000326157 -0.00683594
49 1 0.221265 0.499077 0.631713 0 0.00286484 -0.000854492
50 1 0.971265 0.66759 0.631713 0 -0.00286865 -0.000873566
51 1 0.901391 0.500719 0.773609 0 5.72205e-05 -7.62939e-05
52 1 0.921976 0.107553 0.987615 0 0.000425339 -0.00178337
53 1 0.831923 0.643191 0.916798 0 0.00485992 -0.00607681
54 1 0.651393 0.665949 0.773609 0 -7.05719e-05 -8.39233e-05
55 1 0.581922 0.523478 0.916797 0 -0.00487709 -0.00606537
56 1 0.331921 0.64319 0.916797 0 0.00488091 -0.00605583
ITEM: TIMESTEP
7
ITEM: NUMBER OF ATOMS
56
ITEM: BOX BOUNDS xy xz yz pp pp pp
-3.4880917072296143e+00 1.2156271994113922e+01 8.9406967163085938e-07
-8.2894563674926758e-03 5.5346975326538086e+00 -3.5169204473495483e+00
-4.5665502548217773e-03 1.9024526596069336e+01 -5.9604644775390625e-08
ITEM: ATOMS id type xs ys zs fx fy fz
1 1 0.590427 1.02295 0.133806 0 -0.00196648 -0.00171852
2 1 0.340427 0.143716 0.133806 0 0.00196648 -0.00170326
3 1 0.270921 1.00091 0.276872 0 -0.00556755 0.000640869
4 1 0.0209199 0.165759 0.276872 0 0.00556183 0.000638962
5 1 0.951045 0.999168 0.418765 0 0.00244331 0.00194931
6 1 0.0904262 1.02295 0.133806 0 -0.00197411 -0.00170708
7 1 1.00032 0.559143 0.062817 0 -0.00241852 -0.0043869
8 1 0.840426 0.143717 0.133806 0 0.00196075 -0.00169563
9 1 0.750323 0.607524 0.0628166 0 0.00243378 -0.00439262
10 1 0.770919 1.00091 0.276872 0 -0.00555611 0.000644684
11 1 0.701047 0.167498 0.418766 0 -0.00243759 0.0019474
12 1 0.631175 -0.000721842 0.560658 0 -6.67572e-05 -0.00152397
13 1 0.381175 0.16739 0.560658 0 5.34058e-05 -0.0015316
14 1 0.311242 0.999368 0.702377 0 0.000120163 0.00282097
15 1 0.0612414 0.1673 0.702377 0 -0.00012207 0.00281906
16 1 0.991335 1.0054 0.844121 0 -0.00263214 1.71661e-05
17 1 0.68097 0.505404 0.206332 0 -0.00263596 -2.47955e-05
18 1 0.520921 0.165759 0.276872 0 0.00555801 0.000642776
19 1 0.430969 0.661262 0.206331 0 0.00263405 -7.62939e-06
20 1 0.451047 0.999169 0.418766 0 0.0024395 0.00193977
21 1 0.361063 0.499367 0.348076 0 0.000127792 -0.00281715
22 1 0.201046 0.167498 0.418766 0 -0.00245094 0.00193977
23 1 0.111062 0.667299 0.348076 0 -0.000106812 -0.00281906
24 1 0.131174 -0.000722321 0.560658 0 -5.34058e-05 -0.00152206
25 1 0.0411291 0.499278 0.489795 0 -5.34058e-05 0.00152397
26 1 0.881174 0.167389 0.560658 0 5.14984e-05 -0.00152206
27 1 0.791129 0.667389 0.489795 0 6.29425e-05 0.00152016
28 1 0.500325 0.559142 0.0628165 0 -0.00242615 -0.00438309
29 1 0.250324 0.607524 0.0628168 0 0.00242615 -0.00438881
30 1 0.180968 0.505406 0.206332 0 -0.00263596 -1.52588e-05
31 1 0.930968 0.661263 0.206332 0 0.00263786 -2.47955e-05
32 1 0.861062 0.499367 0.348076 0 0.000110626 -0.0028038
33 1 0.741337 0.161263 0.844121 0 0.00263023 2.47955e-05
34 1 0.671981 0.0591429 0.987636 0 -0.00242424 0.00439453
35 1 0.42198 0.107525 0.987636 0 0.00242996 0.00439072
36 1 0.811243 0.999368 0.702377 0 0.000102997 0.00280952
37 1 0.721259 0.499168 0.631687 0 0.00244522 -0.00194359
38 1 0.561243 0.1673 0.702377 0 -0.000104904 0.00281334
39 1 0.471259 0.667498 0.631687 0 -0.00245285 -0.0019474
40 1 0.491336 1.00541 0.844121 0 -0.00263977 2.86102e-05
41 1 0.401384 0.500909 0.773581 0 -0.00556374 -0.000642776
42 1 0.241335 0.161262 0.844121 0 0.0026474 1.90735e-05
43 1 0.151383 0.665759 0.773581 0 0.00555801 -0.000650406
44 1 0.17198 0.0591415 0.987636 0 -0.00242805 0.00438499
45 1 0.0818772 0.52295 0.916647 0 -0.00196838 0.0017128
46 1 0.611063 0.667299 0.348076 0 -0.000116348 -0.00281906
47 1 0.541131 0.499277 0.489795 0 -5.14984e-05 0.00152588
48 1 0.29113 0.66739 0.489794 0 4.76837e-05 0.00152969
49 1 0.221258 0.49917 0.631687 0 0.00243568 -0.00194359
50 1 0.971257 0.667498 0.631687 0 -0.00243378 -0.00194168
51 1 0.901383 0.500908 0.773581 0 -0.00555801 -0.000642776
52 1 0.921982 0.107525 0.987636 0 0.00242996 0.00438499
53 1 0.831879 0.643717 0.916647 0 0.00197029 0.0017128
54 1 0.651385 0.665759 0.773581 0 0.00556755 -0.000652313
55 1 0.581879 0.522951 0.916647 0 -0.00197411 0.00169945
56 1 0.331878 0.643716 0.916647 0 0.00196648 0.00169563
ITEM: TIMESTEP
8
ITEM: NUMBER OF ATOMS
56
ITEM: BOX BOUNDS xy xz yz pp pp pp
-3.4880917072296143e+00 1.2156271994113922e+01 8.9406967163085938e-07
-8.2894563674926758e-03 5.5346975326538086e+00 -3.5169204473495483e+00
-4.5665502548217773e-03 1.9024526596069336e+01 -5.9604644775390625e-08
ITEM: ATOMS id type xs ys zs fx fy fz
1 1 0.59043 1.02266 0.133816 0 -0.00151062 -0.000276566
2 1 0.34043 0.14401 0.133816 0 0.00151062 -0.000278473
3 1 0.270927 1.00058 0.276893 0 -0.00142097 -0.000387192
4 1 0.0209261 0.166091 0.276894 0 0.00141907 -0.000387192
5 1 0.951059 0.999366 0.418813 0 -0.00063324 -0.000997543
6 1 0.0904291 1.02266 0.133816 0 -0.00148773 -0.000272751
7 1 1.0003 0.558983 0.0627217 0 0.00175095 0.00134468
8 1 0.840429 0.14401 0.133816 0 0.00151443 -0.000282288
9 1 0.750295 0.607685 0.0627212 0 -0.00176048 0.0013485
10 1 0.770926 1.00058 0.276894 0 -0.00143051 -0.000391006
11 1 0.701061 0.1673 0.418813 0 0.000642776 -0.000997543
12 1 0.631178 -0.000738534 0.560666 0 0.000974655 -4.19617e-05
13 1 0.381177 0.167406 0.560666 0 -0.000974655 -3.24249e-05
14 1 0.311256 0.999405 0.702425 0 -0.000751495 0.000904083
15 1 0.0612554 0.167263 0.702425 0 0.000759125 0.000896454
16 1 0.991351 1.0051 0.844178 0 -0.000335693 -0.000236511
17 1 0.680953 0.505096 0.206275 0 -0.000328064 0.000255585
18 1 0.520927 0.16609 0.276893 0 0.0014286 -0.000391006
19 1 0.430953 0.66157 0.206275 0 0.000326157 0.000234604
20 1 0.45106 0.999367 0.418813 0 -0.000637054 -0.000986099
21 1 0.361049 0.499404 0.348028 0 -0.000753403 -0.000907898
22 1 0.20106 0.1673 0.418813 0 0.000654221 -0.000991821
23 1 0.111048 0.667263 0.348028 0 0.000747681 -0.000907898
24 1 0.131176 -0.000738351 0.560666 0 0.000963211 -3.62396e-05
25 1 0.0411269 0.499262 0.489787 0 0.000961304 3.05176e-05
26 1 0.881176 0.167405 0.560666 0 -0.000963211 -3.8147e-05
27 1 0.791126 0.667406 0.489787 0 -0.000982285 5.91278e-05
28 1 0.500297 0.558981 0.0627211 0 0.0017662 0.0013504
29 1 0.250297 0.607685 0.0627213 0 -0.00177002 0.00135994
30 1 0.180952 0.505098 0.206275 0 -0.000329971 0.000246048
31 1 0.930952 0.661571 0.206275 0 0.000335693 0.000246048
32 1 0.861048 0.499404 0.348028 0 -0.000749588 -0.000909805
33 1 0.741353 0.16157 0.844178 0 0.000337601 -0.000247955
34 1 0.672009 0.0589824 0.987731 0 0.00175285 -0.00134087
35 1 0.422008 0.107686 0.987731 0 -0.00177002 -0.00135994