ITEM: TIMESTEP
0
ITEM: NUMBER OF ATOMS
32
ITEM: BOX BOUNDS xy xz yz pp pp pp
3.0272657245757604e-03 6.3938049081754240e+00 0.0000000000000000e+00
-3.1320509042145829e-03 1.1047126452608428e+01 0.0000000000000000e+00
2.7435269680358088e-02 2.0697951192719628e+01 5.5235632263042138e+00
ITEM: ATOMS id type xs ys zs fx fy fz
1 1 0.999986 0.606563 0.0597554 4.29907e-07 0 -0.000110537
2 1 0.499986 0.606563 0.0597554 4.13385e-08 0 -0.000110562
3 1 0.249986 0.106566 0.0597529 -3.61513e-07 0 -1.48978e-05
4 1 0.749986 0.106566 0.0597529 3.67643e-07 0 -1.51506e-05
5 1 0.999986 0.356713 0.309761 2.51167e-07 0 -0.000209472
6 1 0.249986 0.315734 0.18476 -4.26883e-07 0 -0.000192068
7 1 0.749986 0.315734 0.18476 2.49009e-07 0 -0.000191905
8 1 0.499986 0.356713 0.309761 -3.89996e-08 0 -0.000209805
9 1 0.999986 0.815736 0.184758 8.66678e-08 0 -0.000134185
10 1 0.249986 0.856713 0.309759 -3.10716e-07 0 -0.000131542
11 1 0.499986 0.815736 0.184758 -2.87555e-07 0 -0.000134013
12 1 0.749986 0.856713 0.309759 3.80325e-07 0 -0.000131738
13 1 0.999986 0.106849 0.559747 1.71771e-07 0 7.48244e-05
14 1 0.499986 0.106849 0.559747 -3.55488e-07 0 7.49164e-05
15 1 0.249986 0.60685 0.559747 -4.55924e-07 0 6.23982e-05
16 1 0.749986 0.60685 0.559747 3.124e-07 0 6.19899e-05
17 1 0.249986 0.0658843 0.434755 -4.29135e-07 0 -7.0055e-05
18 1 0.749986 0.0658843 0.434755 4.94996e-07 0 -7.03126e-05
19 1 0.999986 0.565886 0.434755 1.73022e-07 0 -8.61889e-05
20 1 0.499986 0.565886 0.434755 -2.21538e-07 0 -8.5908e-05
21 1 0.999986 0.856989 0.809742 2.22084e-07 0 0.000148664
22 1 0.249986 0.816017 0.684743 -4.08443e-07 0 0.000133002
23 1 0.499986 0.856989 0.809742 -1.60195e-07 0 0.000148749
24 1 0.749986 0.816017 0.684743 3.68412e-07 0 0.000133167
25 1 0.999986 0.316017 0.684741 3.20188e-07 0 0.000193113
26 1 0.249986 0.356991 0.809741 -5.08385e-07 0 0.000178992
27 1 0.749986 0.356991 0.809741 2.33717e-07 0 0.000178861
28 1 0.499986 0.316017 0.684741 -1.8673e-07 0 0.000193502
29 1 0.249986 0.566158 0.934748 -4.14715e-07 0 4.71168e-05
30 1 0.749986 0.566158 0.934748 2.63738e-07 0 4.69236e-05
31 1 0.999986 0.0661588 0.934746 2.54248e-07 0 0.000110811
32 1 0.499986 0.0661588 0.934746 -1.54457e-09 0 0.000110902
ITEM: TIMESTEP
4
ITEM: NUMBER OF ATOMS
32
ITEM: BOX BOUNDS xy xz yz pp pp pp
3.0272657245757604e-03 6.3938049081754240e+00 0.0000000000000000e+00
-3.1320509042145829e-03 1.1047126452608428e+01 0.0000000000000000e+00
2.7435269680358088e-02 2.0697951192719628e+01 5.5235632263042138e+00
ITEM: ATOMS id type xs ys zs fx fy fz
1 1 0.999986 0.606568 0.0597509 2.59535e-07 0 4.27944e-06
2 1 0.499986 0.606568 0.0597509 2.90333e-07 0 4.63778e-06
3 1 0.249986 0.106568 0.0597508 -6.8685e-08 0 4.14028e-06
4 1 0.749986 0.106568 0.0597508 -8.90793e-07 0 3.9511e-06
5 1 0.999986 0.356722 0.309751 -7.05214e-07 0 -7.96842e-06
6 1 0.249986 0.315743 0.184751 6.51254e-07 0 -2.54938e-06
7 1 0.749986 0.315743 0.184751 -1.06818e-06 0 -1.87319e-06
8 1 0.499986 0.356722 0.309751 2.35624e-07 0 -9.6986e-06
9 1 0.999986 0.815744 0.184751 3.06715e-07 0 -5.65703e-06
10 1 0.249986 0.856721 0.309751 2.24106e-08 0 -2.73834e-06
11 1 0.499986 0.815744 0.184751 7.44224e-07 0 -5.21971e-06
12 1 0.749986 0.856721 0.309751 2.45276e-08 0 -4.44244e-06
13 1 0.999986 0.106846 0.55975 -4.904e-08 0 1.6444e-06
14 1 0.499986 0.106846 0.55975 1.51886e-07 0 2.04029e-06
15 1 0.249986 0.606847 0.559751 -1.03875e-06 0 -6.19458e-06
16 1 0.749986 0.606847 0.559751 7.00645e-07 0 -8.54582e-06
17 1 0.249986 0.0658884 0.434751 -5.72939e-07 0 9.71859e-06
18 1 0.749986 0.0658884 0.43475 1.16187e-06 0 1.06832e-05
19 1 0.999986 0.56589 0.434751 -7.81583e-07 0 -5.16409e-07
20 1 0.499986 0.56589 0.434751 3.58559e-07 0 -2.13493e-06
21 1 0.999986 0.856981 0.80975 7.60817e-07 0 4.91937e-06
22 1 0.249986 0.816009 0.68475 3.95988e-07 0 2.074e-06
23 1 0.499986 0.856981 0.80975 -6.3791e-07 0 4.24315e-06
24 1 0.749986 0.816009 0.684751 -5.9922e-07 0 -2.75042e-07
25 1 0.999986 0.316008 0.68475 2.65326e-06 0 5.84455e-06
26 1 0.249986 0.356981 0.809751 8.34924e-07 0 -1.26024e-06
27 1 0.749986 0.356981 0.809751 -8.42266e-07 0 1.66736e-07
28 1 0.499986 0.316008 0.68475 -2.21644e-06 0 9.55456e-06
29 1 0.249986 0.566155 0.934751 3.62474e-07 0 -1.06248e-06
30 1 0.749986 0.566155 0.934751 -6.6695e-07 0 -1.20756e-06
31 1 0.999986 0.0661539 0.934751 -6.96055e-07 0 -3.38268e-06
32 1 0.499986 0.0661539 0.934751 9.40104e-07 0 -3.27428e-06
