LAMMPS data file via write_data, version 4 May 2022, timestep = 33

32 atoms
3 atom types

0.0030272657245757604 6.393804908175424 xlo xhi
-0.003132050904214583 5.523563226304214 ylo yhi
0.027435269680358088 20.69795119271963 zlo zhi
0 0 5.523563226304214 xy xz yz
Masses

1 24.305
2 65.40900000000001
3 88.90600000000001

Atoms # atomic

1 1 6.393715437598677 3.6792219245036035 1.2626098347586479 0 0 0
2 1 3.198326616118031 3.679221924656622 1.2626098351150463 0 0 0
3 1 1.6006322049013877 0.9158742235318517 1.2625580976765394 0 0 0
4 1 4.796021026967433 0.9158742233832516 1.262558098170334 0 0 0
5 1 6.39371543769823 3.6792931423804074 6.430347284437545 0 0 0
6 1 1.600632205042361 2.762368753356966 3.846527970910038 0 0 0
7 1 4.796021027194286 2.7623687530419816 3.846527970631583 0 0 0
8 1 3.1983266157149988 3.6792931427174786 6.430347284048684 0 0 0
9 1 6.3937154370791776 -0.0009758047489225909 3.846488674554656 0 0 0
10 1 1.6006322051120934 0.9159361441938255 6.430309899312212 0 0 0
11 1 3.1983266158748913 -0.0009758047703651244 3.846488674398765 0 0 0
12 1 4.796021027214777 0.9159361448876372 6.43030989943801 0 0 0
13 1 6.393715437587449 3.6791877879168116 11.597699213777632 0 0 0
14 1 3.198326615535833 3.679187787966865 11.597699213912462 0 0 0
15 1 1.600632205119085 0.9158492267204669 11.597701566989743 0 0 0
16 1 4.796021027046289 0.9158492268376298 11.59770156708238 0 0 0
17 1 1.6006322053402438 2.7623850389706486 9.01403781188564 0 0 0
18 1 4.796021027282592 2.7623850387651063 9.014037812530093 0 0 0
19 1 6.3937154372815295 -0.0009516532328139472 9.01404115068383 0 0 0
20 1 3.1983266157294628 -0.0009516524872686307 9.014041150808543 0 0 0
21 1 6.393715437163141 3.6791529711709687 16.765225932657646 0 0 0
22 1 1.600632205011359 2.762269265032737 14.181419185616722 0 0 0
23 1 3.198326616015876 3.679152971756494 16.76522593219583 0 0 0
24 1 4.796021027325433 2.7622692646841527 14.181419185473228 0 0 0
25 1 6.3937154371172795 -0.0010834044060625248 14.181392017532094 0 0 0
26 1 1.60063220488924 0.915808455957302 16.76520288722143 0 0 0
27 1 4.796021027812344 0.9158084562893289 16.765202887162612 0 0 0
28 1 3.198326615811484 -0.0010834071519122443 14.181392016960848 0 0 0
29 1 1.6006322049500683 2.7622930271954456 19.3491483534304 0 0 0
30 1 4.796021027477815 2.7622930274074498 19.34914835353784 0 0 0
31 1 6.3937154372635545 -0.0010613258113515286 19.34911014580821 0 0 0
32 1 3.1983266158263404 -0.0010613218897199488 19.34911014670886 0 0 0

Velocities

1 0 0 0
2 0 0 0
3 0 0 0
4 0 0 0
5 0 0 0
6 0 0 0
7 0 0 0
8 0 0 0
9 0 0 0
10 0 0 0
11 0 0 0
12 0 0 0
13 0 0 0
14 0 0 0
15 0 0 0
16 0 0 0
17 0 0 0
18 0 0 0
19 0 0 0
20 0 0 0
21 0 0 0
22 0 0 0
23 0 0 0
24 0 0 0
25 0 0 0
26 0 0 0
27 0 0 0
28 0 0 0
29 0 0 0
30 0 0 0
31 0 0 0
32 0 0 0
