ITEM: TIMESTEP
0
ITEM: NUMBER OF ATOMS
48
ITEM: BOX BOUNDS xy xz yz pp pp pp
-3.4413009881973267e+00 8.6067802309989929e+00 2.5094206929206848e+00
-9.4973444938659668e-03 9.3236122131347656e+00 -3.4292638897895813e+00
-2.8691649436950684e-02 1.9545819282531738e+01 7.1304261684417725e-02
ITEM: ATOMS id type xs ys zs fx fy fz
2 1 0.487883 0.0738739 0.0528103 0 0 0.556393
3 1 0.392491 0.125314 0.657023 0 0 0.00155067
4 1 0.521808 0.948847 0.927808 0 0 -0.7649
5 1 0.231344 0.157156 0.802805 0 0 0.00588799
12 1 0.520576 0.0837297 0.282028 0 0 -0.000814438
13 1 0.230038 0.292053 0.157025 0 0 -0.00588799
14 1 0.359517 0.115534 0.427803 0 0 -0.000547409
16 1 0.487883 0.407207 0.0528103 0 0 0.556396
17 1 0.392491 0.458648 0.657023 0 0 0.00155067
18 1 0.521808 0.28218 0.927808 0 0 -0.764906
19 1 0.231344 0.49049 0.802805 0 0 0.0058918
22 1 0.101866 0.333676 0.532027 0 0 0.000543594
26 1 0.0688914 0.323895 0.302807 0 0 -0.00154877
28 1 0.520576 0.417063 0.282028 0 0 -0.000812531
29 1 0.230038 0.625387 0.157025 0 0 -0.0058918
30 1 0.359517 0.448867 0.427803 0 0 -0.000547409
32 1 0.487883 0.740541 0.0528104 0 0 0.556391
33 1 0.392491 0.791981 0.657023 0 0 0.00154877
34 1 0.521808 0.615514 0.927808 0 0 -0.7649
35 1 0.231344 0.823823 0.802805 0 0 0.0058918
38 1 0.101865 0.667009 0.532027 0 0 0.000541687
42 1 0.0688913 0.657228 0.302807 0 0 -0.00155067
44 1 0.520576 0.750396 0.282028 0 0 -0.000814438
45 1 0.230038 0.95872 0.157026 0 0 -0.00589561
46 1 0.359517 0.782201 0.427803 0 0 -0.000541687
47 1 0.101865 0.000342385 0.532027 0 0 0.000541687
48 1 0.0688915 0.990562 0.302807 0 0 -0.00154495
1 1 0.939574 0.16703 0.0320218 0 0 0.764904
6 1 0.973499 0.0420026 0.90702 0 0 -0.556391
7 1 0.683031 0.250315 0.78202 0 0 -0.00949669
8 1 0.8112 0.208712 0.407029 0 0 0.000934601
9 1 0.940806 0.0321465 0.677802 0 0 0.000814438
10 1 0.650182 0.240498 0.552801 0 0 -0.000928879
11 1 0.778351 0.198895 0.17781 0 0 0.00949669
15 1 0.939574 0.500363 0.0320219 0 0 0.764891
20 1 0.973499 0.375336 0.90702 0 0 -0.556385
21 1 0.683031 0.583648 0.78202 0 0 -0.0094986
23 1 0.8112 0.542046 0.407029 0 0 0.000930786
24 1 0.940807 0.36548 0.677802 0 0 0.000818253
25 1 0.650182 0.573831 0.552801 0 0 -0.000932693
27 1 0.778351 0.532228 0.17781 0 0 0.0094986
31 1 0.939574 0.833696 0.0320219 0 0 0.764887
36 1 0.973499 0.708669 0.90702 0 0 -0.556385
37 1 0.683031 0.916981 0.78202 0 0 -0.0094986
39 1 0.8112 0.875379 0.407029 0 0 0.000930786
40 1 0.940806 0.698813 0.677802 0 0 0.000810623
41 1 0.650182 0.907164 0.552801 0 0 -0.000926971
43 1 0.778351 0.865562 0.17781 0 0 0.00950241
ITEM: TIMESTEP
1
ITEM: NUMBER OF ATOMS
48
ITEM: BOX BOUNDS xy xz yz pp pp pp
-3.4413009881973267e+00 8.6067802309989929e+00 2.5094206929206848e+00
-9.4973444938659668e-03 9.3236122131347656e+00 -3.4292638897895813e+00
-2.8691649436950684e-02 1.9545819282531738e+01 7.1304261684417725e-02
ITEM: ATOMS id type xs ys zs fx fy fz
2 1 0.489981 0.0738453 0.0565264 0 0 0.0943642
3 1 0.392497 0.125314 0.657033 0 0 -0.00365639
4 1 0.518924 0.948886 0.9227 0 0 -0.139046
5 1 0.231366 0.157156 0.802844 0 0 -0.107548
12 1 0.520573 0.0837297 0.282023 0 0 0.00333405
13 1 0.230016 0.292054 0.156986 0 0 0.107542
14 1 0.359515 0.115534 0.4278 0 0 -0.00206757
16 1 0.489981 0.407179 0.0565264 0 0 0.0943623
17 1 0.392497 0.458648 0.657033 0 0 -0.00365639
18 1 0.518924 0.28222 0.9227 0 0 -0.139044
19 1 0.231366 0.49049 0.802844 0 0 -0.107544
22 1 0.101868 0.333676 0.532031 0 0 0.00206566
26 1 0.0688855 0.323895 0.302797 0 0 0.0036602
28 1 0.520573 0.417063 0.282023 0 0 0.00333023
29 1 0.230016 0.625387 0.156986 0 0 0.107544
30 1 0.359515 0.448867 0.4278 0 0 -0.00206757
32 1 0.489981 0.740512 0.0565264 0 0 0.0943642
33 1 0.392497 0.791981 0.657033 0 0 -0.00365639
34 1 0.518924 0.615553 0.9227 0 0 -0.139048
35 1 0.231366 0.823823 0.802844 0 0 -0.10754
38 1 0.101868 0.667009 0.532031 0 0 0.00206947
42 1 0.0688854 0.657229 0.302797 0 0 0.00365257
44 1 0.520573 0.750396 0.282023 0 0 0.00333023
45 1 0.230016 0.95872 0.156986 0 0 0.107546
46 1 0.359515 0.782201 0.4278 0 0 -0.00206757
47 1 0.101867 0.000342358 0.532031 0 0 0.00206375
48 1 0.0688856 0.990562 0.302797 0 0 0.00365639
1 1 0.942458 0.16699 0.0371305 0 0 0.139048
6 1 0.971401 0.0420312 0.903304 0 0 -0.094368
7 1 0.682995 0.250315 0.781957 0 0 -0.116966
8 1 0.811204 0.208712 0.407035 0 0 -0.00181389
9 1 0.94081 0.0321464 0.677807 0 0 -0.00333214
10 1 0.650179 0.240498 0.552795 0 0 0.00182152
11 1 0.778387 0.198894 0.177873 0 0 0.116968
15 1 0.942458 0.500324 0.0371305 0 0 0.139044
20 1 0.971401 0.375365 0.903304 0 0 -0.0943642
21 1 0.682995 0.583649 0.781957 0 0 -0.116972
23 1 0.811204 0.542045 0.407036 0 0 -0.00182152
24 1 0.94081 0.36548 0.677807 0 0 -0.00333214
25 1 0.650178 0.573831 0.552795 0 0 0.00182533
27 1 0.778387 0.532228 0.177873 0 0 0.116974
31 1 0.942458 0.833657 0.0371305 0 0 0.13905
36 1 0.971401 0.708698 0.903304 0 0 -0.094368
37 1 0.682995 0.916982 0.781957 0 0 -0.116972
39 1 0.811204 0.875379 0.407036 0 0 -0.00182152
40 1 0.940809 0.698813 0.677807 0 0 -0.00332642
41 1 0.650178 0.907164 0.552795 0 0 0.00181961
43 1 0.778387 0.865561 0.177874 0 0 0.116964
ITEM: TIMESTEP
2
ITEM: NUMBER OF ATOMS
48
ITEM: BOX BOUNDS xy xz yz pp pp pp
-3.4413009881973267e+00 8.6067802309989929e+00 2.5094206929206848e+00
-9.4973444938659668e-03 9.3236122131347656e+00 -3.4292638897895813e+00
-2.8691649436950684e-02 1.9545819282531738e+01 7.1304261684417725e-02
ITEM: ATOMS id type xs ys zs fx fy fz
2 1 0.491121 0.0738298 0.0585468 0 0 -0.0461845
3 1 0.392453 0.125315 0.656955 0 0 -0.0565872
4 1 0.517244 0.948909 0.919722 0 0 0.0858936
5 1 0.230067 0.157174 0.800541 0 0 -0.0578709
12 1 0.520613 0.0837292 0.282094 0 0 0.0537415
13 1 0.231316 0.292036 0.159289 0 0 0.0578766
14 1 0.35949 0.115534 0.427755 0 0 0.00434113
16 1 0.491121 0.407163 0.0585469 0 0 -0.0461864
17 1 0.392453 0.458648 0.656955 0 0 -0.0565853
18 1 0.517244 0.282243 0.919722 0 0 0.0858994
19 1 0.230067 0.490507 0.800541 0 0 -0.0578747
22 1 0.101893 0.333675 0.532075 0 0 -0.00433731
26 1 0.0689298 0.323895 0.302875 0 0 0.0565872
28 1 0.520613 0.417063 0.282094 0 0 0.0537491
29 1 0.231316 0.625369 0.159289 0 0 0.0578728
30 1 0.35949 0.448868 0.427755 0 0 0.00434303
32 1 0.491121 0.740496 0.0585469 0 0 -0.0461903
33 1 0.392452 0.791982 0.656955 0 0 -0.0565834
34 1 0.517244 0.615576 0.919722 0 0 0.0859013
35 1 0.230067 0.823841 0.800541 0 0 -0.0578804
38 1 0.101893 0.667009 0.532075 0 0 -0.00434113
42 1 0.0689296 0.657228 0.302875 0 0 0.0565929
44 1 0.520613 0.750396 0.282094 0 0 0.0537472
45 1 0.231316 0.958702 0.159289 0 0 0.0578728
46 1 0.35949 0.782201 0.427755 0 0 0.00433922
47 1 0.101892 0.000342017 0.532075 0 0 -0.00434113
48 1 0.0689298 0.990561 0.302875 0 0 0.0565891
1 1 0.944138 0.166967 0.0401077 0 0 -0.0858936
6 1 0.970261 0.0420467 0.901283 0 0 0.0461903
7 1 0.681582 0.250335 0.779452 0 0 -0.0559826
8 1 0.811182 0.208712 0.406997 0 0 0.00243378
9 1 0.940769 0.032147 0.677736 0 0 -0.0537491
10 1 0.650201 0.240497 0.552834 0 0 -0.00243759
11 1 0.779801 0.198875 0.180378 0 0 0.055975
15 1 0.944138 0.500301 0.0401076 0 0 -0.0858974
20 1 0.970261 0.37538 0.901283 0 0 0.0461845
21 1 0.681582 0.583668 0.779452 0 0 -0.0559769
23 1 0.811182 0.542046 0.406997 0 0 0.00242996
24 1 0.940769 0.36548 0.677736 0 0 -0.0537434
25 1 0.650201 0.57383 0.552834 0 0 -0.00244331
27 1 0.779801 0.532208 0.180378 0 0 0.0559654
31 1 0.944138 0.833634 0.0401078 0 0 -0.0858994
36 1 0.970261 0.708713 0.901283 0 0 0.0461903
37 1 0.681582 0.917001 0.779452 0 0 -0.055975
39 1 0.811182 0.875379 0.406997 0 0 0.00243378
40 1 0.940769 0.698814 0.677736 0 0 -0.0537415
41 1 0.6502 0.907164 0.552834 0 0 -0.00242805
43 1 0.779801 0.865542 0.180378 0 0 0.0559807
ITEM: TIMESTEP
3
ITEM: NUMBER OF ATOMS
48
ITEM: BOX BOUNDS xy xz yz pp pp pp
-3.4413009881973267e+00 8.6067802309989929e+00 2.5094206929206848e+00
-9.4973444938659668e-03 9.3236122131347656e+00 -3.4292638897895813e+00
-2.8691649436950684e-02 1.9545819282531738e+01 7.1304261684417725e-02
ITEM: ATOMS id type xs ys zs fx fy fz
2 1 0.491104 0.07383 0.0585161 0 0 0.0179062
3 1 0.391832 0.125323 0.655856 0 0 -0.0564747
4 1 0.517459 0.948906 0.920104 0 0 -0.00378036
5 1 0.22891 0.15719 0.798493 0 0 0.0330315
12 1 0.521202 0.0837211 0.283137 0 0 0.0541763
13 1 0.232472 0.29202 0.161337 0 0 -0.0330276
14 1 0.359526 0.115534 0.427819 0 0 0.0254898
16 1 0.491104 0.407163 0.0585161 0 0 0.0179081
17 1 0.391832 0.458657 0.655856 0 0 -0.0564747
18 1 0.517459 0.28224 0.920104 0 0 -0.00378609
19 1 0.22891 0.490523 0.798493 0 0 0.0330353
22 1 0.101857 0.333676 0.532011 0 0 -0.0254879
26 1 0.0695504 0.323886 0.303975 0 0 0.0564651
28 1 0.521202 0.417055 0.283137 0 0 0.0541744
29 1 0.232472 0.625353 0.161337 0 0 -0.0330276
30 1 0.359525 0.448867 0.427819 0 0 0.0254879
32 1 0.491104 0.740497 0.0585161 0 0 0.0179081
33 1 0.391832 0.79199 0.655856 0 0 -0.0564785
34 1 0.517459 0.615573 0.920104 0 0 -0.0037899
35 1 0.22891 0.823856 0.798493 0 0 0.0330334
38 1 0.101857 0.667009 0.532012 0 0 -0.025486
42 1 0.0695502 0.657219 0.303975 0 0 0.0564709
44 1 0.521202 0.750388 0.283137 0 0 0.0541744
45 1 0.232472 0.958687 0.161337 0 0 -0.0330353
46 1 0.359526 0.782201 0.427819 0 0 0.0254879
47 1 0.101856 0.000342506 0.532011 0 0 -0.0254898
48 1 0.0695504 0.990553 0.303975 0 0 0.0564728
1 1 0.943923 0.16697 0.0397261 0 0 0.00377655
6 1 0.970278 0.0420465 0.901314 0 0 -0.0179043
7 1 0.680398 0.250351 0.777356 0 0 0.033083
8 1 0.811199 0.208712 0.407026 0 0 0.0222588
9 1 0.940181 0.032155 0.676693 0 0 -0.0541687
10 1 0.650184 0.240498 0.552804 0 0 -0.0222511
11 1 0.780984 0.198859 0.182474 0 0 -0.0330753
15 1 0.943923 0.500304 0.0397259 0 0 0.00378418
20 1 0.970278 0.37538 0.901314 0 0 -0.0179062
21 1 0.680398 0.583684 0.777356 0 0 0.0330887
23 1 0.811199 0.542046 0.407026 0 0 0.0222607
24 1 0.940181 0.365488 0.676693 0 0 -0.0541706
25 1 0.650184 0.573831 0.552804 0 0 -0.0222588
27 1 0.780984 0.532192 0.182474 0 0 -0.0330791
31 1 0.943923 0.833637 0.039726 0 0 0.00377846
36 1 0.970278 0.708713 0.901314 0 0 -0.0179062
37 1 0.680398 0.917017 0.777356 0 0 0.0330811
39 1 0.811199 0.875379 0.407026 0 0 0.0222607
40 1 0.94018 0.698822 0.676693 0 0 -0.0541859
41 1 0.650183 0.907164 0.552804 0 0 -0.0222683
43 1 0.780984 0.865526 0.182474 0 0 -0.0330811
ITEM: TIMESTEP
4
ITEM: NUMBER OF ATOMS
48
ITEM: BOX BOUNDS xy xz yz pp pp pp
-3.4413009881973267e+00 8.6067802309989929e+00 2.5094206929206848e+00
-9.4973444938659668e-03 9.3236122131347656e+00 -3.4292638897895813e+00
-2.8691649436950684e-02 1.9545819282531738e+01 7.1304261684417725e-02
ITEM: ATOMS id type xs ys zs fx fy fz
2 1 0.491324 0.073827 0.0589061 0 0 0.00622559
3 1 0.390829 0.125337 0.654079 0 0 0.0100842
4 1 0.51751 0.948906 0.920193 0 0 -0.00637436
5 1 0.228803 0.157191 0.798303 0 0 -0.001791
12 1 0.522161 0.0837081 0.284836 0 0 -0.00944138
13 1 0.232579 0.292019 0.161527 0 0 0.00178528
14 1 0.359867 0.115529 0.428423 0 0 0.0268307
16 1 0.491324 0.40716 0.0589061 0 0 0.0062294
17 1 0.390829 0.45867 0.654079 0 0 0.0100994
18 1 0.517509 0.282239 0.920193 0 0 -0.00638771
19 1 0.228803 0.490525 0.798303 0 0 -0.00179291
22 1 0.101516 0.33368 0.531407 0 0 -0.0268288
26 1 0.070553 0.323873 0.305751 0 0 -0.0100861
28 1 0.522161 0.417041 0.284836 0 0 -0.00943947
29 1 0.232579 0.625352 0.161527 0 0 0.001791
30 1 0.359866 0.448863 0.428423 0 0 0.0268288
32 1 0.491324 0.740494 0.0589061 0 0 0.00622559
33 1 0.390829 0.792004 0.654079 0 0 0.0100918
34 1 0.517509 0.615572 0.920193 0 0 -0.00637627
35 1 0.228803 0.823858 0.798303 0 0 -0.00178909
38 1 0.101516 0.667014 0.531407 0 0 -0.0268402
42 1 0.0705528 0.657206 0.305751 0 0 -0.010088
44 1 0.522161 0.750375 0.284836 0 0 -0.00943947
45 1 0.232579 0.958685 0.161527 0 0 0.00179291
46 1 0.359867 0.782196 0.428423 0 0 0.0268307
47 1 0.101515 0.000347158 0.531407 0 0 -0.0268269
48 1 0.0705531 0.990539 0.305751 0 0 -0.0100956
1 1 0.943872 0.166971 0.0396371 0 0 0.00638008
6 1 0.970058 0.0420495 0.900924 0 0 -0.00623131
7 1 0.680279 0.250352 0.777145 0 0 -0.00207138
8 1 0.81149 0.208708 0.407542 0 0 0.0243664
9 1 0.939222 0.0321681 0.674994 0 0 0.00943375
10 1 0.649893 0.240502 0.552288 0 0 -0.0243683
11 1 0.781103 0.198857 0.182685 0 0 0.0020752
15 1 0.943873 0.500304 0.039637 0 0 0.00638199
20 1 0.970058 0.375383 0.900924 0 0 -0.00622368
21 1 0.680279 0.583686 0.777145 0 0 -0.00208092
23 1 0.81149 0.542042 0.407542 0 0 0.0243835
24 1 0.939222 0.365501 0.674995 0 0 0.00943565
25 1 0.649892 0.573835 0.552288 0 0 -0.0243721
27 1 0.781103 0.532191 0.182685 0 0 0.0020771
31 1 0.943873 0.833638 0.039637 0 0 0.0063839
36 1 0.970058 0.708716 0.900924 0 0 -0.0062294
37 1 0.680279 0.917019 0.777145 0 0 -0.00206566
39 1 0.81149 0.875375 0.407542 0 0 0.0243721
40 1 0.939221 0.698835 0.674994 0 0 0.00943947
41 1 0.649892 0.907168 0.552288 0 0 -0.0243759
43 1 0.781103 0.865524 0.182685 0 0 0.00207138
ITEM: TIMESTEP
5
ITEM: NUMBER OF ATOMS
48
ITEM: BOX BOUNDS xy xz yz pp pp pp
-3.4413009881973267e+00 8.6067802309989929e+00 2.5094206929206848e+00
-9.4973444938659668e-03 9.3236122131347656e+00 -3.4292638897895813e+00
-2.8691649436950684e-02 1.9545819282531738e+01 7.1304261684417725e-02
ITEM: ATOMS id type xs ys zs fx fy fz
2 1 0.491386 0.0738261 0.0590159 0 0 -0.000347137
3 1 0.390819 0.125337 0.654061 0 0 0.00133324
4 1 0.517469 0.948906 0.92012 0 0 0.0007267
5 1 0.228782 0.157191 0.798265 0 0 -0.00269127
12 1 0.522172 0.0837079 0.284856 0 0 -0.000997543
13 1 0.2326 0.292018 0.161565 0 0 0.00269699
14 1 0.360084 0.115526 0.428808 0 0 0.00133514
16 1 0.491386 0.407159 0.0590159 0 0 -0.000347137
17 1 0.390819 0.458671 0.654061 0 0 0.00132561
18 1 0.517468 0.28224 0.92012 0 0 0.0007267
19 1 0.228782 0.490525 0.798265 0 0 -0.00268936
22 1 0.101298 0.333683 0.531022 0 0 -0.00133705
26 1 0.0705634 0.323872 0.305769 0 0 -0.00132751
28 1 0.522172 0.417041 0.284856 0 0 -0.000997543
29 1 0.2326 0.625352 0.161565 0 0 0.00269127
30 1 0.360084 0.44886 0.428808 0 0 0.00133705
32 1 0.491386 0.740493 0.0590159 0 0 -0.00034523
33 1 0.390819 0.792004 0.654061 0 0 0.00133324
34 1 0.517468 0.615573 0.92012 0 0 0.000720978
35 1 0.228782 0.823858 0.798265 0 0 -0.00269318
38 1 0.101298 0.667017 0.531022 0 0 -0.00133896
42 1 0.0705633 0.657206 0.305769 0 0 -0.00132751
44 1 0.522172 0.750375 0.284856 0 0 -0.000995636
45 1 0.2326 0.958685 0.161565 0 0 0.00269127
46 1 0.360084 0.782193 0.428808 0 0 0.00133514
47 1 0.101298 0.000350123 0.531022 0 0 -0.00133324
48 1 0.0705635 0.990539 0.305769 0 0 -0.00132751
1 1 0.943913 0.16697 0.0397097 0 0 -0.000724792
6 1 0.969996 0.0420504 0.900814 0 0 0.000349045
7 1 0.680255 0.250353 0.777102 0 0 -0.00295258
8 1 0.811686 0.208706 0.407889 0 0 0.000249863
9 1 0.93921 0.0321683 0.674974 0 0 0.000997543
10 1 0.649697 0.240504 0.551941 0 0 -0.000259399
11 1 0.781127 0.198857 0.182728 0 0 0.00294113
15 1 0.943914 0.500304 0.0397097 0 0 -0.000724792
20 1 0.969996 0.375384 0.900814 0 0 0.000349045
21 1 0.680255 0.583686 0.777102 0 0 -0.00295067
23 1 0.811686 0.542039 0.407889 0 0 0.000246048
24 1 0.93921 0.365502 0.674974 0 0 0.000995636
25 1 0.649696 0.573837 0.551941 0 0 -0.000244141
27 1 0.781127 0.53219 0.182728 0 0 0.00294876
31 1 0.943914 0.833637 0.0397097 0 0 -0.000724792
36 1 0.969996 0.708717 0.900814 0 0 0.000347137
37 1 0.680255 0.917019 0.777102 0 0 -0.00294876
39 1 0.811686 0.875372 0.407889 0 0 0.000249863
40 1 0.93921 0.698835 0.674974 0 0 0.000995636
41 1 0.649696 0.907171 0.551941 0 0 -0.000242233
43 1 0.781127 0.865524 0.182728 0 0 0.00294495
ITEM: TIMESTEP
6
ITEM: NUMBER OF ATOMS
48
ITEM: BOX BOUNDS xy xz yz pp pp pp
-3.4413009881973267e+00 8.6067802309989929e+00 2.5094206929206848e+00
-9.4973444938659668e-03 9.3236122131347656e+00 -3.4292638897895813e+00
-2.8691649436950684e-02 1.9545819282531738e+01 7.1304261684417725e-02
ITEM: ATOMS id type xs ys zs fx fy fz
2 1 0.491383 0.0738262 0.0590114 0 0 0.00101089
3 1 0.390829 0.125337 0.654078 0 0 -0.000627518
4 1 0.517474 0.948906 0.92013 0 0 -0.000991821
5 1 0.228762 0.157192 0.79823 0 0 -0.000394821
12 1 0.522165 0.083708 0.284843 0 0 0.000617981
13 1 0.23262 0.292018 0.1616 0 0 0.000391006
14 1 0.360094 0.115526 0.428826 0 0 -2.47955e-05
16 1 0.491383 0.407159 0.0590114 0 0 0.00100708
17 1 0.390829 0.45867 0.654078 0 0 -0.000629425
18 1 0.517474 0.282239 0.92013 0 0 -0.000986099
19 1 0.228762 0.490525 0.79823 0 0 -0.000404358
22 1 0.101289 0.333683 0.531005 0 0 2.28882e-05
26 1 0.0705537 0.323872 0.305752 0 0 0.00062561
28 1 0.522165 0.417041 0.284843 0 0 0.000614166
29 1 0.23262 0.625351 0.1616 0 0 0.000394821
30 1 0.360094 0.44886 0.428826 0 0 -2.47955e-05
32 1 0.491383 0.740493 0.0590114 0 0 0.00100517
33 1 0.390828 0.792004 0.654078 0 0 -0.000621796
34 1 0.517474 0.615573 0.92013 0 0 -0.000976562
35 1 0.228762 0.823858 0.79823 0 0 -0.000398636
38 1 0.101288 0.667017 0.531005 0 0 2.28882e-05
42 1 0.0705535 0.657206 0.305752 0 0 0.00062561
44 1 0.522165 0.750375 0.284843 0 0 0.000608444
45 1 0.23262 0.958685 0.1616 0 0 0.000396729
46 1 0.360094 0.782193 0.428826 0 0 -1.90735e-05
47 1 0.101288 0.000350257 0.531005 0 0 2.67029e-05
48 1 0.0705538 0.990539 0.305752 0 0 0.00062561
1 1 0.943908 0.16697 0.0397002 0 0 0.000988007
6 1 0.969999 0.0420503 0.900819 0 0 -0.00100517
7 1 0.680233 0.250353 0.777063 0 0 -0.000555038
8 1 0.811688 0.208706 0.407893 0 0 -0.000482559
9 1 0.939218 0.0321682 0.674987 0 0 -0.000612259
10 1 0.649695 0.240504 0.551938 0 0 0.000482559
11 1 0.781149 0.198857 0.182767 0 0 0.000555038
15 1 0.943908 0.500304 0.0397002 0 0 0.000991821
20 1 0.969999 0.375384 0.900819 0 0 -0.00101089
21 1 0.680233 0.583686 0.777064 0 0 -0.000558853
23 1 0.811688 0.542039 0.407893 0 0 -0.000480652
24 1 0.939218 0.365501 0.674987 0 0 -0.000617981
25 1 0.649695 0.573837 0.551938 0 0 0.000482559
27 1 0.781149 0.53219 0.182767 0 0 0.000558853
31 1 0.943908 0.833637 0.0397002 0 0 0.000991821
36 1 0.969999 0.708717 0.900819 0 0 -0.00101089
37 1 0.680233 0.91702 0.777064 0 0 -0.000556946
39 1 0.811688 0.875372 0.407893 0 0 -0.000482559
40 1 0.939217 0.698835 0.674987 0 0 -0.000610352
41 1 0.649694 0.907171 0.551938 0 0 0.000480652
43 1 0.781149 0.865523 0.182767 0 0 0.000556946
ITEM: TIMESTEP
7
ITEM: NUMBER OF ATOMS
48
ITEM: BOX BOUNDS xy xz yz pp pp pp
-3.4413009881973267e+00 8.6067802309989929e+00 2.5094206929206848e+00
-9.4973444938659668e-03 9.3236122131347656e+00 -3.4292638897895813e+00
-2.8691649436950684e-02 1.9545819282531738e+01 7.1304261684417725e-02
ITEM: ATOMS id type xs ys zs fx fy fz
2 1 0.491397 0.073826 0.0590353 0 0 -0.000188828
3 1 0.390823 0.125337 0.654068 0 0 -0.000686646
4 1 0.517462 0.948906 0.920108 0 0 0.000564575
5 1 0.22875 0.157192 0.79821 0 0 -0.000162125
12 1 0.522171 0.0837079 0.284855 0 0 0.000486374
13 1 0.232632 0.292018 0.161621 0 0 0.00015831
14 1 0.360097 0.115526 0.42883 0 0 0.000133514
16 1 0.491397 0.407159 0.0590352 0 0 -0.000185013
17 1 0.390823 0.45867 0.654068 0 0 -0.000680923
18 1 0.517461 0.28224 0.920108 0 0 0.000556946
19 1 0.22875 0.490525 0.798209 0 0 -0.000156403
22 1 0.101286 0.333684 0.531 0 0 -0.000127792
26 1 0.0705595 0.323872 0.305762 0 0 0.000686646
28 1 0.522171 0.417041 0.284855 0 0 0.000486374
29 1 0.232632 0.625351 0.161621 0 0 0.000150681
30 1 0.360096 0.44886 0.42883 0 0 0.000125885
32 1 0.491397 0.740493 0.0590351 0 0 -0.000175476
33 1 0.390823 0.792004 0.654068 0 0 -0.000694275
34 1 0.517461 0.615573 0.920108 0 0 0.000541687
35 1 0.22875 0.823859 0.798209 0 0 -0.000152588
38 1 0.101286 0.667017 0.531 0 0 -0.000123978
42 1 0.0705593 0.657206 0.305762 0 0 0.00069046
44 1 0.522171 0.750375 0.284854 0 0 0.000497818
45 1 0.232632 0.958685 0.161621 0 0 0.00015831
46 1 0.360097 0.782193 0.42883 0 0 0.000120163
47 1 0.101285 0.000350293 0.531 0 0 -0.0001297
48 1 0.0705596 0.990539 0.305762 0 0 0.000688553
1 1 0.94392 0.16697 0.0397221 0 0 -0.00056076
6 1 0.969985 0.0420505 0.900795 0 0 0.000181198
7 1 0.680219 0.250353 0.777038 0 0 -0.000135422
8 1 0.811681 0.208706 0.407882 0 0 0.000328064
9 1 0.939211 0.0321682 0.674976 0 0 -0.000490189
10 1 0.649701 0.240504 0.551949 0 0 -0.000326157
11 1 0.781163 0.198856 0.182792 0 0 0.000137329
15 1 0.943921 0.500304 0.0397221 0 0 -0.000562668
20 1 0.969985 0.375384 0.900795 0 0 0.000185013
21 1 0.680219 0.583687 0.777038 0 0 -0.000127792
23 1 0.811682 0.542039 0.407882 0 0 0.000324249
24 1 0.939211 0.365502 0.674976 0 0 -0.000484467
25 1 0.649701 0.573837 0.551949 0 0 -0.000328064
27 1 0.781163 0.53219 0.182792 0 0 0.000139236
31 1 0.943921 0.833637 0.0397222 0 0 -0.000570297
36 1 0.969985 0.708717 0.900795 0 0 0.000196457
37 1 0.680219 0.91702 0.777038 0 0 -0.000137329
39 1 0.811681 0.875372 0.407882 0 0 0.000331879
40 1 0.939211 0.698835 0.674976 0 0 -0.000494003
41 1 0.649701 0.907171 0.551949 0 0 -0.000326157
43 1 0.781164 0.865523 0.182792 0 0 0.000137329
ITEM: TIMESTEP
8
ITEM: NUMBER OF ATOMS
48
ITEM: BOX BOUNDS xy xz yz pp pp pp
-3.4413009881973267e+00 8.6067802309989929e+00 2.5094206929206848e+00
-9.4973444938659668e-03 9.3236122131347656e+00 -3.4292638897895813e+00
-2.8691649436950684e-02 1.9545819282531738e+01 7.1304261684417725e-02
ITEM: ATOMS id type xs ys zs fx fy fz
2 1 0.4914 0.073826 0.0590402 0 0 0.000150681
3 1 0.390808 0.125337 0.654042 0 0 3.43323e-05
4 1 0.517466 0.948906 0.920116 0 0 -0.000261307
5 1 0.228742 0.157192 0.798195 0 0 0.0001297
12 1 0.522183 0.0837078 0.284875 0 0 2.47955e-05
13 1 0.23264 0.292018 0.161635 0 0 -0.00012207
14 1 0.3601 0.115526 0.428837 0 0 0.000284195
16 1 0.4914 0.407159 0.0590402 0 0 0.000144958
17 1 0.390808 0.458671 0.654042 0 0 3.43323e-05
18 1 0.517466 0.28224 0.920116 0 0 -0.000255585
19 1 0.228742 0.490525 0.798195 0 0 0.000133514
22 1 0.101282 0.333684 0.530994 0 0 -0.00028801
26 1 0.0705742 0.323872 0.305788 0 0 -3.8147e-05
28 1 0.522183 0.417041 0.284875 0 0 2.67029e-05
29 1 0.23264 0.625351 0.161635 0 0 -0.000114441
30 1 0.3601 0.448859 0.428836 0 0 0.00028801
32 1 0.4914 0.740493 0.0590404 0 0 0.000133514
33 1 0.390808 0.792004 0.654042 0 0 4.3869e-05
34 1 0.517465 0.615573 0.920115 0 0 -0.000230789
35 1 0.228742 0.823859 0.798195 0 0 0.000116348
38 1 0.101282 0.667017 0.530994 0 0 -0.000289917
42 1 0.0705741 0.657206 0.305789 0 0 -4.57764e-05
44 1 0.522183 0.750374 0.284875 0 0 1.90735e-05
45 1 0.23264 0.958684 0.161635 0 0 -0.000123978
46 1 0.3601 0.782193 0.428836 0 0 0.00028801
47 1 0.101282 0.000350341 0.530994 0 0 -0.000282288
48 1 0.0705743 0.990539 0.305789 0 0 -4.00543e-05
1 1 0.943916 0.16697 0.0397145 0 0 0.000255585
6 1 0.969982 0.0420505 0.90079 0 0 -0.000152588
7 1 0.68021 0.250353 0.777022 0 0 0.00012207
8 1 0.811684 0.208706 0.407887 0 0 0.000448227
9 1 0.9392 0.0321684 0.674955 0 0 -2.67029e-05
10 1 0.649698 0.240504 0.551943 0 0 -0.00044632
11 1 0.781172 0.198856 0.182808 0 0 -0.000114441
15 1 0.943916 0.500304 0.0397145 0 0 0.000255585
20 1 0.969982 0.375384 0.90079 0 0 -0.000146866
21 1 0.68021 0.583687 0.777022 0 0 0.000106812
23 1 0.811684 0.542039 0.407887 0 0 0.000453949
24 1 0.9392 0.365502 0.674955 0 0 -2.67029e-05
25 1 0.649698 0.573837 0.551943 0 0 -0.000450134
27 1 0.781173 0.53219 0.182809 0 0 -0.000127792
31 1 0.943916 0.833637 0.0397143 0 0 0.000270844
36 1 0.969982 0.708717 0.90079 0 0 -0.000165939
37 1 0.68021 0.91702 0.777022 0 0 0.000123978
39 1 0.811684 0.875372 0.407887 0 0 0.000452042
40 1 0.939199 0.698835 0.674955 0 0 -1.90735e-05
41 1 0.649698 0.907171 0.551943 0 0 -0.000452042
43 1 0.781173 0.865523 0.182808 0 0 -0.000120163
ITEM: TIMESTEP
9
ITEM: NUMBER OF ATOMS
48
ITEM: BOX BOUNDS xy xz yz pp pp pp
-3.4413009881973267e+00 8.6067802309989929e+00 2.5094206929206848e+00
-9.4973444938659668e-03 9.3236122131347656e+00 -3.4292638897895813e+00
-2.8691649436950684e-02 1.9545819282531738e+01 7.1304261684417725e-02
ITEM: ATOMS id type xs ys zs fx fy fz
2 1 0.491401 0.0738259 0.0590432 0 0 -5.72205e-05
3 1 0.390806 0.125337 0.654038 0 0 4.57764e-05
4 1 0.517464 0.948906 0.920113 0 0 -2.28882e-05
5 1 0.228742 0.157192 0.798195 0 0 -1.14441e-05
12 1 0.522185 0.0837077 0.284879 0 0 5.72205e-06
13 1 0.23264 0.292018 0.161636 0 0 1.52588e-05
14 1 0.360103 0.115526 0.428842 0 0 -1.90735e-05
16 1 0.491401 0.407159 0.0590432 0 0 -5.34058e-05
17 1 0.390806 0.458671 0.654038 0 0 4.00543e-05
18 1 0.517464 0.28224 0.920113 0 0 -1.90735e-05
19 1 0.228742 0.490525 0.798195 0 0 -1.14441e-05
22 1 0.101279 0.333684 0.530988 0 0 1.90735e-05
26 1 0.0705763 0.323872 0.305792 0 0 -3.62396e-05
28 1 0.522185 0.417041 0.284879 0 0 1.90735e-06
29 1 0.23264 0.625351 0.161636 0 0 1.71661e-05
30 1 0.360103 0.448859 0.428842 0 0 -1.14441e-05
32 1 0.491401 0.740493 0.0590433 0 0 -5.53131e-05
33 1 0.390806 0.792004 0.654038 0 0 3.8147e-05
34 1 0.517464 0.615573 0.920113 0 0 -2.28882e-05
35 1 0.228742 0.823859 0.798194 0 0 -9.53674e-06
38 1 0.101279 0.667017 0.530988 0 0 1.52588e-05
42 1 0.0705762 0.657205 0.305792 0 0 -4.00543e-05
44 1 0.522185 0.750374 0.284879 0 0 -1.90735e-06
45 1 0.23264 0.958684 0.161636 0 0 9.53674e-06
46 1 0.360103 0.782193 0.428842 0 0 -7.62939e-06
47 1 0.101279 0.000350381 0.530988 0 0 1.33514e-05
48 1 0.0705765 0.990539 0.305792 0 0 -4.19617e-05
1 1 0.943917 0.16697 0.0397169 0 0 2.28882e-05
6 1 0.96998 0.0420506 0.900787 0 0 5.72205e-05
7 1 0.680209 0.250353 0.777021 0 0 3.8147e-06
8 1 0.811688 0.208706 0.407894 0 0 3.62396e-05
9 1 0.939198 0.0321684 0.674952 0 0 -5.72205e-06
10 1 0.649694 0.240504 0.551936 0 0 -3.43323e-05
11 1 0.781173 0.198856 0.182809 0 0 -9.53674e-06
15 1 0.943918 0.500304 0.039717 0 0 2.09808e-05
20 1 0.969981 0.375384 0.900787 0 0 5.53131e-05
21 1 0.680209 0.583687 0.777021 0 0 1.52588e-05
23 1 0.811689 0.542039 0.407894 0 0 3.8147e-05
24 1 0.939198 0.365502 0.674952 0 0 -9.53674e-06
25 1 0.649694 0.573837 0.551936 0 0 -4.19617e-05
27 1 0.781173 0.53219 0.182809 0 0 -1.52588e-05
31 1 0.943918 0.833637 0.039717 0 0 2.09808e-05
36 1 0.969981 0.708717 0.900787 0 0 5.53131e-05
37 1 0.680209 0.91702 0.777021 0 0 1.90735e-06
39 1 0.811689 0.875372 0.407894 0 0 2.86102e-05
40 1 0.939197 0.698835 0.674951 0 0 1.90735e-06
41 1 0.649693 0.907171 0.551936 0 0 -3.62396e-05
43 1 0.781173 0.865523 0.182809 0 0 -5.72205e-06
ITEM: TIMESTEP
10
ITEM: NUMBER OF ATOMS
48
ITEM: BOX BOUNDS xy xz yz pp pp pp
-3.4413009881973267e+00 8.6067802309989929e+00 2.5094206929206848e+00
-9.4973444938659668e-03 9.3236122131347656e+00 -3.4292638897895813e+00
-2.8691649436950684e-02 1.9545819282531738e+01 7.1304261684417725e-02
ITEM: ATOMS id type xs ys zs fx fy fz
2 1 0.491401 0.0738259 0.0590432 0 0 -5.72205e-05
3 1 0.390806 0.125337 0.654038 0 0 4.57764e-05
4 1 0.517464 0.948906 0.920113 0 0 -2.28882e-05
5 1 0.228742 0.157192 0.798195 0 0 -1.14441e-05
12 1 0.522185 0.0837077 0.284879 0 0 5.72205e-06
13 1 0.23264 0.292018 0.161636 0 0 1.52588e-05
14 1 0.360103 0.115526 0.428842 0 0 -1.90735e-05
16 1 0.491401 0.407159 0.0590432 0 0 -5.34058e-05
17 1 0.390806 0.458671 0.654038 0 0 4.00543e-05
18 1 0.517464 0.28224 0.920113 0 0 -1.90735e-05
19 1 0.228742 0.490525 0.798195 0 0 -1.14441e-05
22 1 0.101279 0.333684 0.530988 0 0 1.90735e-05
26 1 0.0705763 0.323872 0.305792 0 0 -3.62396e-05
28 1 0.522185 0.417041 0.284879 0 0 1.90735e-06
29 1 0.23264 0.625351 0.161636 0 0 1.71661e-05
30 1 0.360103 0.448859 0.428842 0 0 -1.14441e-05
32 1 0.491401 0.740493 0.0590433 0 0 -5.53131e-05
33 1 0.390806 0.792004 0.654038 0 0 3.8147e-05
34 1 0.517464 0.615573 0.920113 0 0 -2.28882e-05
35 1 0.228742 0.823859 0.798194 0 0 -9.53674e-06
38 1 0.101279 0.667017 0.530988 0 0 1.52588e-05
42 1 0.0705762 0.657205 0.305792 0 0 -4.00543e-05
44 1 0.522185 0.750374 0.284879 0 0 -1.90735e-06
45 1 0.23264 0.958684 0.161636 0 0 9.53674e-06
46 1 0.360103 0.782193 0.428842 0 0 -7.62939e-06
47 1 0.101279 0.000350381 0.530988 0 0 1.33514e-05
48 1 0.0705765 0.990539 0.305792 0 0 -4.19617e-05
1 1 0.943917 0.16697 0.0397169 0 0 2.28882e-05
6 1 0.96998 0.0420506 0.900787 0 0 5.72205e-05
7 1 0.680209 0.250353 0.777021 0 0 3.8147e-06
8 1 0.811688 0.208706 0.407894 0 0 3.62396e-05
9 1 0.939198 0.0321684 0.674952 0 0 -5.72205e-06
10 1 0.649694 0.240504 0.551936 0 0 -3.43323e-05
11 1 0.781173 0.198856 0.182809 0 0 -9.53674e-06
15 1 0.943918 0.500304 0.039717 0 0 2.09808e-05
20 1 0.969981 0.375384 0.900787 0 0 5.53131e-05
21 1 0.680209 0.583687 0.777021 0 0 1.52588e-05
23 1 0.811689 0.542039 0.407894 0 0 3.8147e-05
24 1 0.939198 0.365502 0.674952 0 0 -9.53674e-06
25 1 0.649694 0.573837 0.551936 0 0 -4.19617e-05
27 1 0.781173 0.53219 0.182809 0 0 -1.52588e-05
31 1 0.943918 0.833637 0.039717 0 0 2.09808e-05
36 1 0.969981 0.708717 0.900787 0 0 5.53131e-05
37 1 0.680209 0.91702 0.777021 0 0 1.90735e-06
39 1 0.811689 0.875372 0.407894 0 0 2.86102e-05
40 1 0.939197 0.698835 0.674951 0 0 1.90735e-06
41 1 0.649693 0.907171 0.551936 0 0 -3.62396e-05
43 1 0.781173 0.865523 0.182809 0 0 -5.72205e-06
