LAMMPS (23 Jun 2022 - Update 1)
OMP_NUM_THREADS environment is not set. Defaulting to 1 thread. (src/comm.cpp:98)
  using 1 OpenMP thread(s) per MPI task
Loaded 1 plugins from /software/deepmd-kit/2.1.5/gpu/lib/deepmd_lmp
Loaded 0 plugins from 
## variable
variable        temp            equal 300
variable        eql_step        equal 500000
variable        rd_seed         equal 1

variable        temp_damp       equal 0.2 # tau_NVT = timestep * 100
variable        t_step          equal 0.002
variable        rlx_step        equal 2000

variable        thermo_freq     equal 100
variable        dump_freq       equal 100

## units
dimension       3
boundary        p p p
units           metal
atom_style      atomic
neighbor        1.0 bin
neigh_modify    every 10 delay 0 check no

## data.lmp, potential
read_data       data.lmp
Reading data file ...
  orthogonal box = (0 0 0) to (26.08221 26.08221 25.1988)
  1 by 1 by 1 MPI processor grid
  reading atoms ...
  900 atoms
  read_data CPU = 0.017 seconds
pair_style      deepmd model.pb
Summary of lammps deepmd module ...
  >>> Info of deepmd-kit:
  installed to:       /software/deepmd-kit/2.1.5/gpu
  source:             v2.1.5
  source branch:       HEAD
  source commit:      6e3d4a62
  source commit at:   2022-09-23 16:10:28 +0800
  surpport model ver.:1.1 
  build float prec:   double
  build variant:      cuda
  build with tf inc:  /software/deepmd-kit/2.1.5/gpu/include;/software/deepmd-kit/2.1.5/gpu/include
  build with tf lib:  /software/deepmd-kit/2.1.5/gpu/lib/libtensorflow_cc.so;/software/deepmd-kit/2.1.5/gpu/lib/libtensorflow_framework.so
  set tf intra_op_parallelism_threads: 0
  set tf inter_op_parallelism_threads: 0
  >>> Info of lammps module:
  use deepmd-kit at:  /software/deepmd-kit/2.1.5/gpupair_coeff      * *

## velocity, timestep
velocity        all create ${temp} ${rd_seed} loop geom
velocity        all create 300 ${rd_seed} loop geom
velocity        all create 300 1 loop geom
timestep        ${t_step}
timestep        0.002

## nvt-relax
fix             equil all nvt temp ${temp} ${temp} ${temp_damp}
fix             equil all nvt temp 300 ${temp} ${temp_damp}
fix             equil all nvt temp 300 300 ${temp_damp}
fix             equil all nvt temp 300 300 0.2
run             ${rlx_step}
run             2000

CITE-CITE-CITE-CITE-CITE-CITE-CITE-CITE-CITE-CITE-CITE-CITE-CITE

Your simulation uses code contributions which should be cited:

- USER-DEEPMD package:

@article{Wang_ComputPhysCommun_2018_v228_p178,
  author = {Wang, Han and Zhang, Linfeng and Han, Jiequn and E, Weinan},
  doi = {10.1016/j.cpc.2018.03.016},
  url = {https://doi.org/10.1016/j.cpc.2018.03.016},
  year = 2018,
  month = {jul},
  publisher = {Elsevier {BV}},
  volume = 228,
  journal = {Comput. Phys. Commun.},
  title = {{DeePMD-kit: A deep learning package for many-body potential energy representation and molecular dynamics}},
  pages = {178--184}
}

CITE-CITE-CITE-CITE-CITE-CITE-CITE-CITE-CITE-CITE-CITE-CITE-CITE

Generated 0 of 6 mixed pair_coeff terms from geometric mixing rule
Neighbor list info ...
  update every 10 steps, delay 0 steps, check no
  max neighbors/atom: 2000, page size: 100000
  master list distance cutoff = 7
  ghost atom cutoff = 7
  binsize = 3.5, bins = 8 8 8
  1 neighbor lists, perpetual/occasional/extra = 1 0 0
  (1) pair deepmd, perpetual
      attributes: full, newton on
      pair build: full/bin/atomonly
      stencil: full/bin/3d
      bin: standard
Per MPI rank memory allocation (min/avg/max) = 2.658 | 2.658 | 2.658 Mbytes
   Step          Temp          E_pair         E_mol          TotEng         Press     
         0   300           -3887.3361      0             -3852.4746      16807.284    
      2000   307.40346     -3855.7238      0             -3820.0021      15796.932    
Loop time of 112.535 on 1 procs for 2000 steps with 900 atoms

Performance: 3.071 ns/day, 7.815 hours/ns, 17.772 timesteps/s
57.3% CPU use with 1 MPI tasks x 1 OpenMP threads

MPI task timing breakdown:
Section |  min time  |  avg time  |  max time  |%varavg| %total
---------------------------------------------------------------
Pair    | 111.56     | 111.56     | 111.56     |   0.0 | 99.13
Neigh   | 0.87763    | 0.87763    | 0.87763    |   0.0 |  0.78
Comm    | 0.040747   | 0.040747   | 0.040747   |   0.0 |  0.04
Output  | 0.000311   | 0.000311   | 0.000311   |   0.0 |  0.00
Modify  | 0.044898   | 0.044898   | 0.044898   |   0.0 |  0.04
Other   |            | 0.01473    |            |       |  0.01

Nlocal:            900 ave         900 max         900 min
Histogram: 1 0 0 0 0 0 0 0 0 0
Nghost:           2520 ave        2520 max        2520 min
Histogram: 1 0 0 0 0 0 0 0 0 0
Neighs:              0 ave           0 max           0 min
Histogram: 1 0 0 0 0 0 0 0 0 0
FullNghs:        67112 ave       67112 max       67112 min
Histogram: 1 0 0 0 0 0 0 0 0 0

Total # of neighbors = 67112
Ave neighs/atom = 74.568889
Neighbor list builds = 200
Dangerous builds not checked
unfix           equil

## nvt-equal
reset_timestep  0
fix             equil all nvt temp ${temp} ${temp} ${temp_damp}
fix             equil all nvt temp 300 ${temp} ${temp_damp}
fix             equil all nvt temp 300 300 ${temp_damp}
fix             equil all nvt temp 300 300 0.2
fix             com all recenter INIT INIT INIT

## thermo_style
thermo_style    custom step time temp ke etotal press
thermo          ${thermo_freq}
thermo          100
thermo_modify   flush yes
dump            1 all custom ${dump_freq} dump.lammpstraj id type x y z
dump            1 all custom 100 dump.lammpstraj id type x y z
run             500000
Generated 0 of 6 mixed pair_coeff terms from geometric mixing rule
Per MPI rank memory allocation (min/avg/max) = 3.942 | 3.942 | 3.942 Mbytes
   Step          Time           Temp          KinEng         TotEng         Press     
         0   0              307.40346      35.72178      -3820.0021      15796.932    
       100   0.2            309.29505      35.941591     -3821.2191      16449.593    
       200   0.4            297.67518      34.591306     -3823.2369      15586.153    
       300   0.6            302.937        35.202755     -3823.4405      16420.462    
       400   0.8            301.60953      35.048496     -3823.4639      14406.769    
       500   1              307.23613      35.702335     -3823.9296      16067.207    
       600   1.2            301.91053      35.083474     -3826.0731      14087.356    
       700   1.4            293.31195      34.084277     -3827.0577      16261.589    
       800   1.6            296.4753       34.451873     -3826.6232      15626.375    
       900   1.8            299.5538       34.809611     -3824.6292      15609.385    
      1000   2              315.974        36.717717     -3822.9116      16232.193    
      1100   2.2            294.54873      34.227997     -3823.7824      16955.18     
      1200   2.4            301.68356      35.057099     -3825.1611      14272.647    
      1300   2.6            297.64764      34.588106     -3826.3842      16202.356    
      1400   2.8            282.44821      32.821858     -3827.1542      15933.874    
      1500   3              298.68518      34.708673     -3827.4676      13986.852    
      1600   3.2            284.23645      33.02966      -3826.895       17610.713    
      1700   3.4            295.90348      34.385425     -3825.3433      17012.284    
      1800   3.6            318.92374      37.060492     -3824.6017      16919.648    
      1900   3.8            300.8666       34.962164     -3826.0047      16011.32     
      2000   4              305.68085      35.521603     -3827.816       16228.844    
      2100   4.2            292.65275      34.007675     -3827.5242      16141.212    
      2200   4.4            304.0334       35.330162     -3826.5938      16763.942    
      2300   4.6            302.53888      35.156492     -3826.3292      15482.131    
      2400   4.8            297.18905      34.534815     -3826.4262      17314.091    
      2500   5              293.75092      34.135287     -3828.2707      16389.847    
      2600   5.2            280.30057      32.572291     -3829.5492      16144.394    
      2700   5.4            299.35982      34.787069     -3828.107       17283.208    
      2800   5.6            309.13845      35.923393     -3826.4084      16097.713    
      2900   5.8            299.29086      34.779055     -3826.1805      16797.914    
      3000   6              300.63147      34.934841     -3826.5129      16104.373    
      3100   6.2            292.52383      33.992693     -3828.199       14713.832    
      3200   6.4            292.25614      33.961587     -3829.7359      16376.25     
      3300   6.6            286.58204      33.302229     -3828.6575      15329.01     
      3400   6.8            307.85925      35.774744     -3826.7711      15275.957    
      3500   7              289.54341      33.646354     -3826.6366      14280.794    
      3600   7.2            302.43346      35.144241     -3826.7864      15542.409    
      3700   7.4            298.1791       34.649864     -3827.6462      14257.193    
      3800   7.6            291.24811      33.844449     -3829.2524      15528.143    
      3900   7.8            296.98078      34.510613     -3829.5052      14125.48     
      4000   8              288.30124      33.502009     -3826.9545      15620.927    
      4100   8.2            314.87652      36.590185     -3825.9252      15941.863    
      4200   8.4            307.39909      35.721271     -3826.4919      14020.773    
      4300   8.6            302.96216      35.205678     -3828.1272      16092.141    
      4400   8.8            282.36209      32.811851     -3829.1271      13399.221    
      4500   9              299.28891      34.778829     -3827.763       15764.816    
      4600   9.2            312.57829      36.323119     -3825.0337      16056.745    
      4700   9.4            308.05616      35.797627     -3825.5164      14284.435    
      4800   9.6            301.95162      35.088248     -3827.0496      16033.384    
      4900   9.8            296.02863      34.399969     -3828.218       16208.162    
      5000   10             299.87189      34.846574     -3828.0672      13898.905    
      5100   10.2           308.15863      35.809534     -3826.161       16492.503    
      5200   10.4           319.61676      37.141025     -3824.3441      15476.14     
      5300   10.6           304.89848      35.430689     -3825.4864      15016.419    
      5400   10.8           308.39753      35.837295     -3826.867       16639.718    
      5500   11             292.64019      34.006216     -3827.7906      14877.557    
      5600   11.2           296.76554      34.485601     -3827.8321      15309.835    
      5700   11.4           298.6299       34.702249     -3826.6633      14359.947    
      5800   11.6           322.62116      37.49015      -3824.1775      15978.81     
      5900   11.8           296.87952      34.498846     -3824.8343      14838.438    
      6000   12             314.84127      36.586089     -3826.3765      15980.696    
      6100   12.2           294.67953      34.243196     -3827.3391      16824.442    
      6200   12.4           299.36038      34.787135     -3827.4144      15229.669    
      6300   12.6           300.79635      34.954001     -3826.9861      15307.198    
      6400   12.8           314.09816      36.499736     -3824.8733      16143.735    
      6500   13             319.2236       37.095337     -3823.7661      16338.327    
      6600   13.2           302.57378      35.160547     -3825.4136      15053.307    
      6700   13.4           297.29145      34.546714     -3826.422       14925.253    
      6800   13.6           302.41883      35.14254      -3827.0605      15089.607    
      6900   13.8           308.91325      35.897224     -3827.6412      15686.785    
      7000   14             286.07377      33.243165     -3828.6337      14767.439    
      7100   14.2           297.39027      34.558197     -3829.3541      15767.718    
      7200   14.4           299.94574      34.855156     -3828.3175      16175.303    
      7300   14.6           299.39612      34.791288     -3826.5369      15764.961    
      7400   14.8           311.20027      36.162987     -3826.0637      16149.074    
      7500   15             297.89049      34.616325     -3827.3701      16875.65     
      7600   15.2           290.31014      33.735452     -3829.6801      15489.619    
      7700   15.4           298.67747      34.707776     -3829.3237      15757.261    
      7800   15.6           294.54109      34.227109     -3828.1733      15761.096    
      7900   15.8           287.64666      33.425942     -3827.0248      17320.353    
      8000   16             302.00013      35.093886     -3826.8462      15626.876    
      8100   16.2           299.63712      34.819293     -3828.3311      15816.556    
      8200   16.4           286.26083      33.264902     -3830.3659      15885.666    
      8300   16.6           286.09368      33.245479     -3829.5768      16074.886    
      8400   16.8           291.60534      33.885961     -3828.0224      16166.025    
      8500   17             312.60508      36.326233     -3827.344       15494.275    
      8600   17.2           302.94302      35.203454     -3827.1739      16177.887    
      8700   17.4           301.96871      35.090235     -3827.2249      15901.568    
      8800   17.6           299.01971      34.747547     -3827.5472      15039.286    
      8900   17.8           298.02879      34.632397     -3827.931       16671.165    
      9000   18             302.76741      35.183047     -3828.0355      14723.617    
      9100   18.2           299.83354      34.842118     -3827.1904      16344.023    
      9200   18.4           299.30652      34.780875     -3825.8254      16351.897    
      9300   18.6           321.07413      37.310377     -3825.2898      16888.022    
      9400   18.8           306.07057      35.566891     -3827.5828      16732.169    
      9500   19             305.10894      35.455144     -3828.9571      16273.549    
      9600   19.2           290.33472      33.738308     -3828.7219      16055.601    
      9700   19.4           299.647        34.820441     -3827.3548      15575.746    
      9800   19.6           313.80515      36.465687     -3825.6936      16171.32     
      9900   19.8           319.7652       37.158274     -3824.4971      15826.376    
     10000   20             311.80869      36.233688     -3824.3877      16327.278    
     10100   20.2           304.07417      35.334899     -3827.0808      16760.614    
     10200   20.4           303.64792      35.285368     -3828.3269      16108.166    
     10300   20.6           305.67908      35.521397     -3829.1979      15502.529    
     10400   20.8           294.85084      34.263104     -3829.5016      16140.647    
     10500   21             311.87074      36.240899     -3827.86        13981.219    
     10600   21.2           309.61752      35.979064     -3826.1831      15613.028    
     10700   21.4           319.05495      37.075739     -3826.6082      16322.669    
     10800   21.6           290.95838      33.810781     -3828.1331      14665.634    
     10900   21.8           295.74021      34.366453     -3828.6043      16757.979    
     11000   22             287.90658      33.456147     -3828.5174      15479.522    
     11100   22.2           294.5797       34.231596     -3827.793       16412.808    
     11200   22.4           312.00622      36.256642     -3826.7067      15394.429    
     11300   22.6           308.88294      35.893702     -3825.4376      16483.847    
     11400   22.8           317.24493      36.865406     -3824.8261      14343.408    
     11500   23             311.02382      36.142482     -3826.8035      14317.857    
     11600   23.2           296.7187       34.480158     -3828.5206      16012.023    
     11700   23.4           296.78377      34.48772      -3828.6981      14739.729    
     11800   23.6           292.85084      34.030694     -3828.1742      15529.104    
     11900   23.8           313.21584      36.397206     -3826.6439      14358.437    
     12000   24             305.98495      35.556941     -3825.0403      16269.543    
     12100   24.2           302.01353      35.095443     -3825.9543      15574.853    
     12200   24.4           298.83228      34.725766     -3828.2904      15696.551    
     12300   24.6           293.64182      34.122609     -3828.6973      15268.554    
     12400   24.8           300.55267      34.925684     -3828.462       14444.802    
     12500   25             311.78266      36.230663     -3827.4874      15415.267    
     12600   25.2           306.4449       35.61039      -3826.0458      14427.565    
     12700   25.4           312.95128      36.366463     -3826.1871      15128.267    
     12800   25.6           292.79107      34.023748     -3828.9532      14657.447    
     12900   25.8           300.97076      34.974268     -3829.55        14210.463    
     13000   26             302.10219      35.105746     -3828.8324      15574.901    
     13100   26.2           311.74387      36.226156     -3827.0337      15207.839    
     13200   26.4           292.74616      34.01853      -3826.3647      16053.083    
     13300   26.6           305.49201      35.49966      -3827.2328      15781.79     
     13400   26.8           287.75634      33.438688     -3829.9505      14400.567    
     13500   27             289.93675      33.692063     -3831.3784      15718.303    
     13600   27.2           293.85165      34.146992     -3829.6919      15153.814    
     13700   27.4           311.01075      36.140963     -3827.7152      14807.7      
     13800   27.6           310.57826      36.090706     -3827.2468      15289.126    
     13900   27.8           296.60388      34.466815     -3827.2468      14608.907    
     14000   28             304.22698      35.352657     -3828.5363      15005.769    
     14100   28.2           281.58125      32.721112     -3830.3731      17215.31     
     14200   28.4           298.82466      34.724881     -3830.0614      14422.638    
     14300   28.6           312.91887      36.362697     -3827.8928      16874.696    
     14400   28.8           310.71474      36.106567     -3827.3882      15053.825    
     14500   29             303.29152      35.243952     -3827.6038      14883.593    
     14600   29.2           292.34428      33.97183      -3828.211       16115.556    
     14700   29.4           298.20184      34.652506     -3829.4609      15283.245    
     14800   29.6           292.24553      33.960354     -3830.8247      15519.878    
     14900   29.8           292.48545      33.988234     -3829.7817      15341.942    
     15000   30             305.58803      35.510818     -3827.4064      14863.594    
     15100   30.2           302.0673       35.101692     -3827.2719      15763.57     
     15200   30.4           301.77828      35.068106     -3827.9486      15576.211    
     15300   30.6           287.76376      33.439551     -3829.4161      15354.03     
     15400   30.8           281.43147      32.703707     -3830.5929      16501.423    
     15500   31             297.68626      34.592593     -3829.5244      15213.543    
     15600   31.2           295.82488      34.376292     -3827.1352      17024.1      
     15700   31.4           304.75522      35.414041     -3826.94        15437.206    
     15800   31.6           302.2708       35.125339     -3828.23        14527.934    
     15900   31.8           293.90898      34.153655     -3829.7643      15458.072    
     16000   32             283.41027      32.933654     -3829.9019      14255.216    
     16100   32.2           309.0875       35.917473     -3826.892       15648.659    
     16200   32.4           310.98147      36.137562     -3826.2725      14188.788    
     16300   32.6           306.26453      35.589431     -3827.6303      16702.43     
     16400   32.8           295.25834      34.310458     -3829.0237      14477.284    
     16500   33             297.18854      34.534755     -3829.5548      16033.955    
     16600   33.2           318.87901      37.055295     -3828.2378      14820.661    
     16700   33.4           312.69942      36.337196     -3825.8273      15294.837    
     16800   33.6           302.37049      35.136923     -3826.3627      15876.047    
     16900   33.8           289.6748       33.661623     -3828.1504      14260.776    
     17000   34             310.64223      36.09814      -3828.8879      16268.658    
     17100   34.2           295.71767      34.363833     -3828.8428      15414.066    
     17200   34.4           292.41343      33.979865     -3828.2956      14796.489    
     17300   34.6           312.47717      36.311369     -3825.8227      17548.478    
     17400   34.8           321.61805      37.373584     -3825.1187      14037.425    
     17500   35             300.9715       34.974354     -3827.0143      15117.467    
     17600   35.2           302.09257      35.104628     -3828.0895      14659.083    
     17700   35.4           294.20158      34.187657     -3828.3148      15061.976    
     17800   35.6           293.12621      34.062693     -3828.7201      16180.885    
     17900   35.8           295.00556      34.281083     -3828.813       15239.058    
     18000   36             304.37745      35.370142     -3828.2096      15645.032    
     18100   36.2           319.04401      37.074467     -3826.9978      15811.624    
     18200   36.4           295.87691      34.382338     -3826.5706      16046.056    
     18300   36.6           291.31333      33.852028     -3828.1993      15269.208    
     18400   36.8           294.15975      34.182796     -3829.9338      14937.353    
     18500   37             296.67249      34.474788     -3829.952       14372.143    
     18600   37.2           300.61165      34.932537     -3828.8137      15312.042    
     18700   37.4           293.70728      34.130216     -3827.9828      15068.024    
     18800   37.6           296.46593      34.450786     -3827.7832      14599.977    
     18900   37.8           296.47025      34.451287     -3828.0027      15155.837    
     19000   38             285.28433      33.151429     -3829.1927      15265.176    
     19100   38.2           286.05104      33.240524     -3831.2091      15239.23     
     19200   38.4           295.97876      34.394173     -3830.8723      15043.636    
     19300   38.6           311.90957      36.245411     -3828.56        14004.992    
     19400   38.8           306.48513      35.615064     -3828.184       15905.068    
     19500   39             307.52397      35.735783     -3827.96        15614.642    
     19600   39.2           311.39475      36.185586     -3828.1179      14410.601    
     19700   39.4           295.54177      34.343393     -3829.3236      17002.56     
     19800   39.6           289.73994      33.669192     -3830.5473      14902.127    
     19900   39.8           295.89377      34.384298     -3829.4396      14348.773    
     20000   40             303.1745       35.230353     -3827.0245      16165.387    
     20100   40.2           301.60645      35.048138     -3827.1356      14502.552    
     20200   40.4           291.51588      33.875565     -3828.6092      16007.107    
     20300   40.6           286.09927      33.246129     -3829.587       14788.442    
     20400   40.8           309.37469      35.950846     -3829.4101      15997.023    
     20500   41             303.03759      35.214444     -3826.9714      15258.451    
     20600   41.2           321.70158      37.383291     -3825.3828      15923.544    
     20700   41.4           316.75866      36.808899     -3826.9369      14997.53     
     20800   41.6           308.10566      35.803378     -3828.5112      16138.032    
     20900   41.8           302.51067      35.153214     -3829.0067      15781.963    
     21000   42             303.29624      35.2445       -3828.8151      16112.194    
     21100   42.2           299.38589      34.790099     -3826.5505      16301.407    
     21200   42.4           316.21813      36.746087     -3825.7128      14613.998    
     21300   42.6           305.83916      35.54         -3827.2327      17174.087    
     21400   42.8           293.72244      34.131978     -3828.2039      14001.21     
     21500   43             295.30407      34.315771     -3828.4715      16534.666    
     21600   43.2           299.66049      34.822009     -3828.2441      15981.865    
     21700   43.4           300.79557      34.95391      -3827.5555      15578.289    
     21800   43.6           309.55069      35.971298     -3826.0648      16627.976    
     21900   43.8           301.90848      35.083236     -3826.1035      16594.836    
     22000   44             293.82777      34.144218     -3828.3951      15368.306    
     22100   44.2           289.25366      33.612684     -3829.2471      15539.874    
     22200   44.4           300.56814      34.927482     -3828.6907      14094.124    
     22300   44.6           293.56932      34.114185     -3827.1658      15825.301    
     22400   44.8           307.59187      35.743674     -3825.9973      15742.475    
     22500   45             303.99517      35.325719     -3826.5086      15993.804    
     22600   45.2           293.00585      34.048707     -3829.7962      14740.977    
     22700   45.4           289.10812      33.595772     -3829.6477      15217.553    
     22800   45.6           299.85647      34.844782     -3828.1815      15837.266    
     22900   45.8           308.96391      35.903112     -3826.9322      15970.633    
     23000   46             310.20443      36.047265     -3826.979       14744.597    
     23100   46.2           300.35691      34.902936     -3829.082       16572.012    
     23200   46.4           284.92485      33.109655     -3830.3963      14363.538    
     23300   46.6           292.52545      33.992882     -3829.4994      15130.265    
     23400   46.8           301.20562      35.00156      -3828.0425      16024.762    
     23500   47             293.62951      34.121179     -3827.651       13924.976    
     23600   47.2           304.86365      35.426641     -3827.7249      15711.918    
     23700   47.4           305.27822      35.474816     -3828.5562      15844.842    
     23800   47.6           294.60859      34.234953     -3831.2042      14744.519    
     23900   47.8           278.73487      32.390349     -3831.8755      14836.245    
     24000   48             297.51185      34.572326     -3829.9751      14547.451    
     24100   48.2           294.40557      34.211361     -3828.5471      15300.81     
     24200   48.4           307.9929       35.790275     -3827.5531      15004.355    
     24300   48.6           293.66509      34.125314     -3826.9973      14528.853    
     24400   48.8           299.18284      34.766503     -3828.1767      15032.075    
     24500   49             299.14235      34.761798     -3830.196       13630.982    
     24600   49.2           297.10671      34.525246     -3830.0063      16263.227    
     24700   49.4           305.89256      35.546205     -3828.3757      14485.9      
     24800   49.6           296.09912      34.40816      -3827.8544      16149.203    
     24900   49.8           301.31574      35.014357     -3828.15        15803.086    
     25000   50             298.91763      34.735684     -3828.7795      15547.56     
     25100   50.2           295.40921      34.327989     -3829.6328      14527.692    
     25200   50.4           285.37994      33.162539     -3830.8137      15346.284    
     25300   50.6           288.91365      33.573174     -3830.3281      14081.962    
     25400   50.8           297.80974      34.606942     -3828.1016      14340.574    
     25500   51             314.92505      36.595824     -3827.357       16154.417    
     25600   51.2           294.47722      34.219687     -3827.8075      13488.412    
     25700   51.4           304.46675      35.38052      -3829.1199      17472.025    
     25800   51.6           282.44992      32.822056     -3831.3762      13532.235    
     25900   51.8           291.85931      33.915473     -3830.6245      15294.339    
     26000   52             294.50968      34.223459     -3829.2018      14359.052    
     26100   52.2           301.25039      35.006762     -3828.0195      15967.713    
     26200   52.4           303.28639      35.243356     -3827.4375      13801.322    
     26300   52.6           305.13806      35.458529     -3827.8298      16771.101    
     26400   52.8           294.44962      34.21648      -3830.5465      15292.581    
     26500   53             284.8955       33.106245     -3831.0745      14445.445    
     26600   53.2           295.59874      34.350013     -3829.7438      15737.656    
     26700   53.4           300.80946      34.955524     -3828.4475      16206.177    
     26800   53.6           309.10076      35.919014     -3827.8735      14778.877    
     26900   53.8           301.41743      35.026173     -3828.0156      15838.831    
     27000   54             293.29639      34.082469     -3828.4485      15246.964    
     27100   54.2           287.82648      33.446838     -3830.1336      14887.253    
     27200   54.4           284.99236      33.1175       -3830.8443      15439.872    
     27300   54.6           301.37213      35.020909     -3829.0658      14622.658    
     27400   54.8           303.6907       35.290338     -3827.6256      15497.024    
     27500   55             295.6505       34.356028     -3827.3121      15052.12     
     27600   55.2           303.45542      35.262998     -3827.717       16054.953    
     27700   55.4           291.35626      33.857016     -3829.844       14462.768    
     27800   55.6           287.73587      33.436309     -3830.9389      15000.637    
     27900   55.8           293.8153       34.142769     -3829.756       14826.756    
     28000   56             300.64044      34.935883     -3828.6883      14859.853    
     28100   56.2           297.07895      34.522021     -3827.8992      16296.586    
     28200   56.4           302.43187      35.144056     -3827.469       14709.175    
     28300   56.6           303.34658      35.25035      -3826.8791      16131.344    
     28400   56.8           308.54669      35.854629     -3826.5098      15637.335    
     28500   57             301.33354      35.016424     -3827.7009      14079.801    
     28600   57.2           293.02573      34.051017     -3829.0998      16005.876    
     28700   57.4           300.22186      34.887242     -3829.2482      15223.175    
     28800   57.6           305.22197      35.46828      -3826.9268      15979.449    
     28900   57.8           313.93082      36.48029      -3825.916       15415.382    
     29000   58             305.80241      35.53573      -3826.842       16956.542    
     29100   58.2           309.49637      35.964985     -3828.0824      15611.56     
     29200   58.4           284.46615      33.056352     -3828.8548      15597.255    
     29300   58.6           291.45521      33.868515     -3828.781       17365.674    
     29400   58.8           306.38165      35.60304      -3828.3115      14956.458    
     29500   59             308.87856      35.893193     -3827.186       15487.242    
     29600   59.2           309.54087      35.970157     -3824.9087      17537.397    
     29700   59.4           309.58679      35.975493     -3825.9381      14624.295    
     29800   59.6           293.10964      34.060767     -3828.0919      17982.104    
     29900   59.8           304.02508      35.329195     -3828.5751      14102.925    
     30000   60             289.01891      33.585405     -3828.6305      15666.029    
     30100   60.2           307.19099      35.697089     -3827.4612      15426.416    
     30200   60.4           316.85         36.819513     -3825.6505      15178.054    
     30300   60.6           313.87419      36.47371      -3825.6664      16122.689    
     30400   60.8           303.41577      35.25839      -3828.3296      15698.623    
     30500   61             290.075        33.708128     -3829.0867      15037.787    
     30600   61.2           294.1679       34.183743     -3828.9841      16037.327    
     30700   61.4           303.17893      35.230868     -3827.4894      14235.74     
     30800   61.6           316.08866      36.731042     -3826.1801      15437.648    
     30900   61.8           296.03024      34.400155     -3827.3844      14946.926    
     31000   62             292.80228      34.025051     -3830.028       13721.68     
     31100   62.2           294.7484       34.2512       -3829.6625      15485.713    
     31200   62.4           302.25237      35.123198     -3828.2096      14975.792    
     31300   62.6           307.15887      35.693356     -3826.8669      14859.906    
     31400   62.8           311.00142      36.13988      -3827.008       15787.725    
     31500   63             293.35239      34.088976     -3829.2829      15421.229    
     31600   63.2           288.57275      33.533559     -3830.4661      15736.236    
     31700   63.4           293.01043      34.049239     -3829.5132      15077.316    
     31800   63.6           296.99983      34.512827     -3828.0711      14732.487    
     31900   63.8           305.95606      35.553584     -3826.871       16443.945    
     32000   64             306.35973      35.600493     -3827.2799      14355.527    
     32100   64.2           289.15012      33.600652     -3829.7011      15772.272    
     32200   64.4           294.91682      34.27077      -3830.7937      15433.028    
     32300   64.6           297.21176      34.537454     -3829.7785      15501.276    
     32400   64.8           293.91905      34.154825     -3828.4827      15618.437    
     32500   65             306.38365      35.603273     -3827.8803      15009.944    
     32600   65.2           292.35078      33.972585     -3827.924       16292.364    
     32700   65.4           297.27583      34.544899     -3829.1963      16234.909    
     32800   65.6           285.03134      33.12203      -3831.1548      15922.255    
     32900   65.8           296.88305      34.499257     -3830.5105      15490.524    
     33000   66             295.15111      34.297996     -3828.5154      15291.374    
     33100   66.2           292.95555      34.042862     -3827.6971      14916.715    
     33200   66.4           309.22079      35.932962     -3827.5851      15401.476    
     33300   66.6           304.61713      35.397994     -3828.3205      14146.156    
     33400   66.8           285.44167      33.169712     -3830.7873      13917.369    
     33500   67             282.5014       32.828039     -3830.9153      15535.806    
     33600   67.2           286.57244      33.301113     -3829.5543      13422.731    
     33700   67.4           305.89383      35.546353     -3828.6009      15475.822    
     33800   67.6           299.84236      34.843142     -3828.0019      14275.639    
     33900   67.8           299.21548      34.770296     -3827.6509      15044.713    
     34000   68             307.445        35.726606     -3827.8049      16207.136    
     34100   68.2           283.51732      32.946093     -3828.789       15415.148    
     34200   68.4           290.44045      33.750595     -3829.7271      16294.435    
     34300   68.6           284.67169      33.080237     -3829.5784      14593.7      
     34400   68.8           301.23652      35.005151     -3827.5717      14330.902    
     34500   69             311.48029      36.195527     -3826.6693      15642.207    
     34600   69.2           307.17846      35.695633     -3827.5806      14901.015    
     34700   69.4           288.26766      33.498106     -3829.9324      14718.304    
     34800   69.6           295.63433      34.354149     -3830.1073      15622.68     
     34900   69.8           298.11605      34.642536     -3828.9809      15545.078    
     35000   70             305.93284      35.550886     -3827.3667      15079.32     
     35100   70.2           297.42026      34.561683     -3826.8114      16183.087    
     35200   70.4           302.00335      35.09426      -3827.6885      16088.609    
     35300   70.6           297.74267      34.599148     -3830.031       16259.525    
     35400   70.8           291.65626      33.891878     -3830.2848      15523.448    
     35500   71             295.23877      34.308183     -3829.1181      16319.107    
     35600   71.2           307.12434      35.689344     -3827.9388      16112.233    
     35700   71.4           299.12192      34.759424     -3827.7757      15045.093    
     35800   71.6           294.788        34.255802     -3827.9745      16931.34     
     35900   71.8           300.93485      34.970096     -3828.8687      14509.122    
     36000   72             276.7025       32.154178     -3831.6006      16580.736    
     36100   72.2           289.99718      33.699085     -3831.6158      15592.625    
     36200   72.4           291.44235      33.86702      -3829.953       16068.407    
     36300   72.6           305.70199      35.52406      -3828.7594      17891.133    
     36400   72.8           294.11852      34.178005     -3827.9624      15662.086    
     36500   73             302.15871      35.112314     -3827.6748      15622.73     
     36600   73.2           302.45313      35.146527     -3828.4936      18061.248    
     36700   73.4           288.09758      33.478342     -3830.4671      15122.608    
     36800   73.6           298.52693      34.690283     -3830.5127      16552.118    
     36900   73.8           300.34989      34.90212      -3828.4323      15203.847    
     37000   74             296.50675      34.455529     -3827.4544      15464.805    
     37100   74.2           301.02472      34.980538     -3827.7095      15846.618    
     37200   74.4           290.79375      33.79165      -3828.8674      15477.632    
     37300   74.6           293.04618      34.053393     -3830.2753      15468.286    
     37400   74.8           292.14863      33.949094     -3831.3326      15128.682    
     37500   75             291.38613      33.860488     -3830.27        16237.656    
     37600   75.2           308.25677      35.820938     -3828.0107      16135.773    
     37700   75.4           306.83141      35.655304     -3827.0825      15966.881    
     37800   75.6           294.32746      34.202284     -3827.5792      15703.757    
     37900   75.8           289.31333      33.619618     -3829.2991      15214.769    
     38000   76             285.4752       33.173608     -3830.7814      16150.178    
     38100   76.2           294.00563      34.164887     -3830.0908      15650.715    
     38200   76.4           294.89689      34.268455     -3827.1653      15838.499    
     38300   76.6           296.45145      34.449102     -3827.0081      14943.974    
     38400   76.8           304.75301      35.413784     -3828.1545      15343.528    
     38500   77             311.3095       36.17568      -3829.334       15914.489    
     38600   77.2           295.74721      34.367266     -3829.6402      16217.239    
     38700   77.4           305.55446      35.506916     -3827.9029      16056.76     
     38800   77.6           309.61397      35.978651     -3826.083       15863.581    
     38900   77.8           302.89276      35.197614     -3826.7584      14579.805    
     39000   78             304.81991      35.421558     -3827.9718      15910.128    
     39100   78.2           295.56017      34.345531     -3828.669       15725.257    
     39200   78.4           305.03617      35.446688     -3828.5387      13807.033    
     39300   78.6           298.54945      34.6929       -3828.1416      16246.475    
     39400   78.8           300.0329       34.865284     -3827.4298      15799.145    
     39500   79             315.69008      36.684725     -3825.2168      15328.927    
     39600   79.2           311.18718      36.161465     -3825.0485      15964.161    
     39700   79.4           308.44572      35.842895     -3827.4556      14484.197    
     39800   79.6           298.69718      34.710067     -3828.6274      14467.611    
     39900   79.8           298.51142      34.688481     -3829.0409      15969.301    
     40000   80             298.03839      34.633513     -3828.8629      14765.565    
     40100   80.2           303.05391      35.216341     -3827.4179      16579.551    
     40200   80.4           302.38147      35.138199     -3825.9787      14902.112    
     40300   80.6           305.35907      35.484211     -3826.3258      15871.165    
     40400   80.8           294.92128      34.271289     -3829.1252      15818.349    
     40500   81             299.20244      34.768781     -3829.4087      16110.149    
     40600   81.2           306.37615      35.602401     -3828.5935      15174.579    
     40700   81.4           301.18648      34.999336     -3827.2204      16176.967    
     40800   81.6           305.81028      35.536644     -3826.0676      16092.198    
     40900   81.8           300.93032      34.969569     -3827.0414      14880.324    
     41000   82             299.40206      34.791978     -3829.4218      15089.625    
     41100   82.2           295.37342      34.32383      -3829.8708      16006.959    
     41200   82.4           295.38531      34.325212     -3828.6865      16164.991    
     41300   82.6           317.70593      36.918977     -3826.991       16206.402    
     41400   82.8           314.2728       36.52003      -3826.7812      17222.692    
     41500   83             308.3891       35.836315     -3827.6375      15815.452    
     41600   83.2           292.35278      33.972817     -3828.1306      15758.378    
     41700   83.4           299.4585       34.798536     -3828.6509      17750.685    
     41800   83.6           298.98138      34.743093     -3829.2888      15225.87     
     41900   83.8           303.72787      35.294658     -3830.6004      16035.918    
     42000   84             290.12931      33.714439     -3830.9327      16685.295    
     42100   84.2           290.70858      33.781753     -3828.5262      16072.005    
     42200   84.4           303.06918      35.218115     -3827.5172      16293.828    
     42300   84.6           306.66039      35.635431     -3827.5792      15162.748    
     42400   84.8           307.64236      35.749541     -3828.6167      15623.994    
     42500   85             289.5274       33.644494     -3830.5533      15739.396    
     42600   85.2           290.84661      33.797793     -3831.0609      16058.913    
     42700   85.4           297.50532      34.571567     -3828.1884      14948.449    
     42800   85.6           296.47865      34.452263     -3827.3506      16307.474    
     42900   85.8           300.48985      34.918384     -3827.7675      16151.614    
     43000   86             297.77377      34.602763     -3828.8841      14872.381    
     43100   86.2           296.1183       34.410389     -3829.7758      18185.726    
     43200   86.4           286.98751      33.349346     -3829.7102      15545.204    
     43300   86.6           300.23292      34.888527     -3827.4888      15581.648    
     43400   86.8           295.70626      34.362507     -3826.5783      16516.796    
     43500   87             304.64725      35.401494     -3827.374       16413.254    
     43600   87.2           294.69219      34.244667     -3829.3522      14310.473    
     43700   87.4           284.17524      33.022547     -3829.8597      15017.035    
     43800   87.6           294.6771       34.242915     -3829.07        14619.029    
     43900   87.8           301.18635      34.99932      -3828.3214      15478.343    
     44000   88             300.23518      34.88879      -3827.4746      14882.019    
     44100   88.2           310.13458      36.039149     -3826.3249      14131.338    
     44200   88.4           319.4868       37.125922     -3824.9093      16183.686    
     44300   88.6           300.51493      34.921298     -3826.5548      14359.762    
     44400   88.8           294.05475      34.170594     -3828.4299      15955.284    
     44500   89             303.69791      35.291176     -3828.8601      16947.691    
     44600   89.2           306.00149      35.558864     -3828.9102      15142.248    
     44700   89.4           309.10121      35.919066     -3827.7636      16243.562    
     44800   89.6           303.67302      35.288284     -3826.0987      16059.465    
     44900   89.8           312.55407      36.320305     -3826.0007      15115.551    
     45000   90             289.78771      33.674743     -3828.7056      17321.736    
     45100   90.2           302.84155      35.191663     -3829.4452      16279.863    
     45200   90.4           290.60058      33.769203     -3829.0812      15737.321    
     45300   90.6           311.16545      36.158941     -3827.5178      16141.696    
     45400   90.8           309.64218      35.981929     -3826.5587      15110.764    
     45500   91             302.06651      35.101599     -3826.2141      16249.329    
     45600   91.2           294.29725      34.198774     -3828.0055      15984.442    
     45700   91.4           292.83329      34.028654     -3829.6665      14035.594    
     45800   91.6           302.84125      35.191628     -3829.7607      16225.723    
     45900   91.8           294.96475      34.27634      -3828.3672      14068.226    
     46000   92             318.79174      37.045153     -3826.4328      14651.329    
     46100   92.2           307.85087      35.77377      -3826.8824      15812.959    
     46200   92.4           294.74653      34.250983     -3827.8143      15099.6      
     46300   92.6           296.82913      34.492991     -3828.4307      14753.046    
     46400   92.8           299.28243      34.778076     -3828.8833      15457.317    
     46500   93             296.80097      34.489718     -3828.5112      16126.127    
     46600   93.2           310.20884      36.047778     -3826.7076      14468.582    
     46700   93.4           311.54375      36.202901     -3826.495       16642.546    
     46800   93.6           309.45312      35.95996      -3828.1793      15523.547    
     46900   93.8           296.53556      34.458876     -3829.6899      15275.796    
     47000   94             292.64455      34.006721     -3829.4647      16185.347    
     47100   94.2           295.86331      34.380757     -3828.3294      16178.696    
     47200   94.4           309.70566      35.989307     -3826.4356      15586.797    
     47300   94.6           316.06559      36.728361     -3824.3919      16204.856    
     47400   94.8           314.45573      36.541288     -3824.4624      15752.547    
     47500   95             308.59155      35.859841     -3827.645       14685.914    
     47600   95.2           293.59829      34.117551     -3828.9671      15125.192    
     47700   95.4           295.68926      34.360532     -3829.4661      15337.045    
     47800   95.6           296.13614      34.412461     -3828.918       14879.24     
     47900   95.8           300.48179      34.917448     -3827.2929      16398.552    
     48000   96             304.15183      35.343924     -3826.5726      15615.546    
     48100   96.2           306.14216      35.57521      -3828.2473      14817.717    
     48200   96.4           287.59344      33.419758     -3830.1442      16049.378    
     48300   96.6           290.97937      33.81322      -3829.7382      15350.28     
     48400   96.8           309.56096      35.972492     -3828.262       15042.253    
     48500   97             289.33238      33.621832     -3827.0673      15156.736    
     48600   97.2           312.98201      36.370034     -3827.4788      14908.055    
     48700   97.4           301.59527      35.046839     -3828.2918      15751.514    
     48800   97.6           290.52908      33.760894     -3828.5416      15116.465    
     48900   97.8           302.41534      35.142135     -3828.8268      14632.297    
     49000   98             293.4277       34.097727     -3829.2491      16217.801    
     49100   98.2           296.58231      34.464308     -3829.0968      13867.153    
     49200   98.4           306.16628      35.578013     -3828.1218      15470.935    
     49300   98.6           305.29886      35.477214     -3826.6429      14103.752    
     49400   98.8           316.51473      36.780553     -3826.1238      16652.556    
     49500   99             288.91668      33.573526     -3828.6716      14404.815    
     49600   99.2           299.41759      34.793782     -3829.6646      15631.791    
     49700   99.4           286.71812      33.318043     -3828.9739      14576.923    
     49800   99.6           302.55183      35.157996     -3827.708       14254.897    
     49900   99.8           305.62246      35.514818     -3826.9554      14234.992    
     50000   100            300.13754      34.877444     -3827.9023      14848.758    
     50100   100.2          289.12956      33.598263     -3829.9125      15392.418    
     50200   100.4          293.51631      34.108025     -3830.0405      14297.034    
     50300   100.6          291.02593      33.818631     -3828.3689      14711.737    
     50400   100.8          307.13798      35.690929     -3827.0658      15571.949    
     50500   101            306.07226      35.567087     -3827.485       14157.215    
     50600   101.2          307.71605      35.758104     -3828.5271      15718.714    
     50700   101.4          306.48201      35.614702     -3828.9619      15501.48     
     50800   101.6          303.77615      35.300268     -3828.8194      14867.342    
     50900   101.8          304.01256      35.327741     -3828.6514      16285.117    
     51000   102            302.8574       35.193505     -3828.4345      15002.77     
     51100   102.2          299.1416       34.761711     -3828.1216      15124.756    
     51200   102.4          303.46095      35.263641     -3827.4889      14839.652    
     51300   102.6          293.75653      34.13594      -3827.1851      14975.7      
     51400   102.8          315.31898      36.641601     -3828.0123      14109.605    
     51500   103            303.09895      35.221574     -3829.4614      15095.659    
     51600   103.2          279.10125      32.432925     -3830.3266      13815.418    
     51700   103.4          290.5649       33.765056     -3828.7432      14355.858    
     51800   103.6          304.44937      35.378499     -3826.598       15479.385    
     51900   103.8          304.4686       35.380734     -3826.7783      13437.089    
     52000   104            302.24499      35.12234      -3828.3584      16254.607    
     52100   104.2          307.27202      35.706506     -3829.2639      16362.865    
     52200   104.4          297.21139      34.537411     -3829.1201      13181.165    
     52300   104.6          310.46528      36.077577     -3828.47        15551.262    
     52400   104.8          303.22843      35.23662      -3828.0837      14253.663    
     52500   105            304.56773      35.392254     -3828.0891      14232.613    
     52600   105.2          298.39827      34.675332     -3828.5185      14256.775    
     52700   105.4          296.03432      34.400629     -3829.0005      14408.31     
     52800   105.6          291.51027      33.874913     -3829.3996      14967.728    
     52900   105.8          308.98489      35.90555      -3828.6207      16275.776    
     53000   106            306.63255      35.632196     -3826.691       14658.612    
     53100   106.2          310.3787       36.067516     -3826.1407      16172.618    
     53200   106.4          306.34538      35.598825     -3827.5525      14752.319    
     53300   106.6          303.64564      35.285102     -3828.7158      16133.913    
     53400   106.8          297.54622      34.57632      -3828.9857      15077.627    
     53500   107            302.21661      35.119043     -3828.6149      15985.895    
     53600   107.2          292.36586      33.974337     -3827.7102      15971.092    
     53700   107.4          316.53066      36.782404     -3825.6478      15304.647    
     53800   107.6          314.01019      36.489514     -3825.7734      14911.634    
     53900   107.8          306.57983      35.626069     -3828.6419      15221.661    
     54000   108            297.00646      34.513597     -3829.1255      14362.281    
     54100   108.2          294.82423      34.260012     -3828.6228      15328.022    
     54200   108.4          307.60341      35.745014     -3827.3461      14559.573    
     54300   108.6          313.31618      36.408866     -3826.2732      15643.086    
     54400   108.8          304.10973      35.339032     -3826.6866      17094.831    
     54500   109            293.13155      34.063314     -3829.3117      12534.651    
     54600   109.2          290.78695      33.79086      -3829.8189      16070.321    
     54700   109.4          303.97098      35.322908     -3828.6303      15678.631    
     54800   109.6          302.60722      35.164433     -3827.2342      14315.811    
     54900   109.8          297.80562      34.606463     -3826.9632      16639.582    
     55000   110            291.75903      33.90382      -3829.5063      14277.009    
     55100   110.2          288.93672      33.575854     -3830.9734      15046.149    
     55200   110.4          295.74299      34.366776     -3829.5954      14140.126    
     55300   110.6          303.6043       35.280298     -3827.7318      15534.614    
     55400   110.8          302.94127      35.203252     -3827.3348      14724.443    
     55500   111            294.9961       34.279983     -3827.8865      15774.183    
     55600   111.2          282.8092       32.863806     -3830.2799      14412.352    
     55700   111.4          291.39171      33.861136     -3830.6078      15243.799    
     55800   111.6          299.85895      34.84507      -3829.4239      16170.367    
     55900   111.8          302.87984      35.196113     -3828.515       15100.341    
     56000   112            303.22271      35.235956     -3827.9766      15635.22     
     56100   112.2          304.63742      35.400352     -3827.5401      14915.831    
     56200   112.4          303.22827      35.236601     -3828.0621      16835.622    
     56300   112.6          291.73722      33.901285     -3830.3891      14740.771    
     56400   112.8          290.50709      33.758339     -3830.5805      15176.399    
     56500   113            303.52738      35.27136      -3828.5501      15929.718    
     56600   113.2          299.35165      34.78612      -3827.632       14870.429    
     56700   113.4          310.03983      36.028138     -3827.589       15894.677    
     56800   113.6          297.23796      34.540499     -3828.8444      14355.358    
     56900   113.8          289.8067       33.67695      -3831.117       15527.5      
     57000   114            295.77651      34.370671     -3830.9286      15740.301    
     57100   114.2          287.52993      33.412378     -3829.6521      14542.904    
     57200   114.4          293.95784      34.159333     -3828.7549      14720.986    
     57300   114.6          300.69381      34.942085     -3827.6031      16211.928    
     57400   114.8          295.16755      34.299907     -3827.0269      14822.927    
     57500   115            307.04049      35.6796       -3826.9503      15771.323    
     57600   115.2          300.30602      34.897022     -3828.8401      14590.769    
     57700   115.4          285.78179      33.209235     -3829.9607      14788.686    
     57800   115.6          294.96401      34.276255     -3829.5006      15360.497    
     57900   115.8          302.33173      35.13242      -3826.9742      16114.749    
     58000   116            312.66301      36.332964     -3826.4783      15251.744    
     58100   116.2          312.33725      36.29511      -3827.4639      15385.298    
     58200   116.4          303.71764      35.293469     -3828.7257      15092.965    
     58300   116.6          292.99598      34.04756      -3829.1773      15514.936    
     58400   116.8          302.61869      35.165765     -3828.7498      16177.573    
     58500   117            291.44215      33.866997     -3828.3051      14478.078    
     58600   117.2          299.77951      34.83584      -3828.1131      16302.169    
     58700   117.4          298.09654      34.64027      -3828.4075      14637.43     
     58800   117.6          290.53986      33.762147     -3829.6595      15681.936    
     58900   117.8          290.55141      33.763489     -3831.575       14135.771    
     59000   118            298.47077      34.683757     -3831.1212      14161.39     
     59100   118.2          296.2764       34.42876      -3828.6779      14668.556    
     59200   118.4          310.08263      36.033112     -3827.9214      14586.987    
     59300   118.6          303.46649      35.264284     -3827.7504      14927.296    
     59400   118.8          303.18171      35.231191     -3828.4148      15105.273    
     59500   119            293.77301      34.137855     -3829.797       15007.928    
     59600   119.2          292.16813      33.951359     -3830.6922      14769.711    
     59700   119.4          296.83711      34.493918     -3829.1523      15209.714    
     59800   119.6          302.53476      35.156013     -3827.1695      15840.149    
     59900   119.8          300.09479      34.872476     -3827.0483      14036.209    
     60000   120            302.3675       35.136576     -3827.8098      13936.617    
     60100   120.2          288.30162      33.502053     -3829.8682      15949.66     
     60200   120.4          296.41014      34.444302     -3830.7905      13467.894    
     60300   120.6          303.49464      35.267556     -3829.6862      15783.622    
     60400   120.8          297.12553      34.527433     -3828.881       14697.651    
     60500   121            307.15082      35.692421     -3828.1946      14829.027    
     60600   121.2          295.01903      34.282648     -3827.6261      16820.211    
     60700   121.4          314.48158      36.544291     -3826.8875      14289.277    
     60800   121.6          307.08791      35.685111     -3826.4557      15604.36     
     60900   121.8          297.2085       34.537076     -3827.8469      15048.744    
     61000   122            298.26194      34.65949      -3829.522       15514.889    
     61100   122.2          287.33812      33.390089     -3829.9003      14764.861    
     61200   122.4          315.91531      36.710897     -3828.482       16543.525    
     61300   122.6          294.89414      34.268136     -3826.3185      15901.735    
     61400   122.8          318.60787      37.023786     -3826.5536      15280.128    
     61500   123            303.99781      35.326026     -3827.7138      14791.95     
     61600   123.2          291.6597       33.892278     -3828.9017      16707.884    
     61700   123.4          291.76829      33.904896     -3829.3963      16185.352    
     61800   123.6          301.21165      35.002261     -3828.2665      16100.1      
     61900   123.8          306.18769      35.580501     -3825.7907      17284.491    
     62000   124            310.53479      36.085655     -3826.5239      17450.953    
     62100   124.2          304.82581      35.422244     -3828.2957      16311.201    
     62200   124.4          296.57367      34.463304     -3829.2268      16088.79     
     62300   124.6          304.83127      35.422879     -3828.9216      16969.533    
     62400   124.8          313.45258      36.424716     -3827.9556      16624.872    
     62500   125            310.69973      36.104821     -3825.9358      15951.413    
     62600   125.2          312.26916      36.287197     -3823.8363      16479.902    
     62700   125.4          311.17475      36.160021     -3825.0709      16176.384    
     62800   125.6          303.54447      35.273346     -3828.0168      16321.715    
     62900   125.8          303.11158      35.223042     -3829.1985      15436.087    
     63000   126            296.89855      34.501057     -3829.6354      15998.175    
     63100   126.2          287.14647      33.367819     -3829.0972      14638.086    
     63200   126.4          311.44777      36.191748     -3827.299       17132.032    
     63300   126.6          304.87251      35.427671     -3826.288       15812.814    
     63400   126.8          305.86126      35.542568     -3827.5082      15417.799    
     63500   127            293.60885      34.118778     -3829.8525      15317.771    
     63600   127.2          298.23918      34.656846     -3829.4419      14685.866    
     63700   127.4          301.26641      35.008624     -3828.1023      15526.176    
     63800   127.6          312.21437      36.280831     -3827.0185      16822.599    
     63900   127.8          297.17721      34.533439     -3827.2744      13198.921    
     64000   128            291.53172      33.877405     -3829.9806      16002.82     
     64100   128.2          297.47379      34.567903     -3830.4646      14469.505    
     64200   128.4          287.5905       33.419417     -3829.1215      16464.898    
     64300   128.6          308.25179      35.82036      -3827.7475      15308.77     
     64400   128.8          300.79407      34.953736     -3827.5819      16087.294    
     64500   129            302.27658      35.126011     -3827.9324      14577.573    
     64600   129.2          304.35396      35.367412     -3828.3857      16384.034    
     64700   129.4          306.40694      35.605978     -3828.5064      15388.751    
     64800   129.6          297.06119      34.519957     -3829.3048      14395.611    
     64900   129.8          290.58109      33.766938     -3829.4297      16824.256    
     65000   130            299.57843      34.812473     -3828.0585      14111.552    
     65100   130.2          308.03137      35.794745     -3826.6145      17780.202    
     65200   130.4          321.12162      37.315897     -3826.8296      15520.116    
     65300   130.6          294.5611       34.229434     -3829.0101      13795.93     
     65400   130.8          287.17927      33.371629     -3829.8738      15885.946    
     65500   131            294.45803      34.217457     -3829.175       15195.261    
     65600   131.2          300.52797      34.922814     -3828.1898      14120.517    
     65700   131.4          299.57027      34.811524     -3827.6266      16601.833    
     65800   131.6          301.71859      35.06117      -3827.5792      15244.004    
     65900   131.8          288.94997      33.577393     -3829.4714      13771.598    
     66000   132            283.72438      32.970154     -3830.7684      16221.976    
     66100   132.2          299.55211      34.809414     -3829.5401      15911.151    
     66200   132.4          308.999        35.907188     -3827.847       15590.563    
     66300   132.6          298.49915      34.687055     -3827.5279      15689.631    
     66400   132.8          298.85362      34.728247     -3827.7498      13530.648    
     66500   133            297.1665       34.532195     -3828.7715      16672.21     
     66600   133.2          288.13411      33.482587     -3831.2871      14400.803    
     66700   133.4          283.91699      32.992537     -3830.96        15182.335    
     66800   133.6          295.95007      34.390839     -3829.5321      15388.89     
     66900   133.8          299.75438      34.832919     -3828.3526      13607.392    
     67000   134            297.37576      34.556512     -3827.7197      15068.527    
     67100   134.2          308.2329       35.818164     -3827.0633      15309.912    
     67200   134.4          308.18551      35.812657     -3827.0311      14683.252    
     67300   134.6          301.83951      35.075221     -3828.6663      14684.289    
     67400   134.8          285.25709      33.148264     -3829.6743      15537.905    
     67500   135            288.59268      33.535874     -3829.1484      14983.824    
     67600   135.2          308.10347      35.803123     -3826.8652      15642.672    
     67700   135.4          298.10062      34.640744     -3826.2532      15403.916    
     67800   135.6          318.02026      36.955503     -3827.0841      15109.358    
     67900   135.8          305.88861      35.545746     -3828.1455      15009.447    
     68000   136            302.84521      35.192088     -3828.5618      17492.077    
     68100   136.2          295.06449      34.287931     -3828.58        15534.091    
     68200   136.4          297.50064      34.571024     -3828.0133      16663.529    
     68300   136.6          311.01866      36.141883     -3826.161       14672.104    
     68400   136.8          297.2164       34.537994     -3825.946       15335.843    
     68500   137            305.05608      35.449002     -3828.2535      14463.337    
     68600   137.2          307.50042      35.733047     -3829.2161      15673.952    
     68700   137.4          308.47933      35.846801     -3829.1596      14086.686    
     68800   137.6          308.75879      35.879275     -3828.1722      14772.37     
     68900   137.8          309.7334       35.99253      -3826.2509      14990.269    
     69000   138            312.42329      36.305107     -3825.5983      13503.388    
     69100   138.2          299.34059      34.784835     -3828.4278      16057.817    
     69200   138.4          301.82573      35.07362      -3829.7314      16365.497    
     69300   138.6          303.88758      35.313217     -3829.4305      14406.188    
     69400   138.8          300.85943      34.961331     -3827.9125      16117.438    
     69500   139            302.2211       35.119563     -3826.6561      14753.055    
     69600   139.2          304.04747      35.331797     -3827.046       15337.247    
     69700   139.4          281.0072       32.654405     -3830.1448      15990.424    
     69800   139.6          281.66907      32.731318     -3830.48        15156.526    
     69900   139.8          286.81141      33.328883     -3828.9968      15284.67     
     70000   140            290.15303      33.717195     -3827.6949      15000.512    
     70100   140.2          302.64349      35.168648     -3827.492       15603.233    
     70200   140.4          302.27385      35.125694     -3828.8813      15655.35     
     70300   140.6          290.41965      33.748178     -3831.1341      15666.611    
     70400   140.8          290.55439      33.763836     -3830.6993      15394.928    
     70500   141            295.85537      34.379835     -3829.2946      15596.149    
     70600   141.2          294.53211      34.226065     -3828.292       16589.176    
     70700   141.4          303.75981      35.298369     -3827.7157      15470.293    
     70800   141.6          303.84791      35.308607     -3827.3285      16451.312    
     70900   141.8          304.15319      35.344082     -3827.188       15481.215    
     71000   142            300.4524       34.914032     -3827.8944      15169.04     
     71100   142.2          292.77108      34.021426     -3829.1281      15420.78     
     71200   142.4          299.6511       34.820918     -3829.7269      16546.715    
     71300   142.6          295.95554      34.391476     -3829.1014      14923.75     
     71400   142.8          303.96969      35.322759     -3826.7141      17183.835    
     71500   143            315.55153      36.668625     -3826.5409      16128.923    
     71600   143.2          302.22725      35.120279     -3827.8701      14602.692    
     71700   143.4          301.45954      35.031067     -3829.0122      17209.317    
     71800   143.6          301.82118      35.073091     -3829.0128      15661.357    
     71900   143.8          300.44364      34.913014     -3828.7533      14923.338    
     72000   144            298.86825      34.729946     -3828.3007      16520.517    
     72100   144.2          304.36994      35.369269     -3827.3425      16209.224    
     72200   144.4          303.82879      35.306385     -3825.5954      15793.814    
     72300   144.6          315.33615      36.643597     -3825.4481      16519.946    
     72400   144.8          308.82697      35.887198     -3827.8991      16473.488    
     72500   145            293.70245      34.129655     -3828.8773      15367.591    
     72600   145.2          309.58912      35.975764     -3828.8334      16628        
     72700   145.4          306.4422       35.610077     -3827.7263      15498.14     
     72800   145.6          315.69097      36.684828     -3825.8681      16903.635    
     72900   145.8          321.41108      37.349533     -3825.4545      16359.877    
     73000   146            291.69755      33.896676     -3828.4142      16478.661    
     73100   146.2          298.30111      34.664042     -3829.1253      14918.821    
     73200   146.4          303.68459      35.289628     -3828.9748      15820.822    
     73300   146.6          302.40291      35.140691     -3828.0494      15710.799    
     73400   146.8          316.32567      36.758584     -3826.2699      16714.697    
     73500   147            300.6777       34.940213     -3826.4093      15964.931    
     73600   147.2          298.56489      34.694694     -3829.3556      15262.92     
     73700   147.4          291.86262      33.915858     -3829.7904      16789.167    
     73800   147.6          300.29121      34.895301     -3828.8167      16373.016    
     73900   147.8          302.35942      35.135638     -3827.2305      16232.213    
     74000   148            303.91238      35.316099     -3827.219       18053.934    
     74100   148.2          288.78918      33.558709     -3829.1427      15534.869    
     74200   148.4          298.37009      34.672057     -3830.6885      15982.984    
     74300   148.6          286.94363      33.344248     -3829.68        15990.861    
     74400   148.8          297.70253      34.594484     -3828.4374      16677.823    
     74500   149            309.33669      35.94643      -3827.4875      17022.92     
     74600   149.2          302.44498      35.14558      -3827.6516      15937.216    
     74700   149.4          303.43919      35.261111     -3828.7744      16491.383    
     74800   149.6          300.66088      34.938259     -3831.5446      15862.894    
     74900   149.8          289.03342      33.587091     -3831.0074      15315.364    
     75000   150            290.817        33.794351     -3829.2499      16485.814    
     75100   150.2          306.25829      35.588705     -3828.1067      15285.863    
     75200   150.4          311.30513      36.175172     -3827.8318      16651.021    
     75300   150.6          303.11609      35.223566     -3828.2248      15378.023    
     75400   150.8          292.21099      33.956341     -3829.6553      14622.173    
     75500   151            293.99878      34.16409      -3830.7321      15415.398    
     75600   151.2          293.29561      34.082378     -3829.3907      15257.4      
     75700   151.4          298.08523      34.638956     -3827.4222      14296.999    
     75800   151.6          300.67393      34.939776     -3827.3576      16616.119    
     75900   151.8          294.4256       34.213689     -3828.1175      15286.611    
     76000   152            289.79426      33.675504     -3829.4009      15225.075    
     76100   152.2          281.69736      32.734606     -3830.81        16169.944    
     76200   152.4          285.34411      33.158376     -3832.4668      14744.394    
     76300   152.6          286.1716       33.254533     -3831.0097      15230.361    
     76400   152.8          304.08371      35.336008     -3828.7961      15137.08     
     76500   153            289.13384      33.59876      -3827.737       15991.619    
     76600   153.2          306.57996      35.626085     -3827.1114      16472.977    
     76700   153.4          310.6305       36.096777     -3827.6556      16323.465    
     76800   153.6          289.28624      33.61647      -3829.5712      15500.541    
     76900   153.8          289.52088      33.643737     -3830.1785      15618.059    
     77000   154            306.08089      35.568091     -3828.3635      16198.301    
     77100   154.2          302.85807      35.193583     -3826.364       14556.741    
     77200   154.4          298.69066      34.709309     -3826.7006      17041.567    
     77300   154.6          293.69558      34.128857     -3828.0739      14981.261    
     77400   154.8          299.08693      34.755358     -3829.045       15870.572    
     77500   155            304.02879      35.329626     -3829.0099      15267.523    
     77600   155.2          311.85959      36.239604     -3826.7607      15355.964    
     77700   155.4          314.13093      36.503543     -3825.6301      15967.643    
     77800   155.6          321.15517      37.319795     -3826.9898      15666.81     
     77900   155.8          303.48851      35.266843     -3828.5351      15576.567    
     78000   156            304.19505      35.348946     -3828.5625      14289.179    
     78100   156.2          301.21029      35.002103     -3827.9777      15270.483    
     78200   156.4          298.82631      34.725073     -3826.6329      15872.761    
     78300   156.6          320.3699       37.228542     -3824.5426      17147.444    
     78400   156.8          305.53233      35.504345     -3825.3476      15746.295    
     78500   157            309.38864      35.952467     -3827.5851      16547.637    
     78600   157.2          292.52083      33.992346     -3828.1383      15532.484    
     78700   157.4          304.06902      35.334301     -3828.4095      15014.17     
     78800   157.6          294.0414       34.169043     -3828.735       15424.821    
     78900   157.8          303.13301      35.225532     -3828.5658      16490.612    
     79000   158            304.78622      35.417643     -3827.9976      13028.791    
     79100   158.2          301.27208      35.009283     -3826.9542      17078.412    
     79200   158.4          311.40553      36.186839     -3826.5082      14721.323    
     79300   158.6          311.82643      36.23575      -3827.9219      14849.272    
     79400   158.8          290.22366      33.725403     -3829.6368      15569.178    
     79500   159            290.93371      33.807914     -3829.4479      14816.158    
     79600   159.2          308.15225      35.808793     -3827.7784      15788.697    
     79700   159.4          309.26905      35.93857      -3826.9969      15016.623    
     79800   159.6          312.20435      36.279666     -3827.4413      16658.978    
     79900   159.8          295.00203      34.280672     -3828.1239      15911.427    
     80000   160            297.27228      34.544486     -3829.0234      16045.48     
     80100   160.2          287.66649      33.428247     -3830.7266      14717.876    
     80200   160.4          275.29236      31.990312     -3831.6971      15907.958    
     80300   160.6          304.51069      35.385625     -3829.1583      15731.935    
     80400   160.8          294.20511      34.188067     -3827.6841      14762.69     
     80500   161            301.0435       34.982721     -3827.4058      15649.115    
     80600   161.2          296.7739       34.486572     -3828.1879      13409.37     
     80700   161.4          296.23919      34.424436     -3829.5501      16449.674    
     80800   161.6          286.29033      33.268331     -3830.1119      15622.218    
     80900   161.8          293.8516       34.146987     -3828.6644      14234.941    
     81000   162            299.83603      34.842408     -3826.7012      16041.754    
     81100   162.2          303.62276      35.282444     -3826.7847      15632.14     
     81200   162.4          301.47102      35.032401     -3828.5738      14111.793    
     81300   162.6          289.11922      33.597061     -3829.5105      16820.503    
     81400   162.8          287.22492      33.376935     -3829.2465      14210.229    
     81500   163            305.67419      35.52083      -3828.537       14786.142    
     81600   163.2          299.6501       34.820801     -3827.8595      16100.295    
     81700   163.4          292.10858      33.944439     -3827.3413      15057.816    
     81800   163.6          311.03304      36.143554     -3825.5614      16060.603    
     81900   163.8          325.95229      37.877243     -3825.6659      16178.738    
     82000   164            287.36016      33.39265      -3827.9239      14376.294    
     82100   164.2          302.00902      35.094919     -3829.0307      16063.321    
     82200   164.4          289.71677      33.6665       -3829.2717      14876.058    
     82300   164.6          294.26117      34.194582     -3828.0508      15813.25     
     82400   164.8          305.62763      35.515419     -3825.7332      17239.34     
     82500   165            311.57192      36.206174     -3826.2037      13469.657    
     82600   165.2          304.81938      35.421497     -3827.2594      15114.383    
     82700   165.4          292.4132       33.979838     -3828.2614      16116.157    
     82800   165.6          293.52148      34.108625     -3828.8992      15003.62     
     82900   165.8          296.46632      34.45083      -3828.9426      15915.975    
     83000   166            310.22165      36.049267     -3827.3143      15648.302    
     83100   166.2          313.57564      36.439017     -3825.4245      16059.585    
     83200   166.4          310.71726      36.106858     -3826.7014      14993.694    
     83300   166.6          297.76416      34.601646     -3828.4482      15562.833    
     83400   166.8          302.90015      35.198473     -3828.798       15098.685    
     83500   167            308.62995      35.864303     -3828.5449      14845.717    
     83600   167.2          305.99428      35.558025     -3826.979       14686.15     
     83700   167.4          312.56727      36.321839     -3825.1813      14731.161    
     83800   167.6          313.67684      36.450776     -3826.3152      15021.92     
     83900   167.8          292.95317      34.042585     -3828.0789      14850.615    
     84000   168            297.88805      34.616042     -3828.3957      15561.388    
     84100   168.2          294.54645      34.227732     -3828.6894      15260.777    
     84200   168.4          302.2886       35.127408     -3828.515       15769.88     
     84300   168.6          308.71359      35.874023     -3827.5413      16160.614    
     84400   168.8          315.28074      36.637157     -3826.2813      15006.051    
     84500   169            303.41359      35.258137     -3826.9723      15235.891    
     84600   169.2          293.35767      34.089591     -3829.4678      16144.547    
     84700   169.4          300.13097      34.876681     -3829.6658      14963.643    
     84800   169.6          298.15707      34.647303     -3828.8818      15668.767    
     84900   169.8          311.93483      36.248346     -3827.2527      15983.514    
     85000   170            301.8461       35.075987     -3826.1969      14529.062    
     85100   170.2          295.45428      34.333227     -3828.4797      16610.188    
[...]
    478600   957.2          291.5138       33.875323     -3829.7014      16151.859    
    478700   957.4          296.33085      34.435089     -3829.4051      15409.216    
    478800   957.6          301.36127      35.019647     -3828.741       14864.358    
    478900   957.8          307.47363      35.729933     -3828.0305      16616.565    
    479000   958            319.57669      37.136368     -3826.9929      14122.384    
    479100   958.2          321.91343      37.407908     -3825.2039      14901.615    
    479200   958.4          308.3211       35.828414     -3825.8781      17622.889    
    479300   958.6          298.28144      34.661756     -3828.1891      14947.117    
    479400   958.8          294.10455      34.176382     -3828.8587      16325.512    
    479500   959            304.34591      35.366477     -3828.356       16941.739    
    479600   959.2          309.73209      35.992377     -3827.3464      17333.829    
    479700   959.4          312.82705      36.352027     -3826.2144      15890.582    
    479800   959.6          304.81806      35.421343     -3825.8304      17671.079    
    479900   959.8          303.27472      35.241999     -3827.8975      15500.486    
    480000   960            309.061        35.914393     -3829.3285      16676.219    
    480100   960.2          287.82008      33.446095     -3829.391       16598.966    
    480200   960.4          297.56524      34.578531     -3828.3006      16215.422    
    480300   960.6          306.07278      35.567148     -3826.1352      16236.313    
    480400   960.8          318.3047       36.988556     -3825.2567      16795.949    
    480500   961            311.85558      36.239137     -3827.3091      15578.62     
    480600   961.2          309.9846       36.021721     -3828.1112      16332.378    
    480700   961.4          292.53691      33.994214     -3828.5775      16278.417    
    480800   961.6          286.61293      33.305818     -3829.2736      15648.792    
    480900   961.8          294.24012      34.192135     -3828.8806      15322.111    
    481000   962            305.37381      35.485924     -3827.5212      16243.26     
    481100   962.2          303.60249      35.280088     -3826.1408      14857.305    
    481200   962.4          316.29063      36.754512     -3826.6398      15541.283    
    481300   962.6          291.27069      33.847073     -3829.5521      15419.662    
    481400   962.8          287.16413      33.36987      -3829.5479      14913.147    
    481500   963            284.6852       33.081807     -3828.6097      16351.547    
    481600   963.2          310.41902      36.072202     -3826.8951      15349.997    
    481700   963.4          302.08088      35.10327      -3826.8131      15860.641    
    481800   963.6          304.82095      35.42168      -3828.9158      14662.846    
    481900   963.8          296.43493      34.447182     -3830.517       16049.605    
    482000   964            291.23851      33.843334     -3829.6297      14735.399    
    482100   964.2          298.01765      34.631102     -3828.2187      15849.531    
    482200   964.4          312.42447      36.305245     -3827.0967      14843.755    
    482300   964.6          306.19836      35.581741     -3827.3039      17038.128    
    482400   964.8          287.73717      33.43646      -3830.0164      16243.845    
    482500   965            288.07965      33.476258     -3830.7481      15321.478    
    482600   965.2          303.94441      35.319821     -3829.5743      15740.411    
    482700   965.4          304.53818      35.38882      -3828.2522      16024.791    
    482800   965.6          303.66454      35.287299     -3827.964       14176.941    
    482900   965.8          308.19215      35.813429     -3828.2336      15422.779    
    483000   966            285.98865      33.233274     -3828.781       13609.339    
    483100   966.2          301.92429      35.085073     -3828.6961      16104.444    
    483200   966.4          301.3253       35.015467     -3828.581       14515.118    
    483300   966.6          299.73084      34.830184     -3828.4853      15689.272    
    483400   966.8          287.18776      33.372616     -3829.0483      15243.545    
    483500   967            300.63645      34.93542      -3829.6325      15053.594    
    483600   967.2          294.91718      34.270812     -3829.6207      15015.987    
    483700   967.4          303.76329      35.298774     -3828.1565      14977.676    
    483800   967.6          308.50179      35.849411     -3826.8018      14486.098    
    483900   967.8          301.41106      35.025433     -3827.3144      15427.481    
    484000   968            292.80379      34.025227     -3829.9388      15750.259    
    484100   968.2          292.7294       34.016581     -3830.6716      15442.991    
    484200   968.4          293.73319      34.133227     -3829.5449      15128.259    
    484300   968.6          304.99622      35.442047     -3828.2214      15689.881    
    484400   968.8          298.41003      34.676698     -3827.617       15748.811    
    484500   969            312.65352      36.331862     -3828.1291      15284.873    
    484600   969.2          309.61949      35.979293     -3830.933       15810.226    
    484700   969.4          291.17256      33.835669     -3830.7667      15902.309    
    484800   969.6          304.44628      35.37814      -3829.298       15191.568    
    484900   969.8          299.07285      34.753721     -3828.3237      17659.828    
    485000   970            298.64457      34.703954     -3827.9518      15853.757    
    485100   970.2          285.20728      33.142475     -3828.3469      15615.635    
    485200   970.4          300.74361      34.947872     -3829.5698      16457.108    
    485300   970.6          275.94989      32.066721     -3832.5683      15520.375    
    485400   970.8          287.89262      33.454525     -3831.589       15010.542    
    485500   971            294.26119      34.194583     -3829.4343      17360.632    
    485600   971.2          307.9607       35.786533     -3828.0723      14290.565    
    485700   971.4          306.17257      35.578743     -3827.5744      16080.615    
    485800   971.6          301.07701      34.986615     -3827.6012      17450.98     
    485900   971.8          283.42736      32.93564      -3829.3911      13609.069    
    486000   972            295.36385      34.322718     -3830.7237      16788.065    
    486100   972.2          287.45484      33.403652     -3829.9893      16277.485    
    486200   972.4          293.45034      34.100358     -3828.2712      14838.888    
    486300   972.6          310.71077      36.106104     -3827.8129      16092.872    
    486400   972.8          301.13907      34.993827     -3828.3411      16553.241    
    486500   973            304.99396      35.441784     -3829.2257      14491.715    
    486600   973.2          295.93595      34.389198     -3829.9799      14517.702    
    486700   973.4          294.33847      34.203564     -3830.4609      16532.489    
    486800   973.6          287.11771      33.364476     -3829.963       13219.923    
    486900   973.8          296.54849      34.460379     -3828.148       14970.305    
    487000   974            307.54749      35.738516     -3827.1565      15296.81     
    487100   974.2          303.686        35.289793     -3828.0438      14940.474    
    487200   974.4          282.78577      32.861083     -3830.3704      16276.284    
    487300   974.6          294.90605      34.269519     -3830.5815      14876.864    
    487400   974.8          289.05256      33.589315     -3829.6732      15087.308    
    487500   975            298.41721      34.677533     -3828.4167      14376.651    
    487600   975.2          306.11879      35.572494     -3827.7498      15620.892    
    487700   975.4          301.60329      35.047771     -3828.2085      14680.459    
    487800   975.6          286.04596      33.239934     -3830.922       14964.103    
    487900   975.8          287.20782      33.374947     -3830.9557      14877.496    
    488000   976            292.84568      34.030095     -3829.2352      15233.405    
    488100   976.2          312.19338      36.278392     -3827.7728      15097.257    
    488200   976.4          312.90103      36.360623     -3827.7319      14838.54     
    488300   976.6          308.28006      35.823644     -3828.514       16771.745    
    488400   976.8          297.09541      34.523934     -3830.2093      15122.731    
    488500   977            282.64678      32.844932     -3832.2641      15544.132    
    488600   977.2          280.14347      32.554035     -3831.9234      15989.306    
    488700   977.4          293.55682      34.112733     -3828.7593      16095.637    
    488800   977.6          306.44502      35.610403     -3827.8834      15716.394    
    488900   977.8          295.9363       34.389239     -3827.869       16632.909    
    489000   978            298.29489      34.663319     -3828.3603      15352.735    
    489100   978.2          298.24898      34.657984     -3829.8072      15716.764    
    489200   978.4          298.63686      34.703057     -3830.9435      14085.795    
    489300   978.6          290.32931      33.73768      -3830.0953      14946.812    
    489400   978.8          305.42573      35.491957     -3827.4841      15106.919    
    489500   979            304.77125      35.415904     -3827.337       15262.946    
    489600   979.2          295.68393      34.359912     -3828.7145      15751.909    
    489700   979.4          290.77801      33.789821     -3829.9504      16257.946    
    489800   979.6          285.97089      33.231211     -3829.5572      15000.571    
    489900   979.8          300.69911      34.942701     -3827.1543      15065.8      
    490000   980            311.07786      36.148762     -3825.7143      17303.844    
    490100   980.2          309.09006      35.917771     -3827.295       14175.342    
    490200   980.4          296.31735      34.43352      -3829.1067      16838.83     
    490300   980.6          288.6454       33.542002     -3829.8931      14892.306    
    490400   980.8          288.01984      33.469308     -3829.6446      16273.461    
    490500   981            308.39493      35.836993     -3827.6581      17084.175    
    490600   981.2          310.55826      36.088382     -3826.2154      15667.33     
    490700   981.4          301.64392      35.052492     -3826.9197      17727.265    
    490800   981.6          306.87637      35.660529     -3828.1567      15014.052    
    490900   981.8          296.46926      34.451172     -3828.9432      16160.432    
    491000   982            296.94343      34.506273     -3829.6553      16042.903    
    491100   982.2          287.52418      33.41171      -3830.4101      15506.783    
    491200   982.4          283.07386      32.894562     -3831.6349      14042.62     
    491300   982.6          295.18964      34.302474     -3830.9213      17033.044    
    491400   982.8          295.1184       34.294195     -3828.7402      15640.911    
    491500   983            300.07961      34.870712     -3827.9912      17080.461    
    491600   983.2          301.02794      34.980913     -3828.4487      15944.785    
    491700   983.4          295.76896      34.369793     -3830.2623      14970.276    
    491800   983.6          291.88651      33.918634     -3831.8737      16159.757    
    491900   983.8          294.89039      34.267699     -3831.2438      15603.435    
    492000   984            294.90823      34.269772     -3830.2393      15735.111    
    492100   984.2          306.03684      35.562971     -3829.1285      16070.619    
    492200   984.4          303.09538      35.22116      -3828.1703      15949.049    
    492300   984.6          315.95844      36.71591      -3827.9185      12875.695    
    492400   984.8          299.19097      34.767448     -3829.2486      17899.568    
    492500   985            305.37777      35.486384     -3831.0077      13712.189    
    492600   985.2          281.63102      32.726896     -3830.8215      15825.113    
    492700   985.4          306.22639      35.584998     -3828.6043      16562.082    
    492800   985.6          306.64277      35.633383     -3828.2236      14436.294    
    492900   985.8          313.41751      36.420642     -3828.56        15890.448    
    493000   986            297.01273      34.514325     -3829.5976      15188.405    
    493100   986.2          287.67471      33.429202     -3831.5935      14581.436    
    493200   986.4          286.99684      33.35043      -3832.4451      16605.985    
    493300   986.6          300.9248       34.968927     -3829.6715      15112.697    
    493400   986.8          308.37893      35.835134     -3828.6449      15406.117    
    493500   987            302.09219      35.104583     -3828.4265      15857.171    
    493600   987.2          298.54397      34.692263     -3828.7359      14584.219    
    493700   987.4          300.40107      34.908067     -3829.599       15399.057    
    493800   987.6          287.40678      33.398067     -3830.8684      14821.727    
    493900   987.8          293.8234       34.14371      -3831.3808      15442.725    
    494000   988            303.43372      35.260476     -3829.4294      15709.143    
    494100   988.2          309.30225      35.942428     -3827.85        15959.895    
    494200   988.4          312.7484       36.342887     -3827.9098      15112.265    
    494300   988.6          298.01041      34.630261     -3829.6028      14796.874    
    494400   988.8          290.64389      33.774236     -3830.711       15486.885    
    494500   989            291.65747      33.892019     -3830.2957      15172.243    
    494600   989.2          288.11268      33.480096     -3829.356       16588.104    
    494700   989.4          303.28164      35.242804     -3828.4304      15300.978    
    494800   989.6          302.02452      35.09672      -3828.2314      15863.077    
    494900   989.8          295.9683       34.392958     -3829.3896      15838.284    
    495000   990            284.84913      33.100856     -3831.1487      16727.459    
    495100   990.2          297.01591      34.514696     -3830.8844      15835.136    
    495200   990.4          295.45218      34.332982     -3828.8064      16151.856    
    495300   990.6          295.5494       34.344279     -3827.9507      16802.074    
    495400   990.8          305.56101      35.507677     -3828.3045      16100.468    
    495500   991            295.58975      34.348968     -3829.2189      15309.148    
    495600   991.2          285.08623      33.128408     -3830.3364      15526.463    
    495700   991.4          294.23953      34.192067     -3832.2796      16226.205    
    495800   991.6          289.43898      33.634219     -3831.5904      14916.353    
    495900   991.8          302.57987      35.161254     -3829.3536      16359.888    
    496000   992            301.82837      35.073927     -3829.0146      15418.592    
    496100   992.2          304.03574      35.330434     -3829.0387      15707.231    
    496200   992.4          306.89611      35.662823     -3829.2943      15636.756    
    496300   992.6          294.33024      34.202607     -3830.507       16012.706    
    496400   992.8          282.33281      32.808448     -3831.6842      14246.342    
    496500   993            286.54837      33.298317     -3830.8451      15982.65     
    496600   993.2          303.77395      35.300013     -3828.5078      17070.406    
    496700   993.4          305.79372      35.534719     -3828.2678      16315.36     
    496800   993.6          308.01228      35.792527     -3829.0229      15316.991    
    496900   993.8          288.0778       33.476043     -3830.3484      17555.396    
    497000   994            296.76226      34.48522      -3832.375       14381.027    
    497100   994.2          279.84358      32.519186     -3832.0682      16410.534    
    497200   994.4          297.88118      34.615243     -3829.0331      16236.818    
    497300   994.6          303.06027      35.217079     -3828.4865      14637.41     
    497400   994.8          293.3368       34.087165     -3828.5517      16577.968    
    497500   995            302.51645      35.153885     -3829.5124      16189.498    
    497600   995.2          297.3234       34.550428     -3830.5552      14367.254    
    497700   995.4          297.70444      34.594706     -3831.0431      14811.678    
    497800   995.6          300.79006      34.95327      -3829.4333      15272.56     
    497900   995.8          306.47291      35.613645     -3827.6821      14943.22     
    498000   996            308.91278      35.89717      -3827.94        15829.18     
    498100   996.2          299.17562      34.765664     -3829.4923      15475.971    
    498200   996.4          291.77677      33.905881     -3830.968       14694.376    
    498300   996.6          292.89598      34.03594      -3830.7288      15825.359    
    498400   996.8          316.78541      36.812007     -3827.3383      15446.221    
    498500   997            293.37607      34.091728     -3827.5823      15861.738    
    498600   997.2          298.24744      34.657806     -3829.1301      15733.616    
    498700   997.4          294.28884      34.197796     -3830.4662      15606.074    
    498800   997.6          297.13826      34.528913     -3830.6205      15139.633    
    498900   997.8          294.56253      34.2296       -3828.7261      15816.974    
    499000   998            317.08611      36.846951     -3827.1344      16123.444    
    499100   998.2          307.71149      35.757573     -3827.9328      14892.902    
    499200   998.4          285.04628      33.123766     -3829.4457      16628.054    
    499300   998.6          297.57879      34.580105     -3829.8667      15389.279    
    499400   998.8          308.59467      35.860204     -3829.2622      15494.234    
    499500   999            290.74212      33.78565      -3828.9534      17063.43     
    499600   999.2          295.71855      34.363936     -3828.866       15208.129    
    499700   999.4          295.80921      34.374471     -3829.1282      17071.44     
    499800   999.6          289.59974      33.6529       -3830.1717      14913.304    
    499900   999.8          291.37316      33.85898      -3832.2177      16309.371    
    500000   1000           289.88549      33.686106     -3832.1747      15123.774    
Loop time of 28361.8 on 1 procs for 500000 steps with 900 atoms

Performance: 3.046 ns/day, 7.878 hours/ns, 17.629 timesteps/s
60.5% CPU use with 1 MPI tasks x 1 OpenMP threads

MPI task timing breakdown:
Section |  min time  |  avg time  |  max time  |%varavg| %total
---------------------------------------------------------------
Pair    | 28067      | 28067      | 28067      |   0.0 | 98.96
Neigh   | 248.99     | 248.99     | 248.99     |   0.0 |  0.88
Comm    | 10.891     | 10.891     | 10.891     |   0.0 |  0.04
Output  | 11.689     | 11.689     | 11.689     |   0.0 |  0.04
Modify  | 19.225     | 19.225     | 19.225     |   0.0 |  0.07
Other   |            | 3.978      |            |       |  0.01

Nlocal:            900 ave         900 max         900 min
Histogram: 1 0 0 0 0 0 0 0 0 0
Nghost:           2484 ave        2484 max        2484 min
Histogram: 1 0 0 0 0 0 0 0 0 0
Neighs:              0 ave           0 max           0 min
Histogram: 1 0 0 0 0 0 0 0 0 0
FullNghs:        67044 ave       67044 max       67044 min
Histogram: 1 0 0 0 0 0 0 0 0 0

Total # of neighbors = 67044
Ave neighs/atom = 74.493333
Neighbor list builds = 50000
Dangerous builds not checked

Total wall time: 7:54:37
