ITEM: TIMESTEP
0
ITEM: NUMBER OF ATOMS
56
ITEM: BOX BOUNDS xy xz yz pp pp pp
-4.1943616867065430e+00 1.2206987559795380e+01 -4.7683715820312500e-07
-7.5370073318481445e-03 5.5339480042457581e+00 -4.1724734902381897e+00
-3.2569408416748047e-02 1.9052529454231262e+01 2.8610229492187500e-06
ITEM: ATOMS id type xs ys zs fx fy fz
1 1 0.594734 1 0.132369 0 0.00873017 -0.0164595
2 1 0.344734 0.166667 0.132369 0 -0.00873077 -0.0164587
3 1 0.280371 1 0.275226 0 0.00278485 0.000281453
4 1 0.0303713 0.166667 0.275226 0 -0.00278497 0.000281811
5 1 0.966009 5.00995e-07 0.418084 0 -0.00015533 0.000964165
6 1 0.0947343 1 0.132369 0 0.00873029 -0.0164589
7 1 0.00191596 0.5 0.0609408 0 2.54863 1.82093
8 1 0.844734 0.166667 0.132369 0 -0.00873077 -0.016458
9 1 0.751916 0.666667 0.0609408 0 -2.54863 1.82093
10 1 0.780371 1 0.275226 0 0.00278533 0.000281453
11 1 0.716009 0.166667 0.418084 0 0.000155807 0.000964642
12 1 0.651648 5.53965e-07 0.560941 0 -5.66244e-05 -0.000344157
13 1 0.401648 0.166667 0.560941 0 5.67436e-05 -0.000344276
14 1 0.337287 1.60387e-07 0.703798 0 -0.000445724 -0.00273097
15 1 0.0872867 0.166667 0.703798 0 0.000446081 -0.00273085
16 1 0.0229243 1 0.846655 0 0.002123 -0.0059185
17 1 0.687553 0.5 0.203798 0 0.00212288 0.00591862
18 1 0.530371 0.166667 0.275226 0 -0.00278497 0.000281811
19 1 0.437553 0.666667 0.203798 0 -0.00212276 0.00591874
20 1 0.466009 5.02326e-07 0.418084 0 -0.000155449 0.000964165
21 1 0.37319 0.5 0.346655 0 -0.000445962 0.00273097
22 1 0.216009 0.166667 0.418084 0 0.000155807 0.000964403
23 1 0.12319 0.666667 0.346655 0 0.000445724 0.00273073
24 1 0.151648 5.42012e-07 0.560941 0 -5.61476e-05 -0.000344515
25 1 0.0588288 0.500001 0.489512 0 -5.68628e-05 0.000344634
26 1 0.901648 0.166667 0.560941 0 5.68628e-05 -0.000345111
27 1 0.808829 0.666667 0.489512 0 5.6386e-05 0.000344634
28 1 0.501916 0.5 0.0609408 0 2.54862 1.82092
29 1 0.251916 0.666667 0.0609408 0 -2.54863 1.82093
30 1 0.187553 0.5 0.203798 0 0.00212348 0.00591862
31 1 0.937553 0.666667 0.203798 0 -0.00212276 0.00591874
32 1 0.87319 0.5 0.346655 0 -0.000445962 0.00273108
33 1 0.772924 0.166667 0.846655 0 -0.00212336 -0.0059185
34 1 0.708561 1 0.989512 0 2.54863 -1.82093
35 1 0.458561 0.166667 0.989512 0 -2.54862 -1.82092
36 1 0.837287 1.92026e-07 0.703798 0 -0.000445604 -0.00273085
37 1 0.744467 0.500001 0.632369 0 -0.000156045 -0.000964284
38 1 0.587287 0.166667 0.703798 0 0.0004462 -0.00273132
39 1 0.494467 0.666667 0.632369 0 0.00015533 -0.000964284
40 1 0.522924 1 0.846655 0 0.00212288 -0.00591838
41 1 0.430106 0.5 0.775226 0 0.00278533 -0.000281692
42 1 0.272924 0.166667 0.846655 0 -0.002123 -0.00591862
43 1 0.180106 0.666667 0.775226 0 -0.00278497 -0.000281692
44 1 0.208561 1 0.989512 0 2.54863 -1.82093
45 1 0.115743 0.5 0.918083 0 0.00873077 0.0164584
46 1 0.62319 0.666667 0.346655 0 0.000445485 0.00273073
47 1 0.558829 0.500001 0.489512 0 -5.66244e-05 0.000344396
48 1 0.308829 0.666667 0.489512 0 5.62668e-05 0.000344396
49 1 0.244467 0.5 0.632369 0 -0.000156045 -0.000964165
50 1 0.994467 0.666667 0.632369 0 0.00015533 -0.000964165
51 1 0.930106 0.5 0.775226 0 0.00278497 -0.000281811
52 1 0.958561 0.166667 0.989512 0 -2.54863 -1.82093
53 1 0.865743 0.666667 0.918083 0 -0.00873029 0.0164595
54 1 0.680106 0.666667 0.775226 0 -0.00278509 -0.000282168
55 1 0.615743 0.5 0.918083 0 0.00873053 0.0164589
56 1 0.365743 0.666667 0.918083 0 -0.00873041 0.0164591
ITEM: TIMESTEP
1
ITEM: NUMBER OF ATOMS
56
ITEM: BOX BOUNDS xy xz yz pp pp pp
-4.1943616867065430e+00 1.2206987559795380e+01 -4.7683715820312500e-07
-7.5370073318481445e-03 5.5339480042457581e+00 -4.1724734902381897e+00
-3.2569408416748047e-02 1.9052529454231262e+01 2.8610229492187500e-06
ITEM: ATOMS id type xs ys zs fx fy fz
1 1 0.594723 1.00006 0.132336 0 0.109992 -0.0157447
2 1 0.344723 0.166605 0.132336 0 -0.109992 -0.015744
3 1 0.280371 1.00002 0.275227 0 0.00265527 0.00471067
4 1 0.0303715 0.166647 0.275227 0 -0.00265586 0.00471127
5 1 0.96601 -5.98828e-07 0.418086 0 -0.000490904 -0.00117218
6 1 0.0947227 1.00006 0.132336 0 0.109992 -0.0157442
7 1 0.00319328 0.518045 0.0646844 0 1.10623 0.685652
8 1 0.844723 0.166605 0.132336 0 -0.109991 -0.0157439
9 1 0.753193 0.648622 0.0646844 0 -1.10623 0.685652
10 1 0.780371 1.00002 0.275227 0 0.00265551 0.00471103
11 1 0.71601 0.166668 0.418086 0 0.000491142 -0.00117195
12 1 0.651648 1.53033e-07 0.56094 0 2.14577e-05 -8.83341e-05
13 1 0.401648 0.166667 0.56094 0 -2.08616e-05 -8.80957e-05
14 1 0.337285 -2.99558e-06 0.703792 0 -0.000794291 -0.00751948
15 1 0.0872848 0.16667 0.703792 0 0.000794411 -0.00751984
16 1 0.0229201 1.00001 0.846643 0 -0.0112618 -0.0871128
17 1 0.687557 0.500015 0.20381 0 -0.0112616 0.0871135
18 1 0.530371 0.166647 0.275227 0 -0.00265574 0.00471139
19 1 0.437557 0.666652 0.20381 0 0.0112623 0.0871131
20 1 0.46601 -5.9834e-07 0.418086 0 -0.000490665 -0.0011723
21 1 0.373192 0.499997 0.346661 0 -0.000794172 0.00751984
22 1 0.21601 0.166668 0.418086 0 0.000490665 -0.00117242
23 1 0.123192 0.66667 0.346661 0 0.000794411 0.00751913
24 1 0.151648 1.44456e-07 0.56094 0 2.09808e-05 -8.84533e-05
25 1 0.058829 0.5 0.489513 0 2.12193e-05 8.88109e-05
26 1 0.901648 0.166667 0.56094 0 -2.08616e-05 -8.89301e-05
27 1 0.808829 0.666667 0.489513 0 -2.13385e-05 8.85725e-05
28 1 0.503193 0.518045 0.0646844 0 1.10623 0.685652
29 1 0.253193 0.648622 0.0646844 0 -1.10623 0.685652
30 1 0.187557 0.500015 0.20381 0 -0.0112617 0.0871135
31 1 0.937557 0.666652 0.20381 0 0.0112621 0.0871133
32 1 0.873192 0.499997 0.346661 0 -0.000794172 0.00751996
33 1 0.77292 0.166652 0.846643 0 0.0112616 -0.0871135
34 1 0.707284 1.01805 0.985768 0 1.10623 -0.685652
35 1 0.457284 0.148622 0.985768 0 -1.10623 -0.685652
36 1 0.837285 -2.9631e-06 0.703792 0 -0.000794649 -0.00751972
37 1 0.744467 0.499999 0.632367 0 -0.000490785 0.00117242
38 1 0.587285 0.16667 0.703792 0 0.000793815 -0.0075202
39 1 0.494467 0.666668 0.632367 0 0.000490546 0.0011723
40 1 0.52292 1.00001 0.846643 0 -0.0112617 -0.0871127
41 1 0.430106 0.50002 0.775226 0 0.00265574 -0.00471115
42 1 0.27292 0.166652 0.846643 0 0.0112617 -0.0871136
43 1 0.180106 0.666647 0.775226 0 -0.00265527 -0.00471115
44 1 0.207284 1.01805 0.985768 0 1.10623 -0.685652
45 1 0.115754 0.500062 0.918117 0 0.109991 0.015744
46 1 0.623192 0.66667 0.346661 0 0.000794172 0.00751925
47 1 0.558829 0.5 0.489513 0 2.06232e-05 8.80957e-05
48 1 0.308829 0.666667 0.489513 0 -2.11e-05 8.88109e-05
49 1 0.244467 0.499999 0.632367 0 -0.000490665 0.00117242
50 1 0.994467 0.666668 0.632367 0 0.000490904 0.00117218
51 1 0.930106 0.50002 0.775226 0 0.00265586 -0.00471127
52 1 0.957284 0.148622 0.985768 0 -1.10623 -0.685652
53 1 0.865754 0.666605 0.918117 0 -0.109992 0.0157447
54 1 0.680106 0.666647 0.775226 0 -0.00265539 -0.00471127
55 1 0.615754 0.500062 0.918117 0 0.109991 0.0157443
56 1 0.365754 0.666605 0.918117 0 -0.109991 0.0157439
ITEM: TIMESTEP
2
ITEM: NUMBER OF ATOMS
56
ITEM: BOX BOUNDS xy xz yz pp pp pp
-4.1943616867065430e+00 1.2206987559795380e+01 -4.7683715820312500e-07
-7.5370073318481445e-03 5.5339480042457581e+00 -4.1724734902381897e+00
-3.2569408416748047e-02 1.9052529454231262e+01 2.8610229492187500e-06
ITEM: ATOMS id type xs ys zs fx fy fz
1 1 0.594697 1.00186 0.132261 0 0.220126 0.00466466
2 1 0.344697 0.164811 0.132261 0 -0.220127 0.00466573
3 1 0.280379 1.00006 0.275249 0 0.00271547 0.00649166
4 1 0.0303791 0.166604 0.275249 0 -0.00271523 0.0064919
5 1 0.966008 -8.60687e-06 0.41808 0 -0.000906587 -0.00158
6 1 0.0946973 1.00186 0.132261 0 0.220127 0.00466514
7 1 0.00430136 0.536091 0.0679321 0 0.278845 0.0152309
8 1 0.844697 0.164811 0.132261 0 -0.220127 0.00466609
9 1 0.754301 0.630576 0.067932 0 -0.278844 0.0152304
10 1 0.780379 1.00006 0.275249 0 0.00271559 0.00649178
11 1 0.716008 0.166676 0.41808 0 0.000906706 -0.00157988
12 1 0.651648 5.03069e-07 0.56094 0 -0.000146747 -0.00104678
13 1 0.401648 0.166667 0.56094 0 0.000146866 -0.00104678
14 1 0.337273 -1.59527e-05 0.703757 0 -0.00136936 -0.0155557
15 1 0.0872726 0.166683 0.703757 0 0.0013696 -0.0155556
16 1 0.0227793 0.999831 0.84623 0 -0.0204927 -0.158437
17 1 0.687698 0.499831 0.204223 0 -0.0204923 0.158437
18 1 0.530379 0.166604 0.275249 0 -0.00271523 0.00649178
19 1 0.437698 0.666836 0.204223 0 0.0204929 0.158437
20 1 0.466008 -8.6025e-06 0.41808 0 -0.000906587 -0.00158036
21 1 0.373204 0.499984 0.346696 0 -0.00136948 0.0155556
22 1 0.216008 0.166676 0.41808 0 0.000906587 -0.00157988
23 1 0.123204 0.666683 0.346696 0 0.00136924 0.0155562
24 1 0.151648 4.86713e-07 0.56094 0 -0.000146627 -0.0010469
25 1 0.0588292 0.500001 0.489513 0 -0.000147104 0.00104702
26 1 0.901648 0.166667 0.56094 0 0.000147223 -0.00104761
27 1 0.808829 0.666667 0.489513 0 0.000146627 0.0010469
28 1 0.504301 0.536091 0.0679321 0 0.278845 0.0152313
29 1 0.254301 0.630576 0.0679321 0 -0.278845 0.0152309
30 1 0.187698 0.499831 0.204223 0 -0.0204922 0.158437
31 1 0.937698 0.666836 0.204223 0 0.0204929 0.158437
32 1 0.873204 0.499984 0.346696 0 -0.00136948 0.0155555
33 1 0.772779 0.166836 0.84623 0 0.0204918 -0.158437
34 1 0.706176 1.03609 0.982521 0 0.278844 -0.0152311
35 1 0.456176 0.130576 0.982521 0 -0.278845 -0.0152309
36 1 0.837273 -1.59261e-05 0.703757 0 -0.00136936 -0.0155556
37 1 0.744469 0.499991 0.632373 0 -0.000906825 0.00158036
38 1 0.587273 0.166683 0.703757 0 0.00136924 -0.0155563
39 1 0.494469 0.666676 0.632373 0 0.000906348 0.00158024
40 1 0.522779 0.999831 0.84623 0 -0.0204929 -0.158437
41 1 0.430098 0.500063 0.775203 0 0.00271547 -0.00649178
42 1 0.272779 0.166836 0.84623 0 0.0204931 -0.158437
43 1 0.180098 0.666604 0.775203 0 -0.00271547 -0.00649202
44 1 0.206176 1.03609 0.982521 0 0.278844 -0.0152311
45 1 0.11578 0.501856 0.918192 0 0.220127 -0.00466585
46 1 0.623204 0.666683 0.346696 0 0.00136924 0.0155559
47 1 0.558829 0.5 0.489513 0 -0.000146866 0.00104678
48 1 0.308829 0.666667 0.489513 0 0.000146627 0.0010469
49 1 0.244469 0.499991 0.632373 0 -0.000906706 0.00158036
50 1 0.994469 0.666676 0.632373 0 0.000906348 0.00158036
51 1 0.930098 0.500063 0.775203 0 0.00271511 -0.00649166
52 1 0.956176 0.130576 0.982521 0 -0.278845 -0.0152314
53 1 0.86578 0.664811 0.918192 0 -0.220127 -0.00466454
54 1 0.680098 0.666604 0.775203 0 -0.00271499 -0.0064919
55 1 0.61578 0.501856 0.918192 0 0.220127 -0.00466526
56 1 0.36578 0.664811 0.918192 0 -0.220127 -0.00466526
ITEM: TIMESTEP
3
ITEM: NUMBER OF ATOMS
56
ITEM: BOX BOUNDS xy xz yz pp pp pp
-4.1943616867065430e+00 1.2206987559795380e+01 -4.7683715820312500e-07
-7.5370073318481445e-03 5.5339480042457581e+00 -4.1724734902381897e+00
-3.2569408416748047e-02 1.9052529454231262e+01 2.8610229492187500e-06
ITEM: ATOMS id type xs ys zs fx fy fz
1 1 0.594727 1.0161 0.132349 0 0.129666 0.0320618
2 1 0.344727 0.150565 0.132349 0 -0.129665 0.0320609
3 1 0.280421 1.00024 0.275371 0 -0.00159025 0.0310562
4 1 0.0304207 0.166428 0.275371 0 0.00159025 0.0310564
5 1 0.965998 -6.72774e-05 0.41805 0 -0.00197458 0.00678289
6 1 0.0947272 1.0161 0.132349 0 0.129665 0.0320609
7 1 0.00439901 0.554137 0.0682183 0 -0.045359 -0.116423
8 1 0.844727 0.150565 0.132349 0 -0.129664 0.0320609
9 1 0.754399 0.61253 0.0682182 0 0.0453578 -0.116421
10 1 0.780421 1.00024 0.275371 0 -0.00159025 0.031056
11 1 0.715998 0.166734 0.41805 0 0.00197446 0.00678325
12 1 0.651641 -8.99375e-06 0.56092 0 -0.00201726 -0.00855529
13 1 0.401641 0.166676 0.56092 0 0.00201702 -0.00855565
14 1 0.337173 -0.000104572 0.703464 0 -0.00608861 -0.0557632
15 1 0.0871729 0.166772 0.703464 0 0.00608873 -0.055763
16 1 0.0217635 0.998505 0.843253 0 0.047058 -0.0160649
17 1 0.688713 0.498505 0.2072 0 0.0470579 0.0160638
18 1 0.530421 0.166428 0.275371 0 0.00159025 0.0310563
19 1 0.438713 0.668162 0.2072 0 -0.0470581 0.0160648
20 1 0.465998 -6.7273e-05 0.41805 0 -0.0019747 0.00678289
21 1 0.373304 0.499895 0.346989 0 -0.00608885 0.0557631
22 1 0.215998 0.166734 0.41805 0 0.0019747 0.00678301
23 1 0.123304 0.666772 0.346989 0 0.00608897 0.055763
24 1 0.151641 -9.00239e-06 0.56092 0 -0.0020175 -0.00855553
25 1 0.0588359 0.499991 0.489533 0 -0.00201702 0.00855553
26 1 0.901641 0.166676 0.56092 0 0.00201678 -0.00855529
27 1 0.808836 0.666676 0.489533 0 0.0020175 0.00855565
28 1 0.504399 0.554137 0.0682183 0 -0.0453594 -0.116423
29 1 0.254399 0.61253 0.0682183 0 0.0453583 -0.116422
30 1 0.188713 0.498505 0.2072 0 0.047058 0.0160644
31 1 0.938713 0.668162 0.2072 0 -0.0470585 0.0160645
32 1 0.873304 0.499895 0.346989 0 -0.00608861 0.0557631
33 1 0.771764 0.168162 0.843253 0 -0.0470576 -0.0160642
34 1 0.706078 1.05414 0.982235 0 -0.0453579 0.116422
35 1 0.456078 0.11253 0.982235 0 0.0453591 0.116423
36 1 0.837173 -0.000104545 0.703464 0 -0.00608921 -0.0557636
37 1 0.744479 0.499933 0.632402 0 -0.00197458 -0.0067836
38 1 0.587173 0.166772 0.703464 0 0.00608909 -0.0557631
39 1 0.494479 0.666734 0.632402 0 0.00197446 -0.00678325
40 1 0.521764 0.998505 0.843253 0 0.0470581 -0.0160643
41 1 0.430056 0.500239 0.775082 0 -0.00159061 -0.0310559
42 1 0.271764 0.168162 0.843253 0 -0.0470582 -0.0160648
43 1 0.180056 0.666428 0.775081 0 0.00159097 -0.0310563
44 1 0.206078 1.05414 0.982235 0 -0.0453581 0.116423
45 1 0.11575 0.516102 0.918104 0 0.129664 -0.032061
46 1 0.623304 0.666772 0.346989 0 0.00608909 0.0557631
47 1 0.558836 0.499991 0.489533 0 -0.00201702 0.00855577
48 1 0.308836 0.666676 0.489533 0 0.00201714 0.00855577
49 1 0.244479 0.499933 0.632402 0 -0.00197458 -0.00678325
50 1 0.994479 0.666734 0.632402 0 0.00197482 -0.00678325
51 1 0.930056 0.500239 0.775082 0 -0.00159001 -0.0310558
52 1 0.956078 0.11253 0.982235 0 0.0453595 0.116424
53 1 0.86575 0.650565 0.918104 0 -0.129666 -0.0320618
54 1 0.680056 0.666428 0.775081 0 0.00159001 -0.0310559
55 1 0.61575 0.516102 0.918104 0 0.129665 -0.0320616
56 1 0.36575 0.650565 0.918104 0 -0.129665 -0.032061
ITEM: TIMESTEP
4
ITEM: NUMBER OF ATOMS
56
ITEM: BOX BOUNDS xy xz yz pp pp pp
-4.1943616867065430e+00 1.2206987559795380e+01 -4.7683715820312500e-07
-7.5370073318481445e-03 5.5339480042457581e+00 -4.1724734902381897e+00
-3.2569408416748047e-02 1.9052529454231262e+01 2.8610229492187500e-06
ITEM: ATOMS id type xs ys zs fx fy fz
1 1 0.59491 1.02527 0.132883 0 -0.0123922 0.0170493
2 1 0.344909 0.141398 0.132883 0 0.0123912 0.0170494
3 1 0.280599 1.00017 0.275894 0 0.00616682 0.03028
4 1 0.030599 0.166494 0.275894 0 -0.0061667 0.0302798
5 1 0.966035 -0.000185927 0.418157 0 -0.00228822 0.016215
6 1 0.0949095 1.02527 0.132883 0 -0.012392 0.0170494
7 1 0.00376427 0.553979 0.0663579 0 0.0962648 0.0453594
8 1 0.84491 0.141398 0.132883 0 0.0123912 0.0170492
9 1 0.753764 0.612688 0.0663579 0 -0.0962632 0.0453584
10 1 0.780599 1.00017 0.275894 0 0.00616622 0.0302798
11 1 0.716035 0.166853 0.418157 0 0.00228846 0.0162146
12 1 0.651593 -0.000123528 0.560778 0 -0.00460339 -0.0153481
13 1 0.401593 0.166791 0.560778 0 0.00460362 -0.0153478
14 1 0.336849 -0.000458205 0.702516 0 -0.0023886 -0.0290468
15 1 0.0868495 0.167125 0.702516 0 0.00238812 -0.0290468
16 1 0.0215397 1.00097 0.842597 0 0.0591085 0.0317178
17 1 0.688937 0.500972 0.207856 0 0.0591091 -0.0317169
18 1 0.530599 0.166494 0.275894 0 -0.00616682 0.0302795
19 1 0.438937 0.665695 0.207856 0 -0.0591087 -0.0317173
20 1 0.466034 -0.000185929 0.418157 0 -0.00228822 0.0162157
21 1 0.373627 0.499542 0.347937 0 -0.00238872 0.0290469
22 1 0.216035 0.166853 0.418157 0 0.00228834 0.0162151
23 1 0.123628 0.667125 0.347936 0 0.00238836 0.0290467
24 1 0.151593 -0.000123549 0.560778 0 -0.00460291 -0.015348
25 1 0.0588844 0.499876 0.489675 0 -0.00460362 0.0153478
26 1 0.901593 0.166791 0.560778 0 0.00460362 -0.0153477
27 1 0.808884 0.666791 0.489675 0 0.00460315 0.0153477
28 1 0.503764 0.553979 0.0663579 0 0.096265 0.045359
29 1 0.253764 0.612688 0.0663579 0 -0.0962633 0.0453585
30 1 0.188937 0.500972 0.207856 0 0.0591087 -0.0317174
31 1 0.938937 0.665695 0.207856 0 -0.0591086 -0.0317173
32 1 0.873627 0.499542 0.347936 0 -0.002388 0.0290473
33 1 0.77154 0.165695 0.842597 0 -0.0591089 0.0317169
34 1 0.706713 1.05398 0.984095 0 0.0962634 -0.0453584
35 1 0.456713 0.112688 0.984095 0 -0.0962648 -0.0453591
36 1 0.836849 -0.000458211 0.702516 0 -0.00238788 -0.0290467
37 1 0.744442 0.499814 0.632296 0 -0.00228846 -0.0162146
38 1 0.586849 0.167125 0.702516 0 0.0023886 -0.0290464
39 1 0.494442 0.666853 0.632296 0 0.00228822 -0.0162152
40 1 0.52154 1.00097 0.842597 0 0.0591089 0.0317171
41 1 0.429878 0.500173 0.774559 0 0.00616682 -0.0302795
42 1 0.27154 0.165695 0.842597 0 -0.0591086 0.0317172
43 1 0.179878 0.666494 0.774559 0 -0.00616682 -0.0302799
44 1 0.206713 1.05398 0.984095 0 0.0962636 -0.0453585
45 1 0.115567 0.525269 0.91757 0 -0.0123913 -0.0170491
46 1 0.623627 0.667125 0.347937 0 0.002388 0.0290465
47 1 0.558884 0.499876 0.489675 0 -0.00460351 0.0153477
48 1 0.308884 0.666791 0.489675 0 0.00460327 0.0153478
49 1 0.244442 0.499814 0.632296 0 -0.00228834 -0.016215
50 1 0.994442 0.666853 0.632296 0 0.00228834 -0.0162152
51 1 0.929878 0.500173 0.774559 0 0.00616658 -0.0302801
52 1 0.956713 0.112688 0.984095 0 -0.0962652 -0.0453597
53 1 0.865567 0.641398 0.91757 0 0.0123925 -0.0170496
54 1 0.679878 0.666494 0.774559 0 -0.0061667 -0.0302796
55 1 0.615567 0.525269 0.91757 0 -0.0123916 -0.0170491
56 1 0.365567 0.641398 0.91757 0 0.0123918 -0.0170497
ITEM: TIMESTEP
5
ITEM: NUMBER OF ATOMS
56
ITEM: BOX BOUNDS xy xz yz pp pp pp
-4.1943616867065430e+00 1.2206987559795380e+01 -4.7683715820312500e-07
-7.5370073318481445e-03 5.5339480042457581e+00 -4.1724734902381897e+00
-3.2569408416748047e-02 1.9052529454231262e+01 2.8610229492187500e-06
ITEM: ATOMS id type xs ys zs fx fy fz
1 1 0.595196 1.03203 0.133723 0 -0.0331198 0.012785
2 1 0.345196 0.134634 0.133723 0 0.0331199 0.0127853
3 1 0.280985 1.0006 0.277026 0 0.0208203 0.00726449
4 1 0.0309853 0.166065 0.277026 0 -0.0208207 0.0072639
5 1 0.966192 -0.000465997 0.418617 0 -0.00385547 0.0174243
6 1 0.0951962 1.03203 0.133723 0 -0.0331194 0.0127865
7 1 0.00358182 0.561416 0.0658232 0 0.0121624 0.00746858
8 1 0.845196 0.134634 0.133723 0 0.0331192 0.0127858
9 1 0.753582 0.605252 0.0658232 0 -0.0121622 0.00746846
10 1 0.780985 1.0006 0.277026 0 0.0208213 0.00726426
11 1 0.716192 0.167133 0.418617 0 0.00385535 0.0174241
12 1 0.651432 -0.000582162 0.560307 0 -0.0055362 -0.00870979
13 1 0.401432 0.167249 0.560307 0 0.00553572 -0.00871015
14 1 0.33635 -0.000944515 0.701053 0 0.00655675 0.0241359
15 1 0.0863502 0.167612 0.701053 0 -0.0065558 0.0241356
16 1 0.0215977 1.0077 0.842767 0 0.0111306 -0.00885785
17 1 0.688879 0.507702 0.207686 0 0.0111299 0.00885868
18 1 0.530985 0.166065 0.277026 0 -0.0208204 0.00726497
19 1 0.438879 0.658966 0.207686 0 -0.0111302 0.00885773
20 1 0.466192 -0.000466005 0.418617 0 -0.00385606 0.017424
21 1 0.374127 0.499055 0.3494 0 0.00655711 -0.0241359
22 1 0.216192 0.167133 0.418617 0 0.00385511 0.017424
23 1 0.124127 0.667612 0.3494 0 -0.00655639 -0.0241357
24 1 0.151432 -0.000582156 0.560307 0 -0.00553632 -0.00870967
25 1 0.0590448 0.499418 0.490145 0 -0.0055356 0.00871015
26 1 0.901432 0.167249 0.560307 0 0.00553584 -0.00871038
27 1 0.809045 0.667249 0.490145 0 0.00553632 0.00871003
28 1 0.503582 0.561416 0.0658232 0 0.0121629 0.00746942
29 1 0.253582 0.605252 0.0658232 0 -0.0121632 0.00746918
30 1 0.188879 0.507702 0.207686 0 0.01113 0.0088582
31 1 0.938879 0.658965 0.207686 0 -0.01113 0.00885808
32 1 0.874127 0.499056 0.3494 0 0.00655603 -0.0241361
33 1 0.771598 0.158966 0.842767 0 -0.0111306 -0.00885761
34 1 0.706895 1.06142 0.98463 0 0.0121627 -0.00746942
35 1 0.456895 0.105251 0.98463 0 -0.0121627 -0.00746894
36 1 0.83635 -0.000944494 0.701053 0 0.00655663 0.0241362
37 1 0.744285 0.499534 0.631836 0 -0.00385511 -0.017424
38 1 0.58635 0.167612 0.701053 0 -0.00655687 0.0241362
39 1 0.494285 0.667133 0.631836 0 0.00385571 -0.0174237
40 1 0.521598 1.0077 0.842767 0 0.0111299 -0.00885808
41 1 0.429492 0.500602 0.773427 0 0.020821 -0.00726497
42 1 0.271598 0.158966 0.842767 0 -0.0111305 -0.00885737
43 1 0.179492 0.666065 0.773427 0 -0.0208211 -0.0072639
44 1 0.206895 1.06142 0.98463 0 0.0121628 -0.00746953
45 1 0.115281 0.532033 0.91673 0 -0.0331198 -0.0127859
46 1 0.624127 0.667612 0.3494 0 -0.00655639 -0.0241356
47 1 0.559045 0.499418 0.490145 0 -0.00553584 0.00871003
48 1 0.309045 0.667249 0.490145 0 0.0055362 0.00870943
49 1 0.244285 0.499534 0.631836 0 -0.00385559 -0.0174242
50 1 0.994285 0.667133 0.631836 0 0.00385535 -0.0174241
51 1 0.929492 0.500602 0.773427 0 0.02082 -0.00726521
52 1 0.956895 0.105251 0.98463 0 -0.0121627 -0.00746953
53 1 0.865281 0.634634 0.91673 0 0.0331203 -0.0127848
54 1 0.679492 0.666065 0.773427 0 -0.0208207 -0.00726509
55 1 0.615281 0.532033 0.91673 0 -0.0331198 -0.0127851
56 1 0.365281 0.634634 0.91673 0 0.0331202 -0.0127858
ITEM: TIMESTEP
6
ITEM: NUMBER OF ATOMS
56
ITEM: BOX BOUNDS xy xz yz pp pp pp
-4.1943616867065430e+00 1.2206987559795380e+01 -4.7683715820312500e-07
-7.5370073318481445e-03 5.5339480042457581e+00 -4.1724734902381897e+00
-3.2569408416748047e-02 1.9052529454231262e+01 2.8610229492187500e-06
ITEM: ATOMS id type xs ys zs fx fy fz
1 1 0.595278 1.03025 0.133962 0 -0.00276709 0.00958526
2 1 0.345278 0.136414 0.133962 0 0.00276768 0.00958502
3 1 0.281037 1.00183 0.277178 0 0.0093224 0.00719774
4 1 0.031037 0.164832 0.277178 0 -0.00932229 0.0071981
5 1 0.966297 -0.000699173 0.418925 0 -0.00276577 0.0021584
6 1 0.0952776 1.03025 0.133962 0 -0.00276792 0.00958443
7 1 0.00362082 0.562311 0.0659375 0 -0.0174123 -0.0145007
8 1 0.845278 0.136414 0.133962 0 0.00276792 0.00958467
9 1 0.753621 0.604356 0.0659375 0 0.0174115 -0.014501
10 1 0.781037 1.00183 0.277178 0 0.00932229 0.00719833
11 1 0.716297 0.167366 0.418925 0 0.00276577 0.00215864
12 1 0.651378 -0.00091836 0.560148 0 -0.00135088 0.00934005
13 1 0.401378 0.167585 0.560148 0 0.001351 0.00934005
14 1 0.336478 -0.000571395 0.701429 0 0.00389409 -0.00239396
15 1 0.0864785 0.167239 0.701429 0 -0.00389433 -0.00239456
16 1 0.0215476 1.00852 0.84262 0 -0.00255525 0.00241196
17 1 0.688929 0.508519 0.207833 0 -0.00255513 -0.00241244
18 1 0.531037 0.164832 0.277178 0 -0.00932288 0.00719726
19 1 0.438929 0.658148 0.207833 0 0.00255549 -0.0024122
20 1 0.466297 -0.000699216 0.418925 0 -0.00276542 0.00215852
21 1 0.373999 0.499429 0.349024 0 0.00389385 0.00239432
22 1 0.216297 0.167366 0.418925 0 0.00276577 0.00215793
23 1 0.123999 0.667239 0.349024 0 -0.00389445 0.0023942
24 1 0.151378 -0.00091836 0.560148 0 -0.001351 0.00933993
25 1 0.0590994 0.499082 0.490305 0 -0.00135112 -0.00934005
26 1 0.901378 0.167585 0.560148 0 0.00135124 0.00934017
27 1 0.809099 0.667585 0.490305 0 0.001351 -0.00934041
28 1 0.503621 0.562311 0.0659375 0 -0.0174128 -0.0145017
29 1 0.253621 0.604356 0.0659375 0 0.0174123 -0.0145019
30 1 0.188929 0.508519 0.207833 0 -0.00255513 -0.00241196
31 1 0.938929 0.658148 0.207833 0 0.00255525 -0.00241244
32 1 0.873999 0.499429 0.349024 0 0.00389409 0.00239408
33 1 0.771548 0.158148 0.84262 0 0.00255561 0.00241208
34 1 0.706856 1.06231 0.984515 0 -0.0174121 0.0145015
35 1 0.456856 0.104356 0.984515 0 0.0174127 0.0145015
36 1 0.836478 -0.00057138 0.701429 0 0.00389397 -0.0023942
37 1 0.74418 0.499301 0.631527 0 -0.00276554 -0.00215828
38 1 0.586478 0.167239 0.701429 0 -0.00389433 -0.00239444
39 1 0.49418 0.667366 0.631527 0 0.00276554 -0.00215864
40 1 0.521548 1.00852 0.84262 0 -0.00255477 0.0024122
41 1 0.42944 0.501835 0.773275 0 0.00932312 -0.00719798
42 1 0.271548 0.158148 0.84262 0 0.00255501 0.0024122
43 1 0.17944 0.664832 0.773275 0 -0.0093224 -0.0071981
44 1 0.206856 1.06231 0.984515 0 -0.0174125 0.0145022
45 1 0.115199 0.530253 0.916491 0 -0.00276709 -0.00958526
46 1 0.623999 0.667239 0.349024 0 -0.00389421 0.00239384
47 1 0.559099 0.499082 0.490305 0 -0.00135124 -0.00934029
48 1 0.309099 0.667585 0.490305 0 0.001351 -0.00933981
49 1 0.24418 0.499301 0.631527 0 -0.00276554 -0.00215793
50 1 0.99418 0.667366 0.631527 0 0.00276554 -0.00215816
51 1 0.92944 0.501835 0.773275 0 0.009323 -0.00719702
52 1 0.956856 0.104356 0.984515 0 0.0174125 0.0145018
53 1 0.865199 0.636414 0.916491 0 0.00276673 -0.0095855
54 1 0.67944 0.664832 0.773275 0 -0.00932264 -0.00719774
55 1 0.615199 0.530253 0.916491 0 -0.00276732 -0.00958502
56 1 0.365199 0.636414 0.916491 0 0.00276709 -0.00958455
ITEM: TIMESTEP
7
ITEM: NUMBER OF ATOMS
56
ITEM: BOX BOUNDS xy xz yz pp pp pp
-4.1943616867065430e+00 1.2206987559795380e+01 -4.7683715820312500e-07
-7.5370073318481445e-03 5.5339480042457581e+00 -4.1724734902381897e+00
-3.2569408416748047e-02 1.9052529454231262e+01 2.8610229492187500e-06
ITEM: ATOMS id type xs ys zs fx fy fz
1 1 0.595363 1.02955 0.134211 0 -0.00410151 0.00212312
2 1 0.345363 0.137114 0.134211 0 0.00410116 0.00212336
3 1 0.281098 1.0028 0.277357 0 -0.00298572 0.00453091
4 1 0.0310981 0.16387 0.277357 0 0.00298595 0.00453115
5 1 0.966341 -0.000945917 0.419056 0 0.00105977 0.000883937
6 1 0.0953627 1.02955 0.134211 0 -0.00410116 0.002123
7 1 0.00353955 0.561449 0.0656993 0 0.00439763 0.00192308
8 1 0.845363 0.137114 0.134211 0 0.00410068 0.00212336
9 1 0.75354 0.605218 0.0656993 0 -0.00439739 0.0019232
10 1 0.781098 1.0028 0.277357 0 -0.00298619 0.00453091
11 1 0.716341 0.167613 0.419056 0 -0.00105977 0.000883579
12 1 0.651421 -0.00110398 0.560276 0 -0.000448346 0.00445879
13 1 0.401421 0.167771 0.560276 0 0.000448465 0.00445855
14 1 0.336501 -0.000210865 0.701494 0 0.00103593 -0.00467885
15 1 0.0865007 0.166878 0.701494 0 -0.00103617 -0.00467861
16 1 0.0215484 1.00859 0.842622 0 -0.000867605 0.00704181
17 1 0.688929 0.508593 0.20783 0 -0.000867248 -0.00704169
18 1 0.531098 0.16387 0.277357 0 0.00298667 0.00453138
19 1 0.438929 0.658074 0.20783 0 0.000867009 -0.00704157
20 1 0.466341 -0.000945947 0.419056 0 0.00106013 0.000883698
21 1 0.373976 0.499789 0.348959 0 0.00103557 0.00467896
22 1 0.216341 0.167613 0.419056 0 -0.00105965 0.000884533
23 1 0.123976 0.666878 0.348959 0 -0.00103605 0.00467873
24 1 0.151421 -0.00110399 0.560276 0 -0.000447869 0.00445867
25 1 0.0590557 0.498896 0.490177 0 -0.000448465 -0.00445879
26 1 0.901421 0.167771 0.560276 0 0.000448227 0.00445855
27 1 0.809056 0.667771 0.490177 0 0.000448227 -0.00445855
28 1 0.50354 0.561449 0.0656993 0 0.00439847 0.00192392
29 1 0.25354 0.605218 0.0656993 0 -0.00439763 0.0019238
30 1 0.188929 0.508593 0.20783 0 -0.000867605 -0.00704229
31 1 0.938929 0.658074 0.20783 0 0.000867963 -0.00704122
32 1 0.873976 0.499789 0.348959 0 0.00103581 0.00467885
33 1 0.771548 0.158074 0.842622 0 0.00086689 0.00704122
34 1 0.706937 1.06145 0.984754 0 0.00439751 -0.0019232
35 1 0.456937 0.105218 0.984754 0 -0.00439847 -0.00192356
36 1 0.836501 -0.00021086 0.701494 0 0.00103581 -0.00467873
37 1 0.744136 0.499054 0.631397 0 0.00105965 -0.000884175
38 1 0.586501 0.166878 0.701494 0 -0.00103581 -0.00467896
39 1 0.494136 0.667613 0.631397 0 -0.00105965 -0.000884056
40 1 0.521548 1.00859 0.842622 0 -0.000867486 0.00704145
41 1 0.429379 0.502797 0.773096 0 -0.00298667 -0.00453067
42 1 0.271548 0.158074 0.842622 0 0.000867605 0.00704145
43 1 0.179379 0.66387 0.773096 0 0.00298619 -0.00453103
44 1 0.206937 1.06145 0.984754 0 0.00439799 -0.00192404
45 1 0.115114 0.529554 0.916242 0 -0.00410151 -0.00212276
46 1 0.623976 0.666878 0.348959 0 -0.00103617 0.00467885
47 1 0.559056 0.498896 0.490177 0 -0.000448465 -0.00445867
48 1 0.309056 0.667771 0.490177 0 0.000448227 -0.00445879
49 1 0.244136 0.499054 0.631397 0 0.00105989 -0.000884175
50 1 0.994136 0.667613 0.631397 0 -0.00105953 -0.000884056
51 1 0.929379 0.502797 0.773096 0 -0.00298607 -0.00453115
52 1 0.956937 0.105218 0.984754 0 -0.00439799 -0.00192356
53 1 0.865114 0.637113 0.916242 0 0.00410187 -0.00212264
54 1 0.679379 0.66387 0.773096 0 0.00298643 -0.00453055
55 1 0.615114 0.529554 0.916242 0 -0.00410068 -0.00212348
56 1 0.365114 0.637113 0.916242 0 0.00410116 -0.002123
ITEM: TIMESTEP
8
ITEM: NUMBER OF ATOMS
56
ITEM: BOX BOUNDS xy xz yz pp pp pp
-4.1943616867065430e+00 1.2206987559795380e+01 -4.7683715820312500e-07
-7.5370073318481445e-03 5.5339480042457581e+00 -4.1724734902381897e+00
-3.2569408416748047e-02 1.9052529454231262e+01 2.8610229492187500e-06
ITEM: ATOMS id type xs ys zs fx fy fz
1 1 0.595389 1.0292 0.134288 0 -0.000198007 0.00105345
2 1 0.345389 0.137467 0.134288 0 0.00019753 0.00105393
3 1 0.281134 1.00278 0.277463 0 -0.00323784 0.000966549
4 1 0.0311343 0.163886 0.277463 0 0.00323761 0.000966668
5 1 0.966354 -0.00092479 0.419093 0 0.00134349 0.00224519
6 1 0.0953889 1.0292 0.134288 0 -0.000198126 0.00105333
7 1 0.00353729 0.561564 0.0656927 0 0.000569582 -0.00310099
8 1 0.845389 0.137467 0.134288 0 0.000198245 0.00105309
9 1 0.753537 0.605104 0.0656927 0 -0.000570178 -0.00310099
10 1 0.781134 1.00278 0.277463 0 -0.00323772 0.000966549
11 1 0.716354 0.167592 0.419093 0 -0.00134361 0.00224566
12 1 0.651454 -0.00116052 0.560372 0 -0.000330925 -0.00137544
13 1 0.401454 0.167828 0.560372 0 0.000330806 -0.00137484
14 1 0.336477 -9.14359e-05 0.701426 0 -0.00034976 0.00162935
15 1 0.0864774 0.166759 0.701426 0 0.00034976 0.00163007
16 1 0.0215891 1.00856 0.842742 0 -0.000964046 -0.000888944
17 1 0.688888 0.508555 0.207711 0 -0.000963926 0.000889301
18 1 0.531134 0.163886 0.277463 0 0.00323737 0.000965953
19 1 0.438888 0.658112 0.207711 0 0.000964522 0.000889182
20 1 0.466354 -0.000924797 0.419093 0 0.00134337 0.00224555
21 1 0.374 0.499909 0.349027 0 -0.000349402 -0.00163007
22 1 0.216354 0.167592 0.419093 0 -0.00134373 0.00224543
23 1 0.124 0.666759 0.349027 0 0.000349641 -0.00162971
24 1 0.151454 -0.00116051 0.560372 0 -0.000331402 -0.00137532
25 1 0.0590228 0.498839 0.490081 0 -0.000330806 0.00137496
26 1 0.901454 0.167828 0.560372 0 0.000330925 -0.00137448
27 1 0.809023 0.667828 0.490081 0 0.000330806 0.00137484
28 1 0.503537 0.561564 0.0656927 0 0.000568867 -0.00310171
29 1 0.253537 0.605104 0.0656927 0 -0.00056982 -0.00310135
30 1 0.188888 0.508555 0.207711 0 -0.000964046 0.000889301
31 1 0.938888 0.658112 0.207711 0 0.000963926 0.000889063
32 1 0.874 0.499909 0.349027 0 -0.000349641 -0.00162947
33 1 0.771589 0.158112 0.842742 0 0.000964522 -0.000889063
34 1 0.70694 1.06156 0.98476 0 0.000570297 0.00310075
35 1 0.45694 0.105103 0.98476 0 -0.000568867 0.00310135