ITEM: TIMESTEP
0
ITEM: NUMBER OF ATOMS
32
ITEM: BOX BOUNDS xy xz yz pp pp pp
3.0272657245757604e-03 6.3938049081754240e+00 0.0000000000000000e+00
-3.1320509042145829e-03 6.3520977102498462e+00 0.0000000000000000e+00
2.7435269680358088e-02 2.0697951192719628e+01 8.2853448394563201e-01
ITEM: ATOMS id type xs ys zs fx fy fz
1 1 0.999986 0.657327 0.0597554 3.25221e-07 0 0.413069
2 1 0.499986 0.657327 0.0597554 -4.63187e-08 0 0.413069
3 1 0.249986 0.157327 0.0597529 -3.30858e-07 0 0.413317
4 1 0.749986 0.157327 0.0597529 3.02917e-07 0 0.413316
5 1 0.999986 0.61986 0.309761 2.04949e-07 0 0.0016139
6 1 0.249986 0.472691 0.18476 -4.05809e-07 0 0.00568242
7 1 0.749986 0.472691 0.18476 2.98958e-07 0 0.00568267
8 1 0.499986 0.61986 0.309761 -3.52739e-08 0 0.00161363
9 1 0.999986 0.972692 0.184758 1.64699e-07 0 0.00574011
10 1 0.249986 0.119859 0.309759 -4.15573e-07 0 0.00169218
11 1 0.499986 0.972692 0.184758 -3.76063e-07 0 0.00574019
12 1 0.749986 0.119859 0.309759 4.65097e-07 0 0.00169209
13 1 0.999986 0.582364 0.559747 2.11381e-07 0 0.000455602
14 1 0.499986 0.582364 0.559747 -4.79311e-07 0 0.000455757
15 1 0.249986 0.0823659 0.559747 -4.33327e-07 0 0.000443294
16 1 0.749986 0.0823659 0.559747 3.71269e-07 0 0.000442845
17 1 0.249986 0.435216 0.434755 -4.51953e-07 0 -0.000451469
18 1 0.749986 0.435216 0.434755 5.0466e-07 0 -0.000451766
19 1 0.999986 0.935218 0.434755 1.64029e-07 0 -0.000467475
20 1 0.499986 0.935218 0.434755 -1.80069e-07 0 -0.000467167
21 1 0.999986 0.54488 0.809742 2.72616e-07 0 -0.00572481
22 1 0.249986 0.397718 0.684743 -4.68979e-07 0 -0.00169107
23 1 0.499986 0.54488 0.809742 -1.62985e-07 0 -0.00572447
24 1 0.749986 0.397718 0.684743 2.84082e-07 0 -0.00169102
25 1 0.999986 0.897718 0.684741 3.16649e-07 0 -0.00163019
26 1 0.249986 0.0448807 0.809741 -3.66592e-07 0 -0.00569451
27 1 0.749986 0.0448807 0.809741 3.19244e-07 0 -0.00569475
28 1 0.499986 0.897718 0.684741 -1.71951e-07 0 -0.00162987
29 1 0.249986 0.360243 0.934748 -5.1815e-07 0 -0.413293
30 1 0.749986 0.360243 0.934748 3.59432e-07 0 -0.413293
31 1 0.999986 0.860242 0.934746 4.19246e-07 0 -0.41306
32 1 0.499986 0.860242 0.934746 -1.43321e-07 0 -0.41306
ITEM: TIMESTEP
8
ITEM: NUMBER OF ATOMS
32
ITEM: BOX BOUNDS xy xz yz pp pp pp
3.0272657245757604e-03 6.3938049081754240e+00 0.0000000000000000e+00
-3.1320509042145829e-03 6.3520977102498462e+00 0.0000000000000000e+00
2.7435269680358088e-02 2.0697951192719628e+01 8.2853448394563201e-01
ITEM: ATOMS id type xs ys zs fx fy fz
1 1 0.999986 0.656647 0.0642926 1.15024e-06 0 0.000155097
2 1 0.499986 0.656647 0.0642926 -1.15449e-06 0 0.000157156
3 1 0.249986 0.156647 0.0642925 -1.3747e-07 0 0.000159687
4 1 0.749986 0.156647 0.0642925 2.62563e-07 0 0.000158028
5 1 0.999986 0.619562 0.311752 8.86852e-07 0 -3.46255e-06
6 1 0.249986 0.472211 0.187967 2.4258e-08 0 -9.67693e-05
7 1 0.749986 0.472211 0.187967 1.39698e-08 0 -9.6517e-05
8 1 0.499986 0.619562 0.311752 -3.89467e-07 0 -3.64746e-06
9 1 0.999986 0.972211 0.187967 4.56086e-07 0 -9.5656e-05
10 1 0.249986 0.11956 0.311752 1.18686e-07 0 -2.71939e-06
11 1 0.499986 0.972211 0.187967 4.94265e-09 0 -9.41212e-05
12 1 0.749986 0.11956 0.311752 -1.13987e-06 0 -2.33394e-06
13 1 0.999986 0.582463 0.559088 -1.2276e-07 0 -0.000111862
14 1 0.499986 0.582463 0.559088 4.02972e-07 0 -0.000110243
15 1 0.249986 0.0824647 0.559088 -8.79576e-07 0 -0.000105959
16 1 0.749986 0.0824647 0.559088 5.83765e-07 0 -0.000109498
17 1 0.249986 0.435118 0.435413 1.17812e-07 0 0.000106641
18 1 0.749986 0.435118 0.435413 -3.13245e-07 0 0.00011014
19 1 0.999986 0.93512 0.435413 -9.85863e-07 0 0.000111397
20 1 0.499986 0.93512 0.435413 1.33113e-06 0 0.0001104
21 1 0.999986 0.545361 0.806535 6.85221e-07 0 9.48324e-05
22 1 0.249986 0.398017 0.682749 -1.22816e-08 0 3.65785e-06
23 1 0.499986 0.545361 0.806535 -3.2378e-09 0 9.39956e-05
24 1 0.749986 0.398017 0.682749 -8.32485e-07 0 3.93379e-06
25 1 0.999986 0.898016 0.682749 6.32688e-07 0 1.31856e-06
26 1 0.249986 0.0453614 0.806535 7.51694e-07 0 9.39664e-05
27 1 0.749986 0.0453614 0.806535 -1.83329e-06 0 9.3715e-05
28 1 0.499986 0.898016 0.682749 4.05573e-07 0 4.82341e-06
29 1 0.249986 0.360924 0.930209 5.42073e-07 0 -0.000159493
30 1 0.749986 0.360924 0.930209 -7.64005e-07 0 -0.000157819
31 1 0.999986 0.860922 0.930209 4.86091e-07 0 -0.000153793
32 1 0.499986 0.860922 0.930209 -2.15797e-07 0 -0.000155022
