ITEM: TIMESTEP
0
ITEM: NUMBER OF ATOMS
48
ITEM: BOX BOUNDS xy xz yz pp pp pp
-6.0326788425445557e+00 8.6067802309989929e+00 2.5094206929206848e+00
-9.4973444938659668e-03 9.3236122131347656e+00 -6.0206417441368103e+00
-2.8691649436950684e-02 1.9545819282531738e+01 7.1304261684417725e-02
ITEM: ATOMS id type xs ys zs fx fy fz
1 1 0.953156 0.16703 0.0320218 0 0 2.1731
2 1 0.510283 0.0738739 0.0528103 0 0 0.24308
3 1 0.671176 0.125314 0.657023 0 0 0.00157547
4 1 0.91535 0.948847 0.927808 0 0 -2.17308
5 1 0.571864 0.157156 0.802805 0 0 0.00248337
6 1 0.358223 0.0420026 0.90702 0 0 -0.243074
7 1 0.0147349 0.250315 0.78202 0 0 0.00868797
8 1 0.983847 0.208712 0.407029 0 0 0.000638962
9 1 0.228305 0.0321465 0.677802 0 0 -0.00192833
10 1 0.88466 0.240498 0.552801 0 0 -0.000631332
11 1 0.853771 0.198895 0.17781 0 0 -0.0086937
12 1 0.640202 0.0837297 0.282028 0 0 0.00192642
13 1 0.296642 0.292053 0.157025 0 0 -0.002491
14 1 0.540975 0.115534 0.427803 0 0 5.53131e-05
15 1 0.953157 0.500363 0.0320219 0 0 2.17309
16 1 0.510283 0.407207 0.0528103 0 0 0.243076
17 1 0.671175 0.458648 0.657023 0 0 0.00157738
18 1 0.91535 0.28218 0.927808 0 0 -2.1731
19 1 0.571864 0.49049 0.802805 0 0 0.002491
20 1 0.358223 0.375336 0.90702 0 0 -0.243074
21 1 0.0147349 0.583648 0.78202 0 0 0.00868416
22 1 0.327532 0.333676 0.532027 0 0 -5.91278e-05
23 1 0.983847 0.542046 0.407029 0 0 0.00063324
24 1 0.228305 0.36548 0.677802 0 0 -0.00192261
25 1 0.884659 0.573831 0.552801 0 0 -0.000635147
26 1 0.197331 0.323895 0.302807 0 0 -0.00157356
27 1 0.853771 0.532228 0.17781 0 0 -0.00868607
28 1 0.640202 0.417063 0.282028 0 0 0.00192833
29 1 0.296642 0.625387 0.157025 0 0 -0.00248337
30 1 0.540975 0.448867 0.427803 0 0 5.53131e-05
31 1 0.953157 0.833696 0.0320219 0 0 2.17308
32 1 0.510283 0.740541 0.0528104 0 0 0.243074
33 1 0.671175 0.791981 0.657023 0 0 0.00157547
34 1 0.91535 0.615514 0.927808 0 0 -2.1731
35 1 0.571864 0.823823 0.802805 0 0 0.00249481
36 1 0.358223 0.708669 0.90702 0 0 -0.243073
37 1 0.014735 0.916981 0.78202 0 0 0.00868607
38 1 0.327531 0.667009 0.532027 0 0 -6.10352e-05
39 1 0.983847 0.875379 0.407029 0 0 0.00063324
40 1 0.228304 0.698813 0.677802 0 0 -0.00193024
41 1 0.884659 0.907164 0.552801 0 0 -0.000629425
42 1 0.197331 0.657228 0.302807 0 0 -0.00157738
43 1 0.853772 0.865562 0.17781 0 0 -0.00869179
44 1 0.640202 0.750396 0.282028 0 0 0.00192833
45 1 0.296643 0.95872 0.157026 0 0 -0.0024929
46 1 0.540975 0.782201 0.427803 0 0 6.10352e-05
47 1 0.327531 0.000342385 0.532027 0 0 -6.10352e-05
48 1 0.197331 0.990562 0.302807 0 0 -0.00157547
ITEM: TIMESTEP
1
ITEM: NUMBER OF ATOMS
48
ITEM: BOX BOUNDS xy xz yz pp pp pp
-6.0326788425445557e+00 8.6067802309989929e+00 2.5094206929206848e+00
-9.4973444938659668e-03 9.3236122131347656e+00 -6.0206417441368103e+00
-2.8691649436950684e-02 1.9545819282531738e+01 7.1304261684417725e-02
ITEM: ATOMS id type xs ys zs fx fy fz
1 1 0.958207 0.16699 0.0371305 0 0 1.05643
2 1 0.510848 0.0738695 0.0533817 0 0 0.185999
3 1 0.671179 0.125314 0.657027 0 0 -0.000507355
4 1 0.910299 0.948886 0.9227 0 0 -1.05642
5 1 0.57187 0.157156 0.802811 0 0 -0.0873699
6 1 0.357658 0.042007 0.906448 0 0 -0.185999
7 1 0.0147551 0.250315 0.782041 0 0 -0.0607071
8 1 0.983848 0.208712 0.407031 0 0 -0.000814438
9 1 0.2283 0.0321465 0.677797 0 0 -0.00564957
10 1 0.884658 0.240498 0.552799 0 0 0.000822067
11 1 0.853751 0.198895 0.17779 0 0 0.0607052
12 1 0.640206 0.0837296 0.282033 0 0 0.00564575
13 1 0.296637 0.292053 0.15702 0 0 0.0873718
14 1 0.540975 0.115534 0.427803 0 0 -0.00112534
15 1 0.958207 0.500324 0.0371306 0 0 1.05642
16 1 0.510848 0.407203 0.0533818 0 0 0.185995
17 1 0.671179 0.458648 0.657027 0 0 -0.000501633
18 1 0.910299 0.28222 0.9227 0 0 -1.05643
19 1 0.57187 0.49049 0.802811 0 0 -0.0873661
20 1 0.357658 0.37534 0.906448 0 0 -0.185995
21 1 0.0147551 0.583648 0.782041 0 0 -0.060709
22 1 0.327532 0.333676 0.532027 0 0 0.00112534
23 1 0.983849 0.542046 0.407031 0 0 -0.00082016
24 1 0.2283 0.36548 0.677797 0 0 -0.00564766
25 1 0.884658 0.573831 0.552799 0 0 0.000810623
26 1 0.197327 0.323895 0.302804 0 0 0.000507355
27 1 0.853751 0.532228 0.17779 0 0 0.0607071
28 1 0.640206 0.417063 0.282033 0 0 0.00564766
29 1 0.296637 0.625387 0.15702 0 0 0.0873718
30 1 0.540975 0.448867 0.427803 0 0 -0.00112724
31 1 0.958207 0.833657 0.0371306 0 0 1.05642
32 1 0.510848 0.740536 0.0533818 0 0 0.185999
33 1 0.671179 0.791981 0.657027 0 0 -0.00050354
34 1 0.910299 0.615553 0.9227 0 0 -1.05642
35 1 0.57187 0.823823 0.802811 0 0 -0.0873718
36 1 0.357658 0.708674 0.906448 0 0 -0.186001
37 1 0.0147551 0.916981 0.782041 0 0 -0.0607071
38 1 0.327531 0.667009 0.532027 0 0 0.00112534
39 1 0.983848 0.875379 0.407031 0 0 -0.00082016
40 1 0.2283 0.698813 0.677797 0 0 -0.00564194
41 1 0.884658 0.907164 0.552799 0 0 0.00082016
42 1 0.197327 0.657229 0.302804 0 0 0.000509262
43 1 0.853751 0.865562 0.17779 0 0 0.060709
44 1 0.640206 0.750396 0.282033 0 0 0.00564384
45 1 0.296637 0.95872 0.15702 0 0 0.0873623
46 1 0.540975 0.782201 0.427803 0 0 -0.00112724
47 1 0.327531 0.000342386 0.532027 0 0 0.00112534
48 1 0.197327 0.990562 0.302804 0 0 0.000509262
ITEM: TIMESTEP
2
ITEM: NUMBER OF ATOMS
48
ITEM: BOX BOUNDS xy xz yz pp pp pp
-6.0326788425445557e+00 8.6067802309989929e+00 2.5094206929206848e+00
-9.4973444938659668e-03 9.3236122131347656e+00 -6.0206417441368103e+00
-2.8691649436950684e-02 1.9545819282531738e+01 7.1304261684417725e-02
ITEM: ATOMS id type xs ys zs fx fy fz
1 1 0.963258 0.166951 0.0422392 0 0 0.217207
2 1 0.511737 0.0738626 0.0542812 0 0 0.103642
3 1 0.671177 0.125314 0.657024 0 0 -0.0109196
4 1 0.905249 0.948926 0.917591 0 0 -0.217203
5 1 0.571452 0.15716 0.802388 0 0 -0.178698
6 1 0.356769 0.0420139 0.905549 0 0 -0.103638
7 1 0.0144649 0.250317 0.781747 0 0 -0.137407
8 1 0.983844 0.208712 0.407027 0 0 -0.00129318
9 1 0.228273 0.0321467 0.67777 0 0 -0.0155125
10 1 0.884662 0.240498 0.552803 0 0 0.0012989
11 1 0.854041 0.198893 0.178083 0 0 0.137407
12 1 0.640233 0.0837294 0.28206 0 0 0.0155125
13 1 0.297054 0.29205 0.157442 0 0 0.178696
14 1 0.54097 0.115534 0.427798 0 0 -0.00113106
15 1 0.963258 0.500284 0.0422392 0 0 0.217205
16 1 0.511737 0.407196 0.0542812 0 0 0.103636
17 1 0.671177 0.458648 0.657024 0 0 -0.01091
18 1 0.905248 0.282259 0.917591 0 0 -0.217201
19 1 0.571452 0.490493 0.802388 0 0 -0.178696
20 1 0.356769 0.375347 0.905549 0 0 -0.10364
21 1 0.0144648 0.58365 0.781747 0 0 -0.137407
22 1 0.327537 0.333676 0.532032 0 0 0.00112152
23 1 0.983845 0.542046 0.407027 0 0 -0.00129318
24 1 0.228273 0.36548 0.67777 0 0 -0.0155106
25 1 0.884662 0.573831 0.552803 0 0 0.00129318
26 1 0.19733 0.323895 0.302806 0 0 0.0109119
27 1 0.854041 0.532226 0.178083 0 0 0.137407
28 1 0.640233 0.417063 0.28206 0 0 0.0155163
29 1 0.297054 0.625383 0.157442 0 0 0.178696
30 1 0.540969 0.448867 0.427798 0 0 -0.00112534
31 1 0.963258 0.833618 0.0422392 0 0 0.217201
32 1 0.511737 0.740529 0.0542813 0 0 0.10364
33 1 0.671176 0.791981 0.657024 0 0 -0.0109138
34 1 0.905248 0.615592 0.917591 0 0 -0.217203
35 1 0.571452 0.823826 0.802388 0 0 -0.17869
36 1 0.356769 0.708681 0.905549 0 0 -0.103642
37 1 0.0144649 0.916984 0.781747 0 0 -0.137405
38 1 0.327537 0.667009 0.532032 0 0 0.00112724
39 1 0.983844 0.875379 0.407027 0 0 -0.001297
40 1 0.228273 0.698813 0.67777 0 0 -0.0155125
41 1 0.884662 0.907164 0.552803 0 0 0.001297
42 1 0.19733 0.657228 0.302806 0 0 0.01091
43 1 0.854042 0.865559 0.178083 0 0 0.137405
44 1 0.640233 0.750396 0.28206 0 0 0.0155144
45 1 0.297054 0.958717 0.157442 0 0 0.178694
46 1 0.54097 0.782201 0.427798 0 0 -0.00112724
47 1 0.327536 0.000342345 0.532032 0 0 0.00112343
48 1 0.19733 0.990562 0.302806 0 0 0.0109138
ITEM: TIMESTEP
3
ITEM: NUMBER OF ATOMS
48
ITEM: BOX BOUNDS xy xz yz pp pp pp
-6.0326788425445557e+00 8.6067802309989929e+00 2.5094206929206848e+00
-9.4973444938659668e-03 9.3236122131347656e+00 -6.0206417441368103e+00
-2.8691649436950684e-02 1.9545819282531738e+01 7.1304261684417725e-02
ITEM: ATOMS id type xs ys zs fx fy fz
1 1 0.967083 0.166921 0.0461085 0 0 -0.176016
2 1 0.513563 0.0738484 0.0561275 0 0 0.00662804
3 1 0.670984 0.125316 0.65683 0 0 -0.0719242
4 1 0.901423 0.948955 0.913722 0 0 0.176014
5 1 0.568305 0.157184 0.799205 0 0 -0.100868
6 1 0.354943 0.0420281 0.903703 0 0 -0.00662422
7 1 0.0120449 0.250336 0.779299 0 0 -0.101925
8 1 0.983822 0.208712 0.407004 0 0 0.00521088
9 1 0.228 0.0321489 0.677494 0 0 -0.0723667
10 1 0.884685 0.240497 0.552826 0 0 -0.00520515
11 1 0.856461 0.198874 0.180531 0 0 0.101933
12 1 0.640507 0.0837273 0.282336 0 0 0.0723648
13 1 0.300201 0.292026 0.160625 0 0 0.100861
14 1 0.54095 0.115534 0.427778 0 0 0.00629234
15 1 0.967083 0.500254 0.0461085 0 0 -0.176018
16 1 0.513563 0.407182 0.0561274 0 0 0.00662994
17 1 0.670985 0.458649 0.65683 0 0 -0.071928
18 1 0.901423 0.282289 0.913722 0 0 0.176012
19 1 0.568305 0.490518 0.799205 0 0 -0.100868
20 1 0.354943 0.375361 0.903703 0 0 -0.00662422
21 1 0.0120449 0.583669 0.779299 0 0 -0.101931
22 1 0.327557 0.333675 0.532052 0 0 -0.00628471
23 1 0.983822 0.542046 0.407004 0 0 0.00520325
24 1 0.228 0.365482 0.677494 0 0 -0.0723667
25 1 0.884685 0.57383 0.552826 0 0 -0.00520897
26 1 0.197522 0.323894 0.303 0 0 0.0719299
27 1 0.856461 0.532207 0.180531 0 0 0.101927
28 1 0.640506 0.417061 0.282337 0 0 0.0723591
29 1 0.300201 0.625359 0.160625 0 0 0.100863
30 1 0.54095 0.448868 0.427778 0 0 0.00628662
31 1 0.967083 0.833588 0.0461084 0 0 -0.176012
32 1 0.513563 0.740515 0.0561275 0 0 0.00662041
33 1 0.670984 0.791983 0.65683 0 0 -0.0719242
34 1 0.901423 0.615622 0.913722 0 0 0.176018
35 1 0.568305 0.823851 0.799205 0 0 -0.100872
36 1 0.354943 0.708695 0.903703 0 0 -0.00662041
37 1 0.012045 0.917002 0.779299 0 0 -0.101936
38 1 0.327557 0.667009 0.532052 0 0 -0.00628471
39 1 0.983822 0.875379 0.407004 0 0 0.00520897
40 1 0.228 0.698816 0.677494 0 0 -0.072361
41 1 0.884684 0.907164 0.552826 0 0 -0.00520897
42 1 0.197522 0.657227 0.303 0 0 0.0719376
43 1 0.856461 0.865541 0.180531 0 0 0.101927
44 1 0.640507 0.750394 0.282337 0 0 0.0723629
45 1 0.300201 0.958692 0.160625 0 0 0.100864
46 1 0.54095 0.782201 0.427778 0 0 0.00628662
47 1 0.327556 0.00034219 0.532052 0 0 -0.00628853
48 1 0.197522 0.99056 0.303 0 0 0.071928
ITEM: TIMESTEP
4
ITEM: NUMBER OF ATOMS
48
ITEM: BOX BOUNDS xy xz yz pp pp pp
-6.0326788425445557e+00 8.6067802309989929e+00 2.5094206929206848e+00
-9.4973444938659668e-03 9.3236122131347656e+00 -6.0206417441368103e+00
-2.8691649436950684e-02 1.9545819282531738e+01 7.1304261684417725e-02
ITEM: ATOMS id type xs ys zs fx fy fz
1 1 0.966419 0.166926 0.0454368 0 0 0.0144939
2 1 0.514576 0.0738405 0.0571525 0 0 -0.00357628
3 1 0.669832 0.125325 0.655664 0 0 -0.0914345
4 1 0.902087 0.94895 0.914393 0 0 -0.0145035
5 1 0.565245 0.157208 0.796109 0 0 0.0565109
6 1 0.35393 0.042036 0.902678 0 0 0.00357246
7 1 0.00933402 0.250357 0.776557 0 0 0.0199718
8 1 0.983887 0.208712 0.40707 0 0 0.0260563
9 1 0.226801 0.0321582 0.67628 0 0 -0.0882435
10 1 0.88462 0.240498 0.552761 0 0 -0.0260582
11 1 0.859172 0.198853 0.183273 0 0 -0.0199718
12 1 0.641706 0.083718 0.28355 0 0 0.0882339
13 1 0.303262 0.292002 0.163721 0 0 -0.0565052
14 1 0.541032 0.115534 0.427861 0 0 0.0289612
15 1 0.966419 0.50026 0.0454368 0 0 0.0144939
16 1 0.514576 0.407174 0.0571524 0 0 -0.00357246
17 1 0.669832 0.458658 0.655664 0 0 -0.0914421
18 1 0.902087 0.282284 0.914393 0 0 -0.0144997
19 1 0.565245 0.490542 0.796109 0 0 0.0565128
20 1 0.35393 0.375369 0.902678 0 0 0.00357628
21 1 0.0093339 0.58369 0.776557 0 0 0.0199661
22 1 0.327474 0.333676 0.531969 0 0 -0.0289516
23 1 0.983887 0.542045 0.40707 0 0 0.0260563
24 1 0.226801 0.365492 0.67628 0 0 -0.0882397
25 1 0.88462 0.573831 0.552761 0 0 -0.0260448
26 1 0.198674 0.323885 0.304166 0 0 0.0914402
27 1 0.859172 0.532186 0.183273 0 0 -0.0199699
28 1 0.641706 0.417051 0.28355 0 0 0.0882378
29 1 0.303262 0.625335 0.163721 0 0 -0.0565052
30 1 0.541032 0.448867 0.427861 0 0 0.0289536
31 1 0.966419 0.833593 0.0454368 0 0 0.0144939
32 1 0.514576 0.740507 0.0571525 0 0 -0.00357437
33 1 0.669832 0.791992 0.655664 0 0 -0.0914421
34 1 0.902087 0.615617 0.914393 0 0 -0.0144997
35 1 0.565245 0.823875 0.796109 0 0 0.0565147
36 1 0.35393 0.708703 0.902678 0 0 0.00357628
37 1 0.00933394 0.917023 0.776557 0 0 0.0199718
38 1 0.327474 0.66701 0.531969 0 0 -0.0289631
39 1 0.983887 0.875378 0.407069 0 0 0.0260563
40 1 0.2268 0.698825 0.67628 0 0 -0.0882397
41 1 0.884619 0.907164 0.552761 0 0 -0.0260563
42 1 0.198674 0.657218 0.304166 0 0 0.0914364
43 1 0.859172 0.865519 0.183273 0 0 -0.0199699
44 1 0.641706 0.750385 0.28355 0 0 0.0882339
45 1 0.303262 0.958668 0.163721 0 0 -0.0565014
46 1 0.541032 0.7822 0.427861 0 0 0.0289574
47 1 0.327474 0.000342832 0.531969 0 0 -0.0289478
48 1 0.198674 0.990551 0.304166 0 0 0.0914345
ITEM: TIMESTEP
5
ITEM: NUMBER OF ATOMS
48
ITEM: BOX BOUNDS xy xz yz pp pp pp
-6.0326788425445557e+00 8.6067802309989929e+00 2.5094206929206848e+00
-9.4973444938659668e-03 9.3236122131347656e+00 -6.0206417441368103e+00
-2.8691649436950684e-02 1.9545819282531738e+01 7.1304261684417725e-02
ITEM: ATOMS id type xs ys zs fx fy fz
1 1 0.966441 0.166926 0.045459 0 0 0.031086
2 1 0.514947 0.0738376 0.0575282 0 0 -0.0164318
3 1 0.667325 0.125344 0.653128 0 0 0.00934029
4 1 0.902065 0.94895 0.914371 0 0 -0.0310726
5 1 0.565121 0.157209 0.795984 0 0 -0.00885201
6 1 0.353559 0.0420389 0.902302 0 0 0.0164299
7 1 0.00856772 0.250363 0.775782 0 0 -0.00464821
8 1 0.984484 0.208707 0.407674 0 0 0.0407619
9 1 0.224342 0.0321773 0.673794 0 0 0.013113
10 1 0.884022 0.240503 0.552156 0 0 -0.0407715
11 1 0.859939 0.198847 0.184048 0 0 0.00463867
12 1 0.644164 0.0836988 0.286036 0 0 -0.0131035
13 1 0.303385 0.292001 0.163846 0 0 0.00885391
14 1 0.541701 0.115528 0.428538 0 0 0.0455265
15 1 0.966441 0.500259 0.0454589 0 0 0.0310879
16 1 0.514947 0.407171 0.0575282 0 0 -0.0164242
17 1 0.667325 0.458678 0.653128 0 0 0.00934601
18 1 0.902065 0.282284 0.914371 0 0 -0.0310764
19 1 0.565121 0.490543 0.795984 0 0 -0.00885201
20 1 0.353559 0.375372 0.902302 0 0 0.0164261
21 1 0.00856744 0.583696 0.775782 0 0 -0.00463295
22 1 0.326806 0.333681 0.531293 0 0 -0.0455322
23 1 0.984485 0.542041 0.407674 0 0 0.0407677
24 1 0.224342 0.365511 0.673794 0 0 0.0131168
25 1 0.884022 0.573836 0.552156 0 0 -0.0407715
26 1 0.201182 0.323865 0.306702 0 0 -0.00934029
27 1 0.859939 0.53218 0.184048 0 0 0.00463867
28 1 0.644164 0.417032 0.286036 0 0 -0.0131035
29 1 0.303385 0.625334 0.163846 0 0 0.00884438
30 1 0.541701 0.448862 0.428537 0 0 0.0455341
31 1 0.966441 0.833593 0.0454589 0 0 0.0310764
32 1 0.514947 0.740504 0.0575281 0 0 -0.0164261
33 1 0.667324 0.792011 0.653128 0 0 0.00934219
34 1 0.902065 0.615617 0.914371 0 0 -0.0310898
35 1 0.565121 0.823876 0.795984 0 0 -0.00885391
36 1 0.353559 0.708706 0.902302 0 0 0.0164223
37 1 0.00856758 0.917029 0.775782 0 0 -0.00463676
38 1 0.326805 0.667015 0.531293 0 0 -0.0455284
39 1 0.984484 0.875374 0.407674 0 0 0.0407696
40 1 0.224342 0.698844 0.673794 0 0 0.0131035
41 1 0.884022 0.907169 0.552156 0 0 -0.0407677
42 1 0.201182 0.657198 0.306702 0 0 -0.0093441
43 1 0.859939 0.865513 0.184048 0 0 0.00464058
44 1 0.644164 0.750366 0.286036 0 0 -0.0131054
45 1 0.303386 0.958667 0.163846 0 0 0.00884056
46 1 0.541701 0.782195 0.428538 0 0 0.0455284
47 1 0.326805 0.000348038 0.531293 0 0 -0.0455303
48 1 0.201182 0.990532 0.306702 0 0 -0.00934029
ITEM: TIMESTEP
6
ITEM: NUMBER OF ATOMS
48
ITEM: BOX BOUNDS xy xz yz pp pp pp
-6.0326788425445557e+00 8.6067802309989929e+00 2.5094206929206848e+00
-9.4973444938659668e-03 9.3236122131347656e+00 -6.0206417441368103e+00
-2.8691649436950684e-02 1.9545819282531738e+01 7.1304261684417725e-02
ITEM: ATOMS id type xs ys zs fx fy fz
1 1 0.966822 0.166923 0.0458444 0 0 -0.00739861
2 1 0.514796 0.0738388 0.0573751 0 0 -0.00348282
3 1 0.66711 0.125346 0.652911 0 0 0.00123787
4 1 0.901684 0.948953 0.913986 0 0 0.00739098
5 1 0.564997 0.15721 0.795859 0 0 -0.0131035
6 1 0.35371 0.0420377 0.902455 0 0 0.00348854
7 1 0.0084109 0.250364 0.775623 0 0 -0.00513458
8 1 0.985059 0.208703 0.408255 0 0 0.00239372
9 1 0.22418 0.0321786 0.67363 0 0 0.00252342
10 1 0.883448 0.240507 0.551575 0 0 -0.00239182
11 1 0.860095 0.198846 0.184207 0 0 0.00513268
12 1 0.644327 0.0836976 0.2862 0 0 -0.0025177
13 1 0.303509 0.292 0.163971 0 0 0.0131073
14 1 0.542343 0.115523 0.429186 0 0 0.00526428
15 1 0.966822 0.500257 0.0458444 0 0 -0.00739861
16 1 0.514796 0.407172 0.0573752 0 0 -0.00348473
17 1 0.66711 0.458679 0.652911 0 0 0.00123787
18 1 0.901684 0.282287 0.913986 0 0 0.00739861
19 1 0.564997 0.490543 0.795859 0 0 -0.0131073
20 1 0.35371 0.375371 0.902455 0 0 0.00348473
21 1 0.00841078 0.583697 0.775623 0 0 -0.00513458
22 1 0.326164 0.333686 0.530644 0 0 -0.00527382
23 1 0.985059 0.542036 0.408255 0 0 0.00239563
24 1 0.22418 0.365512 0.67363 0 0 0.00251579
25 1 0.883448 0.57384 0.551575 0 0 -0.00239754
26 1 0.201396 0.323864 0.306919 0 0 -0.00124359
27 1 0.860095 0.532179 0.184207 0 0 0.0051403
28 1 0.644327 0.417031 0.286201 0 0 -0.00253105
29 1 0.303509 0.625333 0.163971 0 0 0.0131054
30 1 0.542342 0.448857 0.429186 0 0 0.00527573
31 1 0.966822 0.83359 0.0458443 0 0 -0.00739098
32 1 0.514796 0.740505 0.0573751 0 0 -0.00348473
33 1 0.66711 0.792013 0.652911 0 0 0.00123978
34 1 0.901684 0.61562 0.913986 0 0 0.00740242
35 1 0.564997 0.823877 0.795859 0 0 -0.0131092
36 1 0.35371 0.708704 0.902455 0 0 0.00348663
37 1 0.00841089 0.917031 0.775623 0 0 -0.00513077
38 1 0.326164 0.66702 0.530644 0 0 -0.00526237
39 1 0.985059 0.875369 0.408255 0 0 0.002388
40 1 0.22418 0.698845 0.67363 0 0 0.00251579
41 1 0.883448 0.907174 0.551575 0 0 -0.00238991
42 1 0.201396 0.657197 0.306919 0 0 -0.00123596
43 1 0.860095 0.865512 0.184207 0 0 0.00513649
44 1 0.644327 0.750364 0.2862 0 0 -0.00251389
45 1 0.303509 0.958666 0.163971 0 0 0.0131035
46 1 0.542342 0.78219 0.429186 0 0 0.00526237
47 1 0.326164 0.000353033 0.530644 0 0 -0.00527382
48 1 0.201396 0.99053 0.306919 0 0 -0.00123596
ITEM: TIMESTEP
7
ITEM: NUMBER OF ATOMS
48
ITEM: BOX BOUNDS xy xz yz pp pp pp
-6.0326788425445557e+00 8.6067802309989929e+00 2.5094206929206848e+00
-9.4973444938659668e-03 9.3236122131347656e+00 -6.0206417441368103e+00
-2.8691649436950684e-02 1.9545819282531738e+01 7.1304261684417725e-02
ITEM: ATOMS id type xs ys zs fx fy fz
1 1 0.966743 0.166924 0.0457651 0 0 0.00488663
2 1 0.514759 0.0738391 0.0573378 0 0 0.00094223
3 1 0.667123 0.125346 0.652924 0 0 -0.00260353
4 1 0.901763 0.948953 0.914065 0 0 -0.00488853
5 1 0.564858 0.157211 0.795719 0 0 -0.00304985
6 1 0.353747 0.0420374 0.902492 0 0 -0.000946045
7 1 0.00835649 0.250365 0.775568 0 0 -0.000358582
8 1 0.985084 0.208703 0.408281 0 0 -0.000347137
9 1 0.224207 0.0321784 0.673657 0 0 -0.00222397
10 1 0.883423 0.240507 0.55155 0 0 0.000343323
11 1 0.86015 0.198845 0.184262 0 0 0.000366211
12 1 0.6443 0.0836978 0.286173 0 0 0.00222588
13 1 0.303648 0.291999 0.164112 0 0 0.00305367
14 1 0.542398 0.115523 0.429243 0 0 0.00124359
15 1 0.966744 0.500257 0.0457651 0 0 0.00489235
16 1 0.514759 0.407172 0.0573379 0 0 0.00094223
17 1 0.667123 0.458679 0.652924 0 0 -0.00260544
18 1 0.901762 0.282286 0.914065 0 0 -0.00489044
19 1 0.564858 0.490545 0.795719 0 0 -0.00305557
20 1 0.353747 0.375371 0.902492 0 0 -0.00094223
21 1 0.00835637 0.583698 0.775568 0 0 -0.000366211
22 1 0.326108 0.333687 0.530587 0 0 -0.00123405
23 1 0.985084 0.542036 0.408281 0 0 -0.00034523
24 1 0.224207 0.365512 0.673657 0 0 -0.00222969
25 1 0.883423 0.57384 0.55155 0 0 0.000341415
26 1 0.201383 0.323864 0.306906 0 0 0.00260735
27 1 0.86015 0.532178 0.184262 0 0 0.000360489
28 1 0.6443 0.417031 0.286173 0 0 0.00223351
29 1 0.303648 0.625332 0.164112 0 0 0.00305176
30 1 0.542398 0.448856 0.429243 0 0 0.00122833
31 1 0.966743 0.83359 0.045765 0 0 0.00489426
32 1 0.514759 0.740506 0.0573378 0 0 0.000946045
33 1 0.667123 0.792013 0.652924 0 0 -0.00260162
34 1 0.901762 0.615619 0.914065 0 0 -0.00489235
35 1 0.564858 0.823878 0.795719 0 0 -0.00305748
36 1 0.353747 0.708704 0.902492 0 0 -0.000946045
37 1 0.00835652 0.917031 0.775568 0 0 -0.000362396
38 1 0.326108 0.66702 0.530587 0 0 -0.00123978
39 1 0.985084 0.875369 0.40828 0 0 -0.000337601
40 1 0.224206 0.698845 0.673657 0 0 -0.00222206
41 1 0.883422 0.907174 0.55155 0 0 0.000337601
42 1 0.201383 0.657197 0.306906 0 0 0.00260353
43 1 0.86015 0.865512 0.184262 0 0 0.000362396
44 1 0.6443 0.750364 0.286174 0 0 0.00222397
45 1 0.303648 0.958665 0.164112 0 0 0.00305367
46 1 0.542398 0.78219 0.429243 0 0 0.00124359
47 1 0.326108 0.000353468 0.530587 0 0 -0.00124359
48 1 0.201383 0.99053 0.306906 0 0 0.00260544
ITEM: TIMESTEP
8
ITEM: NUMBER OF ATOMS
48
ITEM: BOX BOUNDS xy xz yz pp pp pp
-6.0326788425445557e+00 8.6067802309989929e+00 2.5094206929206848e+00
-9.4973444938659668e-03 9.3236122131347656e+00 -6.0206417441368103e+00
-2.8691649436950684e-02 1.9545819282531738e+01 7.1304261684417725e-02
ITEM: ATOMS id type xs ys zs fx fy fz
1 1 0.966832 0.166923 0.0458546 0 0 -0.00228882
2 1 0.514768 0.073839 0.0573472 0 0 0.00159073
3 1 0.667066 0.125346 0.652866 0 0 -0.00230217
4 1 0.901674 0.948953 0.913975 0 0 0.00230598
5 1 0.564737 0.157212 0.795595 0 0 0.000759125
6 1 0.353737 0.0420375 0.902483 0 0 -0.00159264
7 1 0.00832869 0.250365 0.77554 0 0 -0.00170326
8 1 0.985085 0.208703 0.408281 0 0 0.000116348
9 1 0.224163 0.0321787 0.673613 0 0 -0.00270271
10 1 0.883422 0.240507 0.551549 0 0 -0.000114441
11 1 0.860178 0.198845 0.18429 0 0 0.00169754
12 1 0.644343 0.0836974 0.286217 0 0 0.00270844
13 1 0.30377 0.291998 0.164235 0 0 -0.000761032
14 1 0.542448 0.115523 0.429293 0 0 -0.000383377
15 1 0.966832 0.500256 0.0458547 0 0 -0.00229645
16 1 0.514769 0.407172 0.0573473 0 0 0.00158882
17 1 0.667066 0.45868 0.652866 0 0 -0.00229836
18 1 0.901674 0.282287 0.913976 0 0 0.00229454
19 1 0.564736 0.490545 0.795595 0 0 0.000761032
20 1 0.353738 0.375371 0.902483 0 0 -0.00159264
21 1 0.0083284 0.583698 0.77554 0 0 -0.00169754
22 1 0.326059 0.333687 0.530538 0 0 0.000366211
23 1 0.985085 0.542036 0.408281 0 0 0.000110626
24 1 0.224163 0.365512 0.673613 0 0 -0.00270081
25 1 0.883422 0.57384 0.551549 0 0 -0.000112534
26 1 0.20144 0.323863 0.306964 0 0 0.00230026
27 1 0.860178 0.532178 0.18429 0 0 0.00170326
28 1 0.644343 0.417031 0.286217 0 0 0.00270271
29 1 0.30377 0.625331 0.164235 0 0 -0.000759125
30 1 0.542447 0.448856 0.429292 0 0 -0.000362396
31 1 0.966832 0.83359 0.0458547 0 0 -0.00230217
32 1 0.514769 0.740506 0.0573473 0 0 0.00158882
33 1 0.667066 0.792013 0.652866 0 0 -0.00230598
34 1 0.901674 0.61562 0.913976 0 0 0.00229263
35 1 0.564737 0.823879 0.795595 0 0 0.000766754
36 1 0.353737 0.708704 0.902483 0 0 -0.00159264
37 1 0.00832865 0.917031 0.77554 0 0 -0.00170135
38 1 0.326059 0.667021 0.530538 0 0 0.000371933
39 1 0.985085 0.875369 0.408281 0 0 0.000104904
40 1 0.224163 0.698846 0.673613 0 0 -0.00270653
41 1 0.883421 0.907174 0.551549 0 0 -0.000106812
42 1 0.20144 0.657196 0.306964 0 0 0.00229454
43 1 0.860178 0.865512 0.18429 0 0 0.00169945
44 1 0.644343 0.750364 0.286217 0 0 0.00271034
45 1 0.30377 0.958664 0.164235 0 0 -0.000757217
46 1 0.542447 0.782189 0.429293 0 0 -0.00037384
47 1 0.326059 0.000353852 0.530538 0 0 0.00038147
48 1 0.20144 0.99053 0.306964 0 0 0.00229836
ITEM: TIMESTEP
9
ITEM: NUMBER OF ATOMS
48
ITEM: BOX BOUNDS xy xz yz pp pp pp
-6.0326788425445557e+00 8.6067802309989929e+00 2.5094206929206848e+00
-9.4973444938659668e-03 9.3236122131347656e+00 -6.0206417441368103e+00
-2.8691649436950684e-02 1.9545819282531738e+01 7.1304261684417725e-02
ITEM: ATOMS id type xs ys zs fx fy fz
1 1 0.966822 0.166923 0.0458448 0 0 0.000505447
2 1 0.51481 0.0738387 0.0573889 0 0 -0.000125885
3 1 0.666985 0.125347 0.652784 0 0 0.000259399
4 1 0.901684 0.948953 0.913986 0 0 -0.000514984
5 1 0.564695 0.157212 0.795553 0 0 0.000814438
6 1 0.353696 0.0420378 0.902441 0 0 0.000120163
7 1 0.00827587 0.250365 0.775487 0 0 -0.00127411
8 1 0.985088 0.208703 0.408284 0 0 0.00167465
9 1 0.22408 0.0321794 0.673528 0 0 0.000219345
10 1 0.883419 0.240507 0.551546 0 0 -0.00168228
11 1 0.860231 0.198845 0.184343 0 0 0.0012722
12 1 0.644427 0.0836968 0.286302 0 0 -0.000225067
13 1 0.303812 0.291997 0.164277 0 0 -0.00082016
14 1 0.542463 0.115522 0.429308 0 0 0.000793457
15 1 0.966822 0.500257 0.0458448 0 0 0.000495911
16 1 0.51481 0.407172 0.0573889 0 0 -0.000120163
17 1 0.666985 0.45868 0.652784 0 0 0.000259399
18 1 0.901684 0.282287 0.913985 0 0 -0.000495911
19 1 0.564695 0.490546 0.795553 0 0 0.000822067
20 1 0.353696 0.375371 0.902441 0 0 0.000118256
21 1 0.00827561 0.583699 0.775487 0 0 -0.00126839
22 1 0.326044 0.333687 0.530522 0 0 -0.000782013
23 1 0.985088 0.542036 0.408284 0 0 0.00167465
24 1 0.22408 0.365513 0.673528 0 0 0.00022316
25 1 0.883419 0.57384 0.551546 0 0 -0.00167084
26 1 0.201521 0.323863 0.307046 0 0 -0.000265121
27 1 0.860231 0.532178 0.184343 0 0 0.00127029
28 1 0.644427 0.41703 0.286302 0 0 -0.000225067
29 1 0.303812 0.625331 0.164277 0 0 -0.000818253
30 1 0.542463 0.448856 0.429308 0 0 0.000795364
31 1 0.966822 0.83359 0.0458447 0 0 0.000514984
32 1 0.51481 0.740505 0.057389 0 0 -0.000123978
33 1 0.666985 0.792014 0.652784 0 0 0.000268936
34 1 0.901684 0.61562 0.913985 0 0 -0.000495911
35 1 0.564695 0.823879 0.795553 0 0 0.000814438
36 1 0.353696 0.708705 0.902441 0 0 0.000123978
37 1 0.00827583 0.917032 0.775487 0 0 -0.00126839
38 1 0.326044 0.667021 0.530522 0 0 -0.00079155
39 1 0.985088 0.875369 0.408284 0 0 0.00168228
40 1 0.224079 0.698846 0.673528 0 0 0.00022316
41 1 0.883418 0.907174 0.551546 0 0 -0.00167465
42 1 0.201521 0.657196 0.307046 0 0 -0.000255585
43 1 0.860231 0.865511 0.184343 0 0 0.00126648
44 1 0.644427 0.750363 0.286302 0 0 -0.000232697
45 1 0.303812 0.958664 0.164277 0 0 -0.000822067
46 1 0.542463 0.782189 0.429308 0 0 0.000787735
47 1 0.326043 0.000353971 0.530522 0 0 -0.000787735
48 1 0.201521 0.990529 0.307046 0 0 -0.000259399
ITEM: TIMESTEP
10
ITEM: NUMBER OF ATOMS
48
ITEM: BOX BOUNDS xy xz yz pp pp pp
-6.0326788425445557e+00 8.6067802309989929e+00 2.5094206929206848e+00
-9.4973444938659668e-03 9.3236122131347656e+00 -6.0206417441368103e+00
-2.8691649436950684e-02 1.9545819282531738e+01 7.1304261684417725e-02
ITEM: ATOMS id type xs ys zs fx fy fz
1 1 0.966829 0.166923 0.0458512 0 0 0.000131607
2 1 0.514815 0.0738386 0.0573941 0 0 -0.000164032
3 1 0.666975 0.125347 0.652774 0 0 -8.39233e-05
4 1 0.901678 0.948953 0.913979 0 0 -0.000127792
5 1 0.564701 0.157212 0.795559 0 0 2.86102e-05
6 1 0.353691 0.0420379 0.902436 0 0 0.000154495
7 1 0.00824644 0.250365 0.775457 0 0 -0.000144958
8 1 0.985115 0.208702 0.408312 0 0 2.09808e-05
9 1 0.224069 0.0321795 0.673517 0 0 3.62396e-05
10 1 0.883391 0.240507 0.551518 0 0 -2.09808e-05
11 1 0.86026 0.198844 0.184373 0 0 0.000141144
12 1 0.644438 0.0836967 0.286313 0 0 -4.19617e-05
13 1 0.303806 0.291997 0.164271 0 0 -2.09808e-05
14 1 0.542478 0.115522 0.429324 0 0 -0.000204086
15 1 0.966829 0.500256 0.0458511 0 0 0.000139236
16 1 0.514815 0.407172 0.0573942 0 0 -0.00015831
17 1 0.666975 0.45868 0.652774 0 0 -9.15527e-05
18 1 0.901678 0.282287 0.913979 0 0 -0.000131607
19 1 0.5647 0.490546 0.795559 0 0 2.09808e-05
20 1 0.353691 0.375371 0.902436 0 0 0.000156403
21 1 0.00824629 0.583699 0.775457 0 0 -0.000141144
22 1 0.326029 0.333687 0.530507 0 0 0.000204086
23 1 0.985115 0.542036 0.408312 0 0 2.67029e-05
24 1 0.224069 0.365513 0.673517 0 0 4.00543e-05
25 1 0.883391 0.57384 0.551518 0 0 -2.09808e-05
26 1 0.201531 0.323862 0.307056 0 0 9.15527e-05
27 1 0.86026 0.532178 0.184373 0 0 0.000143051
28 1 0.644438 0.41703 0.286313 0 0 -3.62396e-05
29 1 0.303806 0.625331 0.164271 0 0 -2.86102e-05
30 1 0.542478 0.448856 0.429324 0 0 -0.000211716
31 1 0.966829 0.83359 0.0458513 0 0 0.000127792
32 1 0.514815 0.740505 0.0573942 0 0 -0.000160217
33 1 0.666975 0.792014 0.652774 0 0 -9.53674e-05
34 1 0.901677 0.61562 0.913979 0 0 -0.000131607
35 1 0.564701 0.823879 0.795559 0 0 3.24249e-05
36 1 0.353691 0.708705 0.902436 0 0 0.00015831
37 1 0.00824649 0.917032 0.775457 0 0 -0.000150681
38 1 0.326028 0.667021 0.530507 0 0 0.000209808
39 1 0.985115 0.875369 0.408312 0 0 2.28882e-05
40 1 0.224068 0.698846 0.673517 0 0 4.00543e-05
41 1 0.883391 0.907174 0.551518 0 0 -2.67029e-05
42 1 0.201531 0.657196 0.307056 0 0 9.15527e-05
43 1 0.86026 0.865511 0.184373 0 0 0.000152588
44 1 0.644438 0.750363 0.286313 0 0 -3.8147e-05
45 1 0.303806 0.958664 0.164271 0 0 -2.47955e-05
46 1 0.542478 0.782189 0.429324 0 0 -0.000209808
47 1 0.326028 0.00035409 0.530507 0 0 0.000204086
48 1 0.201531 0.990529 0.307056 0 0 9.15527e-05
ITEM: TIMESTEP
11
ITEM: NUMBER OF ATOMS
48
ITEM: BOX BOUNDS xy xz yz pp pp pp
-6.0326788425445557e+00 8.6067802309989929e+00 2.5094206929206848e+00
-9.4973444938659668e-03 9.3236122131347656e+00 -6.0206417441368103e+00
-2.8691649436950684e-02 1.9545819282531738e+01 7.1304261684417725e-02
ITEM: ATOMS id type xs ys zs fx fy fz
1 1 0.96683 0.166923 0.0458532 0 0 -6.10352e-05
2 1 0.514812 0.0738387 0.0573917 0 0 2.28882e-05
3 1 0.666974 0.125347 0.652773 0 0 -7.62939e-06
4 1 0.901676 0.948953 0.913977 0 0 6.48499e-05
5 1 0.564701 0.157212 0.795559 0 0 -3.05176e-05
6 1 0.353693 0.0420379 0.902438 0 0 -2.09808e-05
7 1 0.00824429 0.250365 0.775455 0 0 -4.3869e-05
8 1 0.985115 0.208702 0.408312 0 0 5.34058e-05
9 1 0.224069 0.0321795 0.673518 0 0 1.52588e-05
10 1 0.883391 0.240507 0.551518 0 0 -4.57764e-05
11 1 0.860262 0.198844 0.184375 0 0 4.76837e-05
12 1 0.644437 0.0836967 0.286312 0 0 -1.14441e-05
13 1 0.303805 0.291997 0.164271 0 0 1.90735e-05
14 1 0.542475 0.115522 0.42932 0 0 -3.24249e-05
15 1 0.966831 0.500256 0.0458531 0 0 -6.48499e-05
16 1 0.514813 0.407172 0.0573918 0 0 1.33514e-05
17 1 0.666974 0.45868 0.652773 0 0 -5.72205e-06
18 1 0.901676 0.282287 0.913977 0 0 6.10352e-05
19 1 0.564701 0.490546 0.795559 0 0 -1.90735e-05
20 1 0.353693 0.375371 0.902438 0 0 -2.09808e-05
21 1 0.0082442 0.583699 0.775455 0 0 -4.95911e-05
22 1 0.326032 0.333687 0.53051 0 0 2.86102e-05
23 1 0.985115 0.542036 0.408312 0 0 5.72205e-05
24 1 0.224069 0.365513 0.673518 0 0 1.71661e-05
25 1 0.883391 0.57384 0.551518 0 0 -5.53131e-05
26 1 0.201532 0.323862 0.307057 0 0 7.62939e-06