ITEM: TIMESTEP
0
ITEM: NUMBER OF ATOMS
56
ITEM: BOX BOUNDS xy xz yz pp pp pp
-3.1841849684715271e+00 1.2156271994113922e+01 8.9406967163085938e-07
-8.2894563674926758e-03 5.5346975326538086e+00 -3.2130137085914612e+00
-4.5665502548217773e-03 1.9024526596069336e+01 -5.9604644775390625e-08
ITEM: ATOMS id type xs ys zs fx fy fz
1 1 0.586694 0.999993 0.132369 0 0.0372219 0.108839
2 1 0.336693 0.166674 0.132369 0 -0.0372219 0.10885
3 1 0.263547 1 0.275226 0 -0.00567055 0.00251198
4 1 0.0135456 0.166667 0.275226 0 0.00567245 0.00251007
5 1 0.940371 1 0.418084 0 -4.76837e-05 -0.00195694
6 1 0.0866923 0.999993 0.132369 0 0.0372238 0.108858
7 1 0.998252 0.500035 0.0609392 0 1.33944 0.978348
8 1 0.836692 0.166674 0.132369 0 -0.0372124 0.108828
9 1 0.748252 0.666632 0.0609392 0 -1.33944 0.978331
10 1 0.763545 1 0.275226 0 -0.00567436 0.00251007
11 1 0.690373 0.166667 0.418084 0 5.72205e-05 -0.00195122
12 1 0.6172 3.67832e-07 0.560938 0 -0.0004673 0.00170898
13 1 0.367199 0.166667 0.560938 0 0.000476837 0.00170326
14 1 0.294016 1 0.703795 0 -0.00114632 0.00279808
15 1 0.0440159 0.166667 0.703795 0 0.00115395 0.00279808
16 1 0.970854 0.999999 0.846658 0 -0.00621986 -0.024374
17 1 0.675127 0.499999 0.203795 0 -0.00622559 0.0243702
18 1 0.513547 0.166667 0.275226 0 0.00567436 0.00250626
19 1 0.425127 0.666668 0.203795 0 0.00621986 0.0243626
20 1 0.440372 1 0.418084 0 -4.3869e-05 -0.00196075
21 1 0.351965 0.5 0.346658 0 -0.00115204 -0.00279808
22 1 0.190371 0.166667 0.418084 0 4.57764e-05 -0.00196075
23 1 0.101964 0.666667 0.346658 0 0.00114441 -0.00278854
24 1 0.117198 3.50169e-07 0.560938 0 -0.000465393 0.00170517
25 1 0.028781 0.5 0.489515 0 -0.000473022 -0.00170517
26 1 0.867198 0.166667 0.560938 0 0.00047493 0.00170517
27 1 0.778781 0.666667 0.489515 0 0.000471115 -0.0017128
28 1 0.498253 0.500035 0.0609392 0 1.33938 0.978304
29 1 0.248253 0.666632 0.0609392 0 -1.3394 0.978327
30 1 0.175126 0.499999 0.203795 0 -0.00622749 0.0243607
31 1 0.925125 0.666668 0.203795 0 0.00622749 0.0243645
32 1 0.851963 0.5 0.346658 0 -0.00115013 -0.00278664
33 1 0.720855 0.166668 0.846658 0 0.00621986 -0.024353
34 1 0.647729 3.5121e-05 0.989514 0 1.33945 -0.978354
35 1 0.397728 0.166632 0.989514 0 -1.33939 -0.978315
36 1 0.794018 1 0.703795 0 -0.00114441 0.00279427
37 1 0.70561 0.5 0.632369 0 -5.91278e-05 0.00195885
38 1 0.544017 0.166667 0.703795 0 0.00114822 0.00278854
39 1 0.45561 0.666668 0.632369 0 4.3869e-05 0.00195122
40 1 0.470855 0.999999 0.846658 0 -0.00622749 -0.0243587
41 1 0.382435 0.5 0.775226 0 -0.00566483 -0.00251007
42 1 0.220854 0.166668 0.846658 0 0.00623131 -0.0243645
43 1 0.132434 0.666667 0.775226 0 0.00566483 -0.00250435
44 1 0.147728 3.50854e-05 0.989514 0 1.33939 -0.978317
45 1 0.0592873 0.499993 0.918084 0 0.0372162 -0.108845
46 1 0.601965 0.666667 0.346658 0 0.0011425 -0.00279236
47 1 0.528782 0.5 0.489515 0 -0.00047493 -0.00170898
48 1 0.278782 0.666667 0.489515 0 0.000473022 -0.00170326
49 1 0.205609 0.5 0.632369 0 -4.95911e-05 0.00195503
50 1 0.955608 0.666667 0.632369 0 4.19617e-05 0.00195503
51 1 0.882433 0.5 0.775226 0 -0.00567436 -0.00251579
52 1 0.897729 0.166632 0.989514 0 -1.33944 -0.978325
53 1 0.809289 0.666674 0.918084 0 -0.03722 -0.108824
54 1 0.632435 0.666667 0.775226 0 0.00567436 -0.00250626
55 1 0.559289 0.499993 0.918084 0 0.0372181 -0.108854
56 1 0.309288 0.666674 0.918084 0 -0.0372238 -0.108856
ITEM: TIMESTEP
1
ITEM: NUMBER OF ATOMS
56
ITEM: BOX BOUNDS xy xz yz pp pp pp
-3.1841849684715271e+00 1.2156271994113922e+01 8.9406967163085938e-07
-8.2894563674926758e-03 5.5346975326538086e+00 -3.2130137085914612e+00
-4.5665502548217773e-03 1.9024526596069336e+01 -5.9604644775390625e-08
ITEM: ATOMS id type xs ys zs fx fy fz
1 1 0.586807 1.00049 0.132796 0 0.119934 0.0338402
2 1 0.336806 0.166173 0.132796 0 -0.119936 0.0338516
3 1 0.263549 0.999923 0.275236 0 -0.00714111 0.0123844
4 1 0.0135482 0.166744 0.275236 0 0.00714874 0.012373
5 1 0.940369 0.999999 0.418077 0 -0.000154495 -0.000831604
6 1 0.0868054 1.00049 0.132796 0 0.119946 0.0338497
7 1 0.999269 0.518076 0.0647776 0 0.503881 0.233669
8 1 0.836805 0.166173 0.132796 0 -0.119942 0.0338268
9 1 0.749268 0.648591 0.0647775 0 -0.503881 0.233652
10 1 0.763548 0.999923 0.275236 0 -0.00713921 0.0123825
11 1 0.690371 0.166668 0.418077 0 0.000154495 -0.000831604
12 1 0.617202 -5.92615e-06 0.560945 0 -0.00028801 0.00137901
13 1 0.367201 0.166673 0.560945 0 0.000286102 0.00137711
14 1 0.294019 0.999984 0.703806 0 -0.00205803 -0.000406265
15 1 0.0440188 0.166683 0.703806 0 0.00206184 -0.000413895
16 1 0.970828 0.999915 0.846562 0 -0.0274067 -0.115152
17 1 0.675153 0.499915 0.203891 0 -0.0274105 0.115145
18 1 0.51355 0.166744 0.275236 0 0.00715065 0.0123787
19 1 0.425152 0.666752 0.203891 0 0.0274162 0.115135
20 1 0.44037 0.999999 0.418077 0 -0.000148773 -0.000829697
21 1 0.351962 0.499984 0.346647 0 -0.00206566 0.00041008
22 1 0.190369 0.166668 0.418077 0 0.000156403 -0.000831604
23 1 0.101961 0.666683 0.346647 0 0.00205803 0.000408173
24 1 0.1172 -5.91812e-06 0.560945 0 -0.000295639 0.00137329
25 1 0.0287792 0.499994 0.489508 0 -0.000293732 -0.00137329
26 1 0.8672 0.166673 0.560945 0 0.000293732 0.00136948
27 1 0.778779 0.666673 0.489508 0 0.000297546 -0.00136948
28 1 0.49927 0.518075 0.0647774 0 0.50387 0.233669
29 1 0.24927 0.648592 0.0647775 0 -0.503878 0.233665
30 1 0.175151 0.499915 0.203891 0 -0.027422 0.115135
31 1 0.925151 0.666752 0.203891 0 0.0274162 0.115137
32 1 0.85196 0.499985 0.346647 0 -0.00206375 0.00041008
33 1 0.72083 0.166752 0.846562 0 0.0274162 -0.115137
34 1 0.646712 0.0180759 0.985675 0 0.503883 -0.233675
35 1 0.396711 0.148592 0.985675 0 -0.503872 -0.233675
36 1 0.794021 0.999984 0.703806 0 -0.00205612 -0.00041008
37 1 0.705612 0.499999 0.632376 0 -0.00015831 0.000841141
38 1 0.54402 0.166683 0.703806 0 0.00206184 -0.000402451
39 1 0.455612 0.666668 0.632376 0 0.000150681 0.000833511
40 1 0.47083 0.999915 0.846562 0 -0.0274143 -0.115131
41 1 0.382432 0.499924 0.775217 0 -0.00714874 -0.0123863
42 1 0.220829 0.166752 0.846562 0 0.0274181 -0.115139
43 1 0.132431 0.666744 0.775217 0 0.00714874 -0.0123844
44 1 0.146711 0.0180751 0.985675 0 0.503868 -0.233669
45 1 0.0591742 0.500494 0.917657 0 0.119932 -0.0338402
46 1 0.601962 0.666683 0.346647 0 0.00205994 0.00041008
47 1 0.528781 0.499994 0.489508 0 -0.000297546 -0.00136757
48 1 0.27878 0.666673 0.489508 0 0.000286102 -0.00136757
49 1 0.205611 0.499999 0.632376 0 -0.000156403 0.000823975
50 1 0.95561 0.666668 0.632376 0 0.000152588 0.000827789
51 1 0.882431 0.499924 0.775217 0 -0.00714684 -0.0123806
52 1 0.896713 0.148591 0.985675 0 -0.503883 -0.233652
53 1 0.809176 0.666173 0.917657 0 -0.119942 -0.0338268
54 1 0.632433 0.666744 0.775217 0 0.00715065 -0.0123806
55 1 0.559175 0.500494 0.917657 0 0.119942 -0.0338459
56 1 0.309175 0.666173 0.917657 0 -0.119942 -0.0338478
ITEM: TIMESTEP
2
ITEM: NUMBER OF ATOMS
56
ITEM: BOX BOUNDS xy xz yz pp pp pp
-3.1841849684715271e+00 1.2156271994113922e+01 8.9406967163085938e-07
-8.2894563674926758e-03 5.5346975326538086e+00 -3.2130137085914612e+00
-4.5665502548217773e-03 1.9024526596069336e+01 -5.9604644775390625e-08
ITEM: ATOMS id type xs ys zs fx fy fz
1 1 0.5869 1.00479 0.133149 0 0.155743 0.00549316
2 1 0.3369 0.161879 0.133149 0 -0.155746 0.00549889
3 1 0.263583 0.999668 0.275365 0 -0.0070591 0.0283813
4 1 0.0135824 0.167 0.275365 0 0.00706673 0.0283928
5 1 0.940367 0.999993 0.418068 0 -0.00115013 0.00322151
6 1 0.086899 1.00479 0.133149 0 0.155743 0.00549889
7 1 0.999915 0.536117 0.0672146 0 0.0369568 -0.166746
8 1 0.836899 0.161879 0.133148 0 -0.155756 0.00549507
9 1 0.749914 0.630551 0.0672144 0 -0.0369415 -0.166759
10 1 0.763582 0.999668 0.275365 0 -0.007061 0.0283737
11 1 0.690368 0.166674 0.418068 0 0.00113678 0.00322342
12 1 0.617205 -1.62379e-05 0.560959 0 -0.000162125 0.000272751
13 1 0.367205 0.166683 0.560959 0 0.000156403 0.000267029
14 1 0.294018 0.999911 0.703802 0 -0.00610733 -0.0248413
15 1 0.0440177 0.166757 0.703801 0 0.00610352 -0.0248394
16 1 0.97051 0.998934 0.845361 0 -0.0126228 -0.116669
17 1 0.675471 0.498934 0.205092 0 -0.012619 0.116661
18 1 0.513584 0.167 0.275365 0 0.007061 0.0283775
19 1 0.42547 0.667733 0.205091 0 0.0126152 0.116671
20 1 0.440368 0.999994 0.418068 0 -0.00115204 0.0032196
21 1 0.351963 0.499911 0.346651 0 -0.00610161 0.0248432
22 1 0.190367 0.166674 0.418068 0 0.00113869 0.0032196
23 1 0.101962 0.666756 0.346651 0 0.00609589 0.024828
24 1 0.117204 -1.65031e-05 0.560959 0 -0.000154495 0.000268936
25 1 0.0287754 0.499984 0.489494 0 -0.000160217 -0.000270844
26 1 0.867204 0.166684 0.560959 0 0.000167847 0.000267029
27 1 0.778775 0.666684 0.489494 0 0.000156403 -0.000276566
28 1 0.499916 0.536115 0.0672144 0 0.036953 -0.166742
29 1 0.249915 0.630551 0.0672144 0 -0.0369511 -0.16674
30 1 0.175469 0.498934 0.205092 0 -0.0126057 0.116678
31 1 0.925469 0.667734 0.205092 0 0.0126152 0.116673
32 1 0.851962 0.499911 0.346651 0 -0.00608253 0.024847
33 1 0.720512 0.167733 0.845361 0 0.0126133 -0.116671
34 1 0.646066 0.0361168 0.983238 0 0.0369511 0.166756
35 1 0.396066 0.130551 0.983238 0 -0.0369587 0.166742
36 1 0.794019 0.999911 0.703801 0 -0.00609398 -0.0248451
37 1 0.705614 0.499993 0.632385 0 -0.00113678 -0.00322533
38 1 0.544019 0.166756 0.703802 0 0.00609207 -0.0248299
39 1 0.455614 0.666673 0.632385 0 0.00115013 -0.0032177
40 1 0.470512 0.998934 0.845361 0 -0.0126133 -0.116678
41 1 0.382398 0.499668 0.775087 0 -0.0070591 -0.0283737
42 1 0.220511 0.167733 0.845361 0 0.0126114 -0.116673
43 1 0.132397 0.667 0.775087 0 0.00705528 -0.0283813
44 1 0.146065 0.0361154 0.983238 0 0.036953 0.166748
45 1 0.0590807 0.504788 0.917304 0 0.155743 -0.00549889
46 1 0.601963 0.666756 0.346651 0 0.00610161 0.0248394
47 1 0.528777 0.499983 0.489494 0 -0.000162125 -0.000272751
48 1 0.278776 0.666683 0.489494 0 0.000160217 -0.000274658
49 1 0.205613 0.499994 0.632385 0 -0.00114059 -0.00320435
50 1 0.955613 0.666674 0.632385 0 0.0011425 -0.0032196
51 1 0.882397 0.499668 0.775087 0 -0.00705338 -0.0283852
52 1 0.896067 0.13055 0.983238 0 -0.0369473 0.166756
53 1 0.809082 0.661879 0.917304 0 -0.155748 -0.00549316
54 1 0.632398 0.667 0.775087 0 0.00706291 -0.0283718
55 1 0.559082 0.504789 0.917304 0 0.155745 -0.00551033
56 1 0.309081 0.661879 0.917304 0 -0.155743 -0.0055027
ITEM: TIMESTEP
3
ITEM: NUMBER OF ATOMS
56
ITEM: BOX BOUNDS xy xz yz pp pp pp
-3.1841849684715271e+00 1.2156271994113922e+01 8.9406967163085938e-07
-8.2894563674926758e-03 5.5346975326538086e+00 -3.2130137085914612e+00
-4.5665502548217773e-03 1.9024526596069336e+01 -5.9604644775390625e-08
ITEM: ATOMS id type xs ys zs fx fy fz
1 1 0.586957 1.01647 0.133364 0 -0.00181007 0.0345116
2 1 0.336957 0.150194 0.133364 0 0.0018158 0.0345097
3 1 0.26374 0.999119 0.275955 0 -0.00192261 0.0317402
4 1 0.0137387 0.167549 0.275955 0 0.00191307 0.0317307
5 1 0.940382 0.999915 0.418128 0 -0.00328445 0.015892
6 1 0.086956 1.01647 0.133364 0 -0.00180817 0.0345249
7 1 0.999257 0.544129 0.0647329 0 0.0625477 0.00888252
8 1 0.836955 0.150193 0.133364 0 0.00183296 0.0345249
9 1 0.749257 0.622539 0.0647324 0 -0.062561 0.0089016
10 1 0.763738 0.999119 0.275955 0 -0.00191879 0.0317345
11 1 0.690384 0.166751 0.418128 0 0.0032959 0.0158939
12 1 0.617208 -3.01994e-05 0.560969 0 -0.00219345 -0.00916481
13 1 0.367207 0.166697 0.560969 0 0.0022049 -0.00915527
14 1 0.29389 0.999482 0.703319 0 -0.0100002 -0.0576344
15 1 0.0438898 0.167185 0.703319 0 0.010006 -0.0576363
16 1 0.969813 0.997792 0.84273 0 0.0589695 0.0811768
17 1 0.676168 0.497792 0.207722 0 0.0589714 -0.0811634
18 1 0.51374 0.167548 0.275955 0 0.0019207 0.031744
19 1 0.426167 0.668875 0.207722 0 -0.0589676 -0.0811501
20 1 0.440384 0.999915 0.418128 0 -0.00328636 0.0158958
21 1 0.352091 0.499482 0.347134 0 -0.0100098 0.0576305
22 1 0.190383 0.166751 0.418128 0 0.00328827 0.0158939
23 1 0.10209 0.667185 0.347134 0 0.0100174 0.0576458
24 1 0.117207 -3.0041e-05 0.560969 0 -0.00219917 -0.00917053
25 1 0.0287729 0.49997 0.489484 0 -0.00219727 0.00916862
26 1 0.867206 0.166698 0.560969 0 0.00218964 -0.00917053
27 1 0.778772 0.666697 0.489484 0 0.00218964 0.00917244
28 1 0.499258 0.544127 0.0647328 0 0.0625248 0.00887299
29 1 0.249258 0.622539 0.0647329 0 -0.0625477 0.00888062
30 1 0.176166 0.497793 0.207723 0 0.0589657 -0.0811634
31 1 0.926166 0.668875 0.207722 0 -0.0589657 -0.0811634
32 1 0.852089 0.499483 0.347134 0 -0.0100212 0.0576229
33 1 0.719815 0.168875 0.84273 0 -0.0589638 0.0811691
34 1 0.646724 0.0441288 0.98572 0 0.0625553 -0.00889206
35 1 0.396723 0.122539 0.98572 0 -0.0625381 -0.0088768
36 1 0.793891 0.999483 0.703319 0 -0.0100136 -0.0576267
37 1 0.705598 0.499916 0.632325 0 -0.00328636 -0.0158939
38 1 0.543891 0.167185 0.703319 0 0.0100231 -0.0576439
39 1 0.455598 0.666752 0.632325 0 0.00328064 -0.0158958
40 1 0.469815 0.997792 0.84273 0 0.058979 0.0811653
41 1 0.382242 0.499119 0.774498 0 -0.0019207 -0.031744
42 1 0.219814 0.168875 0.84273 0 -0.0589714 0.0811558
43 1 0.132241 0.667548 0.774498 0 0.00191689 -0.0317345
44 1 0.146723 0.0441273 0.98572 0 0.0625362 -0.00888824
45 1 0.0590237 0.516473 0.917089 0 -0.0018177 -0.0345192
46 1 0.602091 0.667185 0.347134 0 0.010006 0.0576324
47 1 0.528774 0.499969 0.489484 0 -0.00219536 0.00917053
48 1 0.278774 0.666697 0.489484 0 0.00219345 0.00917244
49 1 0.205597 0.499916 0.632325 0 -0.00329018 -0.0159111
50 1 0.955597 0.666751 0.632325 0 0.00329208 -0.0159073
51 1 0.88224 0.49912 0.774498 0 -0.00192833 -0.0317402
52 1 0.896724 0.122539 0.98572 0 -0.0625439 -0.00888062
53 1 0.809025 0.650194 0.917089 0 0.00182152 -0.034523
54 1 0.632242 0.667549 0.774498 0 0.00191307 -0.0317497
55 1 0.559025 0.516473 0.917089 0 -0.0018158 -0.0345078
56 1 0.309024 0.650194 0.917089 0 0.00180817 -0.0345097
ITEM: TIMESTEP
4
ITEM: NUMBER OF ATOMS
56
ITEM: BOX BOUNDS xy xz yz pp pp pp
-3.1841849684715271e+00 1.2156271994113922e+01 8.9406967163085938e-07
-8.2894563674926758e-03 5.5346975326538086e+00 -3.2130137085914612e+00
-4.5665502548217773e-03 1.9024526596069336e+01 -5.9604644775390625e-08
ITEM: ATOMS id type xs ys zs fx fy fz
1 1 0.587203 1.02199 0.134292 0 -0.0273571 0.019886
2 1 0.337203 0.144678 0.134292 0 0.027338 0.019886
3 1 0.264016 0.998696 0.276999 0 0.00949478 0.00752831
4 1 0.0140153 0.167972 0.276999 0 -0.00948715 0.00753784
5 1 0.940491 0.999608 0.418536 0 -0.00372696 0.02178
6 1 0.0872021 1.02199 0.134293 0 -0.0273418 0.0198689
7 1 0.998995 0.553141 0.0637419 0 -0.0140915 -0.0282478
8 1 0.837202 0.144678 0.134292 0 0.0273361 0.019886
9 1 0.748994 0.613527 0.0637417 0 0.0141087 -0.0282669
10 1 0.764015 0.998696 0.276999 0 0.00949669 0.00753403
11 1 0.690492 0.167059 0.418536 0 0.00372696 0.0217876
12 1 0.617151 -0.000216782 0.560755 0 -0.00701904 -0.0228233
13 1 0.367151 0.166884 0.560755 0 0.00701523 -0.0228252
14 1 0.293464 0.998454 0.701708 0 0.00715065 0.0301781
15 1 0.0434631 0.168214 0.701708 0 -0.007164 0.0301819
16 1 0.969989 1.00207 0.843393 0 0.0302391 0.00989532
17 1 0.675992 0.502073 0.20706 0 0.0302353 -0.00989914
18 1 0.514017 0.167972 0.276999 0 -0.00949097 0.00753403
19 1 0.425992 0.664594 0.20706 0 -0.0302429 -0.00992012
20 1 0.440492 0.999608 0.418536 0 -0.00372887 0.0217953
21 1 0.352517 0.498453 0.348744 0 0.00716209 -0.0301781
22 1 0.190491 0.167058 0.418536 0 0.00373459 0.0217876
23 1 0.102516 0.668214 0.348744 0 -0.00716591 -0.0301723
24 1 0.11715 -0.000216888 0.560755 0 -0.00702858 -0.02281
25 1 0.0288296 0.499783 0.489698 0 -0.00701714 0.0228024
26 1 0.867149 0.166884 0.560755 0 0.00702286 -0.0228138
27 1 0.778829 0.666884 0.489698 0 0.00702858 0.0228138
28 1 0.498996 0.553137 0.0637416 0 -0.01408 -0.0282249
29 1 0.248995 0.613527 0.0637419 0 0.0140972 -0.0282402
30 1 0.175991 0.502073 0.20706 0 0.0302467 -0.00990868
31 1 0.92599 0.664595 0.20706 0 -0.0302505 -0.00990295
32 1 0.852516 0.498454 0.348744 0 0.00715446 -0.0301838
33 1 0.719991 0.164594 0.843393 0 -0.0302372 0.00990677
34 1 0.646986 0.0531412 0.986711 0 -0.0141125 0.0282574
35 1 0.396986 0.113528 0.986711 0 0.0140896 0.0282364
36 1 0.793465 0.998454 0.701708 0 0.00716209 0.0301914
37 1 0.70549 0.499609 0.631917 0 -0.00373077 -0.0217838
38 1 0.543465 0.168214 0.701709 0 -0.00716209 0.0301819
39 1 0.45549 0.667059 0.631917 0 0.00373268 -0.0217781
40 1 0.46999 1.00207 0.843393 0 0.0302315 0.00990868
41 1 0.381965 0.498696 0.773454 0 0.00949669 -0.00753784
42 1 0.219989 0.164594 0.843393 0 -0.0302429 0.00991058
43 1 0.131964 0.667971 0.773454 0 -0.00948143 -0.00753784
44 1 0.146985 0.0531382 0.986711 0 -0.0140915 0.0282497
45 1 0.0587776 0.521988 0.91616 0 -0.0273552 -0.0198803
46 1 0.602518 0.668213 0.348744 0 -0.00716019 -0.0301857
47 1 0.528831 0.499783 0.489698 0 -0.00703812 0.0228119
48 1 0.278831 0.666884 0.489698 0 0.00703621 0.02281
49 1 0.205489 0.499609 0.631917 0 -0.00373268 -0.0217838
50 1 0.955488 0.667059 0.631916 0 0.00373459 -0.0217819
51 1 0.881964 0.498696 0.773454 0 0.00948524 -0.00753021
52 1 0.896987 0.113527 0.986712 0 0.0141029 0.0282421
53 1 0.808779 0.644678 0.916161 0 0.0273399 -0.0198784
54 1 0.631966 0.667971 0.773454 0 -0.00948143 -0.00754166
55 1 0.558779 0.521989 0.91616 0 -0.0273247 -0.0198708
56 1 0.308778 0.644678 0.91616 0 0.0273438 -0.0198822
ITEM: TIMESTEP
5
ITEM: NUMBER OF ATOMS
56
ITEM: BOX BOUNDS xy xz yz pp pp pp
-3.1841849684715271e+00 1.2156271994113922e+01 8.9406967163085938e-07
-8.2894563674926758e-03 5.5346975326538086e+00 -3.2130137085914612e+00
-4.5665502548217773e-03 1.9024526596069336e+01 -5.9604644775390625e-08
ITEM: ATOMS id type xs ys zs fx fy fz
1 1 0.587352 1.02106 0.134853 0 -0.0125961 0.0117321
2 1 0.337352 0.145606 0.134854 0 0.0126076 0.0117188
3 1 0.264104 0.999278 0.277332 0 0.0130901 0.0043087
4 1 0.0141035 0.16739 0.277332 0 -0.0131035 0.00429916
5 1 0.940625 0.999297 0.419045 0 -0.00493622 -0.00908089
6 1 0.0873507 1.02106 0.134854 0 -0.012598 0.0117245
7 1 0.998798 0.553735 0.0630017 0 -0.00290108 -0.00793266
8 1 0.83735 0.145607 0.134854 0 0.0126019 0.0117168
9 1 0.748798 0.612934 0.0630011 0 0.00288963 -0.00791931
10 1 0.764103 0.999278 0.277332 0 0.0130825 0.00430298
11 1 0.690627 0.167369 0.419045 0 0.00493622 -0.00910378
12 1 0.61702 -0.000733714 0.560259 0 0.000190735 0.02141
13 1 0.367019 0.167401 0.560259 0 -0.000192642 0.0214005
14 1 0.29355 0.998769 0.702035 0 0.00434494 -0.000699997
15 1 0.0435498 0.167898 0.702035 0 -0.00433731 -0.000701904
16 1 0.970072 1.0049 0.843707 0 -0.0086956 0.0107174
17 1 0.675909 0.504904 0.206745 0 -0.00868988 -0.0107212
18 1 0.514105 0.16739 0.277332 0 -0.0130863 0.0043087
19 1 0.425908 0.661763 0.206745 0 0.00869179 -0.0107079
20 1 0.440627 0.999297 0.419045 0 -0.00494003 -0.00909805
21 1 0.352431 0.498769 0.348418 0 0.00434494 0.000696182
22 1 0.190626 0.167369 0.419045 0 0.00494576 -0.0090847
23 1 0.10243 0.667898 0.348418 0 -0.00433159 0.00069046
24 1 0.117018 -0.000734524 0.560259 0 0.000219345 0.0213928
25 1 0.028961 0.499266 0.490194 0 0.000196457 -0.021389
26 1 0.867018 0.167402 0.560259 0 -0.000211716 0.0214024
27 1 0.778961 0.667401 0.490194 0 -0.000190735 -0.0214081
28 1 0.4988 0.553732 0.0630018 0 -0.00291443 -0.00794411
29 1 0.248799 0.612934 0.0630018 0 0.00290298 -0.00794792
30 1 0.175908 0.504905 0.206746 0 -0.00870514 -0.0107098
31 1 0.925907 0.661763 0.206746 0 0.00870323 -0.0107193
32 1 0.852429 0.498769 0.348417 0 0.00433922 0.000701904
33 1 0.720074 0.161763 0.843708 0 0.00868607 0.0107117
34 1 0.647183 0.0537336 0.987451 0 -0.00288582 0.00792694
35 1 0.397182 0.112934 0.987451 0 0.00290871 0.0079422
36 1 0.793552 0.99877 0.702036 0 0.00433922 -0.000711441
37 1 0.705355 0.499298 0.631408 0 -0.00493622 0.00908279
38 1 0.543551 0.167898 0.702035 0 -0.0043354 -0.000699997
39 1 0.455355 0.66737 0.631408 0 0.00492859 0.00906372
40 1 0.470073 1.0049 0.843707 0 -0.00868988 0.0107155
41 1 0.381877 0.499278 0.773121 0 0.0130825 -0.00430298
42 1 0.220072 0.161762 0.843707 0 0.00869942 0.0107174
43 1 0.131876 0.66739 0.773121 0 -0.0130863 -0.00430679
44 1 0.147181 0.0537317 0.987451 0 -0.00291061 0.00794601
45 1 0.058629 0.521059 0.915599 0 -0.0125885 -0.0117245
46 1 0.602431 0.667898 0.348417 0 -0.00434303 0.000713348
47 1 0.528962 0.499264 0.490194 0 0.000219345 -0.0213966
48 1 0.278962 0.667402 0.490194 0 -0.000221252 -0.0213985
49 1 0.205354 0.499297 0.631408 0 -0.00494385 0.00909042
50 1 0.955354 0.66737 0.631407 0 0.0049305 0.00909805
51 1 0.881876 0.499277 0.773121 0 0.0130939 -0.00429535
52 1 0.897183 0.112934 0.987452 0 0.00288963 0.00793076
53 1 0.808631 0.645607 0.9156 0 0.0126057 -0.0117283
54 1 0.631877 0.667391 0.773121 0 -0.0130863 -0.00428581
55 1 0.55863 0.521062 0.915599 0 -0.0126152 -0.0117226
56 1 0.308629 0.645606 0.915599 0 0.0126019 -0.0117207
ITEM: TIMESTEP
6
ITEM: NUMBER OF ATOMS
56
ITEM: BOX BOUNDS xy xz yz pp pp pp
-3.1841849684715271e+00 1.2156271994113922e+01 8.9406967163085938e-07
-8.2894563674926758e-03 5.5346975326538086e+00 -3.2130137085914612e+00
-4.5665502548217773e-03 1.9024526596069336e+01 -5.9604644775390625e-08
ITEM: ATOMS id type xs ys zs fx fy fz
1 1 0.587447 1.01999 0.135212 0 -0.00596046 -0.000595093
2 1 0.337446 0.146681 0.135212 0 0.00595856 -0.000587463
3 1 0.264146 1.00031 0.277491 0 -0.00418472 -0.00193405
4 1 0.0141456 0.166357 0.277491 0 0.00419617 -0.00193787
5 1 0.940606 0.998888 0.418972 0 0.00391197 0.00331497
6 1 0.0874456 1.01999 0.135212 0 -0.00596619 -0.000576019
7 1 0.998713 0.553663 0.0626812 0 0.00408173 -0.00160408
8 1 0.837445 0.146681 0.135212 0 0.00597 -0.000583649
9 1 0.748713 0.613006 0.0626809 0 -0.004076 -0.00161362
10 1 0.764145 1.00031 0.277491 0 -0.00419235 -0.00192642
11 1 0.690608 0.167779 0.418972 0 -0.00389862 0.00333405
12 1 0.617106 -0.000832541 0.560583 0 -0.000957489 -0.000257492
13 1 0.367105 0.1675 0.560583 0 0.000957489 -0.000249863
14 1 0.293565 0.999138 0.702092 0 0.00159454 0.00870705
15 1 0.0435648 0.167529 0.702092 0 -0.0015831 0.00870895
16 1 0.970147 1.00492 0.843992 0 -0.00590706 -0.00140381
17 1 0.675833 0.504916 0.206461 0 -0.00592422 0.00141716
18 1 0.514147 0.166358 0.277491 0 0.00417519 -0.00193596
19 1 0.425833 0.661751 0.206461 0 0.00590706 0.00139046
20 1 0.440607 0.998888 0.418972 0 0.00390816 0.00333595
21 1 0.352416 0.499138 0.348361 0 0.00158882 -0.00870323
22 1 0.190607 0.167779 0.418972 0 -0.00391579 0.00332069
23 1 0.102415 0.667529 0.348361 0 -0.00160408 -0.00870323
24 1 0.117104 -0.000831521 0.560583 0 -0.000986099 -0.000249863
25 1 0.0288751 0.499168 0.48987 0 -0.000959396 0.000249863
26 1 0.867104 0.167499 0.560583 0 0.000984192 -0.000247955
27 1 0.778875 0.6675 0.48987 0 0.000959396 0.000263214
28 1 0.498715 0.553658 0.0626812 0 0.00410461 -0.00159645
29 1 0.248714 0.613007 0.0626811 0 -0.00410843 -0.00157928
30 1 0.175832 0.504916 0.206461 0 -0.00591278 0.00139236
31 1 0.925832 0.661752 0.206461 0 0.00590897 0.0014019
32 1 0.852414 0.499138 0.348361 0 0.00160599 -0.00869751
33 1 0.720149 0.161751 0.843992 0 0.0059185 -0.00140381
34 1 0.647267 0.0536621 0.987772 0 0.00407791 0.00160408
35 1 0.397267 0.113007 0.987772 0 -0.00409889 0.00160599
36 1 0.793567 0.999139 0.702092 0 0.00159454 0.00870705
37 1 0.705375 0.498889 0.631481 0 0.00390244 -0.00331879
38 1 0.543566 0.16753 0.702092 0 -0.00160408 0.00870132
39 1 0.455374 0.667778 0.63148 0 -0.00389671 -0.00330925
40 1 0.470149 1.00492 0.843992 0 -0.00591278 -0.00140572
41 1 0.381835 0.50031 0.772962 0 -0.00416756 0.00194168
42 1 0.220148 0.161751 0.843992 0 0.00591087 -0.0014019
43 1 0.131834 0.666358 0.772962 0 0.00416565 0.00193214
44 1 0.147266 0.0536588 0.987772 0 0.00411415 0.00158119
45 1 0.0585341 0.519985 0.915241 0 -0.00596809 0.000591278
46 1 0.602416 0.667528 0.348361 0 -0.00158119 -0.00871849
47 1 0.528876 0.499167 0.48987 0 -0.00097847 0.000242233
48 1 0.278876 0.667499 0.48987 0 0.000980377 0.000247955
49 1 0.205373 0.498888 0.631481 0 0.00391006 -0.00333595
50 1 0.955373 0.667779 0.631481 0 -0.00390816 -0.00333023
51 1 0.881834 0.50031 0.772962 0 -0.00418282 0.00192833
52 1 0.897268 0.113006 0.987772 0 -0.00408363 0.00160217
53 1 0.808536 0.646681 0.915241 0 0.00595474 0.000593185
54 1 0.631835 0.666358 0.772962 0 0.00417328 0.00193596
55 1 0.558535 0.519987 0.915241 0 -0.00596046 0.000576019
56 1 0.308535 0.64668 0.915241 0 0.00596428 0.000579834
ITEM: TIMESTEP
7
ITEM: NUMBER OF ATOMS
56
ITEM: BOX BOUNDS xy xz yz pp pp pp
-3.1841849684715271e+00 1.2156271994113922e+01 8.9406967163085938e-07
-8.2894563674926758e-03 5.5346975326538086e+00 -3.2130137085914612e+00
-4.5665502548217773e-03 1.9024526596069336e+01 -5.9604644775390625e-08
ITEM: ATOMS id type xs ys zs fx fy fz
1 1 0.587462 1.01932 0.135267 0 0.000635147 -0.000612259
2 1 0.337461 0.147345 0.135267 0 -0.000646591 -0.000610352
3 1 0.264143 1.00019 0.277478 0 -0.00275993 -0.000780106
4 1 0.0141422 0.16648 0.277478 0 0.00274849 -0.000772476
5 1 0.940622 0.99911 0.419032 0 0.000680923 -0.00126457
6 1 0.0874604 1.01932 0.135268 0 0.00063324 -0.000644684
7 1 0.998688 0.553962 0.0625837 0 -0.000680923 -0.000743866
8 1 0.83746 0.147346 0.135267 0 -0.000637054 -0.000623703
9 1 0.748687 0.612706 0.0625832 0 0.000679016 -0.00071907
10 1 0.764142 1.00019 0.277478 0 -0.00274467 -0.000776291
11 1 0.690624 0.167558 0.419032 0 -0.000688553 -0.00127411
12 1 0.617121 -0.000925104 0.56064 0 0.00152397 0.0014801
13 1 0.36712 0.167592 0.56064 0 -0.00153351 0.0014801
14 1 0.29362 0.999331 0.702298 0 -0.00123405 -0.00156403
15 1 0.0436193 0.167336 0.702298 0 0.00121689 -0.00156593
16 1 0.970154 1.00446 0.844015 0 -0.00259972 0.00317574
17 1 0.675827 0.504463 0.206438 0 -0.00259209 -0.00318718
18 1 0.514144 0.16648 0.277478 0 0.00275993 -0.000780106
19 1 0.425827 0.662203 0.206438 0 0.00260544 -0.00315666
20 1 0.440624 0.999109 0.419033 0 0.000684738 -0.00128746
21 1 0.352361 0.499331 0.348155 0 -0.00123405 0.00156212
22 1 0.190623 0.167557 0.419033 0 -0.000680923 -0.00127602
23 1 0.10236 0.667335 0.348155 0 0.0012455 0.0015583
24 1 0.117119 -0.000925931 0.56064 0 0.00154877 0.0014801
25 1 0.0288601 0.499075 0.489813 0 0.0015316 -0.00148201
26 1 0.867119 0.167593 0.56064 0 -0.00154686 0.00147247
27 1 0.77886 0.667593 0.489813 0 -0.0015316 -0.00148201
28 1 0.498689 0.55396 0.0625838 0 -0.000688553 -0.000751495
29 1 0.248689 0.612705 0.0625841 0 0.000707626 -0.000780106
30 1 0.175826 0.504464 0.206438 0 -0.00258827 -0.00316429
31 1 0.925826 0.662203 0.206438 0 0.00259781 -0.00318146
32 1 0.85236 0.499333 0.348155 0 -0.00125313 0.00155449
33 1 0.720155 0.162203 0.844015 0 0.00259018 0.00317383
34 1 0.647293 0.0539616 0.987869 0 -0.000675201 0.000732422
35 1 0.397292 0.112706 0.987869 0 0.000677109 0.000732422
36 1 0.793621 0.999332 0.702298 0 -0.0012455 -0.00156593
37 1 0.705359 0.49911 0.63142 0 0.000682831 0.00128365
38 1 0.543621 0.167336 0.702298 0 0.00124741 -0.00156212
39 1 0.455358 0.667557 0.63142 0 -0.000684738 0.0012722
40 1 0.470155 1.00446 0.844015 0 -0.00259209 0.00317955
41 1 0.381838 0.500188 0.772975 0 -0.00276756 0.000766754
42 1 0.220154 0.162203 0.844015 0 0.00259781 0.00317383
43 1 0.131837 0.666479 0.772974 0 0.00277519 0.000774384
44 1 0.147292 0.0539609 0.987869 0 -0.000711441 0.000766754
45 1 0.0585194 0.519321 0.915185 0 0.000644684 0.000621796
46 1 0.602362 0.667336 0.348155 0 0.00122452 0.00156403
47 1 0.528861 0.499073 0.489813 0 0.0015564 -0.00146675
48 1 0.278861 0.667593 0.489813 0 -0.00154877 -0.00147438
49 1 0.205357 0.499109 0.63142 0 0.00069046 0.00128365
50 1 0.955357 0.667557 0.63142 0 -0.000673294 0.00128365
51 1 0.881837 0.500187 0.772975 0 -0.0027504 0.000780106
52 1 0.897294 0.112706 0.98787 0 0.000680923 0.000736237
53 1 0.808521 0.647345 0.915186 0 -0.000631332 0.000619888
54 1 0.631839 0.66648 0.772975 0 0.00275612 0.000772476
55 1 0.558521 0.519323 0.915185 0 0.00063324 0.000637054
56 1 0.30852 0.647345 0.915185 0 -0.000635147 0.000631332
ITEM: TIMESTEP
8
ITEM: NUMBER OF ATOMS
56
ITEM: BOX BOUNDS xy xz yz pp pp pp
-3.1841849684715271e+00 1.2156271994113922e+01 8.9406967163085938e-07
-8.2894563674926758e-03 5.5346975326538086e+00 -3.2130137085914612e+00
-4.5665502548217773e-03 1.9024526596069336e+01 -5.9604644775390625e-08
ITEM: ATOMS id type xs ys zs fx fy fz
1 1 0.58746 1.01926 0.135263 0 -0.000116348 -0.000562668
2 1 0.33746 0.147406 0.135264 0 0.000131607 -0.000574112
3 1 0.264138 0.999968 0.27746 0 -0.000892639 -0.000688553
4 1 0.0141373 0.166699 0.27746 0 0.000902176 -0.000694275
5 1 0.940618 0.999195 0.419015 0 -0.000127792 -0.000411987
6 1 0.0874592 1.01926 0.135263 0 -0.000106812 -0.00053215
7 1 0.998679 0.553961 0.0625524 0 -0.000232697 1.14441e-05
8 1 0.837459 0.147407 0.135263 0 0.000106812 -0.00056076
9 1 0.748679 0.612707 0.0625523 0 0.000244141 3.8147e-06
10 1 0.764137 0.999968 0.27746 0 -0.000900269 -0.000694275
11 1 0.690619 0.167472 0.419015 0 0.000127792 -0.000408173
12 1 0.617131 -0.000830033 0.56068 0 0.00063324 -0.00110054
13 1 0.367131 0.167496 0.56068 0 -0.00062561 -0.00110817
14 1 0.29362 0.999274 0.702298 0 -0.000654221 0.00105667
15 1 0.0436194 0.167393 0.702298 0 0.000663757 0.00105286
16 1 0.970172 1.0042 0.844085 0 0.000602722 -0.000238419
17 1 0.675809 0.504203 0.206367 0 0.000600815 0.000244141
18 1 0.514139 0.166699 0.27746 0 0.000894547 -0.00069046
19 1 0.425808 0.662464 0.206368 0 -0.00060463 0.00021553
20 1 0.440619 0.999194 0.419016 0 -0.000114441 -0.000411987
21 1 0.352361 0.499273 0.348155 0 -0.000646591 -0.00105095
22 1 0.190618 0.167472 0.419015 0 0.000118256 -0.000413895
23 1 0.10236 0.667394 0.348155 0 0.000642776 -0.00105667
24 1 0.11713 -0.000829368 0.56068 0 0.000621796 -0.00109863
25 1 0.0288494 0.499171 0.489773 0 0.000614166 0.00110817
26 1 0.86713 0.167497 0.56068 0 -0.000617981 -0.0010891
27 1 0.778849 0.667497 0.489773 0 -0.00062561 0.00110435
28 1 0.498681 0.553959 0.0625523 0 -0.000226974 2.86102e-05
29 1 0.24868 0.612707 0.062552 0 0.000190735 5.53131e-05
30 1 0.175807 0.504204 0.206368 0 0.000593185 0.000217438
31 1 0.925807 0.662464 0.206367 0 -0.000595093 0.000236511
32 1 0.85236 0.499273 0.348155 0 -0.00063324 -0.0010643
33 1 0.720174 0.162463 0.844086 0 -0.000593185 -0.000234604
34 1 0.647302 0.0539613 0.9879 0 -0.000230789 -7.62939e-06
35 1 0.397301 0.112706 0.9879 0 0.000228882 -9.53674e-06