ITEM: TIMESTEP
0
ITEM: NUMBER OF ATOMS
32
ITEM: BOX BOUNDS xy xz yz pp pp pp
-2.1013021469116211e-03 9.2751429677009583e+00 2.8784926533699036e+00
-4.1524946689605713e-02 2.2124402940273285e+01 -0.0000000000000000e+00
-1.4066457748413086e-02 5.1965324282646179e+00 0.0000000000000000e+00
ITEM: ATOMS id type xs ys zs fx fy fz
1 1 0.867784 0.336621 0.593597 0 0.000170112 -1.19209e-07
2 1 0.367784 0.336621 0.593597 0 0.000170946 -4.76837e-07
3 1 0.136528 0.294954 0.093597 0 0.000323772 7.15256e-07
4 1 0.636528 0.294954 0.0935971 0 0.000322819 2.38419e-07
5 1 0.0615529 0.461621 0.593597 0 -3.33786e-06 3.57628e-07
6 1 0.561553 0.461621 0.593597 0 -3.8147e-06 1.19209e-07
7 1 0.830297 0.419954 0.0935971 0 -1.04904e-05 -4.76837e-07
8 1 0.330297 0.419954 0.0935971 0 -1.07288e-05 0
9 1 0.755321 0.586621 0.593597 0 5.48363e-06 -3.57628e-07
10 1 0.255321 0.586621 0.593597 0 5.24521e-06 -7.15256e-07
11 1 0.94909 0.711621 0.593597 0 -0.000323653 -1.3113e-06
12 1 0.44909 0.711621 0.593597 0 -0.000323534 -1.3113e-06
13 1 0.717834 0.669954 0.093597 0 -0.000175953 1.3113e-06
14 1 0.0240652 0.544954 0.0935971 0 4.88758e-06 1.19209e-07
15 1 0.524065 0.544954 0.0935971 0 5.24521e-06 -1.19209e-07
16 1 0.217834 0.669954 0.093597 0 -0.000175595 1.43051e-06
17 1 0.642858 0.83662 0.593597 0 0.00237858 1.19209e-07
18 1 0.142858 0.83662 0.593597 0 0.00237775 -1.19209e-07
19 1 0.836627 0.96162 0.593597 0 -0.0297748 0
20 1 0.336627 0.96162 0.593597 0 -0.0297751 -2.38419e-07
21 1 0.911602 0.794954 0.093597 0 0.000684738 3.57628e-07
22 1 0.411602 0.794954 0.0935971 0 0.000685096 2.38419e-07
23 1 0.605371 0.919954 0.0935971 0 -0.0526173 -5.96046e-07
24 1 0.105371 0.919954 0.093597 0 -0.0526174 7.15256e-07
25 1 0.980248 0.0866205 0.593597 0 0.0526211 -8.34465e-07
26 1 0.480247 0.0866205 0.593597 0 0.0526218 -5.96046e-07
27 1 0.248991 0.0449538 0.093597 0 0.0297735 8.34465e-07
28 1 0.748991 0.0449538 0.093597 0 0.0297741 7.15256e-07
29 1 0.174016 0.211621 0.593597 0 -0.000683546 -5.96046e-07
30 1 0.674016 0.211621 0.593597 0 -0.000684738 -4.76837e-07
31 1 0.94276 0.169954 0.093597 0 -0.00237238 7.15256e-07
32 1 0.44276 0.169954 0.0935971 0 -0.00237274 3.57628e-07
ITEM: TIMESTEP
1
ITEM: NUMBER OF ATOMS
32
ITEM: BOX BOUNDS xy xz yz pp pp pp
-2.1013021469116211e-03 9.2751429677009583e+00 2.8784926533699036e+00
-4.1524946689605713e-02 2.2124402940273285e+01 -0.0000000000000000e+00
-1.4066457748413086e-02 5.1965324282646179e+00 0.0000000000000000e+00
ITEM: ATOMS id type xs ys zs fx fy fz
1 1 0.867783 0.336623 0.593597 0 0.000407696 0
2 1 0.367783 0.336623 0.593597 0 0.000407934 0
3 1 0.136526 0.294958 0.0935971 0 0.00172353 -1.19209e-07
4 1 0.636526 0.294958 0.0935971 0 0.00172341 1.19209e-07
5 1 0.0615529 0.461621 0.593597 0 5.84126e-05 1.19209e-07
6 1 0.561553 0.461621 0.593597 0 5.85318e-05 -2.38419e-07
7 1 0.830297 0.419954 0.0935971 0 -0.000154495 0
8 1 0.330297 0.419954 0.0935971 0 -0.000154495 0
9 1 0.755321 0.586621 0.593597 0 0.000151515 3.57628e-07
10 1 0.255321 0.586621 0.593597 0 0.000151753 0
11 1 0.949092 0.711616 0.593597 0 -0.00172317 -1.19209e-07
12 1 0.449092 0.711616 0.593597 0 -0.00172329 -1.19209e-07
13 1 0.717835 0.669952 0.0935971 0 -0.000408888 -1.19209e-07
14 1 0.0240651 0.544954 0.0935971 0 -5.97239e-05 0
15 1 0.524065 0.544954 0.0935971 0 -5.97239e-05 -1.19209e-07
16 1 0.217835 0.669952 0.0935971 0 -0.000408649 -1.19209e-07
17 1 0.642844 0.836651 0.593597 0 -0.0120231 0
18 1 0.142844 0.836651 0.593597 0 -0.0120231 1.19209e-07
19 1 0.836801 0.961234 0.593597 0 0.0105277 -1.19209e-07
20 1 0.336801 0.961234 0.593597 0 0.0105275 1.19209e-07
21 1 0.911598 0.794963 0.0935971 0 -0.0140088 2.38419e-07
22 1 0.411598 0.794963 0.0935971 0 -0.0140084 0
23 1 0.605678 0.919271 0.0935971 0 -0.00423098 0
24 1 0.105678 0.919271 0.093597 0 -0.00423121 0
25 1 0.97994 0.0873031 0.593597 0 0.00423336 2.38419e-07
26 1 0.47994 0.0873031 0.593597 0 0.00423276 0
27 1 0.248818 0.0453401 0.093597 0 -0.0105261 3.57628e-07
28 1 0.748818 0.0453401 0.0935971 0 -0.0105261 -2.38419e-07
29 1 0.17402 0.211612 0.593597 0 0.0140086 2.38419e-07
30 1 0.67402 0.211612 0.593597 0 0.0140088 0
31 1 0.942774 0.169923 0.0935971 0 0.0120244 -2.38419e-07
32 1 0.442774 0.169923 0.0935971 0 0.0120242 -3.57628e-07
ITEM: TIMESTEP
2
ITEM: NUMBER OF ATOMS
32
ITEM: BOX BOUNDS xy xz yz pp pp pp
-2.1013021469116211e-03 9.2751429677009583e+00 2.8784926533699036e+00
-4.1524946689605713e-02 2.2124402940273285e+01 -0.0000000000000000e+00
-1.4066457748413086e-02 5.1965324282646179e+00 0.0000000000000000e+00
ITEM: ATOMS id type xs ys zs fx fy fz
1 1 0.867778 0.336634 0.593597 0 0.00760007 -2.38419e-07
2 1 0.367778 0.336634 0.593597 0 0.00760019 1.19209e-07
3 1 0.136506 0.295003 0.0935971 0 0.00868046 1.19209e-07
4 1 0.636506 0.295003 0.0935971 0 0.00868058 0
5 1 0.0615522 0.461622 0.593597 0 0.000552058 -1.19209e-07
6 1 0.561552 0.461622 0.593597 0 0.000551581 1.19209e-07
7 1 0.830298 0.41995 0.0935971 0 0.00216496 0
8 1 0.330298 0.41995 0.0935971 0 0.00216508 0
9 1 0.75532 0.586625 0.593597 0 -0.00216353 -2.38419e-07
10 1 0.25532 0.586625 0.593597 0 -0.00216329 5.96046e-07
11 1 0.949112 0.711571 0.593597 0 -0.00868106 7.15256e-07
12 1 0.449112 0.711571 0.593597 0 -0.00868058 5.96046e-07
13 1 0.71784 0.669941 0.0935971 0 -0.00760019 -5.96046e-07
14 1 0.0240658 0.544952 0.0935971 0 -0.000555396 -2.38419e-07
15 1 0.524066 0.544952 0.0935971 0 -0.000555277 0
16 1 0.21784 0.669941 0.0935971 0 -0.00760043 -7.15256e-07
17 1 0.642977 0.836357 0.593597 0 0.00256634 3.57628e-07
18 1 0.142977 0.836357 0.593597 0 0.00256634 2.38419e-07
19 1 0.836736 0.961377 0.593597 0 0.00187647 -1.19209e-07
20 1 0.336736 0.961377 0.593597 0 0.00187719 1.19209e-07
21 1 0.911756 0.794611 0.0935971 0 -0.00194037 -4.76837e-07
22 1 0.411756 0.794611 0.0935971 0 -0.00194085 -2.38419e-07
23 1 0.605824 0.918946 0.093597 0 0.00204337 1.19209e-07
24 1 0.105824 0.918946 0.0935971 0 0.00204384 -1.19209e-07
25 1 0.979794 0.0876288 0.593597 0 -0.0020448 1.19209e-07
26 1 0.479794 0.0876288 0.593597 0 -0.0020442 4.76837e-07
27 1 0.248882 0.0451974 0.0935971 0 -0.00187325 -3.57628e-07
28 1 0.748882 0.0451974 0.0935971 0 -0.00187314 0
29 1 0.173862 0.211963 0.593597 0 0.00194049 -2.38419e-07
30 1 0.673862 0.211963 0.593597 0 0.00194132 0
31 1 0.942641 0.170217 0.0935971 0 -0.00256729 1.19209e-07
32 1 0.442641 0.170217 0.0935971 0 -0.0025667 -1.19209e-07
ITEM: TIMESTEP
3
ITEM: NUMBER OF ATOMS
32
ITEM: BOX BOUNDS xy xz yz pp pp pp
-2.1013021469116211e-03 9.2751429677009583e+00 2.8784926533699036e+00
-4.1524946689605713e-02 2.2124402940273285e+01 -0.0000000000000000e+00
-1.4066457748413086e-02 5.1965324282646179e+00 0.0000000000000000e+00
ITEM: ATOMS id type xs ys zs fx fy fz
1 1 0.86769 0.336829 0.593597 0 0.00079596 1.19209e-07
2 1 0.36769 0.336829 0.593597 0 0.000795484 0
3 1 0.136402 0.295235 0.0935971 0 -0.00124454 -2.38419e-07
4 1 0.636402 0.295235 0.0935971 0 -0.00124395 -1.19209e-07
5 1 0.0615457 0.461636 0.593597 0 0.00222671 0
6 1 0.561546 0.461636 0.593597 0 0.00222719 0
7 1 0.830274 0.420004 0.0935971 0 0.00543106 -1.19209e-07
8 1 0.330274 0.420004 0.0935971 0 0.00543106 0
9 1 0.755344 0.586571 0.593597 0 -0.00543201 -2.38419e-07
10 1 0.255344 0.586571 0.593597 0 -0.00543225 -5.96046e-07
11 1 0.949216 0.711339 0.593597 0 0.00124359 -7.15256e-07
12 1 0.449216 0.711339 0.593597 0 0.00124347 -5.96046e-07
13 1 0.717928 0.669745 0.0935971 0 -0.000796437 4.76837e-07
14 1 0.0240723 0.544938 0.0935971 0 -0.00222623 2.38419e-07
15 1 0.524072 0.544938 0.0935971 0 -0.00222671 3.57628e-07
16 1 0.217928 0.669745 0.093597 0 -0.000796556 8.34465e-07
17 1 0.642984 0.83634 0.593597 0 -0.000439763 -5.96046e-07
18 1 0.142984 0.83634 0.593597 0 -0.000439882 -4.76837e-07
19 1 0.836697 0.961464 0.593597 0 -0.00368714 3.57628e-07
20 1 0.336697 0.961464 0.593597 0 -0.00368786 -1.19209e-07
21 1 0.911822 0.794464 0.0935971 0 -0.00049293 7.15256e-07
22 1 0.411822 0.794464 0.0935971 0 -0.000492454 2.38419e-07
23 1 0.605842 0.918907 0.0935971 0 -0.00134337 2.38419e-07
24 1 0.105842 0.918907 0.093597 0 -0.00134361 0
25 1 0.979777 0.0876673 0.593597 0 0.00134575 -1.19209e-07
26 1 0.479776 0.0876673 0.593597 0 0.00134563 -4.76837e-07
27 1 0.248921 0.0451104 0.0935971 0 0.00368595 0
28 1 0.748921 0.0451104 0.093597 0 0.00368536 3.57628e-07
29 1 0.173796 0.21211 0.593597 0 0.00049305 2.38419e-07
30 1 0.673796 0.21211 0.593597 0 0.000492096 -1.19209e-07
31 1 0.942634 0.170234 0.0935971 0 0.00044167 0
32 1 0.442634 0.170234 0.093597 0 0.00044167 3.57628e-07
ITEM: TIMESTEP
4
ITEM: NUMBER OF ATOMS
32
ITEM: BOX BOUNDS xy xz yz pp pp pp
-2.1013021469116211e-03 9.2751429677009583e+00 2.8784926533699036e+00
-4.1524946689605713e-02 2.2124402940273285e+01 -0.0000000000000000e+00
-1.4066457748413086e-02 5.1965324282646179e+00 0.0000000000000000e+00
ITEM: ATOMS id type xs ys zs fx fy fz
1 1 0.867664 0.336888 0.593597 0 -4.25577e-05 4.76837e-07
2 1 0.367664 0.336888 0.593597 0 -4.27961e-05 -1.19209e-07
3 1 0.136387 0.295268 0.0935971 0 -9.90629e-05 -2.38419e-07
4 1 0.636387 0.295268 0.0935971 0 -9.97782e-05 1.19209e-07
5 1 0.0615274 0.461677 0.593597 0 -0.00119412 0
6 1 0.561527 0.461677 0.593597 0 -0.001194 1.19209e-07
7 1 0.830228 0.420107 0.0935971 0 -3.42131e-05 -1.19209e-07
8 1 0.330228 0.420107 0.0935971 0 -3.43323e-05 -2.38419e-07
9 1 0.75539 0.586467 0.593597 0 3.32594e-05 0
10 1 0.25539 0.586467 0.593597 0 3.27826e-05 -1.19209e-07
11 1 0.949231 0.711307 0.593597 0 0.000100136 0
12 1 0.449231 0.711307 0.593597 0 0.000100017 0
13 1 0.717954 0.669687 0.0935971 0 4.27961e-05 0
14 1 0.0240907 0.544897 0.0935971 0 0.0011946 0
15 1 0.524091 0.544897 0.0935971 0 0.0011946 0
16 1 0.217954 0.669687 0.0935971 0 4.26769e-05 1.19209e-07
17 1 0.642989 0.836329 0.593597 0 -0.00171947 -1.19209e-07
18 1 0.142989 0.836329 0.593597 0 -0.00171924 1.19209e-07
19 1 0.836716 0.961422 0.593597 0 -0.000556707 2.38419e-07
20 1 0.336716 0.961422 0.593597 0 -0.000557303 0
21 1 0.911841 0.794422 0.0935971 0 -0.000542164 -2.38419e-07
22 1 0.411841 0.794422 0.0935971 0 -0.000542045 0
23 1 0.605856 0.918876 0.0935971 0 0.000191808 0
24 1 0.105856 0.918876 0.093597 0 0.00019145 1.19209e-07
25 1 0.979762 0.0876988 0.593597 0 -0.000191212 0
26 1 0.479762 0.0876988 0.593597 0 -0.000191689 0
27 1 0.248902 0.0451524 0.093597 0 0.000556827 0
28 1 0.748902 0.0451524 0.0935971 0 0.000557303 -2.38419e-07
29 1 0.173777 0.212152 0.593597 0 0.000541806 1.19209e-07
30 1 0.673777 0.212152 0.593597 0 0.000541687 2.38419e-07
31 1 0.942629 0.170245 0.0935971 0 0.00171959 -1.19209e-07
32 1 0.442629 0.170245 0.0935971 0 0.00171936 -1.19209e-07
ITEM: TIMESTEP
5
ITEM: NUMBER OF ATOMS
32
ITEM: BOX BOUNDS xy xz yz pp pp pp
-2.1013021469116211e-03 9.2751429677009583e+00 2.8784926533699036e+00
-4.1524946689605713e-02 2.2124402940273285e+01 -0.0000000000000000e+00
-1.4066457748413086e-02 5.1965324282646179e+00 0.0000000000000000e+00
ITEM: ATOMS id type xs ys zs fx fy fz
1 1 0.867662 0.336894 0.593597 0 -0.000264883 -3.57628e-07
2 1 0.367662 0.336894 0.593597 0 -0.000264406 0
3 1 0.136386 0.295269 0.0935971 0 0.000924349 2.38419e-07
4 1 0.636386 0.295269 0.0935971 0 0.000924587 0
5 1 0.0615363 0.461657 0.593597 0 1.8239e-05 -2.38419e-07
6 1 0.561536 0.461657 0.593597 0 1.8239e-05 -1.19209e-07
7 1 0.830222 0.420119 0.0935971 0 -0.000175118 4.76837e-07
8 1 0.330222 0.420119 0.0935971 0 -0.000175118 0
9 1 0.755396 0.586456 0.593597 0 0.000175476 2.38419e-07
10 1 0.255396 0.586456 0.593597 0 0.000175714 1.19209e-07
11 1 0.949232 0.711305 0.593597 0 -0.000924826 0
12 1 0.449232 0.711305 0.593597 0 -0.000924826 2.38419e-07
13 1 0.717957 0.669681 0.0935971 0 0.000264764 -2.38419e-07
14 1 0.0240817 0.544917 0.0935971 0 -1.87159e-05 -1.19209e-07
15 1 0.524082 0.544917 0.0935971 0 -1.87159e-05 -1.19209e-07
16 1 0.217957 0.669681 0.0935971 0 0.000264883 -1.19209e-07
17 1 0.643006 0.836292 0.593597 0 -7.78437e-05 2.38419e-07
18 1 0.143006 0.836292 0.593597 0 -7.83205e-05 0
19 1 0.836723 0.961406 0.593597 0 -0.000137925 -2.38419e-07
20 1 0.336724 0.961406 0.593597 0 -0.000138164 3.57628e-07
21 1 0.911848 0.794406 0.0935971 0 0.000170946 -1.19209e-07
22 1 0.411848 0.794406 0.0935971 0 0.000170588 -1.19209e-07
23 1 0.605856 0.918876 0.0935971 0 -0.000171065 -1.19209e-07
24 1 0.105856 0.918876 0.0935971 0 -0.000171185 -1.19209e-07
25 1 0.979763 0.0876985 0.593597 0 0.000170946 -1.19209e-07
26 1 0.479762 0.0876985 0.593597 0 0.000170469 -1.19209e-07
27 1 0.248895 0.0451688 0.093597 0 0.000138402 0
28 1 0.748895 0.0451688 0.0935971 0 0.000138879 1.19209e-07
29 1 0.17377 0.212168 0.593597 0 -0.000170588 -1.19209e-07
30 1 0.67377 0.212168 0.593597 0 -0.000170946 -1.19209e-07
31 1 0.942612 0.170282 0.0935971 0 7.83205e-05 1.19209e-07
32 1 0.442612 0.170282 0.0935971 0 7.78437e-05 3.57628e-07
ITEM: TIMESTEP
6
ITEM: NUMBER OF ATOMS
32
ITEM: BOX BOUNDS xy xz yz pp pp pp
-2.1013021469116211e-03 9.2751429677009583e+00 2.8784926533699036e+00
-4.1524946689605713e-02 2.2124402940273285e+01 -0.0000000000000000e+00
-1.4066457748413086e-02 5.1965324282646179e+00 0.0000000000000000e+00
ITEM: ATOMS id type xs ys zs fx fy fz
1 1 0.867663 0.33689 0.593597 0 -6.42538e-05 -1.19209e-07
2 1 0.367663 0.33689 0.593597 0 -6.44922e-05 1.19209e-07
3 1 0.136378 0.295288 0.0935971 0 5.22137e-05 0
4 1 0.636378 0.295288 0.0935971 0 5.23329e-05 -1.19209e-07
5 1 0.0615379 0.461654 0.593597 0 0.000198007 0
6 1 0.561538 0.461654 0.593597 0 0.000198126 0
7 1 0.830223 0.420118 0.0935971 0 0.000297904 0
8 1 0.330223 0.420118 0.0935971 0 0.000298381 0
9 1 0.755395 0.586457 0.593597 0 -0.000297785 -2.38419e-07
10 1 0.255395 0.586457 0.593597 0 -0.000298023 0
11 1 0.94924 0.711287 0.593597 0 -5.23329e-05 0
12 1 0.44924 0.711287 0.593597 0 -5.20945e-05 -2.38419e-07
13 1 0.717955 0.669685 0.0935971 0 6.38962e-05 4.76837e-07
14 1 0.0240801 0.544921 0.0935971 0 -0.000198126 0
15 1 0.52408 0.544921 0.0935971 0 -0.000198126 0
16 1 0.217955 0.669685 0.0935971 0 6.3777e-05 -2.38419e-07
17 1 0.64301 0.836284 0.593597 0 -7.36713e-05 0
18 1 0.14301 0.836284 0.593597 0 -7.36713e-05 -1.19209e-07
19 1 0.836726 0.9614 0.593597 0 0.000123858 -1.19209e-07
20 1 0.336726 0.9614 0.593597 0 0.000124812 -3.57628e-07
21 1 0.911848 0.794406 0.0935971 0 -1.14441e-05 0
22 1 0.411848 0.794406 0.0935971 0 -1.14441e-05 3.57628e-07
23 1 0.605857 0.918873 0.0935971 0 1.91927e-05 1.19209e-07
24 1 0.105857 0.918873 0.093597 0 1.91927e-05 3.57628e-07
25 1 0.979761 0.0877018 0.593597 0 -1.90735e-05 -1.19209e-07
26 1 0.479761 0.0877018 0.593597 0 -1.88351e-05 1.19209e-07
27 1 0.248892 0.0451747 0.093597 0 -0.000124335 0
28 1 0.748892 0.0451747 0.0935971 0 -0.000124931 0
29 1 0.17377 0.212168 0.593597 0 1.18017e-05 1.19209e-07
30 1 0.67377 0.212168 0.593597 0 1.20401e-05 0
31 1 0.942608 0.170291 0.0935971 0 7.35521e-05 0
32 1 0.442608 0.170291 0.0935971 0 7.35521e-05 0
ITEM: TIMESTEP
7
ITEM: NUMBER OF ATOMS
32
ITEM: BOX BOUNDS xy xz yz pp pp pp
-2.1013021469116211e-03 9.2751429677009583e+00 2.8784926533699036e+00
-4.1524946689605713e-02 2.2124402940273285e+01 -0.0000000000000000e+00
-1.4066457748413086e-02 5.1965324282646179e+00 0.0000000000000000e+00
ITEM: ATOMS id type xs ys zs fx fy fz
1 1 0.867664 0.336888 0.593597 0 0.000102401 2.38419e-07
2 1 0.367664 0.336888 0.593597 0 0.000102758 -1.19209e-07
3 1 0.136377 0.29529 0.0935971 0 1.49012e-05 0
4 1 0.636377 0.29529 0.0935971 0 1.49012e-05 0
5 1 0.0615368 0.461656 0.593597 0 -6.30617e-05 2.38419e-07
6 1 0.561537 0.461656 0.593597 0 -6.31809e-05 0
7 1 0.830221 0.420122 0.0935971 0 5.96046e-05 -4.76837e-07
8 1 0.330221 0.420122 0.0935971 0 5.9247e-05 1.19209e-07
9 1 0.755397 0.586453 0.593597 0 -5.93662e-05 0
10 1 0.255397 0.586453 0.593597 0 -5.94854e-05 -2.38419e-07
11 1 0.949241 0.711284 0.593597 0 -1.44243e-05 0
12 1 0.449241 0.711284 0.593597 0 -1.49012e-05 0
13 1 0.717954 0.669686 0.0935971 0 -0.00010252 0
14 1 0.0240813 0.544918 0.0935971 0 6.29425e-05 1.19209e-07
15 1 0.524081 0.544918 0.0935971 0 6.30617e-05 0
16 1 0.217954 0.669686 0.0935971 0 -0.00010252 1.19209e-07
17 1 0.643011 0.836282 0.593597 0 3.8147e-06 -2.38419e-07
18 1 0.143011 0.836282 0.593597 0 3.93391e-06 0
19 1 0.836726 0.961401 0.593597 0 9.17912e-06 3.57628e-07
20 1 0.336726 0.961401 0.593597 0 9.89437e-06 1.19209e-07
21 1 0.911848 0.794406 0.0935971 0 -2.19345e-05 1.19209e-07
22 1 0.411848 0.794406 0.0935971 0 -2.16961e-05 0
23 1 0.605857 0.918873 0.0935971 0 -2.31266e-05 -1.19209e-07
24 1 0.105857 0.918873 0.0935971 0 -2.2769e-05 -2.38419e-07
25 1 0.979761 0.0877019 0.593597 0 2.2769e-05 2.38419e-07
26 1 0.479761 0.0877019 0.593597 0 2.31266e-05 1.19209e-07
27 1 0.248892 0.0451735 0.093597 0 -9.17912e-06 1.19209e-07
28 1 0.748892 0.0451736 0.0935971 0 -9.17912e-06 -1.19209e-07
29 1 0.17377 0.212168 0.593597 0 2.09808e-05 -1.19209e-07
30 1 0.67377 0.212168 0.593597 0 2.09808e-05 1.19209e-07
31 1 0.942607 0.170293 0.0935971 0 -3.93391e-06 0
32 1 0.442607 0.170293 0.0935971 0 -3.21865e-06 -3.57628e-07
ITEM: TIMESTEP
8
ITEM: NUMBER OF ATOMS
32
ITEM: BOX BOUNDS xy xz yz pp pp pp
-2.1013021469116211e-03 9.2751429677009583e+00 2.8784926533699036e+00
-4.1524946689605713e-02 2.2124402940273285e+01 -0.0000000000000000e+00
-1.4066457748413086e-02 5.1965324282646179e+00 0.0000000000000000e+00
ITEM: ATOMS id type xs ys zs fx fy fz
1 1 0.867663 0.33689 0.593597 0 -7.39098e-06 -3.57628e-07
2 1 0.367663 0.336891 0.593597 0 -7.51019e-06 1.19209e-07
3 1 0.136376 0.295291 0.0935971 0 2.51532e-05 0
4 1 0.636376 0.295291 0.0935971 0 2.52724e-05 2.38419e-07
5 1 0.0615373 0.461655 0.593597 0 4.76837e-07 -4.76837e-07
6 1 0.561537 0.461655 0.593597 0 4.76837e-07 -2.38419e-07
7 1 0.83022 0.420124 0.0935971 0 -1.64509e-05 7.15256e-07
8 1 0.33022 0.420124 0.0935971 0 -1.62125e-05 0
9 1 0.755398 0.58645 0.593597 0 1.60933e-05 2.38419e-07
10 1 0.255398 0.58645 0.593597 0 1.63317e-05 1.19209e-07
11 1 0.949242 0.711283 0.593597 0 -2.55108e-05 2.38419e-07
12 1 0.449242 0.711283 0.593597 0 -2.55108e-05 2.38419e-07
13 1 0.717955 0.669684 0.0935971 0 7.03335e-06 -2.38419e-07
14 1 0.0240808 0.544919 0.0935971 0 -3.57628e-07 -2.38419e-07
15 1 0.524081 0.544919 0.0935971 0 -4.76837e-07 -1.19209e-07
16 1 0.217955 0.669684 0.0935971 0 7.27177e-06 -2.38419e-07
17 1 0.643011 0.836281 0.593597 0 -9.53674e-07 2.38419e-07
18 1 0.143011 0.836281 0.593597 0 -8.34465e-07 1.19209e-07
19 1 0.836725 0.961401 0.593597 0 -1.60933e-05 -7.15256e-07
20 1 0.336725 0.961401 0.593597 0 -1.75238e-05 -3.57628e-07
21 1 0.911849 0.794406 0.0935971 0 -5.75781e-05 -1.19209e-07
22 1 0.411849 0.794406 0.0935971 0 -5.78165e-05 -2.38419e-07
23 1 0.605857 0.918872 0.0935971 0 -1.57356e-05 4.76837e-07
24 1 0.105857 0.918872 0.0935971 0 -1.58548e-05 3.57628e-07
25 1 0.979761 0.0877025 0.593597 0 1.54972e-05 -2.38419e-07
26 1 0.479761 0.0877025 0.593597 0 1.58548e-05 0
27 1 0.248893 0.0451731 0.0935971 0 1.68085e-05 0
28 1 0.748893 0.0451731 0.093597 0 1.66893e-05 4.76837e-07
29 1 0.173769 0.212169 0.593597 0 5.81741e-05 -1.19209e-07
30 1 0.673769 0.212169 0.593597 0 5.85318e-05 -2.38419e-07
31 1 0.942607 0.170293 0.0935971 0 1.19209e-06 1.19209e-07
32 1 0.442607 0.170293 0.093597 0 9.53674e-07 2.38419e-07
ITEM: TIMESTEP
9
ITEM: NUMBER OF ATOMS
32
ITEM: BOX BOUNDS xy xz yz pp pp pp
-2.1013021469116211e-03 9.2751429677009583e+00 2.8784926533699036e+00
-4.1524946689605713e-02 2.2124402940273285e+01 -0.0000000000000000e+00
-1.4066457748413086e-02 5.1965324282646179e+00 0.0000000000000000e+00
ITEM: ATOMS id type xs ys zs fx fy fz
1 1 0.867663 0.336891 0.593597 0 3.21865e-06 4.76837e-07
2 1 0.367663 0.336891 0.593597 0 2.38419e-06 0
3 1 0.136376 0.295292 0.0935971 0 -7.15256e-07 -1.19209e-07
4 1 0.636376 0.295292 0.0935971 0 -8.34465e-07 -3.57628e-07
5 1 0.0615374 0.461655 0.593597 0 2.31266e-05 4.76837e-07
6 1 0.561537 0.461655 0.593597 0 2.31266e-05 4.76837e-07
7 1 0.83022 0.420124 0.0935971 0 1.19209e-07 -7.15256e-07
8 1 0.33022 0.420124 0.0935971 0 -2.38419e-07 -2.38419e-07
9 1 0.755398 0.58645 0.593597 0 0 -3.57628e-07
10 1 0.255398 0.58645 0.593597 0 0 0
11 1 0.949242 0.711282 0.593597 0 8.34465e-07 -2.38419e-07
12 1 0.449242 0.711282 0.593597 0 7.15256e-07 -4.76837e-07
13 1 0.717955 0.669684 0.0935971 0 -2.14577e-06 2.38419e-07
14 1 0.0240807 0.544919 0.0935971 0 -2.31266e-05 0
15 1 0.524081 0.544919 0.0935971 0 -2.34842e-05 0
16 1 0.217955 0.669684 0.0935971 0 -2.14577e-06 1.19209e-07
17 1 0.643011 0.836281 0.593597 0 -2.51532e-05 2.38419e-07
18 1 0.143011 0.836281 0.593597 0 -2.53916e-05 -3.57628e-07
19 1 0.836726 0.961401 0.593597 0 7.03335e-06 7.15256e-07
20 1 0.336726 0.961401 0.593597 0 7.86781e-06 4.76837e-07
21 1 0.911849 0.794404 0.0935971 0 2.14577e-06 3.57628e-07
22 1 0.411849 0.794404 0.0935971 0 1.90735e-06 4.76837e-07
23 1 0.605858 0.918871 0.0935971 0 -1.65701e-05 -8.34465e-07
24 1 0.105858 0.918871 0.0935971 0 -1.66893e-05 -1.19209e-07
25 1 0.979761 0.087703 0.593597 0 1.75238e-05 1.19209e-07
26 1 0.47976 0.087703 0.593597 0 1.65701e-05 -1.19209e-07
27 1 0.248893 0.0451734 0.0935971 0 -7.51019e-06 0
28 1 0.748893 0.0451734 0.0935971 0 -7.51019e-06 -5.96046e-07
29 1 0.173769 0.21217 0.593597 0 -2.14577e-06 3.57628e-07
30 1 0.673769 0.21217 0.593597 0 -2.26498e-06 2.38419e-07
31 1 0.942607 0.170293 0.0935971 0 2.45571e-05 -1.19209e-07
32 1 0.442607 0.170293 0.0935971 0 2.47955e-05 -1.19209e-07
ITEM: TIMESTEP
10
ITEM: NUMBER OF ATOMS
32
ITEM: BOX BOUNDS xy xz yz pp pp pp
-2.1013021469116211e-03 9.2751429677009583e+00 2.8784926533699036e+00
-4.1524946689605713e-02 2.2124402940273285e+01 -0.0000000000000000e+00
-1.4066457748413086e-02 5.1965324282646179e+00 0.0000000000000000e+00
ITEM: ATOMS id type xs ys zs fx fy fz
1 1 0.867663 0.336891 0.593597 0 1.10865e-05 -4.76837e-07
2 1 0.367663 0.336891 0.593597 0 1.14441e-05 -3.57628e-07
3 1 0.136376 0.295292 0.0935971 0 4.88758e-06 4.76837e-07
4 1 0.636376 0.295292 0.0935971 0 5.00679e-06 2.38419e-07
5 1 0.0615372 0.461655 0.593597 0 -3.93391e-06 -4.76837e-07
6 1 0.561537 0.461655 0.593597 0 -3.93391e-06 -3.57628e-07
7 1 0.83022 0.420124 0.0935971 0 -3.33786e-06 1.19209e-07
8 1 0.33022 0.420124 0.0935971 0 -3.33786e-06 5.96046e-07
9 1 0.755398 0.58645 0.593597 0 3.09944e-06 -1.19209e-07
10 1 0.255398 0.58645 0.593597 0 3.45707e-06 -2.38419e-07
11 1 0.949242 0.711282 0.593597 0 -5.126e-06 -1.19209e-07
12 1 0.449242 0.711282 0.593597 0 -4.76837e-06 0
13 1 0.717955 0.669683 0.0935971 0 -1.13249e-05 0
14 1 0.0240809 0.544919 0.0935971 0 3.93391e-06 2.38419e-07
15 1 0.524081 0.544919 0.0935971 0 4.29153e-06 0
16 1 0.217955 0.669683 0.0935971 0 -1.12057e-05 4.76837e-07
17 1 0.643011 0.83628 0.593597 0 -7.15256e-07 -3.57628e-07
18 1 0.143011 0.83628 0.593597 0 -5.96046e-07 7.15256e-07
19 1 0.836725 0.961401 0.593597 0 1.90735e-06 -3.57628e-07
20 1 0.336726 0.961401 0.593597 0 2.02656e-06 -2.38419e-07
21 1 0.91185 0.794404 0.0935971 0 6.67572e-06 0
22 1 0.41185 0.794404 0.0935971 0 6.67572e-06 -2.38419e-07
23 1 0.605858 0.918871 0.093597 0 -1.07288e-06 7.15256e-07
24 1 0.105858 0.918871 0.0935971 0 -9.53674e-07 -2.38419e-07
25 1 0.97976 0.0877035 0.593597 0 5.96046e-07 -1.19209e-07
26 1 0.47976 0.0877035 0.593597 0 1.3113e-06 -1.19209e-07
27 1 0.248893 0.0451733 0.0935971 0 -2.5034e-06 -1.19209e-07
28 1 0.748893 0.0451733 0.0935971 0 -2.14577e-06 2.38419e-07
29 1 0.173769 0.212171 0.593597 0 -6.19888e-06 -4.76837e-07
30 1 0.673769 0.212171 0.593597 0 -6.4373e-06 1.19209e-07
31 1 0.942607 0.170294 0.0935971 0 8.34465e-07 1.19209e-07
32 1 0.442607 0.170294 0.0935971 0 3.57628e-07 3.57628e-07
ITEM: TIMESTEP
11
ITEM: NUMBER OF ATOMS
32
ITEM: BOX BOUNDS xy xz yz pp pp pp
-2.1013021469116211e-03 9.2751429677009583e+00 2.8784926533699036e+00
-4.1524946689605713e-02 2.2124402940273285e+01 -0.0000000000000000e+00
-1.4066457748413086e-02 5.1965324282646179e+00 0.0000000000000000e+00
ITEM: ATOMS id type xs ys zs fx fy fz
1 1 0.867663 0.336891 0.593597 0 1.07288e-06 0
2 1 0.367663 0.336891 0.593597 0 1.43051e-06 1.19209e-07
3 1 0.136376 0.295293 0.0935971 0 1.19209e-07 -1.19209e-07
4 1 0.636376 0.295293 0.0935971 0 2.38419e-07 0
5 1 0.0615372 0.461655 0.593597 0 -7.15256e-07 0
6 1 0.561537 0.461655 0.593597 0 -5.96046e-07 -1.19209e-07
7 1 0.83022 0.420124 0.0935971 0 1.90735e-06 1.19209e-07
8 1 0.33022 0.420124 0.0935971 0 2.38419e-06 -1.19209e-07
9 1 0.755398 0.58645 0.593597 0 -1.78814e-06 0
10 1 0.255398 0.58645 0.593597 0 -1.90735e-06 2.38419e-07
11 1 0.949242 0.711282 0.593597 0 -3.57628e-07 1.19209e-07
12 1 0.449242 0.711282 0.593597 0 -1.19209e-07 7.15256e-07
13 1 0.717955 0.669683 0.0935971 0 -1.66893e-06 -3.57628e-07
14 1 0.0240809 0.544919 0.0935971 0 5.96046e-07 0
15 1 0.524081 0.544919 0.0935971 0 8.34465e-07 -1.19209e-07
16 1 0.217955 0.669683 0.0935971 0 -1.78814e-06 -3.57628e-07
17 1 0.643011 0.83628 0.593597 0 1.3113e-06 1.19209e-07
18 1 0.143011 0.83628 0.593597 0 1.19209e-06 0
19 1 0.836725 0.961401 0.593597 0 2.38419e-07 0
20 1 0.336725 0.961401 0.593597 0 2.38419e-07 0
21 1 0.91185 0.794404 0.0935971 0 -1.19209e-06 -1.19209e-07
22 1 0.41185 0.794404 0.0935971 0 -1.19209e-06 -2.38419e-07
23 1 0.605858 0.918871 0.0935971 0 1.43051e-06 0
24 1 0.105858 0.918871 0.0935971 0 1.43051e-06 0
25 1 0.97976 0.0877036 0.593597 0 -1.66893e-06 1.19209e-07
26 1 0.47976 0.0877036 0.593597 0 -1.78814e-06 0
27 1 0.248893 0.0451733 0.0935971 0 -2.38419e-07 -1.19209e-07
28 1 0.748893 0.0451733 0.0935971 0 -4.76837e-07 0
29 1 0.173769 0.212171 0.593597 0 1.54972e-06 3.57628e-07
30 1 0.673769 0.21217 0.593597 0 1.07288e-06 -1.19209e-07
31 1 0.942607 0.170294 0.0935971 0 -7.15256e-07 -1.19209e-07
32 1 0.442607 0.170294 0.0935971 0 -8.34465e-07 0
ITEM: TIMESTEP
12
ITEM: NUMBER OF ATOMS
32
ITEM: BOX BOUNDS xy xz yz pp pp pp
-2.1013021469116211e-03 9.2751429677009583e+00 2.8784926533699036e+00
-4.1524946689605713e-02 2.2124402940273285e+01 -0.0000000000000000e+00
-1.4066457748413086e-02 5.1965324282646179e+00 0.0000000000000000e+00
ITEM: ATOMS id type xs ys zs fx fy fz
1 1 0.867663 0.336891 0.593597 0 1.19209e-07 0
2 1 0.367663 0.336891 0.593597 0 1.19209e-07 0
3 1 0.136376 0.295293 0.0935971 0 5.96046e-07 0
4 1 0.636376 0.295293 0.0935971 0 3.57628e-07 -1.19209e-07
5 1 0.0615372 0.461655 0.593597 0 8.34465e-07 2.38419e-07
6 1 0.561537 0.461655 0.593597 0 5.96046e-07 2.38419e-07
7 1 0.83022 0.420124 0.0935971 0 3.57628e-07 -2.38419e-07
8 1 0.33022 0.420124 0.0935971 0 2.38419e-07 -2.38419e-07
9 1 0.755398 0.58645 0.593597 0 -5.96046e-07 1.19209e-07
10 1 0.255398 0.58645 0.593597 0 -9.53674e-07 -1.19209e-07
11 1 0.949242 0.711282 0.593597 0 -2.38419e-07 -1.19209e-07
12 1 0.449242 0.711282 0.593597 0 0 -5.96046e-07
13 1 0.717955 0.669683 0.0935971 0 2.38419e-07 1.19209e-07
14 1 0.0240809 0.544919 0.0935971 0 -4.76837e-07 -1.19209e-07
15 1 0.524081 0.544919 0.0935971 0 -7.15256e-07 1.19209e-07
16 1 0.217955 0.669683 0.0935971 0 2.38419e-07 3.57628e-07
17 1 0.643011 0.83628 0.593597 0 -2.38419e-07 0
18 1 0.143011 0.83628 0.593597 0 2.38419e-07 0
19 1 0.836725 0.961401 0.593597 0 -5.96046e-07 2.38419e-07
20 1 0.336725 0.961401 0.593597 0 -9.53674e-07 0
21 1 0.91185 0.794404 0.0935971 0 -5.96046e-07 -2.38419e-07
22 1 0.41185 0.794404 0.0935971 0 -1.19209e-07 3.57628e-07
23 1 0.605858 0.918871 0.0935971 0 -3.57628e-07 -2.38419e-07
24 1 0.105858 0.918871 0.0935971 0 -7.15256e-07 1.19209e-07
25 1 0.97976 0.0877035 0.593597 0 2.38419e-07 0
26 1 0.47976 0.0877035 0.593597 0 2.38419e-07 2.38419e-07
27 1 0.248893 0.0451732 0.093597 0 1.07288e-06 1.19209e-07
28 1 0.748893 0.0451733 0.0935971 0 1.19209e-06 0
29 1 0.173769 0.212171 0.593597 0 -3.57628e-07 -1.19209e-07
30 1 0.673769 0.212171 0.593597 0 4.76837e-07 -1.19209e-07
31 1 0.942607 0.170294 0.0935971 0 1.19209e-07 1.19209e-07
32 1 0.442607 0.170294 0.0935971 0 -3.57628e-07 -1.19209e-07
