ITEM: TIMESTEP
0
ITEM: NUMBER OF ATOMS
32
ITEM: BOX BOUNDS xy xz yz pp pp pp
2.3402176666958421e-03 9.2687027343832895e+00 2.8764939520499859e+00
-1.8700970345103249e-02 2.2101578970345098e+01 0.0000000000000000e+00
8.6472273715375633e-03 5.1738187726284668e+00 0.0000000000000000e+00
ITEM: ATOMS id type xs ys zs fx fy fz
1 1 0.86772 0.336531 0.593597 0 0.0022639 -9.13227e-06
2 1 0.367719 0.336531 0.593597 0 0.00226557 -9.0864e-06
3 1 0.136394 0.295047 0.0935968 0 -0.00218198 7.56321e-06
4 1 0.636394 0.295047 0.0935968 0 -0.00217834 8.50013e-06
5 1 0.0614474 0.461534 0.593597 0 0.00200795 -9.76808e-06
6 1 0.561447 0.461534 0.593597 0 0.00200287 -9.16933e-06
7 1 0.830123 0.420048 0.0935968 0 -0.00224949 9.23232e-06
8 1 0.330123 0.420048 0.0935968 0 -0.00225199 9.11502e-06
9 1 0.755179 0.586531 0.593597 0 0.00217882 -7.79761e-06
10 1 0.255178 0.586531 0.593597 0 0.00217883 -8.5785e-06
11 1 0.948909 0.711528 0.593597 0 0.0022065 -6.51362e-06
12 1 0.448909 0.711528 0.593597 0 0.00220196 -6.33782e-06
13 1 0.717583 0.670045 0.0935969 0 -0.00214879 6.36271e-06
14 1 0.0238529 0.545047 0.0935968 0 -0.00217518 8.89817e-06
15 1 0.523853 0.545047 0.0935968 0 -0.00216997 9.60303e-06
16 1 0.217583 0.670045 0.0935969 0 -0.00214886 6.86832e-06
17 1 0.642639 0.836529 0.593597 0 0.00380588 -3.78023e-06
18 1 0.142638 0.836529 0.593597 0 0.00380587 -3.73154e-06
19 1 0.836368 0.961528 0.593597 0 -0.0338232 -3.25838e-06
20 1 0.336368 0.961528 0.593597 0 -0.0338334 -3.74937e-06
21 1 0.911311 0.795048 0.0935969 0 -0.0014235 4.38009e-06
22 1 0.411311 0.795048 0.0935969 0 -0.00142062 4.85621e-06
23 1 0.605044 0.920043 0.0935969 0 -0.0700861 4.29885e-06
24 1 0.105043 0.920043 0.0935969 0 -0.0700836 3.33436e-06
25 1 0.980264 0.0865253 0.593597 0 0.0703354 -1.76371e-06
26 1 0.480263 0.0865253 0.593597 0 0.0703388 -2.57151e-07
27 1 0.248938 0.0450412 0.093597 0 0.0338827 1.50827e-06
28 1 0.748938 0.0450411 0.0935969 0 0.0338907 1.56481e-06
29 1 0.173991 0.211528 0.593597 0 0.00126285 -4.16333e-06
30 1 0.673991 0.211528 0.593597 0 0.00125972 -5.04284e-06
31 1 0.942667 0.170044 0.0935969 0 -0.00385604 3.41061e-06
32 1 0.442666 0.170044 0.093597 0 -0.00385735 2.87595e-06
ITEM: TIMESTEP
6
ITEM: NUMBER OF ATOMS
32
ITEM: BOX BOUNDS xy xz yz pp pp pp
2.3402176666958421e-03 9.2687027343832895e+00 2.8764939520499859e+00
-1.8700970345103249e-02 2.2101578970345098e+01 0.0000000000000000e+00
8.6472273715375633e-03 5.1738187726284668e+00 0.0000000000000000e+00
ITEM: ATOMS id type xs ys zs fx fy fz
1 1 0.867531 0.33695 0.593597 0 -0.000942102 2.79283e-06
2 1 0.36753 0.33695 0.593597 0 -0.000942381 1.48865e-06
3 1 0.136245 0.295377 0.0935971 0 0.00146965 -1.76171e-06
4 1 0.636245 0.295377 0.0935972 0 0.00147049 -2.5932e-06
5 1 0.061397 0.461646 0.593597 0 9.61389e-05 1.68019e-06
6 1 0.561397 0.461646 0.593597 0 9.71035e-05 1.1937e-06
7 1 0.830059 0.420191 0.0935972 0 -0.00029406 -2.24962e-06
8 1 0.330059 0.420191 0.0935971 0 -0.000293792 -1.10176e-06
9 1 0.755245 0.586384 0.593597 0 0.00028609 1.50327e-06
10 1 0.255244 0.586384 0.593597 0 0.000283524 2.11141e-06
11 1 0.949058 0.711197 0.593597 0 -0.00146675 2.07304e-06
12 1 0.449058 0.711197 0.593597 0 -0.0014686 2.68353e-06
13 1 0.717773 0.669624 0.0935972 0 0.000938976 -1.92178e-06
14 1 0.0239062 0.544928 0.0935971 0 -9.14553e-05 -1.98248e-06
15 1 0.523906 0.544928 0.0935971 0 -9.22706e-05 -1.04271e-06
16 1 0.217772 0.669624 0.0935972 0 0.000940496 -2.9394e-06
17 1 0.642818 0.83613 0.593597 0 -0.000136592 9.80208e-07
18 1 0.142817 0.83613 0.593597 0 -0.000141849 1.29143e-06
19 1 0.836448 0.96135 0.593597 0 -0.000389029 1.72779e-07
20 1 0.336448 0.96135 0.593597 0 -0.000389502 -8.75501e-07
21 1 0.911653 0.794288 0.0935972 0 -6.00503e-05 -2.04216e-06
22 1 0.411653 0.794288 0.0935971 0 -5.79335e-05 -1.47709e-06
23 1 0.605673 0.918645 0.093597 0 -0.000302685 3.9515e-07
24 1 0.105672 0.918645 0.0935971 0 -0.000301932 -1.91518e-07
25 1 0.979632 0.087929 0.593597 0 0.000305325 3.98247e-07
26 1 0.479631 0.0879291 0.593597 0 0.000302549 -2.33336e-07
27 1 0.248855 0.0452242 0.093597 0 0.00039007 5.42598e-07
28 1 0.748855 0.0452243 0.0935971 0 0.000391239 2.31662e-08
29 1 0.17365 0.212286 0.593597 0 5.8261e-05 1.4836e-06
30 1 0.67365 0.212286 0.593597 0 5.78993e-05 9.92895e-07
31 1 0.942486 0.170444 0.0935971 0 0.000140951 -6.3981e-07
32 1 0.442486 0.170444 0.0935971 0 0.000142267 -6.53861e-07
