ITEM: TIMESTEP
0
ITEM: NUMBER OF ATOMS
48
ITEM: BOX BOUNDS xy xz yz pp pp pp
-2.8869471549987793e+00 8.6109705567359924e+00 2.5110912919044495e+00
-1.0506033897399902e-02 9.6185076832771301e+00 -2.8723903298377991e+00
-2.6944518089294434e-02 1.9544072151184082e+01 3.6519104242324829e-01
ITEM: ATOMS id type xs ys zs fx fy fz
1 1 0.937173 0.165578 0.0319985 0 0 0.637308
2 1 0.484036 0.0752984 0.0528317 0 0 0.667056
3 1 0.343051 0.123911 0.656998 0 0 -0.00162685
4 1 0.452265 0.950298 0.927832 0 0 -0.637307
5 1 0.171089 0.158632 0.802832 0 0 0.00662935
6 1 0.905402 0.040578 0.906998 0 0 -0.667057
7 1 0.624227 0.248911 0.781998 0 0 -0.00404251
8 1 0.7807 0.207245 0.406998 0 0 0.000820637
9 1 0.889914 0.0336318 0.677832 0 0 -0.000506401
10 1 0.608738 0.241965 0.552832 0 0 -0.000820279
11 1 0.765211 0.200298 0.177832 0 0 0.00404298
12 1 0.499524 0.0822446 0.281998 0 0 0.000506282
13 1 0.218349 0.290578 0.156998 0 0 -0.00663006
14 1 0.327563 0.116965 0.427832 0 0 4.86374e-05
15 1 0.937173 0.498911 0.0319984 0 0 0.637308
16 1 0.484036 0.408632 0.0528317 0 0 0.667056
17 1 0.343051 0.457245 0.656998 0 0 -0.00162721
18 1 0.452265 0.283632 0.927832 0 0 -0.637307
19 1 0.171089 0.491965 0.802832 0 0 0.00662959
20 1 0.905402 0.373911 0.906998 0 0 -0.667057
21 1 0.624227 0.582245 0.781998 0 0 -0.0040431
22 1 0.0618755 0.332245 0.531998 0 0 -4.76837e-05
23 1 0.7807 0.540578 0.406998 0 0 0.000820637
24 1 0.889914 0.366965 0.677832 0 0 -0.000506043
25 1 0.608738 0.575298 0.552832 0 0 -0.000820756
26 1 0.046387 0.325298 0.302832 0 0 0.00162673
27 1 0.765211 0.533632 0.177832 0 0 0.00404203
28 1 0.499524 0.415578 0.281998 0 0 0.000506163
29 1 0.218349 0.623911 0.156998 0 0 -0.00663006
30 1 0.327563 0.450298 0.427832 0 0 4.80413e-05
31 1 0.937173 0.832245 0.0319985 0 0 0.637308
32 1 0.484036 0.741965 0.0528317 0 0 0.667057
33 1 0.343051 0.790578 0.656998 0 0 -0.00162697
34 1 0.452265 0.616965 0.927832 0 0 -0.637308
35 1 0.171089 0.825298 0.802832 0 0 0.00662971
36 1 0.905402 0.707245 0.906998 0 0 -0.667057
37 1 0.624227 0.915578 0.781998 0 0 -0.00404346
38 1 0.0618755 0.665578 0.531998 0 0 -4.88758e-05
39 1 0.7807 0.873911 0.406998 0 0 0.000820994
40 1 0.889914 0.700298 0.677832 0 0 -0.000505567
41 1 0.608738 0.908632 0.552832 0 0 -0.00082159
42 1 0.046387 0.658632 0.302832 0 0 0.00162721
43 1 0.765211 0.866965 0.177832 0 0 0.00404274
44 1 0.499524 0.748911 0.281998 0 0 0.000506401
45 1 0.218349 0.957245 0.156998 0 0 -0.00662982
46 1 0.327563 0.783632 0.427832 0 0 4.86374e-05
47 1 0.0618755 0.998911 0.531998 0 0 -4.8399e-05
48 1 0.046387 0.991965 0.302832 0 0 0.00162709
ITEM: TIMESTEP
1
ITEM: NUMBER OF ATOMS
48
ITEM: BOX BOUNDS xy xz yz pp pp pp
-2.8869471549987793e+00 8.6109705567359924e+00 2.5110912919044495e+00
-1.0506033897399902e-02 9.6185076832771301e+00 -2.8723903298377991e+00
-2.6944518089294434e-02 1.9544072151184082e+01 3.6519104242324829e-01
ITEM: ATOMS id type xs ys zs fx fy fz
1 1 0.939546 0.165385 0.0368802 0 0 0.0190545
2 1 0.486519 0.075097 0.0579413 0 0 0.0825521
3 1 0.343045 0.123912 0.656986 0 0 -0.0127658
4 1 0.449893 0.950491 0.92295 0 0 -0.0190545
5 1 0.171114 0.15863 0.802883 0 0 -0.116832
6 1 0.902919 0.0407794 0.901889 0 0 -0.082552
7 1 0.624212 0.248913 0.781967 0 0 -0.13651
8 1 0.780703 0.207244 0.407005 0 0 -0.00203621
9 1 0.889912 0.0336319 0.677828 0 0 -0.00792086
10 1 0.608735 0.241965 0.552825 0 0 0.00203562
11 1 0.765226 0.200297 0.177863 0 0 0.13651
12 1 0.499526 0.0822445 0.282002 0 0 0.00792098
13 1 0.218324 0.29058 0.156948 0 0 0.116832
14 1 0.327563 0.116965 0.427832 0 0 -0.00169158
15 1 0.939546 0.498719 0.0368802 0 0 0.0190548
16 1 0.486519 0.40843 0.0579413 0 0 0.082552
17 1 0.343045 0.457245 0.656986 0 0 -0.0127658
18 1 0.449893 0.283824 0.92295 0 0 -0.0190547
19 1 0.171114 0.491963 0.802883 0 0 -0.116832
20 1 0.902919 0.374113 0.901889 0 0 -0.0825516
21 1 0.624212 0.582246 0.781967 0 0 -0.13651
22 1 0.0618753 0.332245 0.531998 0 0 0.0016923
23 1 0.780703 0.540578 0.407005 0 0 -0.00203621
24 1 0.889912 0.366965 0.677828 0 0 -0.0079205
25 1 0.608735 0.575299 0.552825 0 0 0.00203562
26 1 0.0463931 0.325298 0.302844 0 0 0.012766
27 1 0.765226 0.53363 0.177863 0 0 0.13651
28 1 0.499526 0.415578 0.282002 0 0 0.0079205
29 1 0.218324 0.623913 0.156948 0 0 0.116832
30 1 0.327563 0.450298 0.427832 0 0 -0.00169194
31 1 0.939546 0.832052 0.0368802 0 0 0.0190545
32 1 0.486519 0.741764 0.0579413 0 0 0.082552
33 1 0.343045 0.790578 0.656986 0 0 -0.012766
34 1 0.449893 0.617158 0.92295 0 0 -0.0190545
35 1 0.171114 0.825296 0.802882 0 0 -0.116831
36 1 0.902919 0.707446 0.901889 0 0 -0.0825523
37 1 0.624212 0.915579 0.781967 0 0 -0.13651
38 1 0.0618753 0.665578 0.531998 0 0 0.00169241
39 1 0.780703 0.873911 0.407005 0 0 -0.00203538
40 1 0.889912 0.700299 0.677828 0 0 -0.00792003
41 1 0.608735 0.908632 0.552825 0 0 0.00203538
42 1 0.046393 0.658631 0.302844 0 0 0.0127658
43 1 0.765226 0.866964 0.177863 0 0 0.13651
44 1 0.499526 0.748911 0.282002 0 0 0.00792098
45 1 0.218324 0.957247 0.156948 0 0 0.116832
46 1 0.327563 0.783632 0.427832 0 0 -0.00169206
47 1 0.0618753 0.998911 0.531998 0 0 0.00169158
48 1 0.046393 0.991965 0.302844 0 0 0.012766
ITEM: TIMESTEP
2
ITEM: NUMBER OF ATOMS
48
ITEM: BOX BOUNDS xy xz yz pp pp pp
-2.8869471549987793e+00 8.6109705567359924e+00 2.5110912919044495e+00
-1.0506033897399902e-02 9.6185076832771301e+00 -2.8723903298377991e+00
-2.6944518089294434e-02 1.9544072151184082e+01 3.6519104242324829e-01
ITEM: ATOMS id type xs ys zs fx fy fz
1 1 0.939798 0.165365 0.0374006 0 0 -0.0014044
2 1 0.487614 0.0750081 0.060196 0 0 0.0266967
3 1 0.342876 0.123926 0.656637 0 0 -0.0817658
4 1 0.44964 0.950511 0.92243 0 0 0.0014044
5 1 0.169563 0.158756 0.799692 0 0 0.0166783
6 1 0.901824 0.0408683 0.899634 0 0 -0.0266967
7 1 0.6224 0.24906 0.778239 0 0 0.0152656
8 1 0.780676 0.207247 0.406949 0 0 0.0119987
9 1 0.889807 0.0336404 0.677611 0 0 -0.0753803
10 1 0.608762 0.241963 0.552881 0 0 -0.0119978
11 1 0.767038 0.20015 0.181591 0 0 -0.0152649
12 1 0.499631 0.0822359 0.282219 0 0 0.0753798
13 1 0.219875 0.290454 0.160139 0 0 -0.0166786
14 1 0.32754 0.116967 0.427786 0 0 0.016464
15 1 0.939799 0.498698 0.0374006 0 0 -0.00140476
16 1 0.487614 0.408341 0.060196 0 0 0.0266966
17 1 0.342876 0.457259 0.656637 0 0 -0.0817657
18 1 0.44964 0.283845 0.92243 0 0 0.0014044
19 1 0.169563 0.492089 0.799692 0 0 0.016678
20 1 0.901824 0.374202 0.899634 0 0 -0.0266968
21 1 0.6224 0.582393 0.778239 0 0 0.0152656
22 1 0.0618978 0.332243 0.532044 0 0 -0.0164648
23 1 0.780676 0.54058 0.406949 0 0 0.0119987
24 1 0.889807 0.366974 0.677612 0 0 -0.0753802
25 1 0.608762 0.575296 0.552881 0 0 -0.0119979
26 1 0.0465625 0.325284 0.303193 0 0 0.0817653
27 1 0.767038 0.533483 0.181591 0 0 -0.0152643
28 1 0.499631 0.415569 0.282219 0 0 0.0753803
29 1 0.219875 0.623787 0.160139 0 0 -0.0166785
30 1 0.32754 0.4503 0.427786 0 0 0.0164642
31 1 0.939798 0.832032 0.0374006 0 0 -0.00140452
32 1 0.487614 0.741675 0.060196 0 0 0.0266962
33 1 0.342876 0.790592 0.656637 0 0 -0.0817659
34 1 0.44964 0.617178 0.92243 0 0 0.00140417
35 1 0.169563 0.825422 0.799692 0 0 0.0166781
36 1 0.901824 0.707535 0.899634 0 0 -0.0266962
37 1 0.6224 0.915726 0.778239 0 0 0.0152657
38 1 0.0618978 0.665576 0.532044 0 0 -0.0164645
39 1 0.780676 0.873913 0.406949 0 0 0.0119979
40 1 0.889807 0.700307 0.677612 0 0 -0.0753807
41 1 0.608762 0.90863 0.552881 0 0 -0.0119976
42 1 0.0465625 0.658617 0.303193 0 0 0.0817655
43 1 0.767038 0.866817 0.181591 0 0 -0.0152653
44 1 0.499631 0.748903 0.282219 0 0 0.0753798
45 1 0.219875 0.957121 0.160139 0 0 -0.0166779
46 1 0.32754 0.783634 0.427786 0 0 0.0164647
47 1 0.0618978 0.99891 0.532044 0 0 -0.0164641
48 1 0.0465625 0.991951 0.303193 0 0 0.0817653
ITEM: TIMESTEP
3
ITEM: NUMBER OF ATOMS
48
ITEM: BOX BOUNDS xy xz yz pp pp pp
-2.8869471549987793e+00 8.6109705567359924e+00 2.5110912919044495e+00
-1.0506033897399902e-02 9.6185076832771301e+00 -2.8723903298377991e+00
-2.6944518089294434e-02 1.9544072151184082e+01 3.6519104242324829e-01
ITEM: ATOMS id type xs ys zs fx fy fz
1 1 0.939864 0.16536 0.0375357 0 0 -0.0307274
2 1 0.488294 0.074953 0.0615941 0 0 -0.0344149
3 1 0.341835 0.12401 0.654496 0 0 0.000141621
4 1 0.449574 0.950517 0.922294 0 0 0.0307275
5 1 0.169258 0.15878 0.799063 0 0 -0.0178856
6 1 0.901144 0.0409234 0.898236 0 0 0.0344139
7 1 0.621992 0.249093 0.7774 0 0 -0.0160154
8 1 0.780812 0.207236 0.407229 0 0 0.0327185
9 1 0.888864 0.0337169 0.675672 0 0 -0.0011102
10 1 0.608626 0.241974 0.552602 0 0 -0.0327187
11 1 0.767446 0.200117 0.18243 0 0 0.0160155
12 1 0.500574 0.0821595 0.284158 0 0 0.00111032
13 1 0.22018 0.290429 0.160767 0 0 0.0178859
14 1 0.327731 0.116951 0.428179 0 0 0.0374267
15 1 0.939864 0.498693 0.0375357 0 0 -0.0307274
16 1 0.488294 0.408286 0.0615941 0 0 -0.0344145
17 1 0.341835 0.457343 0.654496 0 0 0.000141978
18 1 0.449574 0.28385 0.922294 0 0 0.0307279
19 1 0.169258 0.492114 0.799063 0 0 -0.0178856
20 1 0.901144 0.374257 0.898236 0 0 0.0344139
21 1 0.621992 0.582426 0.7774 0 0 -0.0160156
22 1 0.0617067 0.332258 0.531651 0 0 -0.0374266
23 1 0.780812 0.540569 0.407229 0 0 0.0327184
24 1 0.888864 0.36705 0.675672 0 0 -0.00111032
25 1 0.608626 0.575307 0.552602 0 0 -0.0327185
26 1 0.0476031 0.3252 0.305334 0 0 -0.000141978
27 1 0.767446 0.53345 0.18243 0 0 0.0160155
28 1 0.500574 0.415493 0.284158 0 0 0.00111043
29 1 0.22018 0.623763 0.160767 0 0 0.017886
30 1 0.327731 0.450285 0.428179 0 0 0.0374271
31 1 0.939864 0.832026 0.0375357 0 0 -0.0307271
32 1 0.488294 0.74162 0.0615941 0 0 -0.0344142
33 1 0.341835 0.790677 0.654496 0 0 0.000142813
34 1 0.449574 0.617183 0.922294 0 0 0.0307275
35 1 0.169258 0.825447 0.799063 0 0 -0.0178858
36 1 0.901144 0.70759 0.898236 0 0 0.0344141
37 1 0.621992 0.915759 0.7774 0 0 -0.0160158
38 1 0.0617067 0.665592 0.531651 0 0 -0.0374277
39 1 0.780812 0.873902 0.407229 0 0 0.0327184
40 1 0.888864 0.700384 0.675672 0 0 -0.00111043
41 1 0.608626 0.908641 0.552602 0 0 -0.0327185
42 1 0.047603 0.658533 0.305334 0 0 -0.000141621
43 1 0.767446 0.866784 0.18243 0 0 0.0160156
44 1 0.500574 0.748826 0.284158 0 0 0.00111079
45 1 0.22018 0.957096 0.160767 0 0 0.017885
46 1 0.327731 0.783618 0.428179 0 0 0.0374267
47 1 0.0617067 0.998925 0.531651 0 0 -0.0374266
48 1 0.047603 0.991866 0.305334 0 0 -0.000141859
ITEM: TIMESTEP
4
ITEM: NUMBER OF ATOMS
48
ITEM: BOX BOUNDS xy xz yz pp pp pp
-2.8869471549987793e+00 8.6109705567359924e+00 2.5110912919044495e+00
-1.0506033897399902e-02 9.6185076832771301e+00 -2.8723903298377991e+00
-2.6944518089294434e-02 1.9544072151184082e+01 3.6519104242324829e-01
ITEM: ATOMS id type xs ys zs fx fy fz
1 1 0.939667 0.165376 0.0371298 0 0 0.00919211
2 1 0.48821 0.0749598 0.0614206 0 0 -0.0013535
3 1 0.341601 0.124029 0.654015 0 0 0.00209427
4 1 0.449771 0.950501 0.9227 0 0 -0.00919235
5 1 0.169066 0.158796 0.798668 0 0 -0.00251341
6 1 0.901229 0.0409166 0.89841 0 0 0.00135398
7 1 0.62179 0.249109 0.776984 0 0 0.000478387
8 1 0.781068 0.207215 0.407756 0 0 0.00297022
9 1 0.888644 0.0337348 0.675219 0 0 9.2864e-05
10 1 0.60837 0.241995 0.552074 0 0 -0.00297058
11 1 0.767648 0.200101 0.182846 0 0 -0.000478983
12 1 0.500794 0.0821416 0.284612 0 0 -9.26256e-05
13 1 0.220372 0.290414 0.161163 0 0 0.00251317
14 1 0.328033 0.116927 0.428799 0 0 0.00497866
15 1 0.939667 0.498709 0.0371298 0 0 0.00919282
16 1 0.48821 0.408293 0.0614206 0 0 -0.00135326
17 1 0.341601 0.457362 0.654015 0 0 0.00209415
18 1 0.449771 0.283834 0.9227 0 0 -0.00919271
19 1 0.169066 0.492129 0.798668 0 0 -0.00251305
20 1 0.901229 0.37425 0.89841 0 0 0.00135326
21 1 0.62179 0.582442 0.776984 0 0 0.000478745
22 1 0.0614054 0.332283 0.531031 0 0 -0.00497866
23 1 0.781068 0.540548 0.407756 0 0 0.0029701
24 1 0.888644 0.367068 0.675219 0 0 9.26256e-05
25 1 0.60837 0.575328 0.552074 0 0 -0.0029701
26 1 0.0478367 0.325181 0.305815 0 0 -0.00209415
27 1 0.767648 0.533434 0.182846 0 0 -0.000479341
28 1 0.500794 0.415475 0.284612 0 0 -9.23872e-05
29 1 0.220372 0.623747 0.161163 0 0 0.00251329
30 1 0.328033 0.45026 0.428799 0 0 0.00497913
31 1 0.939667 0.832042 0.0371298 0 0 0.00919235
32 1 0.48821 0.741626 0.0614206 0 0 -0.00135326
33 1 0.341601 0.790696 0.654015 0 0 0.00209415
34 1 0.449771 0.617167 0.9227 0 0 -0.00919247
35 1 0.169066 0.825463 0.798668 0 0 -0.00251341
36 1 0.901229 0.707583 0.89841 0 0 0.00135386
37 1 0.62179 0.915776 0.776984 0 0 0.000478745
38 1 0.0614054 0.665616 0.531031 0 0 -0.00497854
39 1 0.781068 0.873881 0.407756 0 0 0.00297034
40 1 0.888644 0.700401 0.675219 0 0 9.23872e-05
41 1 0.60837 0.908662 0.552074 0 0 -0.00297058
42 1 0.0478367 0.658514 0.305815 0 0 -0.00209415
43 1 0.767648 0.866767 0.182846 0 0 -0.000478983
44 1 0.500794 0.748808 0.284612 0 0 -9.26256e-05
45 1 0.220372 0.95708 0.161163 0 0 0.00251329
46 1 0.328033 0.783594 0.428799 0 0 0.00497866
47 1 0.0614054 0.998949 0.531031 0 0 -0.0049789
48 1 0.0478367 0.991847 0.305815 0 0 -0.00209355
ITEM: TIMESTEP
5
ITEM: NUMBER OF ATOMS
48
ITEM: BOX BOUNDS xy xz yz pp pp pp
-2.8869471549987793e+00 8.6109705567359924e+00 2.5110912919044495e+00
-1.0506033897399902e-02 9.6185076832771301e+00 -2.8723903298377991e+00
-2.6944518089294434e-02 1.9544072151184082e+01 3.6519104242324829e-01
ITEM: ATOMS id type xs ys zs fx fy fz
1 1 0.939744 0.165369 0.0372883 0 0 0.00113308
2 1 0.488197 0.0749608 0.0613947 0 0 -0.00437808
3 1 0.341617 0.124028 0.654047 0 0 -0.00203705
4 1 0.449694 0.950507 0.922542 0 0 -0.00113273
5 1 0.169042 0.158798 0.798619 0 0 -0.00174356
6 1 0.901241 0.0409155 0.898435 0 0 0.0043776
7 1 0.621792 0.249109 0.776988 0 0 -0.000537753
8 1 0.781097 0.207212 0.407815 0 0 -0.00216925
9 1 0.888642 0.0337349 0.675215 0 0 -0.0022794
10 1 0.608342 0.241997 0.552016 0 0 0.00216925
11 1 0.767646 0.200101 0.182843 0 0 0.000538111
12 1 0.500796 0.0821415 0.284615 0 0 0.00227964
13 1 0.220396 0.290412 0.161211 0 0 0.00174356
14 1 0.328079 0.116923 0.428894 0 0 -0.00203395
15 1 0.939744 0.498703 0.0372884 0 0 0.00113237
16 1 0.488197 0.408294 0.0613947 0 0 -0.00437808
17 1 0.341617 0.457361 0.654047 0 0 -0.00203729
18 1 0.449694 0.28384 0.922542 0 0 -0.00113261
19 1 0.169042 0.492131 0.798619 0 0 -0.00174367
20 1 0.901241 0.374249 0.898435 0 0 0.00437832
21 1 0.621792 0.582442 0.776988 0 0 -0.000537992
22 1 0.0613591 0.332287 0.530936 0 0 0.00203419
23 1 0.781097 0.540546 0.407815 0 0 -0.00216901
24 1 0.888642 0.367068 0.675215 0 0 -0.00227952
25 1 0.608342 0.575331 0.552016 0 0 0.00216889
26 1 0.0478212 0.325182 0.305783 0 0 0.00203753
27 1 0.767646 0.533434 0.182843 0 0 0.00053823
28 1 0.500796 0.415475 0.284615 0 0 0.00227904
29 1 0.220396 0.623745 0.161211 0 0 0.00174344
30 1 0.328079 0.450257 0.428894 0 0 -0.00203419
31 1 0.939744 0.832036 0.0372883 0 0 0.00113285
32 1 0.488197 0.741627 0.0613947 0 0 -0.00437808
33 1 0.341617 0.790694 0.654047 0 0 -0.00203776
34 1 0.449694 0.617174 0.922542 0 0 -0.00113285
35 1 0.169042 0.825465 0.798619 0 0 -0.00174356
36 1 0.901241 0.707582 0.898435 0 0 0.00437796
37 1 0.621792 0.915776 0.776988 0 0 -0.000538111
38 1 0.0613592 0.66562 0.530936 0 0 0.00203395
39 1 0.781097 0.873879 0.407815 0 0 -0.00216925
40 1 0.888642 0.700402 0.675215 0 0 -0.0022794
41 1 0.608342 0.908664 0.552016 0 0 0.00216901
42 1 0.0478212 0.658515 0.305783 0 0 0.00203753
43 1 0.767646 0.866767 0.182843 0 0 0.00053823
44 1 0.500796 0.748808 0.284615 0 0 0.00227928
45 1 0.220396 0.957079 0.161211 0 0 0.00174356
46 1 0.328079 0.78359 0.428894 0 0 -0.00203407
47 1 0.0613591 0.998953 0.530936 0 0 0.00203454
48 1 0.0478212 0.991849 0.305783 0 0 0.00203705
ITEM: TIMESTEP
6
ITEM: NUMBER OF ATOMS
48
ITEM: BOX BOUNDS xy xz yz pp pp pp
-2.8869471549987793e+00 8.6109705567359924e+00 2.5110912919044495e+00
-1.0506033897399902e-02 9.6185076832771301e+00 -2.8723903298377991e+00
-2.6944518089294434e-02 1.9544072151184082e+01 3.6519104242324829e-01
ITEM: ATOMS id type xs ys zs fx fy fz
1 1 0.939791 0.165366 0.0373859 0 0 3.86238e-05
2 1 0.48814 0.0749655 0.0612775 0 0 1.84774e-05
3 1 0.3416 0.124029 0.654012 0 0 -0.000773549
4 1 0.449647 0.950511 0.922444 0 0 -3.89814e-05
5 1 0.169011 0.1588 0.798555 0 0 0.000349402
6 1 0.901298 0.0409109 0.898553 0 0 -1.83582e-05
7 1 0.621786 0.249109 0.776976 0 0 -5.84126e-06
8 1 0.781084 0.207213 0.407788 0 0 0.000710368
9 1 0.888615 0.0337371 0.675159 0 0 -0.000168443
10 1 0.608354 0.241996 0.552042 0 0 -0.000710011
11 1 0.767652 0.2001 0.182854 0 0 5.84126e-06
12 1 0.500823 0.0821392 0.284671 0 0 0.000168085
13 1 0.220427 0.290409 0.161275 0 0 -0.000348926
14 1 0.328076 0.116923 0.428887 0 0 -0.000114202
15 1 0.939791 0.498699 0.0373859 0 0 3.88622e-05
16 1 0.48814 0.408299 0.0612775 0 0 1.8239e-05
17 1 0.3416 0.457362 0.654012 0 0 -0.00077343
18 1 0.449647 0.283844 0.922444 0 0 -3.8743e-05
19 1 0.169011 0.492134 0.798555 0 0 0.000348926
20 1 0.901298 0.374244 0.898553 0 0 -1.8239e-05
21 1 0.621786 0.582443 0.776976 0 0 -5.72205e-06
22 1 0.0613625 0.332286 0.530943 0 0 0.000114202
23 1 0.781084 0.540547 0.407788 0 0 0.000710249
24 1 0.888615 0.36707 0.675159 0 0 -0.000168443
25 1 0.608354 0.57533 0.552042 0 0 -0.00071013
26 1 0.0478383 0.325181 0.305818 0 0 0.000773549
27 1 0.767652 0.533434 0.182854 0 0 5.84126e-06
28 1 0.500823 0.415473 0.284671 0 0 0.000168443
29 1 0.220427 0.623743 0.161275 0 0 -0.000349164
30 1 0.328076 0.450257 0.428887 0 0 -0.000114441
31 1 0.939791 0.832032 0.0373859 0 0 3.8743e-05
32 1 0.48814 0.741632 0.0612775 0 0 1.81198e-05
33 1 0.3416 0.790696 0.654012 0 0 -0.000772953
34 1 0.449647 0.617177 0.922444 0 0 -3.86238e-05
35 1 0.169011 0.825467 0.798555 0 0 0.000349283
36 1 0.901298 0.707578 0.898553 0 0 -1.84774e-05
37 1 0.621786 0.915776 0.776976 0 0 -5.60284e-06
38 1 0.0613626 0.66562 0.530943 0 0 0.000114202
39 1 0.781084 0.87388 0.407788 0 0 0.00071013
40 1 0.888615 0.700404 0.675159 0 0 -0.000168204
41 1 0.608354 0.908663 0.552042 0 0 -0.000710011
42 1 0.0478383 0.658514 0.305818 0 0 0.000773191
43 1 0.767652 0.866767 0.182854 0 0 5.84126e-06
44 1 0.500823 0.748806 0.284671 0 0 0.000168204
45 1 0.220427 0.957076 0.161275 0 0 -0.000349402
46 1 0.328076 0.78359 0.428887 0 0 -0.000114322
47 1 0.0613626 0.998953 0.530943 0 0 0.000114083
48 1 0.0478383 0.991847 0.305818 0 0 0.000773311
ITEM: TIMESTEP
7
ITEM: NUMBER OF ATOMS
48
ITEM: BOX BOUNDS xy xz yz pp pp pp
-2.8869471549987793e+00 8.6109705567359924e+00 2.5110912919044495e+00
-1.0506033897399902e-02 9.6185076832771301e+00 -2.8723903298377991e+00
-2.6944518089294434e-02 1.9544072151184082e+01 3.6519104242324829e-01
ITEM: ATOMS id type xs ys zs fx fy fz
1 1 0.939793 0.165365 0.0373891 0 0 -0.000111103
2 1 0.488139 0.0749656 0.061275 0 0 2.02656e-05
3 1 0.341592 0.12403 0.653996 0 0 1.12057e-05
4 1 0.449645 0.950511 0.922441 0 0 0.000111103
5 1 0.169014 0.1588 0.79856 0 0 -0.00017643
6 1 0.901299 0.0409108 0.898555 0 0 -2.02656e-05
7 1 0.621786 0.249109 0.776976 0 0 -0.000243187
8 1 0.78109 0.207213 0.407801 0 0 0.000115871
9 1 0.888613 0.0337373 0.675154 0 0 -3.06368e-05
10 1 0.608348 0.241997 0.552029 0 0 -0.00011611
11 1 0.767652 0.2001 0.182854 0 0 0.00024271
12 1 0.500826 0.0821391 0.284676 0 0 3.06368e-05
13 1 0.220425 0.29041 0.16127 0 0 0.00017643
14 1 0.328074 0.116924 0.428885 0 0 0.000114083
15 1 0.939793 0.498699 0.0373891 0 0 -0.000111341
16 1 0.488139 0.408299 0.061275 0 0 2.03848e-05
17 1 0.341592 0.457363 0.653996 0 0 1.10865e-05
18 1 0.449645 0.283844 0.922441 0 0 0.000111341
19 1 0.169014 0.492133 0.79856 0 0 -0.000176191
20 1 0.901299 0.374244 0.898555 0 0 -2.06232e-05
21 1 0.621786 0.582443 0.776976 0 0 -0.000243306
22 1 0.0613637 0.332286 0.530945 0 0 -0.000114083
23 1 0.78109 0.540546 0.407801 0 0 0.000115633
24 1 0.888613 0.367071 0.675154 0 0 -3.06368e-05
25 1 0.608348 0.57533 0.552029 0 0 -0.000115752
26 1 0.0478461 0.32518 0.305834 0 0 -1.10865e-05
27 1 0.767652 0.533434 0.182854 0 0 0.000242829
28 1 0.500826 0.415472 0.284676 0 0 3.06368e-05
29 1 0.220425 0.623743 0.16127 0 0 0.000176787
30 1 0.328074 0.450257 0.428885 0 0 0.000114083
31 1 0.939793 0.832032 0.0373891 0 0 -0.000110984
32 1 0.488139 0.741632 0.061275 0 0 2.0504e-05
33 1 0.341592 0.790696 0.653996 0 0 1.14441e-05
34 1 0.449645 0.617178 0.922441 0 0 0.000111222
35 1 0.169014 0.825467 0.79856 0 0 -0.000176549
36 1 0.901299 0.707577 0.898555 0 0 -2.06232e-05
37 1 0.621786 0.915776 0.776976 0 0 -0.000243187
38 1 0.0613637 0.665619 0.530945 0 0 -0.000113964
39 1 0.78109 0.87388 0.407801 0 0 0.000115871
40 1 0.888613 0.700404 0.675154 0 0 -3.05176e-05
41 1 0.608348 0.908663 0.552029 0 0 -0.000115633
42 1 0.047846 0.658513 0.305834 0 0 -1.14441e-05
43 1 0.767652 0.866767 0.182854 0 0 0.000242829
44 1 0.500826 0.748806 0.284676 0 0 3.09944e-05
45 1 0.220425 0.957076 0.16127 0 0 0.000176907
46 1 0.328074 0.78359 0.428885 0 0 0.000114083
47 1 0.0613637 0.998953 0.530945 0 0 -0.000114202
48 1 0.047846 0.991847 0.305834 0 0 -1.10865e-05
ITEM: TIMESTEP
8
ITEM: NUMBER OF ATOMS
48
ITEM: BOX BOUNDS xy xz yz pp pp pp
-2.8869471549987793e+00 8.6109705567359924e+00 2.5110912919044495e+00
-1.0506033897399902e-02 9.6185076832771301e+00 -2.8723903298377991e+00
-2.6944518089294434e-02 1.9544072151184082e+01 3.6519104242324829e-01
ITEM: ATOMS id type xs ys zs fx fy fz
1 1 0.939792 0.165366 0.0373873 0 0 7.33137e-05
2 1 0.488139 0.0749656 0.0612751 0 0 0.000170588
3 1 0.341591 0.12403 0.653995 0 0 -6.85453e-05
4 1 0.449646 0.950511 0.922443 0 0 -7.34329e-05
5 1 0.169012 0.1588 0.798557 0 0 -4.75645e-05
6 1 0.901299 0.0409108 0.898555 0 0 -0.00017035
7 1 0.621784 0.24911 0.776971 0 0 -2.38419e-05
8 1 0.781092 0.207213 0.407805 0 0 -9.39369e-05
9 1 0.888612 0.0337374 0.675153 0 0 -0.000120878
10 1 0.608346 0.241997 0.552025 0 0 9.40561e-05
11 1 0.767654 0.2001 0.182859 0 0 2.39611e-05
12 1 0.500826 0.082139 0.284677 0 0 0.000120878
13 1 0.220426 0.290409 0.161273 0 0 4.74453e-05
14 1 0.328075 0.116923 0.428887 0 0 -1.12057e-05
15 1 0.939792 0.498699 0.0373873 0 0 7.33137e-05
16 1 0.488139 0.408299 0.0612751 0 0 0.000170827
17 1 0.341591 0.457363 0.653995 0 0 -6.85453e-05
18 1 0.449646 0.283844 0.922443 0 0 -7.35521e-05
19 1 0.169012 0.492134 0.798557 0 0 -4.75645e-05
20 1 0.901299 0.374244 0.898555 0 0 -0.00017035
21 1 0.621784 0.582443 0.776971 0 0 -2.39611e-05
22 1 0.0613628 0.332286 0.530943 0 0 1.13249e-05
23 1 0.781092 0.540546 0.407805 0 0 -9.38177e-05
24 1 0.888612 0.367071 0.675153 0 0 -0.000121117
25 1 0.608346 0.57533 0.552025 0 0 9.39369e-05
26 1 0.0478467 0.32518 0.305835 0 0 6.83069e-05
27 1 0.767654 0.533434 0.182859 0 0 2.41995e-05
28 1 0.500826 0.415472 0.284677 0 0 0.000120878
29 1 0.220426 0.623743 0.161273 0 0 4.72069e-05
30 1 0.328075 0.450257 0.428887 0 0 -1.12057e-05
31 1 0.939792 0.832032 0.0373873 0 0 7.28369e-05
32 1 0.488139 0.741632 0.0612751 0 0 0.000170827
33 1 0.341591 0.790696 0.653995 0 0 -6.86646e-05
34 1 0.449646 0.617178 0.922443 0 0 -7.31945e-05
35 1 0.169012 0.825467 0.798557 0 0 -4.74453e-05
36 1 0.901299 0.707577 0.898555 0 0 -0.000169992
37 1 0.621784 0.915776 0.776971 0 0 -2.38419e-05
38 1 0.0613628 0.66562 0.530943 0 0 1.12057e-05
39 1 0.781092 0.873879 0.407805 0 0 -9.35793e-05
40 1 0.888612 0.700404 0.675153 0 0 -0.000120878
41 1 0.608346 0.908664 0.552025 0 0 9.35793e-05
42 1 0.0478467 0.658513 0.305835 0 0 6.85453e-05
43 1 0.767654 0.866767 0.182859 0 0 2.40803e-05
44 1 0.500826 0.748806 0.284677 0 0 0.000120521
45 1 0.220426 0.957076 0.161273 0 0 4.73261e-05
46 1 0.328075 0.78359 0.428887 0 0 -1.10865e-05
47 1 0.0613628 0.998953 0.530943 0 0 1.0848e-05
48 1 0.0478467 0.991847 0.305835 0 0 6.85453e-05
ITEM: TIMESTEP
9
ITEM: NUMBER OF ATOMS
48
ITEM: BOX BOUNDS xy xz yz pp pp pp
-2.8869471549987793e+00 8.6109705567359924e+00 2.5110912919044495e+00
-1.0506033897399902e-02 9.6185076832771301e+00 -2.8723903298377991e+00
-2.6944518089294434e-02 1.9544072151184082e+01 3.6519104242324829e-01
ITEM: ATOMS id type xs ys zs fx fy fz
1 1 0.939792 0.165365 0.037388 0 0 -2.51532e-05
2 1 0.488141 0.0749654 0.0612801 0 0 -2.15769e-05
3 1 0.34159 0.12403 0.653992 0 0 -3.26633e-05
4 1 0.449646 0.950511 0.922442 0 0 2.57492e-05
5 1 0.16901 0.1588 0.798554 0 0 -2.24113e-05
6 1 0.901297 0.040911 0.89855 0 0 2.12193e-05
7 1 0.621782 0.24911 0.776967 0 0 1.84774e-05
8 1 0.781092 0.207213 0.407805 0 0 -2.12193e-05
9 1 0.88861 0.0337375 0.675149 0 0 -2.98023e-06
10 1 0.608346 0.241997 0.552025 0 0 2.13385e-05
11 1 0.767656 0.2001 0.182863 0 0 -1.80006e-05
12 1 0.500828 0.0821388 0.284681 0 0 2.74181e-06
13 1 0.220428 0.290409 0.161276 0 0 2.19345e-05
14 1 0.328076 0.116923 0.428888 0 0 1.09673e-05
15 1 0.939792 0.498699 0.037388 0 0 -2.47955e-05
16 1 0.488141 0.408299 0.0612802 0 0 -2.19345e-05
17 1 0.34159 0.457363 0.653992 0 0 -3.3021e-05
18 1 0.449646 0.283844 0.922442 0 0 2.55108e-05
19 1 0.16901 0.492134 0.798554 0 0 -2.19345e-05
20 1 0.901297 0.374244 0.89855 0 0 2.11e-05
21 1 0.621782 0.582443 0.776967 0 0 1.90735e-05
22 1 0.0613622 0.332286 0.530942 0 0 -1.14441e-05
23 1 0.781092 0.540546 0.407805 0 0 -2.09808e-05
24 1 0.88861 0.367071 0.675149 0 0 -2.14577e-06
25 1 0.608346 0.57533 0.552025 0 0 2.12193e-05
26 1 0.0478482 0.32518 0.305838 0 0 3.25441e-05
27 1 0.767656 0.533433 0.182863 0 0 -1.87159e-05
28 1 0.500828 0.415472 0.284681 0 0 2.98023e-06
29 1 0.220428 0.623743 0.161276 0 0 2.18153e-05
30 1 0.328076 0.450257 0.428888 0 0 1.0848e-05
31 1 0.939792 0.832032 0.037388 0 0 -2.46763e-05
32 1 0.488141 0.741632 0.0612802 0 0 -2.15769e-05
33 1 0.34159 0.790697 0.653992 0 0 -3.33786e-05
34 1 0.449646 0.617178 0.922442 0 0 2.55108e-05
35 1 0.16901 0.825467 0.798554 0 0 -2.20537e-05
36 1 0.901297 0.707578 0.89855 0 0 2.06232e-05
37 1 0.621782 0.915776 0.776967 0 0 1.87159e-05
38 1 0.0613623 0.66562 0.530942 0 0 -1.07288e-05
39 1 0.781092 0.873879 0.407805 0 0 -2.16961e-05
40 1 0.88861 0.700404 0.675149 0 0 -2.86102e-06
41 1 0.608346 0.908664 0.552025 0 0 2.14577e-05
42 1 0.0478481 0.658513 0.305838 0 0 3.31402e-05
43 1 0.767656 0.866767 0.182863 0 0 -1.87159e-05
44 1 0.500828 0.748806 0.284681 0 0 2.98023e-06
45 1 0.220428 0.957076 0.161276 0 0 2.19345e-05
46 1 0.328076 0.78359 0.428888 0 0 1.03712e-05
47 1 0.0613622 0.998953 0.530942 0 0 -9.77516e-06
48 1 0.0478481 0.991847 0.305838 0 0 3.21865e-05
ITEM: TIMESTEP
10
ITEM: NUMBER OF ATOMS
48
ITEM: BOX BOUNDS xy xz yz pp pp pp
-2.8869471549987793e+00 8.6109705567359924e+00 2.5110912919044495e+00
-1.0506033897399902e-02 9.6185076832771301e+00 -2.8723903298377991e+00
-2.6944518089294434e-02 1.9544072151184082e+01 3.6519104242324829e-01
ITEM: ATOMS id type xs ys zs fx fy fz
1 1 0.939792 0.165365 0.0373877 0 0 7.15256e-06
2 1 0.488141 0.0749654 0.06128 0 0 2.38419e-06
3 1 0.34159 0.12403 0.653991 0 0 -2.74181e-06
4 1 0.449646 0.950511 0.922443 0 0 -7.51019e-06
5 1 0.16901 0.1588 0.798553 0 0 1.3113e-06
6 1 0.901297 0.040911 0.89855 0 0 -2.02656e-06
7 1 0.621782 0.24911 0.776967 0 0 6.19888e-06
8 1 0.781092 0.207213 0.407804 0 0 4.52995e-06
9 1 0.88861 0.0337375 0.675149 0 0 4.17233e-06
10 1 0.608347 0.241997 0.552026 0 0 -5.126e-06
11 1 0.767656 0.2001 0.182863 0 0 -6.4373e-06
12 1 0.500828 0.0821388 0.284682 0 0 -3.45707e-06
13 1 0.220428 0.290409 0.161277 0 0 -1.07288e-06
14 1 0.328076 0.116923 0.428888 0 0 1.32322e-05
15 1 0.939792 0.498699 0.0373877 0 0 7.39098e-06
16 1 0.488141 0.408299 0.06128 0 0 1.78814e-06
17 1 0.34159 0.457363 0.653991 0 0 -2.26498e-06
18 1 0.449646 0.283844 0.922443 0 0 -7.39098e-06
19 1 0.16901 0.492134 0.798553 0 0 4.76837e-07
20 1 0.901297 0.374244 0.89855 0 0 -1.78814e-06
21 1 0.621782 0.582443 0.776967 0 0 5.84126e-06
22 1 0.0613621 0.332286 0.530942 0 0 -1.32322e-05
23 1 0.781092 0.540546 0.407804 0 0 4.64916e-06
24 1 0.88861 0.367071 0.675149 0 0 3.93391e-06
25 1 0.608347 0.57533 0.552026 0 0 -4.88758e-06
26 1 0.0478485 0.32518 0.305839 0 0 2.74181e-06
27 1 0.767656 0.533433 0.182863 0 0 -5.96046e-06
28 1 0.500828 0.415472 0.284682 0 0 -3.93391e-06
29 1 0.220428 0.623743 0.161277 0 0 -5.96046e-07
30 1 0.328076 0.450257 0.428888 0 0 1.34706e-05
31 1 0.939792 0.832032 0.0373877 0 0 6.91414e-06
32 1 0.488141 0.741632 0.06128 0 0 1.54972e-06
33 1 0.34159 0.790697 0.653991 0 0 -2.38419e-06
34 1 0.449646 0.617178 0.922443 0 0 -7.15256e-06
35 1 0.16901 0.825467 0.798553 0 0 8.34465e-07
36 1 0.901297 0.707578 0.89855 0 0 -1.78814e-06
37 1 0.621782 0.915776 0.776967 0 0 6.07967e-06
38 1 0.0613622 0.66562 0.530942 0 0 -1.34706e-05
39 1 0.781092 0.873879 0.407804 0 0 4.88758e-06
40 1 0.88861 0.700404 0.675149 0 0 3.93391e-06
41 1 0.608347 0.908664 0.552026 0 0 -5.00679e-06
42 1 0.0478484 0.658513 0.305839 0 0 2.74181e-06
43 1 0.767656 0.866767 0.182863 0 0 -5.96046e-06
44 1 0.500828 0.748805 0.284682 0 0 -3.93391e-06
45 1 0.220428 0.957076 0.161277 0 0 -1.19209e-06
46 1 0.328076 0.78359 0.428888 0 0 1.35899e-05
47 1 0.0613621 0.998953 0.530942 0 0 -1.33514e-05
48 1 0.0478484 0.991846 0.305839 0 0 2.86102e-06
ITEM: TIMESTEP
11
ITEM: NUMBER OF ATOMS
48
ITEM: BOX BOUNDS xy xz yz pp pp pp
-2.8869471549987793e+00 8.6109705567359924e+00 2.5110912919044495e+00
-1.0506033897399902e-02 9.6185076832771301e+00 -2.8723903298377991e+00
-2.6944518089294434e-02 1.9544072151184082e+01 3.6519104242324829e-01
ITEM: ATOMS id type xs ys zs fx fy fz
1 1 0.939792 0.165365 0.0373877 0 0 1.90735e-06
2 1 0.488141 0.0749654 0.06128 0 0 -2.86102e-06
3 1 0.34159 0.12403 0.653991 0 0 -7.15256e-07
4 1 0.449646 0.950511 0.922442 0 0 -2.02656e-06
5 1 0.16901 0.1588 0.798553 0 0 1.19209e-07
6 1 0.901297 0.040911 0.89855 0 0 2.74181e-06
7 1 0.621782 0.24911 0.776967 0 0 -1.07288e-06
8 1 0.781092 0.207213 0.407804 0 0 4.76837e-07
9 1 0.88861 0.0337375 0.675149 0 0 -3.57628e-07
10 1 0.608347 0.241997 0.552026 0 0 3.57628e-07
11 1 0.767656 0.2001 0.182863 0 0 1.43051e-06
12 1 0.500828 0.0821388 0.284682 0 0 0
13 1 0.220428 0.290409 0.161277 0 0 -2.38419e-07
14 1 0.328076 0.116923 0.428888 0 0 2.38419e-07
15 1 0.939792 0.498699 0.0373877 0 0 1.78814e-06
16 1 0.488141 0.408299 0.06128 0 0 -2.6226e-06
17 1 0.34159 0.457363 0.653991 0 0 -7.15256e-07
18 1 0.449646 0.283844 0.922442 0 0 -2.26498e-06
19 1 0.16901 0.492134 0.798553 0 0 3.57628e-07
20 1 0.901297 0.374244 0.89855 0 0 2.98023e-06
21 1 0.621782 0.582443 0.776967 0 0 -1.07288e-06
22 1 0.061362 0.332286 0.530942 0 0 0