ITEM: TIMESTEP
0
ITEM: NUMBER OF ATOMS
32
ITEM: BOX BOUNDS xy xz yz pp pp pp
-4.0532350540161133e-03 6.4008854031562805e+00 0.0000000000000000e+00
-9.1640949249267578e-03 8.0179131031036377e+00 0.0000000000000000e+00
-4.7960281372070312e-02 2.0773346722126007e+01 2.4883178472518921e+00
ITEM: ATOMS id type xs ys zs fx fy fz
1 1 0.999986 0.639315 0.0597509 0 0 0.751759
2 1 0.499986 0.639315 0.0597509 0 0 0.751759
3 1 0.249986 0.139315 0.0597519 0 0 0.751623
4 1 0.749986 0.139315 0.0597519 0 0 0.751623
5 1 0.999986 0.527014 0.309753 0 0 0.000450134
6 1 0.249986 0.417513 0.184753 0 0 -0.000162125
7 1 0.749986 0.417513 0.184753 0 0 -0.000162125
8 1 0.499986 0.527014 0.309753 0 0 0.000450134
9 1 0.999986 0.917511 0.184753 0 0 -0.000139236
10 1 0.249986 0.027014 0.309753 0 0 0.000402451
11 1 0.499986 0.917511 0.184753 0 0 -0.000139236
12 1 0.749986 0.027014 0.309753 0 0 0.000402451
13 1 0.999986 0.414688 0.559749 0 0 5.72205e-05
14 1 0.499986 0.414688 0.559749 0 0 5.72205e-05
15 1 0.249986 0.914686 0.55975 0 0 4.57764e-05
16 1 0.749986 0.914686 0.55975 0 0 4.57764e-05
17 1 0.249986 0.3052 0.434752 0 0 -5.91278e-05
18 1 0.749986 0.3052 0.434752 0 0 -5.91278e-05
19 1 0.999986 0.8052 0.434752 0 0 -3.43323e-05
20 1 0.499986 0.8052 0.434752 0 0 -3.43323e-05
21 1 0.999986 0.302366 0.809748 0 0 0.000148773
22 1 0.249986 0.192869 0.684748 0 0 -0.000432968
23 1 0.499986 0.302366 0.809748 0 0 0.000148773
24 1 0.749986 0.192869 0.684748 0 0 -0.000432968
25 1 0.999986 0.692869 0.684749 0 0 -0.000450134
26 1 0.249986 0.802366 0.809748 0 0 0.000167847
27 1 0.749986 0.802366 0.809748 0 0 0.000167847
28 1 0.499986 0.692869 0.684749 0 0 -0.000450134
29 1 0.249986 0.0805599 0.934749 0 0 -0.751623
30 1 0.749986 0.0805599 0.934749 0 0 -0.751623
31 1 0.999986 0.58056 0.93475 0 0 -0.751753
32 1 0.499986 0.58056 0.93475 0 0 -0.751753
ITEM: TIMESTEP
1
ITEM: NUMBER OF ATOMS
32
ITEM: BOX BOUNDS xy xz yz pp pp pp
-4.0532350540161133e-03 6.4008854031562805e+00 0.0000000000000000e+00
-9.1640949249267578e-03 8.0179131031036377e+00 0.0000000000000000e+00
-4.7960281372070312e-02 2.0773346722126007e+01 2.4883178472518921e+00
ITEM: ATOMS id type xs ys zs fx fy fz
1 1 0.999986 0.637158 0.0645537 0 0 0.0648956
2 1 0.499986 0.637158 0.0645537 0 0 0.0648956
3 1 0.249986 0.137158 0.0645538 0 0 0.0648937
4 1 0.749986 0.137158 0.0645538 0 0 0.0648937
5 1 0.999986 0.527012 0.309756 0 0 0.00778198
6 1 0.249986 0.417514 0.184752 0 0 0.147707
7 1 0.749986 0.417514 0.184752 0 0 0.147707
8 1 0.499986 0.527012 0.309756 0 0 0.00778198
9 1 0.999986 0.917512 0.184752 0 0 0.147709
10 1 0.249986 0.0270128 0.309756 0 0 0.00776482
11 1 0.499986 0.917512 0.184752 0 0 0.147709
12 1 0.749986 0.0270128 0.309756 0 0 0.00776482
13 1 0.999986 0.414688 0.55975 0 0 0.000440598
14 1 0.499986 0.414688 0.55975 0 0 0.000440598
15 1 0.249986 0.914686 0.55975 0 0 0.000431061
16 1 0.749986 0.914686 0.55975 0 0 0.000431061
17 1 0.249986 0.3052 0.434752 0 0 -0.000434875
18 1 0.749986 0.3052 0.434752 0 0 -0.000434875
19 1 0.999986 0.8052 0.434752 0 0 -0.000421524
20 1 0.499986 0.8052 0.434752 0 0 -0.000421524
21 1 0.999986 0.302365 0.809749 0 0 -0.147715
22 1 0.249986 0.19287 0.684745 0 0 -0.00777626
23 1 0.499986 0.302365 0.809749 0 0 -0.147715
24 1 0.749986 0.19287 0.684745 0 0 -0.00777626
25 1 0.999986 0.69287 0.684746 0 0 -0.00779724
26 1 0.249986 0.802366 0.809749 0 0 -0.147709
27 1 0.749986 0.802366 0.809749 0 0 -0.147709
28 1 0.499986 0.69287 0.684746 0 0 -0.00779724
29 1 0.249986 0.0827172 0.929947 0 0 -0.0648804
30 1 0.749986 0.0827172 0.929947 0 0 -0.0648804
31 1 0.999986 0.582718 0.929947 0 0 -0.0648899
32 1 0.499986 0.582718 0.929947 0 0 -0.0648899
ITEM: TIMESTEP
2
ITEM: NUMBER OF ATOMS
32
ITEM: BOX BOUNDS xy xz yz pp pp pp
-4.0532350540161133e-03 6.4008854031562805e+00 0.0000000000000000e+00
-9.1640949249267578e-03 8.0179131031036377e+00 0.0000000000000000e+00
-4.7960281372070312e-02 2.0773346722126007e+01 2.4883178472518921e+00
ITEM: ATOMS id type xs ys zs fx fy fz
1 1 0.999986 0.636499 0.0660212 0 0 0.00728226
2 1 0.499986 0.636499 0.0660212 0 0 0.00728226
3 1 0.249986 0.136499 0.0660214 0 0 0.00728798
4 1 0.749986 0.136499 0.0660214 0 0 0.00728798
5 1 0.999986 0.526933 0.309932 0 0 0.0882015
6 1 0.249986 0.416013 0.188093 0 0 -0.00654602
7 1 0.749986 0.416013 0.188093 0 0 -0.00654602
8 1 0.499986 0.526933 0.309932 0 0 0.0882015
9 1 0.999986 0.916011 0.188093 0 0 -0.00654602
10 1 0.249986 0.0269339 0.309932 0 0 0.0882015
11 1 0.499986 0.916011 0.188093 0 0 -0.00654602
12 1 0.749986 0.0269339 0.309932 0 0 0.0882015
13 1 0.999986 0.414683 0.55976 0 0 -0.00964546
14 1 0.499986 0.414683 0.55976 0 0 -0.00964546
15 1 0.249986 0.914682 0.55976 0 0 -0.00964355
16 1 0.749986 0.914682 0.55976 0 0 -0.00964355
17 1 0.249986 0.305205 0.434742 0 0 0.00963211
18 1 0.749986 0.305205 0.434742 0 0 0.00963211
19 1 0.999986 0.805204 0.434742 0 0 0.0096283
20 1 0.499986 0.805204 0.434742 0 0 0.0096283
21 1 0.999986 0.303866 0.806409 0 0 0.00654984
22 1 0.249986 0.192949 0.68457 0 0 -0.0881901
23 1 0.499986 0.303866 0.806409 0 0 0.00654984
24 1 0.749986 0.192949 0.68457 0 0 -0.0881901
25 1 0.999986 0.692949 0.68457 0 0 -0.0881729
26 1 0.249986 0.803866 0.806409 0 0 0.00653648
27 1 0.749986 0.803866 0.806409 0 0 0.00653648
28 1 0.499986 0.692949 0.68457 0 0 -0.0881729
29 1 0.249986 0.0833763 0.92848 0 0 -0.00728989
30 1 0.749986 0.0833763 0.92848 0 0 -0.00728989
31 1 0.999986 0.583377 0.92848 0 0 -0.00728607
32 1 0.499986 0.583377 0.92848 0 0 -0.00728607
ITEM: TIMESTEP
3
ITEM: NUMBER OF ATOMS
32
ITEM: BOX BOUNDS xy xz yz pp pp pp
-4.0532350540161133e-03 6.4008854031562805e+00 0.0000000000000000e+00
-9.1640949249267578e-03 8.0179131031036377e+00 0.0000000000000000e+00
-4.7960281372070312e-02 2.0773346722126007e+01 2.4883178472518921e+00
ITEM: ATOMS id type xs ys zs fx fy fz
1 1 0.999986 0.636211 0.0666606 0 0 -0.0270329
2 1 0.499986 0.636211 0.0666606 0 0 -0.0270329
3 1 0.249986 0.136211 0.0666609 0 0 -0.0270329
4 1 0.749986 0.136211 0.0666609 0 0 -0.0270329
5 1 0.999986 0.525957 0.312105 0 0 -0.00220871
6 1 0.249986 0.415608 0.188993 0 0 0.0175266
7 1 0.749986 0.415608 0.188993 0 0 0.0175266
8 1 0.499986 0.525957 0.312105 0 0 -0.00220871
9 1 0.999986 0.915607 0.188993 0 0 0.017519
10 1 0.249986 0.0259576 0.312105 0 0 -0.00219727
11 1 0.499986 0.915607 0.188993 0 0 0.017519
12 1 0.749986 0.0259576 0.312105 0 0 -0.00219727
13 1 0.999986 0.414786 0.559531 0 0 -0.0451546
14 1 0.499986 0.414786 0.559531 0 0 -0.0451546
15 1 0.249986 0.914785 0.559531 0 0 -0.0451584
16 1 0.749986 0.914785 0.559531 0 0 -0.0451584
17 1 0.249986 0.305102 0.43497 0 0 0.0451641
18 1 0.749986 0.305102 0.43497 0 0 0.0451641
19 1 0.999986 0.805101 0.43497 0 0 0.0451546
20 1 0.499986 0.805101 0.43497 0 0 0.0451546
21 1 0.999986 0.304271 0.805509 0 0 -0.0175056
22 1 0.249986 0.193926 0.682396 0 0 0.00218964
23 1 0.499986 0.304271 0.805509 0 0 -0.0175056
24 1 0.749986 0.193926 0.682396 0 0 0.00218964
25 1 0.999986 0.693925 0.682397 0 0 0.00218582
26 1 0.249986 0.804271 0.805508 0 0 -0.0174961
27 1 0.749986 0.804271 0.805508 0 0 -0.0174961
28 1 0.499986 0.693925 0.682397 0 0 0.00218582
29 1 0.249986 0.0836636 0.927841 0 0 0.0270195
30 1 0.749986 0.0836636 0.927841 0 0 0.0270195
31 1 0.999986 0.583664 0.927841 0 0 0.0270271
32 1 0.499986 0.583664 0.927841 0 0 0.0270271
ITEM: TIMESTEP
4
ITEM: NUMBER OF ATOMS
32
ITEM: BOX BOUNDS xy xz yz pp pp pp
-4.0532350540161133e-03 6.4008854031562805e+00 0.0000000000000000e+00
-9.1640949249267578e-03 8.0179131031036377e+00 0.0000000000000000e+00
-4.7960281372070312e-02 2.0773346722126007e+01 2.4883178472518921e+00
ITEM: ATOMS id type xs ys zs fx fy fz
1 1 0.999986 0.636306 0.0664487 0 0 0.00695801
2 1 0.499986 0.636306 0.0664487 0 0 0.00695801
3 1 0.249986 0.136307 0.0664489 0 0 0.00694466
4 1 0.749986 0.136307 0.0664489 0 0 0.00694466
5 1 0.999986 0.525763 0.312537 0 0 -0.000377655
6 1 0.249986 0.415422 0.189408 0 0 -0.000610352
7 1 0.749986 0.415422 0.189408 0 0 -0.000610352
8 1 0.499986 0.525763 0.312537 0 0 -0.000377655
9 1 0.999986 0.91542 0.189408 0 0 -0.000597
10 1 0.249986 0.0257636 0.312537 0 0 -0.000379562
11 1 0.499986 0.91542 0.189408 0 0 -0.000597
12 1 0.749986 0.0257636 0.312537 0 0 -0.000379562
13 1 0.999986 0.415068 0.558903 0 0 -0.00631905
14 1 0.499986 0.415068 0.558903 0 0 -0.00631905
15 1 0.249986 0.915067 0.558903 0 0 -0.00632095
16 1 0.749986 0.915067 0.558903 0 0 -0.00632095
17 1 0.249986 0.30482 0.435599 0 0 0.00631714
18 1 0.749986 0.30482 0.435599 0 0 0.00631714
19 1 0.999986 0.804819 0.435599 0 0 0.00631905
20 1 0.499986 0.804819 0.435599 0 0 0.00631905
21 1 0.999986 0.304457 0.805093 0 0 0.000595093
22 1 0.249986 0.19412 0.681965 0 0 0.000379562
23 1 0.499986 0.304457 0.805093 0 0 0.000595093
24 1 0.749986 0.19412 0.681965 0 0 0.000379562
25 1 0.999986 0.694119 0.681965 0 0 0.000371933
26 1 0.249986 0.804457 0.805093 0 0 0.00060463
27 1 0.749986 0.804457 0.805093 0 0 0.00060463
28 1 0.499986 0.694119 0.681965 0 0 0.000371933
29 1 0.249986 0.0835685 0.928052 0 0 -0.00693893
30 1 0.749986 0.0835685 0.928052 0 0 -0.00693893
31 1 0.999986 0.583569 0.928052 0 0 -0.00694656
32 1 0.499986 0.583569 0.928052 0 0 -0.00694656
ITEM: TIMESTEP
5
ITEM: NUMBER OF ATOMS
32
ITEM: BOX BOUNDS xy xz yz pp pp pp
-4.0532350540161133e-03 6.4008854031562805e+00 0.0000000000000000e+00
-9.1640949249267578e-03 8.0179131031036377e+00 0.0000000000000000e+00
-4.7960281372070312e-02 2.0773346722126007e+01 2.4883178472518921e+00
ITEM: ATOMS id type xs ys zs fx fy fz
1 1 0.999986 0.636274 0.0665215 0 0 -0.000526428
2 1 0.499986 0.636274 0.0665215 0 0 -0.000526428
3 1 0.249986 0.136274 0.0665216 0 0 -0.000520706
4 1 0.749986 0.136274 0.0665216 0 0 -0.000520706
5 1 0.999986 0.525765 0.312533 0 0 0.00144768
6 1 0.249986 0.415425 0.189402 0 0 0.00183868
7 1 0.749986 0.415425 0.189402 0 0 0.00183868
8 1 0.499986 0.525765 0.312533 0 0 0.00144768
9 1 0.999986 0.915423 0.189402 0 0 0.00183868
10 1 0.249986 0.0257653 0.312533 0 0 0.00144577
11 1 0.499986 0.915423 0.189402 0 0 0.00183868
12 1 0.749986 0.0257653 0.312533 0 0 0.00144577
13 1 0.999986 0.415098 0.558836 0 0 -0.000818253
14 1 0.499986 0.415098 0.558836 0 0 -0.000818253
15 1 0.249986 0.915097 0.558836 0 0 -0.000818253
16 1 0.749986 0.915097 0.558836 0 0 -0.000818253
17 1 0.249986 0.30479 0.435665 0 0 0.000814438
18 1 0.749986 0.30479 0.435665 0 0 0.000814438
19 1 0.999986 0.804789 0.435665 0 0 0.00082016
20 1 0.499986 0.804789 0.435665 0 0 0.00082016
21 1 0.999986 0.304454 0.805099 0 0 -0.00184631
22 1 0.249986 0.194118 0.681968 0 0 -0.00143623
23 1 0.499986 0.304454 0.805099 0 0 -0.00184631
24 1 0.749986 0.194118 0.681968 0 0 -0.00143623
25 1 0.999986 0.694118 0.681969 0 0 -0.00144768
26 1 0.249986 0.804455 0.805099 0 0 -0.00184631
27 1 0.749986 0.804455 0.805099 0 0 -0.00184631
28 1 0.499986 0.694118 0.681969 0 0 -0.00144768
29 1 0.249986 0.0836011 0.92798 0 0 0.000526428
30 1 0.749986 0.0836011 0.92798 0 0 0.000526428
31 1 0.999986 0.583602 0.92798 0 0 0.000528336
32 1 0.499986 0.583602 0.92798 0 0 0.000528336
ITEM: TIMESTEP
6
ITEM: NUMBER OF ATOMS
32
ITEM: BOX BOUNDS xy xz yz pp pp pp
-4.0532350540161133e-03 6.4008854031562805e+00 0.0000000000000000e+00
-9.1640949249267578e-03 8.0179131031036377e+00 0.0000000000000000e+00
-4.7960281372070312e-02 2.0773346722126007e+01 2.4883178472518921e+00
ITEM: ATOMS id type xs ys zs fx fy fz
1 1 0.999986 0.636274 0.0665211 0 0 0.00118065
2 1 0.499986 0.636274 0.0665211 0 0 0.00118065
3 1 0.249986 0.136274 0.0665214 0 0 0.00117111
4 1 0.749986 0.136274 0.0665214 0 0 0.00117111
5 1 0.999986 0.525745 0.312577 0 0 0.00141907
6 1 0.249986 0.4154 0.189458 0 0 -0.000179291
7 1 0.749986 0.4154 0.189458 0 0 -0.000179291
8 1 0.499986 0.525745 0.312577 0 0 0.00141907
9 1 0.999986 0.915398 0.189458 0 0 -0.000190735
10 1 0.249986 0.0257456 0.312577 0 0 0.00141716
11 1 0.499986 0.915398 0.189458 0 0 -0.000190735
12 1 0.749986 0.0257456 0.312577 0 0 0.00141716
13 1 0.999986 0.415116 0.558797 0 0 0.00130653
14 1 0.499986 0.415116 0.558797 0 0 0.00130653
15 1 0.249986 0.915115 0.558797 0 0 0.001297
16 1 0.749986 0.915115 0.558797 0 0 0.001297
17 1 0.249986 0.304772 0.435705 0 0 -0.00129128
18 1 0.749986 0.304772 0.435705 0 0 -0.00129128
19 1 0.999986 0.804771 0.435705 0 0 -0.00130463
20 1 0.499986 0.804771 0.435705 0 0 -0.00130463
21 1 0.999986 0.304479 0.805043 0 0 0.000213623
22 1 0.249986 0.194137 0.681925 0 0 -0.00144386
23 1 0.499986 0.304479 0.805043 0 0 0.000213623
24 1 0.749986 0.194137 0.681925 0 0 -0.00144386
25 1 0.999986 0.694138 0.681925 0 0 -0.00143051
26 1 0.249986 0.80448 0.805043 0 0 0.000209808
27 1 0.749986 0.80448 0.805043 0 0 0.000209808
28 1 0.499986 0.694138 0.681925 0 0 -0.00143051
29 1 0.249986 0.0836009 0.92798 0 0 -0.00118446
30 1 0.749986 0.0836009 0.92798 0 0 -0.00118446
31 1 0.999986 0.583602 0.92798 0 0 -0.00119019
32 1 0.499986 0.583602 0.92798 0 0 -0.00119019
ITEM: TIMESTEP
7
ITEM: NUMBER OF ATOMS
32
ITEM: BOX BOUNDS xy xz yz pp pp pp
-4.0532350540161133e-03 6.4008854031562805e+00 0.0000000000000000e+00
-9.1640949249267578e-03 8.0179131031036377e+00 0.0000000000000000e+00
-4.7960281372070312e-02 2.0773346722126007e+01 2.4883178472518921e+00
ITEM: ATOMS id type xs ys zs fx fy fz
1 1 0.999986 0.636267 0.0665372 0 0 0.00012207
2 1 0.499986 0.636267 0.0665372 0 0 0.00012207
3 1 0.249986 0.136267 0.0665374 0 0 0.000118256
4 1 0.749986 0.136267 0.0665374 0 0 0.000118256
5 1 0.999986 0.525729 0.312612 0 0 -0.000164032
6 1 0.249986 0.415392 0.189475 0 0 0.000179291
7 1 0.749986 0.415392 0.189475 0 0 0.000179291
8 1 0.499986 0.525729 0.312612 0 0 -0.000164032
9 1 0.999986 0.91539 0.189475 0 0 0.000177383
10 1 0.249986 0.0257298 0.312612 0 0 -0.000156403
11 1 0.499986 0.91539 0.189475 0 0 0.000177383
12 1 0.749986 0.0257298 0.312612 0 0 -0.000156403
13 1 0.999986 0.415114 0.5588 0 0 7.82013e-05
14 1 0.499986 0.415114 0.5588 0 0 7.82013e-05
15 1 0.249986 0.915113 0.5588 0 0 8.2016e-05
16 1 0.749986 0.915113 0.5588 0 0 8.2016e-05
17 1 0.249986 0.304774 0.435701 0 0 -8.01086e-05
18 1 0.749986 0.304774 0.435701 0 0 -8.01086e-05
19 1 0.999986 0.804773 0.435701 0 0 -8.96454e-05
20 1 0.499986 0.804773 0.435701 0 0 -8.96454e-05
21 1 0.999986 0.304487 0.805026 0 0 -0.000181198
22 1 0.249986 0.194153 0.681889 0 0 0.000162125
23 1 0.499986 0.304487 0.805026 0 0 -0.000181198
24 1 0.749986 0.194153 0.681889 0 0 0.000162125
25 1 0.999986 0.694153 0.681889 0 0 0.000175476
26 1 0.249986 0.804487 0.805026 0 0 -0.000183105
27 1 0.749986 0.804487 0.805026 0 0 -0.000183105
28 1 0.499986 0.694153 0.681889 0 0 0.000175476
29 1 0.249986 0.0836082 0.927964 0 0 -0.00012207
30 1 0.749986 0.0836082 0.927964 0 0 -0.00012207
31 1 0.999986 0.583609 0.927964 0 0 -0.000118256
32 1 0.499986 0.583609 0.927964 0 0 -0.000118256
ITEM: TIMESTEP
8
ITEM: NUMBER OF ATOMS
32
ITEM: BOX BOUNDS xy xz yz pp pp pp
-4.0532350540161133e-03 6.4008854031562805e+00 0.0000000000000000e+00
-9.1640949249267578e-03 8.0179131031036377e+00 0.0000000000000000e+00
-4.7960281372070312e-02 2.0773346722126007e+01 2.4883178472518921e+00
ITEM: ATOMS id type xs ys zs fx fy fz
1 1 0.999986 0.636267 0.0665372 0 0 0.00012207
2 1 0.499986 0.636267 0.0665372 0 0 0.00012207
3 1 0.249986 0.136267 0.0665374 0 0 0.000118256
4 1 0.749986 0.136267 0.0665374 0 0 0.000118256
5 1 0.999986 0.525729 0.312612 0 0 -0.000164032
6 1 0.249986 0.415392 0.189475 0 0 0.000179291
7 1 0.749986 0.415392 0.189475 0 0 0.000179291
8 1 0.499986 0.525729 0.312612 0 0 -0.000164032
9 1 0.999986 0.91539 0.189475 0 0 0.000177383
10 1 0.249986 0.0257298 0.312612 0 0 -0.000156403
11 1 0.499986 0.91539 0.189475 0 0 0.000177383
12 1 0.749986 0.0257298 0.312612 0 0 -0.000156403
13 1 0.999986 0.415114 0.5588 0 0 7.82013e-05
14 1 0.499986 0.415114 0.5588 0 0 7.82013e-05
15 1 0.249986 0.915113 0.5588 0 0 8.2016e-05
16 1 0.749986 0.915113 0.5588 0 0 8.2016e-05
17 1 0.249986 0.304774 0.435701 0 0 -8.01086e-05
18 1 0.749986 0.304774 0.435701 0 0 -8.01086e-05
19 1 0.999986 0.804773 0.435701 0 0 -8.96454e-05
20 1 0.499986 0.804773 0.435701 0 0 -8.96454e-05
21 1 0.999986 0.304487 0.805026 0 0 -0.000181198
22 1 0.249986 0.194153 0.681889 0 0 0.000162125
23 1 0.499986 0.304487 0.805026 0 0 -0.000181198
24 1 0.749986 0.194153 0.681889 0 0 0.000162125
25 1 0.999986 0.694153 0.681889 0 0 0.000175476
26 1 0.249986 0.804487 0.805026 0 0 -0.000183105
27 1 0.749986 0.804487 0.805026 0 0 -0.000183105
28 1 0.499986 0.694153 0.681889 0 0 0.000175476
29 1 0.249986 0.0836082 0.927964 0 0 -0.00012207
30 1 0.749986 0.0836082 0.927964 0 0 -0.00012207
31 1 0.999986 0.583609 0.927964 0 0 -0.000118256
32 1 0.499986 0.583609 0.927964 0 0 -0.000118256
