ITEM: TIMESTEP
0
ITEM: NUMBER OF ATOMS
48
ITEM: BOX BOUNDS xy xz yz pp pp pp
-6.1851127743721008e+00 8.6067802309989929e+00 2.5094206929206848e+00
-9.4973444938659668e-03 9.3236122131347656e+00 -6.1730756759643555e+00
-2.8691649436950684e-02 1.9545819282531738e+01 7.1304261684417725e-02
ITEM: ATOMS id type xs ys zs fx fy fz
1 1 0.953955 0.16703 0.0320218 0 0 1.86377
2 1 0.511601 0.0738739 0.0528103 0 0 0.249071
3 1 0.687569 0.125314 0.657023 0 0 0.00177193
4 1 0.938499 0.948847 0.927808 0 0 -1.86375
5 1 0.591895 0.157156 0.802805 0 0 0.00351524
6 1 0.380854 0.0420026 0.90702 0 0 -0.249075
7 1 0.0342469 0.250315 0.78202 0 0 0.00830078
8 1 0.994002 0.208712 0.407029 0 0 0.000492096
9 1 0.245216 0.0321465 0.677802 0 0 -0.00149536
10 1 0.898452 0.240498 0.552801 0 0 -0.000484467
11 1 0.858208 0.198895 0.17781 0 0 -0.0083046
12 1 0.647239 0.0837297 0.282028 0 0 0.00149155
13 1 0.30056 0.292053 0.157025 0 0 -0.00351524
14 1 0.551649 0.115534 0.427803 0 0 -2.86102e-05
15 1 0.953956 0.500363 0.0320219 0 0 1.86376
16 1 0.511601 0.407207 0.0528103 0 0 0.249065
17 1 0.687569 0.458648 0.657023 0 0 0.00177193
18 1 0.938499 0.28218 0.927808 0 0 -1.86377
19 1 0.591894 0.49049 0.802805 0 0 0.00351906
20 1 0.380854 0.375336 0.90702 0 0 -0.249065
21 1 0.0342469 0.583648 0.78202 0 0 0.00830078
22 1 0.340806 0.333676 0.532027 0 0 2.47955e-05
23 1 0.994003 0.542046 0.407029 0 0 0.000484467
24 1 0.245216 0.36548 0.677802 0 0 -0.00148964
25 1 0.898452 0.573831 0.552801 0 0 -0.000488281
26 1 0.204886 0.323895 0.302807 0 0 -0.00177193
27 1 0.858208 0.532228 0.17781 0 0 -0.00829887
28 1 0.647239 0.417063 0.282028 0 0 0.00149345
29 1 0.30056 0.625387 0.157025 0 0 -0.00352287
30 1 0.551649 0.448867 0.427803 0 0 -2.86102e-05
31 1 0.953956 0.833696 0.0320219 0 0 1.86375
32 1 0.511601 0.740541 0.0528104 0 0 0.249067
33 1 0.687568 0.791981 0.657023 0 0 0.00177193
34 1 0.938499 0.615514 0.927808 0 0 -1.86375
35 1 0.591895 0.823823 0.802805 0 0 0.00352669
36 1 0.380854 0.708669 0.90702 0 0 -0.249071
37 1 0.0342469 0.916981 0.78202 0 0 0.00830269
38 1 0.340806 0.667009 0.532027 0 0 2.28882e-05
39 1 0.994003 0.875379 0.407029 0 0 0.000486374
40 1 0.245216 0.698813 0.677802 0 0 -0.00149345
41 1 0.898452 0.907164 0.552801 0 0 -0.000482559
42 1 0.204886 0.657228 0.302807 0 0 -0.00177193
43 1 0.858208 0.865562 0.17781 0 0 -0.00830078
44 1 0.647239 0.750396 0.282028 0 0 0.00149345
45 1 0.30056 0.95872 0.157026 0 0 -0.00352287
46 1 0.551649 0.782201 0.427803 0 0 -2.28882e-05
47 1 0.340806 0.000342385 0.532027 0 0 2.28882e-05
48 1 0.204886 0.990562 0.302807 0 0 -0.00177193
ITEM: TIMESTEP
1
ITEM: NUMBER OF ATOMS
48
ITEM: BOX BOUNDS xy xz yz pp pp pp
-6.1851127743721008e+00 8.6067802309989929e+00 2.5094206929206848e+00
-9.4973444938659668e-03 9.3236122131347656e+00 -6.1730756759643555e+00
-2.8691649436950684e-02 1.9545819282531738e+01 7.1304261684417725e-02
ITEM: ATOMS id type xs ys zs fx fy fz
1 1 0.959133 0.16699 0.0371305 0 0 0.862656
2 1 0.512293 0.0738687 0.053493 0 0 0.17926
3 1 0.687574 0.125314 0.657028 0 0 -0.000469208
4 1 0.933321 0.948886 0.9227 0 0 -0.862654
5 1 0.591904 0.157156 0.802814 0 0 -0.0869656
6 1 0.380162 0.0420078 0.906337 0 0 -0.179258
7 1 0.0342699 0.250315 0.782043 0 0 -0.0619354
8 1 0.994004 0.208712 0.407031 0 0 -0.0010128
9 1 0.245212 0.0321465 0.677798 0 0 -0.00527763
10 1 0.898451 0.240498 0.5528 0 0 0.00101852
11 1 0.858185 0.198895 0.177787 0 0 0.0619297
12 1 0.647243 0.0837296 0.282032 0 0 0.00528145
13 1 0.30055 0.292053 0.157016 0 0 0.0869656
14 1 0.551649 0.115534 0.427803 0 0 -0.0012722
15 1 0.959134 0.500324 0.0371306 0 0 0.862654
16 1 0.512293 0.407202 0.053493 0 0 0.17926
17 1 0.687574 0.458648 0.657028 0 0 -0.000465393
18 1 0.933321 0.28222 0.9227 0 0 -0.862652
19 1 0.591904 0.49049 0.802814 0 0 -0.0869617
20 1 0.380162 0.375341 0.906337 0 0 -0.179264
21 1 0.0342699 0.583648 0.782043 0 0 -0.0619335
22 1 0.340806 0.333676 0.532027 0 0 0.00127602
23 1 0.994004 0.542046 0.407031 0 0 -0.00101471
24 1 0.245212 0.36548 0.677798 0 0 -0.00527573
25 1 0.898451 0.573831 0.5528 0 0 0.0010128
26 1 0.204881 0.323895 0.302802 0 0 0.000463486
27 1 0.858185 0.532228 0.177787 0 0 0.0619392
28 1 0.647243 0.417063 0.282032 0 0 0.00527954
29 1 0.30055 0.625387 0.157016 0 0 0.0869675
30 1 0.551649 0.448867 0.427803 0 0 -0.0012722
31 1 0.959134 0.833657 0.0371306 0 0 0.862648
32 1 0.512293 0.740535 0.0534931 0 0 0.179256
33 1 0.687573 0.791981 0.657028 0 0 -0.000465393
34 1 0.933321 0.615553 0.9227 0 0 -0.862658
35 1 0.591904 0.823823 0.802814 0 0 -0.0869598
36 1 0.380162 0.708675 0.906337 0 0 -0.17926
37 1 0.03427 0.916981 0.782043 0 0 -0.0619411
38 1 0.340806 0.667009 0.532027 0 0 0.00127411
39 1 0.994004 0.875379 0.407031 0 0 -0.00101662
40 1 0.245212 0.698813 0.677798 0 0 -0.00527763
41 1 0.898451 0.907164 0.5528 0 0 0.00101662
42 1 0.204881 0.657229 0.302802 0 0 0.000465393
43 1 0.858185 0.865562 0.177787 0 0 0.0619316
44 1 0.647243 0.750396 0.282032 0 0 0.00527954
45 1 0.300551 0.95872 0.157016 0 0 0.0869598
46 1 0.551649 0.782201 0.427803 0 0 -0.00127792
47 1 0.340806 0.000342385 0.532027 0 0 0.00127602
48 1 0.204881 0.990562 0.302802 0 0 0.000469208
ITEM: TIMESTEP
2
ITEM: NUMBER OF ATOMS
48
ITEM: BOX BOUNDS xy xz yz pp pp pp
-6.1851127743721008e+00 8.6067802309989929e+00 2.5094206929206848e+00
-9.4973444938659668e-03 9.3236122131347656e+00 -6.1730756759643555e+00
-2.8691649436950684e-02 1.9545819282531738e+01 7.1304261684417725e-02
ITEM: ATOMS id type xs ys zs fx fy fz
1 1 0.964311 0.166951 0.0422392 0 0 0.103184
2 1 0.513369 0.0738605 0.0545546 0 0 0.0832348
3 1 0.687571 0.125314 0.657025 0 0 -0.0126896
4 1 0.928143 0.948926 0.917591 0 0 -0.10318
5 1 0.591382 0.15716 0.802299 0 0 -0.174988
6 1 0.379086 0.042016 0.905276 0 0 -0.0832405
7 1 0.0338982 0.250318 0.781676 0 0 -0.136002
8 1 0.993998 0.208712 0.407025 0 0 -0.00125122
9 1 0.245181 0.0321468 0.677767 0 0 -0.0168457
10 1 0.898457 0.240498 0.552806 0 0 0.00125313
11 1 0.858557 0.198892 0.178154 0 0 0.136009
12 1 0.647274 0.0837294 0.282064 0 0 0.0168476
13 1 0.301072 0.292049 0.157531 0 0 0.174992
14 1 0.551641 0.115534 0.427796 0 0 -0.0010376
15 1 0.964312 0.500284 0.0422392 0 0 0.103176
16 1 0.513369 0.407194 0.0545546 0 0 0.0832367
17 1 0.687571 0.458648 0.657025 0 0 -0.0126858
18 1 0.928143 0.282259 0.917591 0 0 -0.103182
19 1 0.591382 0.490494 0.802299 0 0 -0.174995
20 1 0.379086 0.375349 0.905275 0 0 -0.0832367
21 1 0.0338982 0.583651 0.781676 0 0 -0.136007
22 1 0.340814 0.333676 0.532035 0 0 0.00103378
23 1 0.993998 0.542046 0.407025 0 0 -0.00125885
24 1 0.245181 0.36548 0.677767 0 0 -0.0168419
25 1 0.898457 0.573831 0.552806 0 0 0.00125885
26 1 0.204884 0.323895 0.302805 0 0 0.0126915
27 1 0.858557 0.532225 0.178154 0 0 0.136009
28 1 0.647274 0.417063 0.282064 0 0 0.0168438
29 1 0.301072 0.625383 0.157531 0 0 0.174986
30 1 0.551641 0.448868 0.427796 0 0 -0.00103951
31 1 0.964312 0.833618 0.0422392 0 0 0.103182
32 1 0.513369 0.740527 0.0545547 0 0 0.0832348
33 1 0.687571 0.791981 0.657025 0 0 -0.0126877
34 1 0.928143 0.615592 0.917591 0 0 -0.103182
35 1 0.591382 0.823827 0.802299 0 0 -0.174986
36 1 0.379086 0.708683 0.905276 0 0 -0.0832348
37 1 0.0338982 0.916984 0.781676 0 0 -0.136003
38 1 0.340814 0.667009 0.532035 0 0 0.00103569
39 1 0.993998 0.875379 0.407025 0 0 -0.00126457
40 1 0.24518 0.698814 0.677766 0 0 -0.0168419
41 1 0.898457 0.907164 0.552806 0 0 0.00125694
42 1 0.204884 0.657228 0.302805 0 0 0.0126953
43 1 0.858557 0.865559 0.178154 0 0 0.136003
44 1 0.647275 0.750396 0.282064 0 0 0.0168457
45 1 0.301073 0.958716 0.157531 0 0 0.17499
46 1 0.551641 0.782201 0.427796 0 0 -0.00103569
47 1 0.340813 0.000342327 0.532035 0 0 0.00103188
48 1 0.204884 0.990562 0.302805 0 0 0.0126858
ITEM: TIMESTEP
3
ITEM: NUMBER OF ATOMS
48
ITEM: BOX BOUNDS xy xz yz pp pp pp
-6.1851127743721008e+00 8.6067802309989929e+00 2.5094206929206848e+00
-9.4973444938659668e-03 9.3236122131347656e+00 -6.1730756759643555e+00
-2.8691649436950684e-02 1.9545819282531738e+01 7.1304261684417725e-02
ITEM: ATOMS id type xs ys zs fx fy fz
1 1 0.966928 0.166931 0.0448203 0 0 -0.0664883
2 1 0.515479 0.0738445 0.0566367 0 0 -0.00605011
3 1 0.687249 0.125317 0.656708 0 0 -0.0936584
4 1 0.925527 0.948945 0.91501 0 0 0.0664883
5 1 0.586946 0.157194 0.797922 0 0 -0.00206375
6 1 0.376975 0.042032 0.903193 0 0 0.0060482
7 1 0.0304499 0.250344 0.778274 0 0 -0.0296116
8 1 0.993966 0.208712 0.406993 0 0 0.008955
9 1 0.244753 0.03215 0.677345 0 0 -0.0929203
10 1 0.898489 0.240497 0.552837 0 0 -0.00895882
11 1 0.862005 0.198866 0.181556 0 0 0.0296116
12 1 0.647702 0.0837262 0.282485 0 0 0.0929203
13 1 0.305509 0.292016 0.161908 0 0 0.00205231
14 1 0.551615 0.115534 0.42777 0 0 0.0103493
15 1 0.966928 0.500264 0.0448202 0 0 -0.0664787
16 1 0.515479 0.407178 0.0566368 0 0 -0.0060463
17 1 0.687249 0.45865 0.656708 0 0 -0.0936565
18 1 0.925527 0.282279 0.91501 0 0 0.0664864
19 1 0.586945 0.490528 0.797922 0 0 -0.00204849
20 1 0.376975 0.375365 0.903193 0 0 0.0060463
21 1 0.0304498 0.583677 0.778274 0 0 -0.0296097
22 1 0.34084 0.333675 0.53206 0 0 -0.0103474
23 1 0.993966 0.542046 0.406993 0 0 0.00896645
24 1 0.244754 0.365483 0.677345 0 0 -0.0929279
25 1 0.898489 0.57383 0.552837 0 0 -0.00896454
26 1 0.205206 0.323893 0.303123 0 0 0.0936623
27 1 0.862005 0.532199 0.181556 0 0 0.0296078
28 1 0.647701 0.41706 0.282485 0 0 0.0929203
29 1 0.305509 0.625349 0.161908 0 0 0.00206184
30 1 0.551615 0.448868 0.42777 0 0 0.0103569
31 1 0.966928 0.833598 0.0448203 0 0 -0.0664845
32 1 0.515479 0.740511 0.0566368 0 0 -0.0060482
33 1 0.687249 0.791983 0.656708 0 0 -0.0936584
34 1 0.925527 0.615612 0.91501 0 0 0.0664825
35 1 0.586946 0.823861 0.797922 0 0 -0.00206375
36 1 0.376975 0.708699 0.903193 0 0 0.00604248
37 1 0.0304499 0.91701 0.778274 0 0 -0.0296059
38 1 0.34084 0.667009 0.532061 0 0 -0.0103531
39 1 0.993966 0.875379 0.406993 0 0 0.00897026
40 1 0.244753 0.698817 0.677345 0 0 -0.0929222
41 1 0.898489 0.907164 0.552837 0 0 -0.00896645
42 1 0.205206 0.657226 0.303123 0 0 0.093647
43 1 0.862005 0.865533 0.181556 0 0 0.0296135
44 1 0.647702 0.750393 0.282485 0 0 0.0929184
45 1 0.305509 0.958682 0.161908 0 0 0.00205612
46 1 0.551615 0.782201 0.42777 0 0 0.0103531
47 1 0.34084 0.000342128 0.53206 0 0 -0.0103493
48 1 0.205206 0.990559 0.303123 0 0 0.0936661
ITEM: TIMESTEP
4
ITEM: NUMBER OF ATOMS
48
ITEM: BOX BOUNDS xy xz yz pp pp pp
-6.1851127743721008e+00 8.6067802309989929e+00 2.5094206929206848e+00
-9.4973444938659668e-03 9.3236122131347656e+00 -6.1730756759643555e+00
-2.8691649436950684e-02 1.9545819282531738e+01 7.1304261684417725e-02
ITEM: ATOMS id type xs ys zs fx fy fz
1 1 0.966181 0.166937 0.0440839 0 0 0.0774097
2 1 0.516027 0.0738403 0.0571777 0 0 -0.00606346
3 1 0.684879 0.125335 0.654369 0 0 -0.0243607
4 1 0.926273 0.94894 0.915746 0 0 -0.0774059
5 1 0.585435 0.157206 0.796432 0 0 0.0280132
6 1 0.376427 0.0420362 0.902652 0 0 0.00606918
7 1 0.028599 0.250358 0.776448 0 0 0.0159302
8 1 0.994172 0.208711 0.407197 0 0 0.0461845
9 1 0.242366 0.0321681 0.67499 0 0 -0.0201111
10 1 0.898283 0.240499 0.552634 0 0 -0.0461712
11 1 0.863856 0.198852 0.183382 0 0 -0.0159454
12 1 0.650089 0.083708 0.28484 0 0 0.0200958
13 1 0.307019 0.292004 0.163398 0 0 -0.0280056
14 1 0.551857 0.115532 0.428008 0 0 0.0502853
15 1 0.966181 0.50027 0.044084 0 0 0.0774002
16 1 0.516028 0.407174 0.0571779 0 0 -0.00606728
17 1 0.684879 0.458668 0.654369 0 0 -0.0243587
18 1 0.926273 0.282273 0.915746 0 0 -0.077404
19 1 0.585435 0.490539 0.796432 0 0 0.0280037
20 1 0.376427 0.37537 0.902652 0 0 0.00607109
21 1 0.0285988 0.583691 0.776448 0 0 0.0159378
22 1 0.340599 0.333677 0.531822 0 0 -0.0502796
23 1 0.994172 0.542044 0.407197 0 0 0.0461769
24 1 0.242366 0.365501 0.67499 0 0 -0.0200996
25 1 0.898283 0.573832 0.552634 0 0 -0.0461731
26 1 0.207576 0.323875 0.305461 0 0 0.0243454
27 1 0.863856 0.532185 0.183382 0 0 -0.0159454
28 1 0.650089 0.417041 0.28484 0 0 0.0201111
29 1 0.307019 0.625337 0.163398 0 0 -0.0280075
30 1 0.551856 0.448866 0.428008 0 0 0.0502758
31 1 0.966181 0.833603 0.044084 0 0 0.0774059
32 1 0.516028 0.740507 0.0571778 0 0 -0.00606537
33 1 0.684879 0.792001 0.654369 0 0 -0.0243587
34 1 0.926273 0.615607 0.915746 0 0 -0.0773945
35 1 0.585435 0.823872 0.796432 0 0 0.0280075
36 1 0.376427 0.708703 0.902652 0 0 0.006073
37 1 0.0285991 0.917024 0.776448 0 0 0.0159302
38 1 0.340598 0.667011 0.531822 0 0 -0.050272
39 1 0.994172 0.875377 0.407197 0 0 0.046175
40 1 0.242366 0.698835 0.67499 0 0 -0.0201092
41 1 0.898282 0.907165 0.552633 0 0 -0.0461712
42 1 0.207576 0.657208 0.305461 0 0 0.0243626
43 1 0.863856 0.865519 0.183382 0 0 -0.0159435
44 1 0.650089 0.750375 0.28484 0 0 0.0201073
45 1 0.30702 0.958671 0.163398 0 0 -0.0280075
46 1 0.551857 0.782199 0.428008 0 0 0.050272
47 1 0.340598 0.000343963 0.531822 0 0 -0.050272
48 1 0.207576 0.990541 0.305461 0 0 0.0243492
ITEM: TIMESTEP
5
ITEM: NUMBER OF ATOMS
48
ITEM: BOX BOUNDS xy xz yz pp pp pp
-6.1851127743721008e+00 8.6067802309989929e+00 2.5094206929206848e+00
-9.4973444938659668e-03 9.3236122131347656e+00 -6.1730756759643555e+00
-2.8691649436950684e-02 1.9545819282531738e+01 7.1304261684417725e-02
ITEM: ATOMS id type xs ys zs fx fy fz
1 1 0.967093 0.16693 0.0449836 0 0 -0.0117683
2 1 0.516136 0.0738395 0.0572846 0 0 -0.00714493
3 1 0.683636 0.125344 0.653143 0 0 0.0084362
4 1 0.925362 0.948947 0.914847 0 0 0.0117531
5 1 0.58531 0.157206 0.796309 0 0 -0.013361
6 1 0.376318 0.042037 0.902545 0 0 0.00714874
7 1 0.0281639 0.250361 0.776019 0 0 -0.00457573
8 1 0.994955 0.208705 0.407969 0 0 0.0188808
9 1 0.241182 0.0321771 0.673822 0 0 0.0116234
10 1 0.8975 0.240505 0.551861 0 0 -0.0188828
11 1 0.864291 0.198849 0.183811 0 0 0.00457382
12 1 0.651272 0.083699 0.286008 0 0 -0.0116215
13 1 0.307144 0.292003 0.163521 0 0 0.0133705
14 1 0.552716 0.115526 0.428855 0 0 0.0226574
15 1 0.967093 0.500263 0.0449836 0 0 -0.0117588
16 1 0.516136 0.407173 0.0572847 0 0 -0.00714874
17 1 0.683636 0.458678 0.653143 0 0 0.00843048
18 1 0.925361 0.28228 0.914847 0 0 0.0117588
19 1 0.58531 0.49054 0.796309 0 0 -0.0133648
20 1 0.376319 0.37537 0.902545 0 0 0.00714874
21 1 0.0281639 0.583694 0.776019 0 0 -0.00457382
22 1 0.33974 0.333684 0.530975 0 0 -0.0226612
23 1 0.994955 0.542038 0.407969 0 0 0.018877
24 1 0.241182 0.36551 0.673822 0 0 0.011631
25 1 0.8975 0.573838 0.551861 0 0 -0.0188828
26 1 0.208819 0.323865 0.306687 0 0 -0.00844002
27 1 0.864291 0.532182 0.183811 0 0 0.00457764
28 1 0.651272 0.417032 0.286008 0 0 -0.0116234
29 1 0.307144 0.625337 0.163521 0 0 0.0133591
30 1 0.552715 0.448859 0.428855 0 0 0.0226612
31 1 0.967093 0.833596 0.0449837 0 0 -0.0117664
32 1 0.516136 0.740506 0.0572847 0 0 -0.00714302
33 1 0.683636 0.792011 0.653143 0 0 0.0084362
34 1 0.925361 0.615613 0.914847 0 0 0.0117588
35 1 0.58531 0.823873 0.796309 0 0 -0.0133591
36 1 0.376318 0.708704 0.902545 0 0 0.00714302
37 1 0.028164 0.917028 0.776019 0 0 -0.00457764
38 1 0.339739 0.667017 0.530975 0 0 -0.0226593
39 1 0.994955 0.875372 0.407969 0 0 0.0188847
40 1 0.241182 0.698844 0.673822 0 0 0.0116272
41 1 0.897499 0.907171 0.551861 0 0 -0.0188751
42 1 0.208819 0.657199 0.306687 0 0 -0.00842857
43 1 0.864291 0.865515 0.183811 0 0 0.00457382
44 1 0.651273 0.750366 0.286008 0 0 -0.0116234
45 1 0.307145 0.95867 0.163521 0 0 0.0133667
46 1 0.552715 0.782193 0.428855 0 0 0.0226574
47 1 0.339739 0.000350485 0.530975 0 0 -0.0226631
48 1 0.208819 0.990532 0.306687 0 0 -0.00843239
ITEM: TIMESTEP
6
ITEM: NUMBER OF ATOMS
48
ITEM: BOX BOUNDS xy xz yz pp pp pp
-6.1851127743721008e+00 8.6067802309989929e+00 2.5094206929206848e+00
-9.4973444938659668e-03 9.3236122131347656e+00 -6.1730756759643555e+00
-2.8691649436950684e-02 1.9545819282531738e+01 7.1304261684417725e-02
ITEM: ATOMS id type xs ys zs fx fy fz
1 1 0.967026 0.16693 0.0449171 0 0 -0.000692368
2 1 0.516064 0.07384 0.0572142 0 0 -2.28882e-05
3 1 0.683644 0.125344 0.653151 0 0 -0.00129318
4 1 0.925429 0.948946 0.914913 0 0 0.000688553
5 1 0.585155 0.157208 0.796155 0 0 -0.00266266
6 1 0.37639 0.0420365 0.902616 0 0 2.86102e-05
7 1 0.0280838 0.250362 0.77594 0 0 0.00156021
8 1 0.995217 0.208703 0.408227 0 0 -0.0010128
9 1 0.24123 0.0321768 0.673869 0 0 -0.000329971
10 1 0.897238 0.240507 0.551603 0 0 0.00100899
11 1 0.864371 0.198848 0.183891 0 0 -0.0015564
12 1 0.651225 0.0836994 0.285961 0 0 0.000329971
13 1 0.3073 0.292002 0.163675 0 0 0.00265694
14 1 0.553024 0.115524 0.42916 0 0 0.00111008
15 1 0.967026 0.500264 0.0449171 0 0 -0.00069046
16 1 0.516065 0.407173 0.0572143 0 0 -2.67029e-05
17 1 0.683644 0.458678 0.653151 0 0 -0.00129509
18 1 0.925429 0.28228 0.914913 0 0 0.000694275
19 1 0.585154 0.490541 0.796155 0 0 -0.00266075
20 1 0.37639 0.37537 0.902616 0 0 2.86102e-05
21 1 0.0280838 0.583695 0.77594 0 0 0.0015564
22 1 0.339431 0.333686 0.530671 0 0 -0.00110817
23 1 0.995217 0.542036 0.408227 0 0 -0.00101471
24 1 0.24123 0.36551 0.673869 0 0 -0.000329971
25 1 0.897238 0.57384 0.551603 0 0 0.00101089
26 1 0.208811 0.323865 0.306679 0 0 0.0012989
27 1 0.864371 0.532181 0.18389 0 0 -0.0015564
28 1 0.651225 0.417033 0.285962 0 0 0.000333786
29 1 0.3073 0.625335 0.163675 0 0 0.00266266
30 1 0.553024 0.448857 0.42916 0 0 0.00110054
31 1 0.967026 0.833597 0.0449171 0 0 -0.00069046
32 1 0.516065 0.740507 0.0572143 0 0 -3.24249e-05
33 1 0.683644 0.792011 0.653151 0 0 -0.00129128
34 1 0.925429 0.615613 0.914913 0 0 0.000694275
35 1 0.585155 0.823874 0.796155 0 0 -0.00266075
36 1 0.37639 0.708703 0.902616 0 0 3.24249e-05
37 1 0.0280839 0.917028 0.77594 0 0 0.0015564
38 1 0.339431 0.667019 0.530671 0 0 -0.00110817
39 1 0.995217 0.87537 0.408227 0 0 -0.00100899
40 1 0.241229 0.698844 0.673869 0 0 -0.000331879
41 1 0.897238 0.907173 0.551603 0 0 0.00101089
42 1 0.208811 0.657199 0.306679 0 0 0.00129128
43 1 0.864371 0.865515 0.18389 0 0 -0.0015564
44 1 0.651225 0.750366 0.285962 0 0 0.000326157
45 1 0.3073 0.958669 0.163675 0 0 0.00266266
46 1 0.553024 0.78219 0.42916 0 0 0.00110817
47 1 0.339431 0.000352828 0.530671 0 0 -0.00110817
48 1 0.208811 0.990532 0.306679 0 0 0.00128937
ITEM: TIMESTEP
7
ITEM: NUMBER OF ATOMS
48
ITEM: BOX BOUNDS xy xz yz pp pp pp
-6.1851127743721008e+00 8.6067802309989929e+00 2.5094206929206848e+00
-9.4973444938659668e-03 9.3236122131347656e+00 -6.1730756759643555e+00
-2.8691649436950684e-02 1.9545819282531738e+01 7.1304261684417725e-02
ITEM: ATOMS id type xs ys zs fx fy fz
1 1 0.967013 0.16693 0.0449046 0 0 0.0011425
2 1 0.516064 0.07384 0.0572138 0 0 9.72748e-05
3 1 0.68362 0.125344 0.653127 0 0 -0.000377655
4 1 0.925442 0.948946 0.914926 0 0 -0.0011425
5 1 0.585106 0.157208 0.796107 0 0 -9.34601e-05
6 1 0.37639 0.0420365 0.902616 0 0 -9.53674e-05
7 1 0.0281124 0.250361 0.775968 0 0 -0.000108719
8 1 0.995198 0.208703 0.408209 0 0 0.000133514
9 1 0.241224 0.0321768 0.673863 0 0 -0.000421524
10 1 0.897257 0.240507 0.551621 0 0 -0.000131607
11 1 0.864342 0.198848 0.183862 0 0 0.000102997
12 1 0.651231 0.0836993 0.285967 0 0 0.000431061
13 1 0.307349 0.292002 0.163723 0 0 9.72748e-05
14 1 0.553044 0.115523 0.42918 0 0 0.000581741
15 1 0.967013 0.500264 0.0449046 0 0 0.0011425
16 1 0.516064 0.407173 0.0572138 0 0 9.53674e-05
17 1 0.68362 0.458678 0.653128 0 0 -0.000375748
18 1 0.925441 0.282279 0.914926 0 0 -0.0011425
19 1 0.585106 0.490542 0.796107 0 0 -9.72748e-05
20 1 0.37639 0.37537 0.902616 0 0 -9.72748e-05
21 1 0.0281123 0.583695 0.775968 0 0 -0.000106812
22 1 0.339411 0.333686 0.530651 0 0 -0.000585556
23 1 0.995198 0.542036 0.408209 0 0 0.000133514
24 1 0.241224 0.36551 0.673863 0 0 -0.000423431
25 1 0.897257 0.57384 0.551621 0 0 -0.000133514
26 1 0.208835 0.323865 0.306703 0 0 0.00037384
27 1 0.864342 0.532182 0.183862 0 0 0.000108719
28 1 0.651231 0.417033 0.285968 0 0 0.000423431
29 1 0.307349 0.625335 0.163723 0 0 9.72748e-05
30 1 0.553044 0.448857 0.42918 0 0 0.000597
31 1 0.967013 0.833597 0.0449046 0 0 0.0011425
32 1 0.516064 0.740507 0.0572137 0 0 0.000102997
33 1 0.68362 0.792011 0.653128 0 0 -0.000379562
34 1 0.925441 0.615613 0.914926 0 0 -0.00114632
35 1 0.585106 0.823875 0.796107 0 0 -9.53674e-05
36 1 0.37639 0.708703 0.902616 0 0 -0.000104904
37 1 0.0281125 0.917028 0.775968 0 0 -0.000102997
38 1 0.339411 0.66702 0.530651 0 0 -0.000587463
39 1 0.995198 0.87537 0.408209 0 0 0.0001297
40 1 0.241223 0.698844 0.673863 0 0 -0.000423431
41 1 0.897256 0.907173 0.551621 0 0 -0.000135422
42 1 0.208834 0.657198 0.306703 0 0 0.000375748
43 1 0.864342 0.865515 0.183862 0 0 0.000101089
44 1 0.651231 0.750366 0.285967 0 0 0.000429153
45 1 0.307349 0.958668 0.163723 0 0 9.34601e-05
46 1 0.553044 0.78219 0.42918 0 0 0.000585556
47 1 0.339411 0.000352982 0.530651 0 0 -0.000587463
48 1 0.208835 0.990532 0.306703 0 0 0.000377655
ITEM: TIMESTEP
8
ITEM: NUMBER OF ATOMS
48
ITEM: BOX BOUNDS xy xz yz pp pp pp
-6.1851127743721008e+00 8.6067802309989929e+00 2.5094206929206848e+00
-9.4973444938659668e-03 9.3236122131347656e+00 -6.1730756759643555e+00
-2.8691649436950684e-02 1.9545819282531738e+01 7.1304261684417725e-02
ITEM: ATOMS id type xs ys zs fx fy fz
1 1 0.967013 0.16693 0.0449046 0 0 0.0011425
2 1 0.516064 0.07384 0.0572138 0 0 9.72748e-05
3 1 0.68362 0.125344 0.653127 0 0 -0.000377655
4 1 0.925442 0.948946 0.914926 0 0 -0.0011425
5 1 0.585106 0.157208 0.796107 0 0 -9.34601e-05
6 1 0.37639 0.0420365 0.902616 0 0 -9.53674e-05
7 1 0.0281124 0.250361 0.775968 0 0 -0.000108719
8 1 0.995198 0.208703 0.408209 0 0 0.000133514
9 1 0.241224 0.0321768 0.673863 0 0 -0.000421524
10 1 0.897257 0.240507 0.551621 0 0 -0.000131607
11 1 0.864342 0.198848 0.183862 0 0 0.000102997
12 1 0.651231 0.0836993 0.285967 0 0 0.000431061
13 1 0.307349 0.292002 0.163723 0 0 9.72748e-05
14 1 0.553044 0.115523 0.42918 0 0 0.000581741
15 1 0.967013 0.500264 0.0449046 0 0 0.0011425
16 1 0.516064 0.407173 0.0572138 0 0 9.53674e-05
17 1 0.68362 0.458678 0.653128 0 0 -0.000375748
18 1 0.925441 0.282279 0.914926 0 0 -0.0011425
19 1 0.585106 0.490542 0.796107 0 0 -9.72748e-05
20 1 0.37639 0.37537 0.902616 0 0 -9.72748e-05
21 1 0.0281123 0.583695 0.775968 0 0 -0.000106812
22 1 0.339411 0.333686 0.530651 0 0 -0.000585556
23 1 0.995198 0.542036 0.408209 0 0 0.000133514
24 1 0.241224 0.36551 0.673863 0 0 -0.000423431
25 1 0.897257 0.57384 0.551621 0 0 -0.000133514
26 1 0.208835 0.323865 0.306703 0 0 0.00037384
27 1 0.864342 0.532182 0.183862 0 0 0.000108719
28 1 0.651231 0.417033 0.285968 0 0 0.000423431
29 1 0.307349 0.625335 0.163723 0 0 9.72748e-05
30 1 0.553044 0.448857 0.42918 0 0 0.000597
31 1 0.967013 0.833597 0.0449046 0 0 0.0011425
32 1 0.516064 0.740507 0.0572137 0 0 0.000102997
33 1 0.68362 0.792011 0.653128 0 0 -0.000379562
34 1 0.925441 0.615613 0.914926 0 0 -0.00114632
35 1 0.585106 0.823875 0.796107 0 0 -9.53674e-05
36 1 0.37639 0.708703 0.902616 0 0 -0.000104904
37 1 0.0281125 0.917028 0.775968 0 0 -0.000102997
38 1 0.339411 0.66702 0.530651 0 0 -0.000587463
39 1 0.995198 0.87537 0.408209 0 0 0.0001297
40 1 0.241223 0.698844 0.673863 0 0 -0.000423431
41 1 0.897256 0.907173 0.551621 0 0 -0.000135422
42 1 0.208834 0.657198 0.306703 0 0 0.000375748
43 1 0.864342 0.865515 0.183862 0 0 0.000101089
44 1 0.651231 0.750366 0.285967 0 0 0.000429153
45 1 0.307349 0.958668 0.163723 0 0 9.34601e-05
46 1 0.553044 0.78219 0.42918 0 0 0.000585556
47 1 0.339411 0.000352982 0.530651 0 0 -0.000587463
48 1 0.208835 0.990532 0.306703 0 0 0.000377655
