ITEM: TIMESTEP
0
ITEM: NUMBER OF ATOMS
48
ITEM: BOX BOUNDS xy xz yz pp pp pp
-5.5753768682479858e+00 8.6067802309989929e+00 2.5094206929206848e+00
-9.4973444938659668e-03 9.3236122131347656e+00 -5.5633397698402405e+00
-2.8691649436950684e-02 1.9545819282531738e+01 7.1304261684417725e-02
ITEM: ATOMS id type xs ys zs fx fy fz
1 1 0.950759 0.16703 0.0320218 0 0 2.79884
2 1 0.50633 0.0738739 0.0528103 0 0 0.130646
3 1 0.621996 0.125314 0.657023 0 0 0.000659943
4 1 0.845901 0.948847 0.927808 0 0 -2.79882
5 1 0.511772 0.157156 0.802805 0 0 -0.00357246
6 1 0.29033 0.0420026 0.90702 0 0 -0.13064
7 1 0.956199 0.250315 0.78202 0 0 0.00490952
8 1 0.95338 0.208712 0.407029 0 0 0.00102234
9 1 0.17757 0.0321465 0.677802 0 0 -0.0034256
10 1 0.843281 0.240498 0.552801 0 0 -0.00101471
11 1 0.840462 0.198895 0.17781 0 0 -0.00491524
12 1 0.619091 0.0837297 0.282028 0 0 0.0034256
13 1 0.284889 0.292053 0.157025 0 0 0.00356865
14 1 0.508953 0.115534 0.427803 0 0 0.000188828
15 1 0.95076 0.500363 0.0320219 0 0 2.79881
16 1 0.50633 0.407207 0.0528103 0 0 0.130646
17 1 0.621996 0.458648 0.657023 0 0 0.00066185
18 1 0.845901 0.28218 0.927808 0 0 -2.79884
19 1 0.511772 0.49049 0.802805 0 0 -0.00356674
20 1 0.29033 0.375336 0.90702 0 0 -0.13064
21 1 0.956199 0.583648 0.78202 0 0 0.00490761
22 1 0.287708 0.333676 0.532027 0 0 -0.000192642
23 1 0.95338 0.542046 0.407029 0 0 0.00101662
24 1 0.17757 0.36548 0.677802 0 0 -0.00342178
25 1 0.843281 0.573831 0.552801 0 0 -0.00101852
26 1 0.174665 0.323895 0.302807 0 0 -0.000658035
27 1 0.840462 0.532228 0.17781 0 0 -0.00490761
28 1 0.619091 0.417063 0.282028 0 0 0.00342751
29 1 0.284889 0.625387 0.157025 0 0 0.00357056
30 1 0.508953 0.448867 0.427803 0 0 0.000190735
31 1 0.95076 0.833696 0.0320219 0 0 2.79882
32 1 0.50633 0.740541 0.0528104 0 0 0.130638
33 1 0.621996 0.791981 0.657023 0 0 0.000659943
34 1 0.845901 0.615514 0.927808 0 0 -2.79882
35 1 0.511772 0.823823 0.802805 0 0 -0.00356674
36 1 0.29033 0.708669 0.90702 0 0 -0.130638
37 1 0.956199 0.916981 0.78202 0 0 0.00490761
38 1 0.287708 0.667009 0.532027 0 0 -0.00019455
39 1 0.95338 0.875379 0.407029 0 0 0.00101662
40 1 0.177569 0.698813 0.677802 0 0 -0.0034256
41 1 0.843281 0.907164 0.552801 0 0 -0.0010128
42 1 0.174665 0.657228 0.302807 0 0 -0.00066185
43 1 0.840462 0.865562 0.17781 0 0 -0.00490761
44 1 0.619091 0.750396 0.282028 0 0 0.00342369
45 1 0.284889 0.95872 0.157026 0 0 0.00355911
46 1 0.508953 0.782201 0.427803 0 0 0.00019455
47 1 0.287708 0.000342385 0.532027 0 0 -0.00019455
48 1 0.174665 0.990562 0.302807 0 0 -0.000658035
ITEM: TIMESTEP
1
ITEM: NUMBER OF ATOMS
48
ITEM: BOX BOUNDS xy xz yz pp pp pp
-5.5753768682479858e+00 8.6067802309989929e+00 2.5094206929206848e+00
-9.4973444938659668e-03 9.3236122131347656e+00 -5.5633397698402405e+00
-2.8691649436950684e-02 1.9545819282531738e+01 7.1304261684417725e-02
ITEM: ATOMS id type xs ys zs fx fy fz
1 1 0.955428 0.16699 0.0371305 0 0 1.44262
2 1 0.506548 0.0738721 0.0530488 0 0 0.109833
3 1 0.621997 0.125314 0.657024 0 0 -0.000812531
4 1 0.841233 0.948886 0.9227 0 0 -1.4426
5 1 0.511766 0.157157 0.802798 0 0 -0.0883617
6 1 0.290112 0.0420044 0.906781 0 0 -0.109833
7 1 0.956207 0.250315 0.782029 0 0 -0.0565929
8 1 0.953381 0.208712 0.407031 0 0 -0.000326157
9 1 0.177564 0.0321465 0.677796 0 0 -0.00680351
10 1 0.843279 0.240498 0.552799 0 0 0.000339508
11 1 0.840454 0.198895 0.177801 0 0 0.0565948
12 1 0.619097 0.0837296 0.282035 0 0 0.00680161
13 1 0.284895 0.292053 0.157032 0 0 0.0883598
14 1 0.508953 0.115534 0.427804 0 0 -0.000854492
15 1 0.955428 0.500324 0.0371306 0 0 1.44262
16 1 0.506548 0.407205 0.0530488 0 0 0.109833
17 1 0.621997 0.458648 0.657024 0 0 -0.000812531
18 1 0.841233 0.28222 0.9227 0 0 -1.44261
19 1 0.511766 0.49049 0.802798 0 0 -0.0883656
20 1 0.290113 0.375338 0.906781 0 0 -0.109833
21 1 0.956207 0.583648 0.782029 0 0 -0.0565929
22 1 0.287708 0.333676 0.532027 0 0 0.00084877
23 1 0.953382 0.542046 0.407031 0 0 -0.000335693
24 1 0.177564 0.36548 0.677796 0 0 -0.00680351
25 1 0.843279 0.573831 0.552799 0 0 0.000333786
26 1 0.174664 0.323895 0.302806 0 0 0.000814438
27 1 0.840454 0.532228 0.177801 0 0 0.0565929
28 1 0.619097 0.417063 0.282035 0 0 0.00680161
29 1 0.284895 0.625387 0.157032 0 0 0.0883598
30 1 0.508953 0.448867 0.427804 0 0 -0.0008564
31 1 0.955428 0.833657 0.0371306 0 0 1.44261
32 1 0.506548 0.740539 0.0530488 0 0 0.109835
33 1 0.621997 0.791981 0.657024 0 0 -0.000812531
34 1 0.841233 0.615553 0.9227 0 0 -1.44262
35 1 0.511766 0.823823 0.802798 0 0 -0.0883617
36 1 0.290112 0.708671 0.906781 0 0 -0.109833
37 1 0.956207 0.916981 0.782029 0 0 -0.056591
38 1 0.287708 0.667009 0.532027 0 0 0.000850677
39 1 0.953382 0.875379 0.407031 0 0 -0.000335693
40 1 0.177564 0.698813 0.677796 0 0 -0.00679779
41 1 0.843279 0.907164 0.552799 0 0 0.000333786
42 1 0.174664 0.657228 0.302806 0 0 0.00082016
43 1 0.840454 0.865562 0.177801 0 0 0.0565872
44 1 0.619097 0.750396 0.282035 0 0 0.00680161
45 1 0.284895 0.95872 0.157032 0 0 0.0883617
46 1 0.508953 0.782201 0.427804 0 0 -0.000854492
47 1 0.287707 0.000342388 0.532027 0 0 0.00084877
48 1 0.174664 0.990562 0.302806 0 0 0.000810623
ITEM: TIMESTEP
2
ITEM: NUMBER OF ATOMS
48
ITEM: BOX BOUNDS xy xz yz pp pp pp
-5.5753768682479858e+00 8.6067802309989929e+00 2.5094206929206848e+00
-9.4973444938659668e-03 9.3236122131347656e+00 -5.5633397698402405e+00
-2.8691649436950684e-02 1.9545819282531738e+01 7.1304261684417725e-02
ITEM: ATOMS id type xs ys zs fx fy fz
1 1 0.960096 0.166951 0.0422392 0 0 0.443163
2 1 0.506903 0.0738691 0.0534377 0 0 0.076622
3 1 0.621994 0.125314 0.657021 0 0 -0.00856972
4 1 0.836565 0.948926 0.917591 0 0 -0.443163
5 1 0.51148 0.157159 0.802485 0 0 -0.178892
6 1 0.289757 0.0420074 0.906392 0 0 -0.0766201
7 1 0.956024 0.250316 0.781829 0 0 -0.130533
8 1 0.95338 0.208712 0.40703 0 0 -0.000995636
9 1 0.177542 0.0321467 0.677772 0 0 -0.0143547
10 1 0.843281 0.240498 0.5528 0 0 0.000989914
11 1 0.840637 0.198893 0.178001 0 0 0.130535
12 1 0.619119 0.0837294 0.282059 0 0 0.014349
13 1 0.285181 0.292051 0.157345 0 0 0.17889
14 1 0.508951 0.115534 0.427801 0 0 -0.00105095
15 1 0.960096 0.500284 0.0422392 0 0 0.443151
16 1 0.506904 0.407202 0.0534377 0 0 0.0766182
17 1 0.621994 0.458648 0.657021 0 0 -0.0085659
18 1 0.836565 0.282259 0.917591 0 0 -0.443165
19 1 0.51148 0.490492 0.802485 0 0 -0.178879
20 1 0.289757 0.375341 0.906392 0 0 -0.0766163
21 1 0.956024 0.58365 0.781829 0 0 -0.130535
22 1 0.287711 0.333676 0.53203 0 0 0.00105095
23 1 0.953381 0.542046 0.40703 0 0 -0.000995636
24 1 0.177542 0.36548 0.677772 0 0 -0.0143528
25 1 0.84328 0.573831 0.5528 0 0 0.000997543
26 1 0.174667 0.323895 0.302809 0 0 0.00856781
27 1 0.840637 0.532227 0.178001 0 0 0.130533
28 1 0.619119 0.417063 0.282059 0 0 0.0143585
29 1 0.285181 0.625384 0.157345 0 0 0.178888
30 1 0.50895 0.448867 0.427801 0 0 -0.00104904
31 1 0.960096 0.833618 0.0422392 0 0 0.443161
32 1 0.506904 0.740536 0.0534378 0 0 0.076622
33 1 0.621994 0.791981 0.657021 0 0 -0.00856972
34 1 0.836565 0.615592 0.917591 0 0 -0.443157
35 1 0.51148 0.823826 0.802485 0 0 -0.178885
36 1 0.289757 0.708674 0.906392 0 0 -0.0766239
37 1 0.956024 0.916983 0.781829 0 0 -0.130533
38 1 0.28771 0.667009 0.53203 0 0 0.00104713
39 1 0.95338 0.875379 0.40703 0 0 -0.000995636
40 1 0.177542 0.698813 0.677771 0 0 -0.0143566
41 1 0.84328 0.907164 0.5528 0 0 0.000997543
42 1 0.174667 0.657228 0.302809 0 0 0.00856972
43 1 0.840637 0.86556 0.178001 0 0 0.130535
44 1 0.619119 0.750396 0.282059 0 0 0.0143566
45 1 0.285181 0.958717 0.157345 0 0 0.178886
46 1 0.50895 0.782201 0.427801 0 0 -0.00105286
47 1 0.28771 0.000342365 0.53203 0 0 0.00105095
48 1 0.174667 0.990562 0.302809 0 0 0.00856972
ITEM: TIMESTEP
3
ITEM: NUMBER OF ATOMS
48
ITEM: BOX BOUNDS xy xz yz pp pp pp
-5.5753768682479858e+00 8.6067802309989929e+00 2.5094206929206848e+00
-9.4973444938659668e-03 9.3236122131347656e+00 -5.5633397698402405e+00
-2.8691649436950684e-02 1.9545819282531738e+01 7.1304261684417725e-02
ITEM: ATOMS id type xs ys zs fx fy fz
1 1 0.964042 0.166918 0.0465582 0 0 -0.144648
2 1 0.507586 0.0738633 0.0541845 0 0 0.0410213
3 1 0.621918 0.125315 0.656938 0 0 -0.0430202
4 1 0.832618 0.948959 0.913272 0 0 0.144644
5 1 0.509887 0.157172 0.800742 0 0 -0.186583
6 1 0.289075 0.0420132 0.905646 0 0 -0.0410194
7 1 0.954862 0.250326 0.780557 0 0 -0.155592
8 1 0.953372 0.208712 0.40702 0 0 0.00188065
9 1 0.177414 0.0321478 0.677632 0 0 -0.0456409
10 1 0.843289 0.240497 0.55281 0 0 -0.00187111
11 1 0.841799 0.198884 0.179274 0 0 0.15559
12 1 0.619247 0.0837284 0.282199 0 0 0.0456409
13 1 0.286774 0.292037 0.159088 0 0 0.186571
14 1 0.508941 0.115534 0.42779 0 0 0.00241661
15 1 0.964043 0.500251 0.0465581 0 0 -0.144636
16 1 0.507586 0.407197 0.0541845 0 0 0.0410194
17 1 0.621918 0.458648 0.656938 0 0 -0.0430145
18 1 0.832618 0.282292 0.913272 0 0 0.144655
19 1 0.509887 0.490506 0.800742 0 0 -0.186581
20 1 0.289075 0.375347 0.905646 0 0 -0.0410194
21 1 0.954861 0.58366 0.780557 0 0 -0.155592
22 1 0.28772 0.333675 0.53204 0 0 -0.00242424
23 1 0.953372 0.542046 0.40702 0 0 0.00187683
24 1 0.177414 0.365481 0.677632 0 0 -0.0456371
25 1 0.843289 0.57383 0.55281 0 0 -0.00187874
26 1 0.174743 0.323895 0.302892 0 0 0.0430183
27 1 0.841799 0.532217 0.179274 0 0 0.155594
28 1 0.619247 0.417062 0.282199 0 0 0.045639
29 1 0.286774 0.625371 0.159088 0 0 0.186579
30 1 0.508941 0.448868 0.42779 0 0 0.00241852
31 1 0.964043 0.833584 0.0465582 0 0 -0.144644
32 1 0.507586 0.74053 0.0541845 0 0 0.0410156
33 1 0.621918 0.791982 0.656938 0 0 -0.0430183
34 1 0.832618 0.615626 0.913272 0 0 0.144636
35 1 0.509887 0.823839 0.800742 0 0 -0.186575
36 1 0.289075 0.70868 0.905646 0 0 -0.0410156
37 1 0.954862 0.916993 0.780557 0 0 -0.155594
38 1 0.28772 0.667009 0.53204 0 0 -0.00242233
39 1 0.953372 0.875379 0.40702 0 0 0.00187492
40 1 0.177414 0.698815 0.677632 0 0 -0.0456352
41 1 0.843289 0.907164 0.55281 0 0 -0.00187492
42 1 0.174743 0.657228 0.302892 0 0 0.0430183
43 1 0.841799 0.86555 0.179274 0 0 0.15559
44 1 0.619247 0.750395 0.282199 0 0 0.0456371
45 1 0.286774 0.958704 0.159088 0 0 0.186575
46 1 0.508941 0.782201 0.42779 0 0 0.00242615
47 1 0.28772 0.000342286 0.53204 0 0 -0.00242233
48 1 0.174743 0.990561 0.302892 0 0 0.0430202
ITEM: TIMESTEP
4
ITEM: NUMBER OF ATOMS
48
ITEM: BOX BOUNDS xy xz yz pp pp pp
-5.5753768682479858e+00 8.6067802309989929e+00 2.5094206929206848e+00
-9.4973444938659668e-03 9.3236122131347656e+00 -5.5633397698402405e+00
-2.8691649436950684e-02 1.9545819282531738e+01 7.1304261684417725e-02
ITEM: ATOMS id type xs ys zs fx fy fz
1 1 0.964319 0.166915 0.0468611 0 0 -0.014883
2 1 0.508703 0.0738539 0.0554072 0 0 0.0360203
3 1 0.621171 0.125321 0.65612 0 0 -0.10787
4 1 0.832341 0.948961 0.912969 0 0 0.0148888
5 1 0.505808 0.157207 0.796278 0 0 0.0461521
6 1 0.287957 0.0420226 0.904423 0 0 -0.0360184
7 1 0.95157 0.250354 0.776954 0 0 0.00656128
8 1 0.953396 0.208712 0.407047 0 0 0.018425
9 1 0.17659 0.0321547 0.67673 0 0 -0.106638
10 1 0.843265 0.240498 0.552783 0 0 -0.0184288
11 1 0.845091 0.198856 0.182876 0 0 -0.00655746
12 1 0.620071 0.0837214 0.2831 0 0 0.106638
13 1 0.290853 0.292003 0.163552 0 0 -0.0461388
14 1 0.508974 0.115534 0.427826 0 0 0.0206928
15 1 0.96432 0.500249 0.0468612 0 0 -0.0148888
16 1 0.508703 0.407187 0.0554071 0 0 0.0360165
17 1 0.621171 0.458655 0.65612 0 0 -0.107874
18 1 0.832341 0.282295 0.912969 0 0 0.0148754
19 1 0.505808 0.49054 0.796278 0 0 0.0461426
20 1 0.287958 0.375356 0.904423 0 0 -0.0360203
21 1 0.95157 0.583687 0.776954 0 0 0.00655556
22 1 0.287687 0.333676 0.532004 0 0 -0.0206852
23 1 0.953396 0.542045 0.407047 0 0 0.0184307
24 1 0.17659 0.365488 0.67673 0 0 -0.106644
25 1 0.843265 0.573831 0.552783 0 0 -0.0184288
26 1 0.17549 0.323888 0.30371 0 0 0.107868
27 1 0.845091 0.532189 0.182876 0 0 -0.00655937
28 1 0.620071 0.417055 0.2831 0 0 0.106638
29 1 0.290853 0.625336 0.163553 0 0 -0.0461464
30 1 0.508974 0.448867 0.427826 0 0 0.0206871
31 1 0.96432 0.833582 0.0468612 0 0 -0.0148964
32 1 0.508703 0.740521 0.0554072 0 0 0.0360184
33 1 0.62117 0.791988 0.65612 0 0 -0.107864
34 1 0.832341 0.615628 0.912969 0 0 0.0148983
35 1 0.505808 0.823873 0.796278 0 0 0.0461369
36 1 0.287957 0.708689 0.904423 0 0 -0.0360165
37 1 0.95157 0.91702 0.776954 0 0 0.00656128
38 1 0.287687 0.667009 0.532004 0 0 -0.0206833
39 1 0.953396 0.875379 0.407047 0 0 0.0184288
40 1 0.17659 0.698822 0.67673 0 0 -0.106636
41 1 0.843265 0.907164 0.552783 0 0 -0.0184307
42 1 0.17549 0.657222 0.30371 0 0 0.107872
43 1 0.845091 0.865523 0.182876 0 0 -0.00655365
44 1 0.620071 0.750388 0.2831 0 0 0.106636
45 1 0.290853 0.95867 0.163552 0 0 -0.0461445
46 1 0.508974 0.782201 0.427826 0 0 0.0206833
47 1 0.287687 0.000342564 0.532004 0 0 -0.0206852
48 1 0.17549 0.990555 0.30371 0 0 0.107864
ITEM: TIMESTEP
5
ITEM: NUMBER OF ATOMS
48
ITEM: BOX BOUNDS xy xz yz pp pp pp
-5.5753768682479858e+00 8.6067802309989929e+00 2.5094206929206848e+00
-9.4973444938659668e-03 9.3236122131347656e+00 -5.5633397698402405e+00
-2.8691649436950684e-02 1.9545819282531738e+01 7.1304261684417725e-02
ITEM: ATOMS id type xs ys zs fx fy fz
1 1 0.964103 0.166917 0.0466249 0 0 0.0493755
2 1 0.509882 0.073844 0.0566977 0 0 -0.0258713
3 1 0.618594 0.125343 0.6533 0 0 0.00195503
4 1 0.832557 0.948959 0.913205 0 0 -0.0493889
5 1 0.505293 0.157211 0.795714 0 0 -0.00658035
6 1 0.286778 0.0420325 0.903132 0 0 0.0258694
7 1 0.9505 0.250363 0.775784 0 0 -0.011198
8 1 0.953798 0.208709 0.407487 0 0 0.0513897
9 1 0.174012 0.0321765 0.673908 0 0 0.00675583
10 1 0.842863 0.240501 0.552343 0 0 -0.0513878
11 1 0.846161 0.198847 0.184047 0 0 0.0111942
12 1 0.622649 0.0836997 0.285922 0 0 -0.00675201
13 1 0.291368 0.291999 0.164116 0 0 0.00658226
14 1 0.509428 0.11553 0.428323 0 0 0.0565453
15 1 0.964104 0.500251 0.0466249 0 0 0.049387
16 1 0.509882 0.407177 0.0566976 0 0 -0.0258675
17 1 0.618594 0.458676 0.6533 0 0 0.00195885
18 1 0.832557 0.282293 0.913205 0 0 -0.0493698
19 1 0.505293 0.490545 0.795714 0 0 -0.00657845
20 1 0.286778 0.375366 0.903132 0 0 0.0258636
21 1 0.9505 0.583696 0.775783 0 0 -0.0111866
22 1 0.287234 0.33368 0.531507 0 0 -0.0565491
23 1 0.953799 0.542042 0.407487 0 0 0.0513878
24 1 0.174012 0.36551 0.673908 0 0 0.00675774
25 1 0.842863 0.573834 0.552343 0 0 -0.0513897
26 1 0.178067 0.323867 0.30653 0 0 -0.00195312
27 1 0.846161 0.53218 0.184047 0 0 0.0111923
28 1 0.622649 0.417033 0.285922 0 0 -0.00675774
29 1 0.291368 0.625332 0.164116 0 0 0.00658035
30 1 0.509427 0.448863 0.428323 0 0 0.0565491
31 1 0.964103 0.833584 0.0466247 0 0 0.0493965
32 1 0.509882 0.740511 0.0566977 0 0 -0.0258617
33 1 0.618594 0.79201 0.6533 0 0 0.00194931
34 1 0.832557 0.615626 0.913205 0 0 -0.0493946
35 1 0.505293 0.823878 0.795714 0 0 -0.00656319
36 1 0.286778 0.708699 0.903133 0 0 0.0258636
37 1 0.9505 0.917029 0.775783 0 0 -0.0111923
38 1 0.287233 0.667013 0.531507 0 0 -0.0565472
39 1 0.953798 0.875375 0.407487 0 0 0.0513935
40 1 0.174012 0.698843 0.673908 0 0 0.00675201
41 1 0.842862 0.907168 0.552343 0 0 -0.0513935
42 1 0.178067 0.6572 0.30653 0 0 -0.00195694
43 1 0.846161 0.865513 0.184047 0 0 0.0111771
44 1 0.622649 0.750366 0.285922 0 0 -0.00675583
45 1 0.291368 0.958665 0.164116 0 0 0.00657463
46 1 0.509428 0.782197 0.428323 0 0 0.0565453
47 1 0.287233 0.000346385 0.531507 0 0 -0.0565434
48 1 0.178067 0.990533 0.30653 0 0 -0.00195694
ITEM: TIMESTEP
6
ITEM: NUMBER OF ATOMS
48
ITEM: BOX BOUNDS xy xz yz pp pp pp
-5.5753768682479858e+00 8.6067802309989929e+00 2.5094206929206848e+00
-9.4973444938659668e-03 9.3236122131347656e+00 -5.5633397698402405e+00
-2.8691649436950684e-02 1.9545819282531738e+01 7.1304261684417725e-02
ITEM: ATOMS id type xs ys zs fx fy fz
1 1 0.964683 0.166912 0.0472591 0 0 -0.0156631
2 1 0.50981 0.0738446 0.0566186 0 0 -0.014801
3 1 0.61806 0.125348 0.652716 0 0 0.00164795
4 1 0.831978 0.948964 0.912571 0 0 0.0156746
5 1 0.505098 0.157213 0.795501 0 0 -0.0214672
6 1 0.28685 0.0420319 0.903212 0 0 0.014801
7 1 0.950126 0.250366 0.775374 0 0 -0.0123577
8 1 0.954537 0.208702 0.408296 0 0 0.00494576
9 1 0.173538 0.0321805 0.67339 0 0 0.0044117
10 1 0.842124 0.240507 0.551534 0 0 -0.00494385
11 1 0.846535 0.198844 0.184456 0 0 0.0123577
12 1 0.623123 0.0836957 0.28644 0 0 -0.0044136
13 1 0.291563 0.291997 0.164329 0 0 0.0214577
14 1 0.510243 0.115523 0.429215 0 0 0.00861931
15 1 0.964683 0.500246 0.0472592 0 0 -0.0156651
16 1 0.50981 0.407178 0.0566184 0 0 -0.0147972
17 1 0.61806 0.458681 0.652716 0 0 0.00164604
18 1 0.831977 0.282298 0.912571 0 0 0.0156631
19 1 0.505098 0.490546 0.795501 0 0 -0.0214672
20 1 0.286851 0.375365 0.903212 0 0 0.014801
21 1 0.950126 0.583699 0.775374 0 0 -0.0123596
22 1 0.286418 0.333686 0.530615 0 0 -0.00861549
23 1 0.954538 0.542036 0.408296 0 0 0.00493813
24 1 0.173538 0.365514 0.67339 0 0 0.0044136
25 1 0.842123 0.57384 0.551534 0 0 -0.00494385
26 1 0.178601 0.323862 0.307114 0 0 -0.00163841
27 1 0.846535 0.532177 0.184456 0 0 0.0123577
28 1 0.623123 0.417029 0.28644 0 0 -0.00440407
29 1 0.291563 0.62533 0.164329 0 0 0.0214596
30 1 0.510243 0.448857 0.429215 0 0 0.00861549
31 1 0.964683 0.833579 0.0472591 0 0 -0.0156746
32 1 0.50981 0.740511 0.0566186 0 0 -0.0147991
33 1 0.61806 0.792014 0.652716 0 0 0.00164223
34 1 0.831977 0.615631 0.912571 0 0 0.0156727
35 1 0.505098 0.823879 0.795501 0 0 -0.0214672
36 1 0.28685 0.708699 0.903212 0 0 0.0147991
37 1 0.950126 0.917033 0.775374 0 0 -0.0123615
38 1 0.286418 0.66702 0.530615 0 0 -0.0086174
39 1 0.954537 0.875369 0.408296 0 0 0.00494194
40 1 0.173538 0.698847 0.67339 0 0 0.00440788
41 1 0.842123 0.907174 0.551534 0 0 -0.00494194
42 1 0.178601 0.657195 0.307114 0 0 -0.00164795
43 1 0.846535 0.86551 0.184456 0 0 0.0123577
44 1 0.623123 0.750362 0.28644 0 0 -0.00440216
45 1 0.291563 0.958664 0.164329 0 0 0.0214653
46 1 0.510243 0.78219 0.429215 0 0 0.00862122
47 1 0.286417 0.000353257 0.530615 0 0 -0.00862503
48 1 0.178601 0.990529 0.307114 0 0 -0.00164413
ITEM: TIMESTEP
7
ITEM: NUMBER OF ATOMS
48
ITEM: BOX BOUNDS xy xz yz pp pp pp
-5.5753768682479858e+00 8.6067802309989929e+00 2.5094206929206848e+00
-9.4973444938659668e-03 9.3236122131347656e+00 -5.5633397698402405e+00
-2.8691649436950684e-02 1.9545819282531738e+01 7.1304261684417725e-02
ITEM: ATOMS id type xs ys zs fx fy fz
1 1 0.964559 0.166913 0.0471231 0 0 0.00771141
2 1 0.509665 0.0738458 0.0564601 0 0 -0.00107193
3 1 0.618052 0.125348 0.652707 0 0 -0.00492859
4 1 0.832102 0.948963 0.912707 0 0 -0.00771713
5 1 0.504884 0.157214 0.795267 0 0 -0.00419617
6 1 0.286995 0.0420307 0.90337 0 0 0.00107384
7 1 0.949991 0.250367 0.775227 0 0 -0.000776291
8 1 0.954617 0.208702 0.408383 0 0 -0.00223732
9 1 0.173559 0.0321803 0.673413 0 0 -0.00397301
10 1 0.842044 0.240508 0.551447 0 0 0.00223732
11 1 0.84667 0.198843 0.184604 0 0 0.000774384
12 1 0.623102 0.0836959 0.286417 0 0 0.00397491
13 1 0.291777 0.291995 0.164564 0 0 0.00419617
14 1 0.510362 0.115522 0.429345 0 0 -0.000133514
15 1 0.964559 0.500247 0.0471231 0 0 0.00770187
16 1 0.509665 0.407179 0.05646 0 0 -0.00107574
17 1 0.618052 0.458681 0.652707 0 0 -0.00492668
18 1 0.832102 0.282297 0.912707 0 0 -0.00771141
19 1 0.504884 0.490548 0.795267 0 0 -0.00419235
20 1 0.286995 0.375364 0.90337 0 0 0.00107574
21 1 0.949991 0.583701 0.775227 0 0 -0.000772476
22 1 0.286299 0.333687 0.530485 0 0 0.000135422
23 1 0.954618 0.542035 0.408384 0 0 -0.00223923
24 1 0.17356 0.365514 0.673413 0 0 -0.00396919
25 1 0.842044 0.573841 0.551447 0 0 0.00224113
26 1 0.178609 0.323862 0.307123 0 0 0.00492477
27 1 0.84667 0.532176 0.184604 0 0 0.000780106
28 1 0.623102 0.417029 0.286417 0 0 0.0039711
29 1 0.291777 0.625329 0.164564 0 0 0.00419426
30 1 0.510362 0.448856 0.429345 0 0 -0.0001297
31 1 0.964559 0.83358 0.047123 0 0 0.00771332
32 1 0.509665 0.740512 0.0564601 0 0 -0.00107002
33 1 0.618052 0.792014 0.652707 0 0 -0.00492668
34 1 0.832102 0.61563 0.912707 0 0 -0.00771141
35 1 0.504884 0.823881 0.795267 0 0 -0.00419807
36 1 0.286995 0.708697 0.90337 0 0 0.00107193
37 1 0.949991 0.917034 0.775227 0 0 -0.000778198
38 1 0.286299 0.667021 0.530485 0 0 0.000127792
39 1 0.954617 0.875368 0.408384 0 0 -0.00224495
40 1 0.173559 0.698847 0.673413 0 0 -0.00397491
41 1 0.842043 0.907175 0.551447 0 0 0.00224304
42 1 0.178609 0.657195 0.307123 0 0 0.00492668
43 1 0.84667 0.865509 0.184603 0 0 0.000776291
44 1 0.623102 0.750363 0.286417 0 0 0.00397301
45 1 0.291777 0.958662 0.164563 0 0 0.00419998
46 1 0.510362 0.782189 0.429345 0 0 -0.000131607
47 1 0.286299 0.000354255 0.530485 0 0 0.000127792
48 1 0.178609 0.990529 0.307123 0 0 0.00493431
ITEM: TIMESTEP
8
ITEM: NUMBER OF ATOMS
48
ITEM: BOX BOUNDS xy xz yz pp pp pp
-5.5753768682479858e+00 8.6067802309989929e+00 2.5094206929206848e+00
-9.4973444938659668e-03 9.3236122131347656e+00 -5.5633397698402405e+00
-2.8691649436950684e-02 1.9545819282531738e+01 7.1304261684417725e-02
ITEM: ATOMS id type xs ys zs fx fy fz
1 1 0.964666 0.166912 0.0472411 0 0 -0.00226021
2 1 0.509607 0.0738463 0.0563965 0 0 0.00469208
3 1 0.61796 0.125348 0.652606 0 0 -0.00258827
4 1 0.831994 0.948964 0.912589 0 0 0.00226212
5 1 0.50475 0.157216 0.79512 0 0 9.53674e-06
6 1 0.287053 0.0420302 0.903434 0 0 -0.00469017
7 1 0.949941 0.250368 0.775172 0 0 -0.00126648
8 1 0.954598 0.208702 0.408362 0 0 0.000654221
9 1 0.173493 0.0321808 0.67334 0 0 -0.00304413
10 1 0.842063 0.240508 0.551468 0 0 -0.000650406
11 1 0.84672 0.198842 0.184658 0 0 0.0012722
12 1 0.623169 0.0836953 0.28649 0 0 0.00303841
13 1 0.291911 0.291994 0.16471 0 0 -1.14441e-05
14 1 0.510391 0.115522 0.429377 0 0 0.000583649
15 1 0.964667 0.500246 0.047241 0 0 -0.00225067
16 1 0.509607 0.40718 0.0563963 0 0 0.0046978
17 1 0.61796 0.458682 0.652606 0 0 -0.00259399
18 1 0.831994 0.282297 0.912589 0 0 0.00225449
19 1 0.50475 0.490549 0.79512 0 0 9.53674e-06
20 1 0.287054 0.375364 0.903434 0 0 -0.00469208
21 1 0.949941 0.583701 0.775172 0 0 -0.00127792
22 1 0.28627 0.333688 0.530453 0 0 -0.000589371
23 1 0.954598 0.542035 0.408362 0 0 0.000656128
24 1 0.173493 0.365514 0.67334 0 0 -0.00303459
25 1 0.842063 0.573841 0.551468 0 0 -0.000654221
26 1 0.178701 0.323861 0.307224 0 0 0.0025959
27 1 0.84672 0.532175 0.184658 0 0 0.00126648
28 1 0.623169 0.417029 0.28649 0 0 0.00303841
29 1 0.29191 0.625327 0.16471 0 0 -9.53674e-06
30 1 0.510391 0.448855 0.429377 0 0 0.000591278
31 1 0.964667 0.833579 0.0472411 0 0 -0.00226402
32 1 0.509607 0.740513 0.0563965 0 0 0.00468445
33 1 0.61796 0.792015 0.652606 0 0 -0.00259399
34 1 0.831994 0.615631 0.912589 0 0 0.00225258
35 1 0.50475 0.823882 0.79512 0 0 1.52588e-05
36 1 0.287053 0.708697 0.903434 0 0 -0.00468445
37 1 0.949941 0.917034 0.775172 0 0 -0.00127792
38 1 0.28627 0.667021 0.530453 0 0 -0.000583649
39 1 0.954598 0.875369 0.408362 0 0 0.000659943
40 1 0.173492 0.698848 0.67334 0 0 -0.00303268
41 1 0.842063 0.907174 0.551468 0 0 -0.000659943
42 1 0.178701 0.657194 0.307224 0 0 0.00259209
43 1 0.84672 0.865509 0.184658 0 0 0.00127983
44 1 0.623169 0.750362 0.28649 0 0 0.00303268
45 1 0.291911 0.958661 0.16471 0 0 -1.33514e-05
46 1 0.510391 0.782189 0.429377 0 0 0.000583649
47 1 0.28627 0.000354501 0.530453 0 0 -0.000585556
48 1 0.178701 0.990528 0.307224 0 0 0.00258636
ITEM: TIMESTEP
9
ITEM: NUMBER OF ATOMS
48
ITEM: BOX BOUNDS xy xz yz pp pp pp
-5.5753768682479858e+00 8.6067802309989929e+00 2.5094206929206848e+00
-9.4973444938659668e-03 9.3236122131347656e+00 -5.5633397698402405e+00
-2.8691649436950684e-02 1.9545819282531738e+01 7.1304261684417725e-02
ITEM: ATOMS id type xs ys zs fx fy fz
1 1 0.964662 0.166912 0.0472364 0 0 0.000595093
2 1 0.509692 0.0738456 0.0564896 0 0 0.000246048
3 1 0.617856 0.125349 0.652493 0 0 0.00097084
4 1 0.831998 0.948964 0.912594 0 0 -0.000612259
5 1 0.504689 0.157216 0.795053 0 0 0.000146866
6 1 0.286968 0.0420309 0.903341 0 0 -0.000253677
7 1 0.949888 0.250368 0.775114 0 0 -0.00196838
8 1 0.954604 0.208702 0.408369 0 0 0.00247002
9 1 0.173389 0.0321817 0.673227 0 0 0.000749588
10 1 0.842057 0.240508 0.551461 0 0 -0.00247002
11 1 0.846773 0.198842 0.184717 0 0 0.00196838
12 1 0.623272 0.0836945 0.286603 0 0 -0.000743866
13 1 0.291972 0.291994 0.164777 0 0 -0.000137329
14 1 0.510418 0.115522 0.429407 0 0 0.0016346
15 1 0.964662 0.500246 0.0472364 0 0 0.000598907
16 1 0.509692 0.407179 0.0564895 0 0 0.000246048
17 1 0.617856 0.458683 0.652493 0 0 0.00097847
18 1 0.831998 0.282297 0.912594 0 0 -0.000597
19 1 0.504689 0.49055 0.795054 0 0 0.000144958
20 1 0.286968 0.375364 0.903341 0 0 -0.000247955
21 1 0.949888 0.583701 0.775113 0 0 -0.00196266
22 1 0.286243 0.333688 0.530423 0 0 -0.00163078
23 1 0.954604 0.542035 0.408369 0 0 0.00246811
24 1 0.17339 0.365515 0.673227 0 0 0.000736237
25 1 0.842057 0.573841 0.551461 0 0 -0.00246811
26 1 0.178805 0.32386 0.307338 0 0 -0.000982285
27 1 0.846773 0.532175 0.184717 0 0 0.00196648
28 1 0.623272 0.417028 0.286603 0 0 -0.000738144
29 1 0.291972 0.625327 0.164777 0 0 -0.000146866
30 1 0.510418 0.448855 0.429407 0 0 0.00162506
31 1 0.964662 0.833579 0.0472362 0 0 0.000614166
32 1 0.509692 0.740512 0.0564895 0 0 0.000255585
33 1 0.617856 0.792016 0.652492 0 0 0.00097847
34 1 0.831998 0.615631 0.912594 0 0 -0.000593185
35 1 0.504689 0.823883 0.795054 0 0 0.000143051
36 1 0.286969 0.708698 0.903341 0 0 -0.000253677
37 1 0.949888 0.917035 0.775113 0 0 -0.00195503
38 1 0.286243 0.667021 0.530423 0 0 -0.00162888
39 1 0.954604 0.875368 0.408369 0 0 0.00246239
40 1 0.173389 0.698848 0.673227 0 0 0.000732422
41 1 0.842056 0.907174 0.551461 0 0 -0.0024662
42 1 0.178805 0.657194 0.307338 0 0 -0.00097847
43 1 0.846773 0.865508 0.184717 0 0 0.00195885
44 1 0.623272 0.750361 0.286603 0 0 -0.000734329
45 1 0.291972 0.95866 0.164777 0 0 -0.000146866
46 1 0.510418 0.782188 0.429407 0 0 0.00163078
47 1 0.286242 0.000354732 0.530423 0 0 -0.00162697
48 1 0.178805 0.990527 0.307338 0 0 -0.00097847
ITEM: TIMESTEP
10
ITEM: NUMBER OF ATOMS
48
ITEM: BOX BOUNDS xy xz yz pp pp pp
-5.5753768682479858e+00 8.6067802309989929e+00 2.5094206929206848e+00
-9.4973444938659668e-03 9.3236122131347656e+00 -5.5633397698402405e+00
-2.8691649436950684e-02 1.9545819282531738e+01 7.1304261684417725e-02
ITEM: ATOMS id type xs ys zs fx fy fz
1 1 0.964669 0.166912 0.0472443 0 0 0.000455856
2 1 0.509711 0.0738454 0.0565098 0 0 -0.000478745
3 1 0.617851 0.125349 0.652487 0 0 -0.00019455
4 1 0.831991 0.948964 0.912586 0 0 -0.000432968
5 1 0.50468 0.157216 0.795044 0 0 0.000112534
6 1 0.28695 0.0420311 0.90332 0 0 0.000476837
7 1 0.949852 0.250368 0.775074 0 0 -0.000505447
8 1 0.954638 0.208702 0.408407 0 0 -6.10352e-05
9 1 0.173381 0.0321818 0.673218 0 0 -0.000146866
10 1 0.842023 0.240508 0.551424 0 0 5.72205e-05
11 1 0.846809 0.198841 0.184756 0 0 0.000497818
12 1 0.62328 0.0836944 0.286612 0 0 0.000143051
13 1 0.291981 0.291993 0.164787 0 0 -0.000116348
14 1 0.510445 0.115521 0.429436 0 0 -0.000415802
15 1 0.96467 0.500246 0.0472444 0 0 0.000432968
16 1 0.509711 0.407179 0.0565098 0 0 -0.000478745
17 1 0.617851 0.458683 0.652487 0 0 -0.000196457
18 1 0.831991 0.282298 0.912586 0 0 -0.00043869
19 1 0.50468 0.49055 0.795044 0 0 0.000112534
20 1 0.28695 0.375364 0.90332 0 0 0.000482559
21 1 0.949852 0.583702 0.775074 0 0 -0.000494003
22 1 0.286216 0.333688 0.530394 0 0 0.000417709
23 1 0.954639 0.542035 0.408407 0 0 -6.10352e-05
24 1 0.173381 0.365515 0.673218 0 0 -0.000148773
25 1 0.842022 0.573841 0.551424 0 0 5.34058e-05
26 1 0.17881 0.32386 0.307344 0 0 0.000196457
27 1 0.846809 0.532175 0.184756 0 0 0.000495911
28 1 0.62328 0.417028 0.286612 0 0 0.000144958
29 1 0.29198 0.625327 0.164786 0 0 -0.000108719
30 1 0.510445 0.448855 0.429436 0 0 -0.000415802
31 1 0.96467 0.833579 0.0472443 0 0 0.000442505
32 1 0.509711 0.740512 0.0565098 0 0 -0.000478745
33 1 0.61785 0.792016 0.652486 0 0 -0.000192642
34 1 0.831991 0.615631 0.912586 0 0 -0.000442505
35 1 0.50468 0.823883 0.795044 0 0 0.000104904
36 1 0.28695 0.708698 0.903321 0 0 0.000478745
37 1 0.949852 0.917035 0.775074 0 0 -0.000497818
38 1 0.286216 0.667022 0.530394 0 0 0.000413895
39 1 0.954638 0.875368 0.408407 0 0 -5.34058e-05
40 1 0.173381 0.698849 0.673218 0 0 -0.000141144
41 1 0.842022 0.907175 0.551423 0 0 5.91278e-05
42 1 0.17881 0.657194 0.307344 0 0 0.000196457
43 1 0.846809 0.865508 0.184756 0 0 0.000501633
44 1 0.62328 0.750361 0.286612 0 0 0.000141144
45 1 0.291981 0.95866 0.164786 0 0 -0.000116348
46 1 0.510445 0.782188 0.429436 0 0 -0.000415802
47 1 0.286216 0.000354956 0.530394 0 0 0.000415802
48 1 0.17881 0.990527 0.307344 0 0 0.000198364
ITEM: TIMESTEP
11
ITEM: NUMBER OF ATOMS
48
ITEM: BOX BOUNDS xy xz yz pp pp pp
-5.5753768682479858e+00 8.6067802309989929e+00 2.5094206929206848e+00
-9.4973444938659668e-03 9.3236122131347656e+00 -5.5633397698402405e+00
-2.8691649436950684e-02 1.9545819282531738e+01 7.1304261684417725e-02
ITEM: ATOMS id type xs ys zs fx fy fz
1 1 0.964676 0.166912 0.0472515 0 0 -0.000253677
2 1 0.509705 0.0738455 0.056504 0 0 -1.71661e-05
3 1 0.617848 0.125349 0.652483 0 0 -9.53674e-05
4 1 0.831985 0.948964 0.912579 0 0 0.000247955
5 1 0.504681 0.157216 0.795045 0 0 -0.000127792
6 1 0.286955 0.042031 0.903326 0 0 1.71661e-05
7 1 0.949843 0.250368 0.775064 0 0 -9.91821e-05
8 1 0.95464 0.208702 0.408408 0 0 -1.71661e-05
9 1 0.173378 0.0321818 0.673215 0 0 -5.72205e-05
10 1 0.842021 0.240508 0.551422 0 0 2.67029e-05
11 1 0.846818 0.198841 0.184766 0 0 9.91821e-05
12 1 0.623283 0.0836944 0.286615 0 0 6.48499e-05
13 1 0.29198 0.291993 0.164785 0 0 0.000118256
14 1 0.510441 0.115521 0.429432 0 0 -9.91821e-05
15 1 0.964676 0.500246 0.0472514 0 0 -0.000244141
16 1 0.509705 0.407179 0.0565039 0 0 -1.33514e-05
17 1 0.617848 0.458683 0.652483 0 0 -9.34601e-05
18 1 0.831984 0.282298 0.912579 0 0 0.000257492
19 1 0.504681 0.49055 0.795045 0 0 -0.000123978
20 1 0.286955 0.375364 0.903326 0 0 9.53674e-06
21 1 0.949843 0.583702 0.775064 0 0 -9.72748e-05
22 1 0.28622 0.333688 0.530399 0 0 9.53674e-05
23 1 0.95464 0.542035 0.408408 0 0 -1.71661e-05
24 1 0.173379 0.365515 0.673215 0 0 -6.86646e-05
25 1 0.842021 0.573841 0.551422 0 0 2.86102e-05
26 1 0.178813 0.32386 0.307347 0 0 9.53674e-05
27 1 0.846818 0.532175 0.184766 0 0 9.91821e-05
28 1 0.623283 0.417028 0.286615 0 0 5.72205e-05