ITEM: TIMESTEP
0
ITEM: NUMBER OF ATOMS
32
ITEM: BOX BOUNDS xy xz yz pp pp pp
-4.7826766967773438e-03 9.5989975333213806e+00 3.1996658444404602e+00
-3.7661075592041016e-02 2.2120539069175720e+01 0.0000000000000000e+00
-1.1393904685974121e-02 5.1938598752021790e+00 0.0000000000000000e+00
ITEM: ATOMS id type xs ys zs fx fy fz
1 1 0.851068 0.336542 0.593597 0 0.000894547 5.72205e-06
2 1 0.351068 0.336542 0.593597 0 0.000890732 5.72205e-06
3 1 0.121808 0.295033 0.0935973 0 -0.000825882 -5.72205e-06
4 1 0.621808 0.295033 0.0935973 0 -0.000825882 -1.90735e-06
5 1 0.038615 0.461543 0.593597 0 0.000997543 0
6 1 0.538615 0.461543 0.593597 0 0.00100136 5.72205e-06
7 1 0.809352 0.420037 0.0935973 0 -0.000925064 -7.62939e-06
8 1 0.309352 0.420037 0.0935973 0 -0.000925064 -3.8147e-06
9 1 0.726161 0.586543 0.593597 0 0.000865936 0
10 1 0.226161 0.586543 0.593597 0 0.000864029 0
11 1 0.91371 0.711539 0.593597 0 0.000915527 7.62939e-06
12 1 0.41371 0.711539 0.593597 0 0.000911713 3.8147e-06
13 1 0.684443 0.670042 0.0935972 0 -0.00112724 -3.8147e-06
14 1 0.996896 0.545043 0.0935972 0 -0.00110245 0
15 1 0.496896 0.545043 0.0935972 0 -0.00109863 0
16 1 0.184443 0.670042 0.0935972 0 -0.00113106 -7.62939e-06
17 1 0.60126 0.836533 0.593597 0 0.00109673 0
18 1 0.10126 0.836533 0.593597 0 0.00109673 1.90735e-06
19 1 0.788807 0.961533 0.593597 0 0.00110435 0
20 1 0.288807 0.961533 0.593597 0 0.0010891 0
21 1 0.871994 0.795035 0.0935971 0 -0.00084877 -1.90735e-06
22 1 0.371994 0.795035 0.0935971 0 -0.000854492 0
23 1 0.559541 0.920032 0.0935971 0 -0.000930786 0
24 1 0.0595417 0.920032 0.0935971 0 -0.000930786 0
25 1 0.975977 0.0865377 0.593597 0 0.000881195 0
26 1 0.475977 0.0865377 0.593597 0 0.000881195 0
27 1 0.246715 0.045031 0.093597 0 -0.000946045 0
28 1 0.746715 0.045031 0.093597 0 -0.00094986 0
29 1 0.163523 0.211541 0.593597 0 0.000843048 1.90735e-06
30 1 0.663523 0.211541 0.593597 0 0.000844955 0
31 1 0.934262 0.170031 0.093597 0 -0.00087738 0
32 1 0.434262 0.170031 0.093597 0 -0.000879288 0
ITEM: TIMESTEP
1
ITEM: NUMBER OF ATOMS
32
ITEM: BOX BOUNDS xy xz yz pp pp pp
-4.7826766967773438e-03 9.5989975333213806e+00 3.1996658444404602e+00
-3.7661075592041016e-02 2.2120539069175720e+01 0.0000000000000000e+00
-1.1393904685974121e-02 5.1938598752021790e+00 0.0000000000000000e+00
ITEM: ATOMS id type xs ys zs fx fy fz
1 1 0.85105 0.336578 0.593598 0 4.3869e-05 -1.90735e-05
2 1 0.351051 0.336578 0.593598 0 5.53131e-05 -1.52588e-05
3 1 0.121824 0.295 0.0935963 0 -0.000104904 1.71661e-05
4 1 0.621824 0.295 0.093597 0 -0.000110626 9.53674e-06
5 1 0.0385951 0.461582 0.593597 0 -0.000232697 -7.62939e-06
6 1 0.538595 0.461583 0.593598 0 -0.000246048 -1.90735e-05
7 1 0.80937 0.42 0.093596 0 -7.05719e-05 2.47955e-05
8 1 0.309371 0.42 0.0935966 0 -8.2016e-05 1.33514e-05
9 1 0.726144 0.586578 0.593597 0 2.67029e-05 0
10 1 0.226144 0.586578 0.593597 0 2.09808e-05 1.90735e-06
11 1 0.913692 0.711576 0.593598 0 0.000108719 -2.09808e-05
12 1 0.413692 0.711576 0.593598 0 0.000114441 -9.53674e-06
13 1 0.684465 0.669997 0.0935965 0 0.000108719 1.14441e-05
14 1 0.996918 0.544999 0.0935972 0 3.05176e-05 -3.8147e-06
15 1 0.496918 0.544999 0.0935972 0 2.86102e-05 -3.8147e-06
16 1 0.184466 0.669997 0.0935959 0 0.000120163 1.71661e-05
17 1 0.601238 0.836577 0.593597 0 -4.57764e-05 -1.90735e-06
18 1 0.101238 0.836577 0.593597 0 -4.57764e-05 -5.72205e-06
19 1 0.788785 0.961577 0.593597 0 -0.000110626 0
20 1 0.288785 0.961576 0.593597 0 -6.86646e-05 3.8147e-06
21 1 0.872011 0.795001 0.0935968 0 -0.000234604 1.14441e-05
22 1 0.372011 0.795 0.0935971 0 -0.000232697 3.8147e-06
23 1 0.55956 0.919995 0.0935971 0 0.000118256 -1.90735e-06
24 1 0.0595602 0.919995 0.0935971 0 0.00012207 -1.90735e-06
25 1 0.975959 0.0865729 0.593597 0 0.000150681 0
26 1 0.47596 0.0865729 0.593597 0 0.000144958 0
27 1 0.246734 0.0449932 0.093597 0 0.000123978 0
28 1 0.746734 0.0449931 0.093597 0 0.000137329 0
29 1 0.163506 0.211575 0.593597 0 9.34601e-05 -3.8147e-06
30 1 0.663506 0.211575 0.593597 0 8.96454e-05 0
31 1 0.934279 0.169996 0.093597 0 -2.86102e-05 0
32 1 0.434279 0.169996 0.093597 0 -2.47955e-05 0
ITEM: TIMESTEP
2
ITEM: NUMBER OF ATOMS
32
ITEM: BOX BOUNDS xy xz yz pp pp pp
-4.7826766967773438e-03 9.5989975333213806e+00 3.1996658444404602e+00
-3.7661075592041016e-02 2.2120539069175720e+01 0.0000000000000000e+00
-1.1393904685974121e-02 5.1938598752021790e+00 0.0000000000000000e+00
ITEM: ATOMS id type xs ys zs fx fy fz
1 1 0.85105 0.336579 0.593597 0 -5.34058e-05 1.14441e-05
2 1 0.35105 0.336579 0.593597 0 -5.53131e-05 9.53674e-06
3 1 0.121825 0.294998 0.0935974 0 -3.8147e-05 -7.62939e-06
4 1 0.621825 0.294998 0.0935976 0 -3.43323e-05 -7.62939e-06
5 1 0.0385968 0.461579 0.593597 0 -2.09808e-05 9.53674e-06
6 1 0.538597 0.461579 0.593597 0 -2.09808e-05 7.62939e-06
7 1 0.809371 0.419999 0.0935976 0 -4.00543e-05 -1.14441e-05
8 1 0.309371 0.419999 0.0935975 0 -2.67029e-05 -7.62939e-06
9 1 0.726143 0.586579 0.593597 0 -2.67029e-05 0
10 1 0.226144 0.586578 0.593597 0 -1.14441e-05 -3.8147e-06
11 1 0.913691 0.711578 0.593597 0 -1.90735e-05 0
12 1 0.413691 0.711578 0.593597 0 -1.33514e-05 0
13 1 0.684464 0.669999 0.0935973 0 -3.24249e-05 1.90735e-06
14 1 0.996918 0.544999 0.0935969 0 -3.8147e-06 1.90735e-06
15 1 0.496918 0.544999 0.0935969 0 -9.53674e-06 -1.90735e-06
16 1 0.184465 0.669999 0.093597 0 -4.00543e-05 1.90735e-06
17 1 0.601238 0.836576 0.593597 0 3.8147e-06 3.8147e-06
18 1 0.101238 0.836576 0.593597 0 5.72205e-06 7.62939e-06
19 1 0.788785 0.961575 0.593597 0 2.09808e-05 -3.8147e-06
20 1 0.288785 0.961575 0.593597 0 1.90735e-05 -5.72205e-06
21 1 0.872012 0.794997 0.0935975 0 3.43323e-05 -7.62939e-06
22 1 0.372013 0.794997 0.0935973 0 4.95911e-05 -5.72205e-06
23 1 0.559559 0.919996 0.093597 0 -7.62939e-06 1.90735e-06
24 1 0.0595594 0.919996 0.093597 0 -1.33514e-05 3.8147e-06
25 1 0.975958 0.0865754 0.593597 0 1.52588e-05 0
26 1 0.475959 0.0865753 0.593597 0 3.05176e-05 0
27 1 0.246733 0.0449949 0.093597 0 5.91278e-05 1.90735e-06
28 1 0.746733 0.0449949 0.093597 0 4.95911e-05 0
29 1 0.163505 0.211576 0.593597 0 4.3869e-05 0
30 1 0.663505 0.211576 0.593597 0 4.19617e-05 0
31 1 0.934279 0.169995 0.093597 0 4.3869e-05 0
32 1 0.43428 0.169995 0.093597 0 4.95911e-05 0
ITEM: TIMESTEP
3
ITEM: NUMBER OF ATOMS
32
ITEM: BOX BOUNDS xy xz yz pp pp pp
-4.7826766967773438e-03 9.5989975333213806e+00 3.1996658444404602e+00
-3.7661075592041016e-02 2.2120539069175720e+01 0.0000000000000000e+00
-1.1393904685974121e-02 5.1938598752021790e+00 0.0000000000000000e+00
ITEM: ATOMS id type xs ys zs fx fy fz
1 1 0.85105 0.336578 0.593598 0 -9.53674e-06 -1.14441e-05
2 1 0.351051 0.336578 0.593598 0 -7.62939e-06 -9.53674e-06
3 1 0.121826 0.294997 0.0935968 0 2.67029e-05 7.62939e-06
4 1 0.621826 0.294997 0.0935969 0 2.28882e-05 7.62939e-06
5 1 0.0385972 0.461578 0.593597 0 -5.72205e-06 -5.72205e-06
6 1 0.538597 0.461578 0.593597 0 -9.53674e-06 -9.53674e-06
7 1 0.809371 0.419998 0.0935966 0 -1.71661e-05 1.14441e-05
8 1 0.309372 0.419998 0.0935968 0 -2.86102e-05 7.62939e-06
9 1 0.726144 0.586578 0.593597 0 -5.72205e-06 0
10 1 0.226144 0.586578 0.593597 0 -1.14441e-05 5.72205e-06
11 1 0.913691 0.711577 0.593597 0 -9.53674e-06 7.62939e-06
12 1 0.413691 0.711577 0.593597 0 -5.72205e-06 1.90735e-06
13 1 0.684465 0.669998 0.0935976 0 -7.62939e-06 -3.8147e-06
14 1 0.996918 0.544999 0.0935971 0 -3.8147e-05 -3.8147e-06
15 1 0.496918 0.544999 0.0935967 0 -3.43323e-05 1.90735e-06
16 1 0.184465 0.669998 0.0935973 0 1.90735e-06 -5.72205e-06
17 1 0.601238 0.836576 0.593597 0 9.53674e-06 -5.72205e-06
18 1 0.101238 0.836576 0.593598 0 7.62939e-06 -9.53674e-06
19 1 0.788785 0.961576 0.593597 0 3.43323e-05 5.72205e-06
20 1 0.288785 0.961576 0.593597 0 3.62396e-05 9.53674e-06
21 1 0.872012 0.794997 0.0935968 0 -7.62939e-06 1.90735e-06
22 1 0.372012 0.794997 0.0935968 0 -2.09808e-05 7.62939e-06
23 1 0.559559 0.919996 0.0935972 0 3.24249e-05 -1.90735e-06
24 1 0.0595595 0.919996 0.0935973 0 3.05176e-05 -3.8147e-06
25 1 0.975958 0.0865761 0.593597 0 2.28882e-05 0
26 1 0.475958 0.0865763 0.593597 0 1.71661e-05 1.90735e-06
27 1 0.246733 0.0449965 0.0935972 0 -5.72205e-06 -5.72205e-06
28 1 0.746733 0.0449963 0.093597 0 0 -1.90735e-06
29 1 0.163504 0.211577 0.593597 0 -1.71661e-05 -3.8147e-06
30 1 0.663504 0.211577 0.593597 0 -1.90735e-05 0
31 1 0.934279 0.169996 0.093597 0 1.33514e-05 1.90735e-06
32 1 0.434279 0.169997 0.093597 0 5.72205e-06 1.90735e-06
ITEM: TIMESTEP
4
ITEM: NUMBER OF ATOMS
32
ITEM: BOX BOUNDS xy xz yz pp pp pp
-4.7826766967773438e-03 9.5989975333213806e+00 3.1996658444404602e+00
-3.7661075592041016e-02 2.2120539069175720e+01 0.0000000000000000e+00
-1.1393904685974121e-02 5.1938598752021790e+00 0.0000000000000000e+00
ITEM: ATOMS id type xs ys zs fx fy fz
1 1 0.85105 0.336578 0.593598 0 -9.53674e-06 -1.14441e-05
2 1 0.351051 0.336578 0.593598 0 -7.62939e-06 -9.53674e-06
3 1 0.121826 0.294997 0.0935968 0 2.67029e-05 7.62939e-06
4 1 0.621826 0.294997 0.0935969 0 2.28882e-05 7.62939e-06
5 1 0.0385972 0.461578 0.593597 0 -5.72205e-06 -5.72205e-06
6 1 0.538597 0.461578 0.593597 0 -9.53674e-06 -9.53674e-06
7 1 0.809371 0.419998 0.0935966 0 -1.71661e-05 1.14441e-05
8 1 0.309372 0.419998 0.0935968 0 -2.86102e-05 7.62939e-06
9 1 0.726144 0.586578 0.593597 0 -5.72205e-06 0
10 1 0.226144 0.586578 0.593597 0 -1.14441e-05 5.72205e-06
11 1 0.913691 0.711577 0.593597 0 -9.53674e-06 7.62939e-06
12 1 0.413691 0.711577 0.593597 0 -5.72205e-06 1.90735e-06
13 1 0.684465 0.669998 0.0935976 0 -7.62939e-06 -3.8147e-06
14 1 0.996918 0.544999 0.0935971 0 -3.8147e-05 -3.8147e-06
15 1 0.496918 0.544999 0.0935967 0 -3.43323e-05 1.90735e-06
16 1 0.184465 0.669998 0.0935973 0 1.90735e-06 -5.72205e-06
17 1 0.601238 0.836576 0.593597 0 9.53674e-06 -5.72205e-06
18 1 0.101238 0.836576 0.593598 0 7.62939e-06 -9.53674e-06
19 1 0.788785 0.961576 0.593597 0 3.43323e-05 5.72205e-06
20 1 0.288785 0.961576 0.593597 0 3.62396e-05 9.53674e-06
21 1 0.872012 0.794997 0.0935968 0 -7.62939e-06 1.90735e-06
22 1 0.372012 0.794997 0.0935968 0 -2.09808e-05 7.62939e-06
23 1 0.559559 0.919996 0.0935972 0 3.24249e-05 -1.90735e-06
24 1 0.0595595 0.919996 0.0935973 0 3.05176e-05 -3.8147e-06
25 1 0.975958 0.0865761 0.593597 0 2.28882e-05 0
26 1 0.475958 0.0865763 0.593597 0 1.71661e-05 1.90735e-06
27 1 0.246733 0.0449965 0.0935972 0 -5.72205e-06 -5.72205e-06
28 1 0.746733 0.0449963 0.093597 0 0 -1.90735e-06
29 1 0.163504 0.211577 0.593597 0 -1.71661e-05 -3.8147e-06
30 1 0.663504 0.211577 0.593597 0 -1.90735e-05 0
31 1 0.934279 0.169996 0.093597 0 1.33514e-05 1.90735e-06
32 1 0.434279 0.169997 0.093597 0 5.72205e-06 1.90735e-06
