ITEM: TIMESTEP
0
ITEM: NUMBER OF ATOMS
48
ITEM: BOX BOUNDS xy xz yz pp pp pp
-2.8696997737350509e+00 8.5889536499827912e+00 2.5120357483981479e+00
-2.3252728783138264e-03 9.4515407374878730e+00 -2.8781043050504098e+00
9.2526380721303085e-04 1.9516202358592782e+01 2.0640487290955647e-01
ITEM: ATOMS id type xs ys zs fx fy fz
1 1 0.936338 0.167048 0.0318988 0 0 0.678189
2 1 0.482966 0.074165 0.0529524 0 0 0.705142
3 1 0.347729 0.12485 0.656954 0 0 -0.000363861
4 1 0.454003 0.948828 0.927931 0 0 -0.678189
5 1 0.176607 0.157077 0.80274 0 0 -0.000927471
6 1 0.907375 0.0417114 0.906878 0 0 -0.705143
7 1 0.629794 0.249755 0.781855 0 0 -0.0270567
8 1 0.779493 0.208448 0.407115 0 0 -0.000951678
9 1 0.894747 0.0322453 0.677678 0 0 0.00764318
10 1 0.610848 0.240762 0.552715 0 0 0.0009531
11 1 0.760547 0.199455 0.177975 0 0 0.0270575
12 1 0.495594 0.083631 0.282152 0 0 -0.00764333
13 1 0.213733 0.292133 0.15709 0 0 0.000927977
14 1 0.326552 0.115898 0.427787 0 0 0.000710908
15 1 0.936338 0.500382 0.0318988 0 0 0.678189
16 1 0.482966 0.407498 0.0529524 0 0 0.705142
17 1 0.347729 0.458184 0.656954 0 0 -0.000363511
18 1 0.454003 0.282161 0.927931 0 0 -0.67819
19 1 0.176607 0.49041 0.80274 0 0 -0.000927517
20 1 0.907375 0.375045 0.906878 0 0 -0.705143
21 1 0.629794 0.583088 0.781855 0 0 -0.0270568
22 1 0.0637888 0.333312 0.532044 0 0 -0.000710693
23 1 0.779493 0.541781 0.407115 0 0 -0.000951571
24 1 0.894747 0.365579 0.677678 0 0 0.00764304
25 1 0.610848 0.574095 0.552715 0 0 0.000952663
26 1 0.0426116 0.324359 0.302876 0 0 0.000363612
27 1 0.760547 0.532788 0.177975 0 0 0.0270568
28 1 0.495594 0.416964 0.282152 0 0 -0.00764314
29 1 0.213733 0.625466 0.15709 0 0 0.000926329
30 1 0.326552 0.449231 0.427787 0 0 0.000709993
31 1 0.936338 0.833715 0.0318988 0 0 0.678189
32 1 0.482966 0.740832 0.0529524 0 0 0.705142
33 1 0.347729 0.791517 0.656954 0 0 -0.000364257
34 1 0.454003 0.615495 0.927931 0 0 -0.678189
35 1 0.176607 0.823743 0.80274 0 0 -0.000927603
36 1 0.907375 0.708378 0.906878 0 0 -0.705143
37 1 0.629794 0.916422 0.781855 0 0 -0.0270566
38 1 0.0637888 0.666645 0.532044 0 0 -0.000710401
39 1 0.779493 0.875115 0.407115 0 0 -0.00095175
40 1 0.894747 0.698912 0.677678 0 0 0.00764275
41 1 0.610848 0.907428 0.552715 0 0 0.000950038
42 1 0.0426116 0.657693 0.302876 0 0 0.00036581
43 1 0.760547 0.866121 0.177975 0 0 0.0270576
44 1 0.495594 0.750298 0.282152 0 0 -0.00764231
45 1 0.213733 0.9588 0.15709 0 0 0.000927787
46 1 0.326552 0.782564 0.427787 0 0 0.000710526
47 1 0.0637888 0.999979 0.532044 0 0 -0.00071107
48 1 0.0426117 0.991026 0.302876 0 0 0.000363788
ITEM: TIMESTEP
9
ITEM: NUMBER OF ATOMS
48
ITEM: BOX BOUNDS xy xz yz pp pp pp
-2.8696997737350509e+00 8.5889536499827912e+00 2.5120357483981479e+00
-2.3252728783138264e-03 9.4515407374878730e+00 -2.8781043050504098e+00
9.2526380721303085e-04 1.9516202358592782e+01 2.0640487290955647e-01
ITEM: ATOMS id type xs ys zs fx fy fz
1 1 0.939084 0.166922 0.0375785 0 0 -0.000131626
2 1 0.487209 0.0739692 0.0617275 0 0 0.000295304
3 1 0.34626 0.124918 0.653916 0 0 3.56991e-05
4 1 0.451257 0.948955 0.922252 0 0 0.000135131
5 1 0.174541 0.157172 0.798465 0 0 -9.5687e-05
6 1 0.903132 0.0419072 0.898103 0 0 -0.000298076
7 1 0.627151 0.249877 0.776389 0 0 -6.3728e-05
8 1 0.779878 0.20843 0.407912 0 0 -0.000229487
9 1 0.893483 0.0323037 0.675063 0 0 -0.00033076
10 1 0.610463 0.240779 0.551919 0 0 0.000230308
11 1 0.76319 0.199333 0.183441 0 0 6.65535e-05
12 1 0.496858 0.0835727 0.284767 0 0 0.00032951
13 1 0.2158 0.292038 0.161365 0 0 9.80515e-05
14 1 0.327068 0.115874 0.428854 0 0 2.50392e-05
15 1 0.939084 0.500255 0.0375786 0 0 -0.000133376
16 1 0.487209 0.407302 0.0617274 0 0 0.000297174
17 1 0.34626 0.458252 0.653916 0 0 3.453e-05
18 1 0.451257 0.282288 0.922252 0 0 0.000129927
19 1 0.174541 0.490505 0.798465 0 0 -9.67163e-05
20 1 0.903132 0.375241 0.898103 0 0 -0.000297551
21 1 0.627151 0.58321 0.776389 0 0 -6.67666e-05
22 1 0.0632729 0.333336 0.530977 0 0 -2.48615e-05
23 1 0.779878 0.541764 0.407912 0 0 -0.000232281
24 1 0.893483 0.365637 0.675064 0 0 -0.000332231
25 1 0.610463 0.574113 0.551919 0 0 0.000231334
26 1 0.0440807 0.324292 0.305914 0 0 -3.51814e-05
27 1 0.76319 0.532666 0.183441 0 0 6.71683e-05
28 1 0.496858 0.416906 0.284767 0 0 0.000331408
29 1 0.2158 0.625371 0.161365 0 0 9.68805e-05
30 1 0.327068 0.449207 0.428854 0 0 2.43204e-05
31 1 0.939084 0.833588 0.0375786 0 0 -0.000132321
32 1 0.487209 0.740636 0.0617274 0 0 0.000297031
33 1 0.34626 0.791585 0.653916 0 0 3.61536e-05
34 1 0.451257 0.615621 0.922252 0 0 0.000130781
35 1 0.174541 0.823839 0.798465 0 0 -9.84868e-05
36 1 0.903132 0.708574 0.898103 0 0 -0.000296513
37 1 0.627151 0.916544 0.776389 0 0 -6.80686e-05
38 1 0.0632729 0.666669 0.530977 0 0 -2.48549e-05
39 1 0.779878 0.875097 0.407912 0 0 -0.000231138
40 1 0.893483 0.69897 0.675064 0 0 -0.000329833
41 1 0.610463 0.907446 0.551919 0 0 0.000229603
42 1 0.0440807 0.657625 0.305914 0 0 -3.23423e-05
43 1 0.76319 0.865999 0.183441 0 0 6.60319e-05
44 1 0.496858 0.750239 0.284767 0 0 0.000330146
45 1 0.2158 0.958704 0.161365 0 0 9.76915e-05
46 1 0.327068 0.782541 0.428854 0 0 2.50505e-05
47 1 0.0632729 1 0.530977 0 0 -2.37213e-05
48 1 0.0440807 0.990958 0.305914 0 0 -3.5343e-05
