ITEM: TIMESTEP
0
ITEM: NUMBER OF ATOMS
56
ITEM: BOX BOUNDS xy xz yz pp pp pp
-3.5840123295783997e+00 1.2206987559795380e+01 -4.7683715820312500e-07
-7.5370073318481445e-03 5.5339480042457581e+00 -3.5621241331100464e+00
-3.2569408416748047e-02 1.9052529454231262e+01 2.8610229492187500e-06
ITEM: ATOMS id type xs ys zs fx fy fz
1 1 0.588128 1 0.132369 0 0.0384053 0.0253425
2 1 0.338128 0.166667 0.132369 0 -0.0384053 0.0253426
3 1 0.266635 1 0.275226 0 0.00215995 -8.70228e-06
4 1 0.0166346 0.166667 0.275226 0 -0.00216055 -8.46386e-06
5 1 0.945143 5.00995e-07 0.418084 0 -0.000158072 0.000574589
6 1 0.0881277 1 0.132369 0 0.0384055 0.0253427
7 1 0.998874 0.5 0.0609408 0 1.64226 1.12185
8 1 0.838128 0.166667 0.132369 0 -0.0384057 0.0253428
9 1 0.748874 0.666667 0.0609408 0 -1.64226 1.12185
10 1 0.766635 1 0.275226 0 0.00216031 -8.58307e-06
11 1 0.695143 0.166667 0.418084 0 0.000158548 0.000575185
12 1 0.623651 5.53965e-07 0.560941 0 -5.19753e-05 -0.000314116
13 1 0.373651 0.166667 0.560941 0 5.20945e-05 -0.000314236
14 1 0.30216 1.60387e-07 0.703798 0 -0.000585914 -0.00104332
15 1 0.0521598 0.166667 0.703798 0 0.00058651 -0.00104296
16 1 0.980667 1 0.846655 0 0.00513828 -0.00727201
17 1 0.677381 0.5 0.203798 0 0.00513804 0.00727189
18 1 0.516635 0.166667 0.275226 0 -0.00216019 -8.34465e-06
19 1 0.427381 0.666667 0.203798 0 -0.00513804 0.00727236
20 1 0.445143 5.02326e-07 0.418084 0 -0.000158191 0.000574589
21 1 0.355889 0.5 0.346655 0 -0.000586271 0.00104296
22 1 0.195143 0.166667 0.418084 0 0.000158429 0.000574946
23 1 0.105889 0.666667 0.346655 0 0.000586152 0.00104308
24 1 0.123651 5.42012e-07 0.560941 0 -5.14984e-05 -0.000314474
25 1 0.034397 0.500001 0.489512 0 -5.22137e-05 0.000314593
26 1 0.873651 0.166667 0.560941 0 5.22137e-05 -0.00031507
27 1 0.784397 0.666667 0.489512 0 5.1856e-05 0.000314593
28 1 0.498874 0.5 0.0609408 0 1.64226 1.12185
29 1 0.248874 0.666667 0.0609408 0 -1.64226 1.12185
30 1 0.177381 0.5 0.203798 0 0.00513852 0.00727189
31 1 0.927381 0.666667 0.203798 0 -0.00513828 0.00727236
32 1 0.855889 0.5 0.346655 0 -0.000586152 0.00104308
33 1 0.730667 0.166667 0.846655 0 -0.0051384 -0.00727189
34 1 0.659174 1 0.989512 0 1.64226 -1.12185
35 1 0.409174 0.166667 0.989512 0 -1.64226 -1.12185
36 1 0.80216 1.92026e-07 0.703798 0 -0.000586033 -0.0010432
37 1 0.712906 0.500001 0.632369 0 -0.000158548 -0.000574827
38 1 0.55216 0.166667 0.703798 0 0.000586629 -0.00104356
39 1 0.462906 0.666667 0.632369 0 0.000157952 -0.000574827
40 1 0.480667 1 0.846655 0 0.00513792 -0.00727189
41 1 0.391414 0.5 0.775226 0 0.00216043 8.58307e-06
42 1 0.230667 0.166667 0.846655 0 -0.00513768 -0.00727212
43 1 0.141414 0.666667 0.775226 0 -0.00216007 8.46386e-06
44 1 0.159174 1 0.989512 0 1.64226 -1.12185
45 1 0.0699207 0.5 0.918083 0 0.0384051 -0.0253428
46 1 0.605889 0.666667 0.346655 0 0.000585794 0.00104296
47 1 0.534397 0.500001 0.489512 0 -5.19753e-05 0.000314355
48 1 0.284397 0.666667 0.489512 0 5.16176e-05 0.000314355
49 1 0.212906 0.5 0.632369 0 -0.000158668 -0.000574708
50 1 0.962906 0.666667 0.632369 0 0.000157952 -0.000574589
51 1 0.891414 0.5 0.775226 0 0.00216043 8.58307e-06
52 1 0.909174 0.166667 0.989512 0 -1.64226 -1.12185
53 1 0.819921 0.666667 0.918083 0 -0.0384053 -0.0253421
54 1 0.641414 0.666667 0.775226 0 -0.00216019 8.46386e-06
55 1 0.569921 0.5 0.918083 0 0.0384054 -0.0253428
56 1 0.319921 0.666667 0.918083 0 -0.0384057 -0.0253426
ITEM: TIMESTEP
1
ITEM: NUMBER OF ATOMS
56
ITEM: BOX BOUNDS xy xz yz pp pp pp
-3.5840123295783997e+00 1.2206987559795380e+01 -4.7683715820312500e-07
-7.5370073318481445e-03 5.5339480042457581e+00 -3.5621241331100464e+00
-3.2569408416748047e-02 1.9052529454231262e+01 2.8610229492187500e-06
ITEM: ATOMS id type xs ys zs fx fy fz
1 1 0.588151 1.00042 0.13245 0 0.124611 -0.00552213
2 1 0.338151 0.166245 0.13245 0 -0.124612 -0.00552177
3 1 0.266635 1.00002 0.275226 0 0.00167286 0.00669336
4 1 0.0166346 0.166643 0.275226 0 -0.00167334 0.0066936
5 1 0.945143 -1.23595e-06 0.418085 0 -0.000502825 -0.00125623
6 1 0.0881512 1.00042 0.13245 0 0.124612 -0.00552201
7 1 0.999917 0.518045 0.0645201 0 0.684204 0.327473
8 1 0.838151 0.166245 0.13245 0 -0.124612 -0.00552166
9 1 0.749917 0.648622 0.0645201 0 -0.684204 0.327473
10 1 0.766635 1.00002 0.275226 0 0.0016731 0.00669301
11 1 0.695143 0.166668 0.418085 0 0.000503063 -0.00125623
12 1 0.623651 -1.71561e-08 0.56094 0 2.6226e-05 1.93119e-05
13 1 0.373651 0.166667 0.56094 0 -2.58684e-05 1.88351e-05
14 1 0.302159 -6.27783e-06 0.703794 0 -0.000945568 -0.00659704
15 1 0.0521588 0.166673 0.703794 0 0.000945568 -0.00659704
16 1 0.980661 1.00006 0.846632 0 -0.00803077 -0.0856895
17 1 0.677388 0.500056 0.203821 0 -0.00803018 0.0856897
18 1 0.516635 0.166643 0.275226 0 -0.00167298 0.00669384
19 1 0.427388 0.666611 0.203821 0 0.00803101 0.0856897
20 1 0.445143 -1.23593e-06 0.418085 0 -0.000502825 -0.00125623
21 1 0.355889 0.499994 0.346658 0 -0.000945926 0.00659704
22 1 0.195143 0.166668 0.418085 0 0.000503182 -0.00125623
23 1 0.10589 0.666673 0.346658 0 0.000945449 0.00659728
24 1 0.123651 -2.38701e-08 0.56094 0 2.63453e-05 1.85966e-05
25 1 0.0343973 0.5 0.489513 0 2.59876e-05 -1.89543e-05
26 1 0.873651 0.166667 0.56094 0 -2.61068e-05 1.78814e-05
27 1 0.784397 0.666667 0.489513 0 -2.61068e-05 -1.88351e-05
28 1 0.499917 0.518045 0.0645201 0 0.684204 0.327473
29 1 0.249917 0.648622 0.0645201 0 -0.684204 0.327472
30 1 0.177388 0.500056 0.203821 0 -0.00803041 0.0856895
31 1 0.927388 0.666611 0.203821 0 0.00803065 0.0856895
32 1 0.855889 0.499994 0.346658 0 -0.00094521 0.0065974
33 1 0.730661 0.166611 0.846632 0 0.00803018 -0.0856895
34 1 0.658131 1.01805 0.985933 0 0.684203 -0.327473
35 1 0.408131 0.148622 0.985933 0 -0.684204 -0.327472
36 1 0.802159 -6.2475e-06 0.703794 0 -0.000945568 -0.00659716
37 1 0.712905 0.499999 0.632367 0 -0.000503182 0.00125659
38 1 0.552159 0.166673 0.703794 0 0.000945687 -0.00659788
39 1 0.462905 0.666668 0.632367 0 0.000502706 0.00125647
40 1 0.480661 1.00006 0.846632 0 -0.00803113 -0.0856892
41 1 0.391414 0.500024 0.775226 0 0.00167322 -0.00669324
42 1 0.230661 0.166611 0.846632 0 0.00803077 -0.0856899
43 1 0.141414 0.666643 0.775226 0 -0.00167239 -0.00669336
44 1 0.158131 1.01805 0.985933 0 0.684203 -0.327473
45 1 0.0698971 0.500422 0.918003 0 0.124612 0.00552189
46 1 0.60589 0.666673 0.346658 0 0.000945091 0.00659704
47 1 0.534397 0.5 0.489513 0 2.61068e-05 -1.90735e-05
48 1 0.284397 0.666667 0.489513 0 -2.63453e-05 -1.88351e-05
49 1 0.212905 0.499999 0.632367 0 -0.000503182 0.00125659
50 1 0.962905 0.666668 0.632367 0 0.000502944 0.00125659
51 1 0.891414 0.500024 0.775226 0 0.0016731 -0.00669372
52 1 0.908131 0.148622 0.985933 0 -0.684204 -0.327473
53 1 0.819897 0.666245 0.918003 0 -0.124612 0.00552213
54 1 0.641414 0.666643 0.775226 0 -0.00167274 -0.00669348
55 1 0.569897 0.500422 0.918003 0 0.124612 0.00552189
56 1 0.319897 0.666245 0.918003 0 -0.124611 0.00552189
ITEM: TIMESTEP
2
ITEM: NUMBER OF ATOMS
56
ITEM: BOX BOUNDS xy xz yz pp pp pp
-3.5840123295783997e+00 1.2206987559795380e+01 -4.7683715820312500e-07
-7.5370073318481445e-03 5.5339480042457581e+00 -3.5621241331100464e+00
-3.2569408416748047e-02 1.9052529454231262e+01 2.8610229492187500e-06
ITEM: ATOMS id type xs ys zs fx fy fz
1 1 0.588139 1.00371 0.132408 0 0.196148 -0.00187051
2 1 0.338139 0.162959 0.132408 0 -0.196148 -0.0018698
3 1 0.266649 1.00007 0.275278 0 0.00213349 0.0101421
4 1 0.0166495 0.166599 0.275278 0 -0.00213277 0.0101416
5 1 0.94514 -1.44978e-05 0.418076 0 -0.0010004 -5.9247e-05
6 1 0.0881389 1.00371 0.132408 0 0.196148 -0.00187027
7 1 1.00065 0.536091 0.0670279 0 0.133539 -0.122602
8 1 0.838139 0.162959 0.132408 0 -0.196148 -0.00186968
9 1 0.750647 0.630576 0.0670279 0 -0.133539 -0.122602
10 1 0.766649 1.00007 0.275278 0 0.00213337 0.0101418
11 1 0.69514 0.166682 0.418076 0 0.00100017 -5.87702e-05
12 1 0.623651 6.74549e-07 0.56094 0 -0.000335455 -0.0015918
13 1 0.373651 0.166666 0.56094 0 0.000335455 -0.00159204
14 1 0.302144 -3.12169e-05 0.703744 0 -0.00172186 -0.0180749
15 1 0.0521441 0.166698 0.703744 0 0.00172222 -0.0180748
16 1 0.980469 0.999844 0.845976 0 -0.00588322 -0.123021
17 1 0.677579 0.499844 0.204477 0 -0.00588357 0.123021
18 1 0.516649 0.166599 0.275278 0 -0.00213289 0.0101418
19 1 0.427579 0.666823 0.204477 0 0.00588346 0.123021
20 1 0.44514 -1.44978e-05 0.418076 0 -0.00100029 -5.9247e-05
21 1 0.355904 0.499969 0.346709 0 -0.0017221 0.018075
22 1 0.19514 0.166682 0.418076 0 0.00100017 -5.88894e-05
23 1 0.105904 0.666698 0.346709 0 0.00172186 0.0180748
24 1 0.123651 6.70979e-07 0.56094 0 -0.000335693 -0.00159168
25 1 0.0343972 0.500001 0.489513 0 -0.000335336 0.00159204
26 1 0.873651 0.166666 0.56094 0 0.000335574 -0.00159192
27 1 0.784397 0.666666 0.489513 0 0.000335455 0.00159216
28 1 0.500647 0.536091 0.0670279 0 0.133538 -0.122602
29 1 0.250647 0.630576 0.0670279 0 -0.133539 -0.122603
30 1 0.177579 0.499844 0.204477 0 -0.00588334 0.12302
31 1 0.927579 0.666823 0.204477 0 0.00588346 0.123021
32 1 0.855904 0.499969 0.346709 0 -0.00172198 0.0180746
33 1 0.730469 0.166823 0.845976 0 0.00588334 -0.123021
34 1 0.657401 1.03609 0.983425 0 0.133539 0.122602
35 1 0.407401 0.130576 0.983425 0 -0.133539 0.122602
36 1 0.802144 -3.11866e-05 0.703744 0 -0.00172198 -0.0180749
37 1 0.712908 0.499985 0.632377 0 -0.00100005 5.88894e-05
38 1 0.552144 0.166698 0.703744 0 0.00172198 -0.0180748
39 1 0.462908 0.666682 0.632377 0 0.00100017 5.88894e-05
40 1 0.480469 0.999844 0.845976 0 -0.00588322 -0.123021
41 1 0.391399 0.500068 0.775175 0 0.00213313 -0.0101417
42 1 0.230469 0.166823 0.845976 0 0.00588346 -0.123021
43 1 0.141399 0.666599 0.775175 0 -0.00213313 -0.0101418
44 1 0.157401 1.03609 0.983425 0 0.133539 0.122603
45 1 0.0699095 0.503709 0.918045 0 0.196147 0.00186968
46 1 0.605904 0.666698 0.346709 0 0.00172186 0.0180748
47 1 0.534397 0.500001 0.489513 0 -0.000335336 0.00159192
48 1 0.284397 0.666666 0.489513 0 0.000335455 0.00159192
49 1 0.212908 0.499985 0.632377 0 -0.0010004 5.88894e-05
50 1 0.962908 0.666682 0.632377 0 0.00100005 5.90086e-05
51 1 0.891399 0.500068 0.775175 0 0.00213289 -0.0101415
52 1 0.907401 0.130576 0.983425 0 -0.133539 0.122602
53 1 0.819909 0.662959 0.918045 0 -0.196148 0.00187039
54 1 0.641399 0.666599 0.775175 0 -0.00213289 -0.010142
55 1 0.569909 0.503709 0.918045 0 0.196147 0.0018698
56 1 0.319909 0.662959 0.918045 0 -0.196148 0.00187039
ITEM: TIMESTEP
3
ITEM: NUMBER OF ATOMS
56
ITEM: BOX BOUNDS xy xz yz pp pp pp
-3.5840123295783997e+00 1.2206987559795380e+01 -4.7683715820312500e-07
-7.5370073318481445e-03 5.5339480042457581e+00 -3.5621241331100464e+00
-3.2569408416748047e-02 1.9052529454231262e+01 2.8610229492187500e-06
ITEM: ATOMS id type xs ys zs fx fy fz
1 1 0.588125 1.02129 0.132359 0 -0.00282967 0.0316501
2 1 0.338125 0.145378 0.132359 0 0.00282967 0.0316492
3 1 0.266726 1.00026 0.275542 0 0.00169253 0.0299782
4 1 0.0167264 0.166408 0.275542 0 -0.00169337 0.0299789
5 1 0.94514 -0.000104156 0.418074 0 -0.00185955 0.0120498
6 1 0.0881247 1.02129 0.132359 0 -0.00282967 0.0316497
7 1 0.999721 0.548105 0.063846 0 0.135164 0.0593005
8 1 0.838125 0.145378 0.132359 0 0.00282943 0.0316492
9 1 0.749721 0.618562 0.0638459 0 -0.135164 0.0593013
10 1 0.766726 1.00026 0.275542 0 0.00169253 0.0299785
11 1 0.69514 0.166771 0.418074 0 0.0018599 0.0120494
12 1 0.623639 -2.93749e-05 0.560898 0 -0.00293016 -0.0109261
13 1 0.373639 0.166696 0.560898 0 0.0029304 -0.0109257
14 1 0.302007 -0.000185538 0.703274 0 -0.00552571 -0.0536128
15 1 0.0520071 0.166853 0.703274 0 0.00552559 -0.0536129
16 1 0.979537 0.999317 0.842774 0 0.0750196 0.0922174
17 1 0.678512 0.499317 0.207679 0 0.0750209 -0.0922173
18 1 0.516726 0.166408 0.275542 0 -0.00169349 0.0299785
19 1 0.428512 0.66735 0.207679 0 -0.0750196 -0.0922174
20 1 0.44514 -0.000104145 0.418074 0 -0.00185978 0.0120502
21 1 0.356041 0.499814 0.347179 0 -0.00552547 0.0536129
22 1 0.19514 0.166771 0.418074 0 0.00185955 0.0120496
23 1 0.106041 0.666853 0.347179 0 0.00552583 0.0536128
24 1 0.123639 -2.93998e-05 0.560898 0 -0.00293016 -0.0109265
25 1 0.0344093 0.499971 0.489554 0 -0.00293076 0.0109259
26 1 0.873639 0.166696 0.560898 0 0.0029304 -0.0109259
27 1 0.784409 0.666696 0.489554 0 0.0029304 0.0109255
28 1 0.499721 0.548105 0.063846 0 0.135164 0.0593008
29 1 0.249721 0.618562 0.0638459 0 -0.135164 0.0593016
30 1 0.178512 0.499317 0.207679 0 0.0750206 -0.0922168
31 1 0.928512 0.66735 0.207679 0 -0.0750196 -0.0922173
32 1 0.856041 0.499814 0.347179 0 -0.00552559 0.0536133
33 1 0.729537 0.16735 0.842774 0 -0.0750202 0.092217
34 1 0.658328 1.04811 0.986607 0 0.135164 -0.0593015
35 1 0.408328 0.118562 0.986607 0 -0.135163 -0.0593003
36 1 0.802007 -0.000185519 0.703274 0 -0.00552559 -0.0536128
37 1 0.712908 0.499896 0.632379 0 -0.00185978 -0.012049
38 1 0.552007 0.166853 0.703274 0 0.00552535 -0.0536131
39 1 0.462908 0.666771 0.632379 0 0.00186002 -0.0120496
40 1 0.479537 0.999317 0.842774 0 0.0750203 0.0922172
41 1 0.391322 0.500259 0.774911 0 0.00169325 -0.0299788
42 1 0.229537 0.16735 0.842774 0 -0.0750203 0.092217
43 1 0.141322 0.666408 0.774911 0 -0.00169301 -0.0299786
44 1 0.158328 1.04811 0.986607 0 0.135164 -0.0593013
45 1 0.0699237 0.52129 0.918094 0 -0.00282955 -0.0316495
46 1 0.606041 0.666853 0.347179 0 0.00552559 0.0536126
47 1 0.534409 0.499971 0.489554 0 -0.00293052 0.0109259
48 1 0.284409 0.666696 0.489554 0 0.00293052 0.0109259
49 1 0.212908 0.499896 0.632379 0 -0.00185955 -0.0120493
50 1 0.962908 0.666771 0.632379 0 0.00186014 -0.0120494
51 1 0.891322 0.500259 0.774911 0 0.00169325 -0.0299791
52 1 0.908328 0.118562 0.986607 0 -0.135164 -0.0593004
53 1 0.819924 0.645378 0.918094 0 0.00282931 -0.0316498
54 1 0.641322 0.666408 0.774911 0 -0.00169337 -0.0299785
55 1 0.569924 0.52129 0.918094 0 -0.00282967 -0.031649
56 1 0.319924 0.645378 0.918094 0 0.00282907 -0.0316501
ITEM: TIMESTEP
4
ITEM: NUMBER OF ATOMS
56
ITEM: BOX BOUNDS xy xz yz pp pp pp
-3.5840123295783997e+00 1.2206987559795380e+01 -4.7683715820312500e-07
-7.5370073318481445e-03 5.5339480042457581e+00 -3.5621241331100464e+00
-3.2569408416748047e-02 1.9052529454231262e+01 2.8610229492187500e-06
ITEM: ATOMS id type xs ys zs fx fy fz
1 1 0.588285 1.02686 0.132909 0 0.01046 0.0261345
2 1 0.338285 0.139808 0.132909 0 -0.0104598 0.0261351
3 1 0.266908 1.00043 0.276164 0 0.0114337 0.0170889
4 1 0.0169076 0.166241 0.276164 0 -0.0114335 0.017089
5 1 0.945203 -0.000247964 0.418289 0 -0.00194871 0.01617
6 1 0.0882849 1.02686 0.132909 0 0.0104599 0.0261344
7 1 0.999727 0.560354 0.0638667 0 -0.0451571 -0.0559134
8 1 0.838285 0.139808 0.132909 0 -0.0104595 0.0261347
9 1 0.749727 0.606313 0.0638667 0 0.0451572 -0.0559139
10 1 0.766908 1.00043 0.276164 0 0.011434 0.0170887
11 1 0.695203 0.166915 0.418289 0 0.00194848 0.0161695
12 1 0.623578 -0.000219639 0.56069 0 -0.00491416 -0.014134
13 1 0.373578 0.166887 0.56069 0 0.00491381 -0.0141345
14 1 0.301683 -0.000576244 0.702161 0 0.00262666 7.10487e-05
15 1 0.0516831 0.167243 0.702161 0 -0.00262702 7.03335e-05
16 1 0.979712 1.00376 0.843377 0 0.0465412 0.0262223
17 1 0.678336 0.503764 0.207076 0 0.0465412 -0.0262223
18 1 0.516908 0.166241 0.276164 0 -0.011434 0.0170887
19 1 0.428336 0.662903 0.207076 0 -0.0465415 -0.0262219
20 1 0.445203 -0.000247965 0.418289 0 -0.00194883 0.0161692
21 1 0.356365 0.499424 0.348292 0 0.00262713 -7.10487e-05
22 1 0.195203 0.166915 0.418289 0 0.00194883 0.0161695
23 1 0.106365 0.667243 0.348291 0 -0.00262702 -7.04527e-05
24 1 0.123578 -0.000219671 0.56069 0 -0.00491393 -0.0141339
25 1 0.0344701 0.49978 0.489763 0 -0.00491381 0.0141343
26 1 0.873578 0.166887 0.56069 0 0.00491405 -0.0141346
27 1 0.78447 0.666887 0.489763 0 0.00491369 0.0141342
28 1 0.499727 0.560354 0.0638667 0 -0.0451568 -0.0559133
29 1 0.249727 0.606313 0.0638667 0 0.0451577 -0.055914
30 1 0.178336 0.503764 0.207076 0 0.0465411 -0.0262221
31 1 0.928336 0.662903 0.207076 0 -0.0465418 -0.0262216
32 1 0.856365 0.499424 0.348292 0 0.0026269 -7.08103e-05
33 1 0.729712 0.162903 0.843377 0 -0.0465416 0.0262219
34 1 0.658322 1.06035 0.986586 0 -0.0451574 0.0559142
35 1 0.408322 0.106313 0.986586 0 0.0451571 0.0559134
36 1 0.801683 -0.000576221 0.702161 0 0.0026269 7.05719e-05
37 1 0.712846 0.499752 0.632164 0 -0.00194883 -0.0161698
38 1 0.551683 0.167243 0.702161 0 -0.0026269 7.06911e-05
39 1 0.462846 0.666915 0.632164 0 0.00194871 -0.0161697
40 1 0.479712 1.00376 0.843377 0 0.0465411 0.0262223
41 1 0.391141 0.500426 0.774289 0 0.0114338 -0.0170891
42 1 0.229712 0.162903 0.843377 0 -0.0465413 0.026222
43 1 0.141141 0.666241 0.774289 0 -0.0114334 -0.0170888
44 1 0.158322 1.06035 0.986586 0 -0.045158 0.0559137
45 1 0.0697635 0.526859 0.917544 0 0.0104603 -0.0261343
46 1 0.606365 0.667243 0.348291 0 -0.00262642 -7.05719e-05
47 1 0.53447 0.49978 0.489763 0 -0.00491381 0.0141349
48 1 0.28447 0.666887 0.489763 0 0.00491405 0.0141342
49 1 0.212846 0.499752 0.632164 0 -0.00194848 -0.0161695
50 1 0.962846 0.666915 0.632164 0 0.00194883 -0.0161698
51 1 0.891141 0.500426 0.774289 0 0.0114338 -0.0170889
52 1 0.908322 0.106313 0.986586 0 0.0451567 0.0559134
53 1 0.819763 0.639808 0.917544 0 -0.0104597 -0.026135
54 1 0.641141 0.666241 0.774289 0 -0.0114336 -0.0170885
55 1 0.569763 0.526859 0.917544 0 0.01046 -0.0261347
56 1 0.319763 0.639808 0.917544 0 -0.01046 -0.0261348
ITEM: TIMESTEP
5
ITEM: NUMBER OF ATOMS
56
ITEM: BOX BOUNDS xy xz yz pp pp pp
-3.5840123295783997e+00 1.2206987559795380e+01 -4.7683715820312500e-07
-7.5370073318481445e-03 5.5339480042457581e+00 -3.5621241331100464e+00
-3.2569408416748047e-02 1.9052529454231262e+01 2.8610229492187500e-06
ITEM: ATOMS id type xs ys zs fx fy fz
1 1 0.588547 1.03006 0.133808 0 -0.0209855 0.00922251
2 1 0.338547 0.136611 0.133808 0 0.0209858 0.00922215
3 1 0.26711 1.00151 0.276858 0 0.0144037 0.00679338
4 1 0.0171099 0.165157 0.276858 0 -0.0144033 0.00679314
5 1 0.94535 -0.000479753 0.418794 0 -0.0028528 0.00246239
6 1 0.0885466 1.03006 0.133808 0 -0.0209852 0.00922263
7 1 0.999309 0.561325 0.0624317 0 -0.000265718 -0.00804794
8 1 0.838547 0.136611 0.133808 0 0.0209852 0.00922215
9 1 0.749309 0.605342 0.0624317 0 0.000265241 -0.00804794
10 1 0.76711 1.00151 0.276858 0 0.0144038 0.00679374
11 1 0.69535 0.167147 0.418794 0 0.00285304 0.00246251
12 1 0.623447 -0.000733986 0.56024 0 -0.00128019 0.00957322
13 1 0.373447 0.167401 0.56024 0 0.00128031 0.00957382
14 1 0.301552 -0.000501741 0.70171 0 0.00720572 0.0208857
15 1 0.0515518 0.167169 0.70171 0 -0.00720501 0.0208863
16 1 0.979981 1.00971 0.844299 0 0.000652313 -0.00776994
17 1 0.678067 0.509712 0.206154 0 0.000651598 0.00777006
18 1 0.51711 0.165157 0.276858 0 -0.0144027 0.0067935
19 1 0.428067 0.656955 0.206154 0 -0.000652194 0.00776958
20 1 0.44535 -0.000479768 0.418794 0 -0.00285244 0.00246334
21 1 0.356497 0.499498 0.348742 0 0.00720501 -0.0208858
22 1 0.19535 0.167147 0.418794 0 0.00285304 0.0024631
23 1 0.106497 0.667169 0.348742 0 -0.00720525 -0.0208864
24 1 0.123447 -0.000734 0.56024 0 -0.00127971 0.00957322
25 1 0.0346012 0.499266 0.490213 0 -0.00128019 -0.00957334
26 1 0.873447 0.167401 0.56024 0 0.00128007 0.00957382
27 1 0.784601 0.667401 0.490213 0 0.00128019 -0.00957322
28 1 0.499309 0.561325 0.0624317 0 -0.000265598 -0.00804806
29 1 0.249309 0.605342 0.0624317 0 0.000264645 -0.00804746
30 1 0.178067 0.509712 0.206154 0 0.000651479 0.00776994
31 1 0.928067 0.656955 0.206154 0 -0.000651598 0.00776923
32 1 0.856497 0.499498 0.348742 0 0.00720525 -0.0208858
33 1 0.729981 0.156955 0.844299 0 -0.00065136 -0.00776947
34 1 0.65874 1.06132 0.988021 0 -0.000265121 0.00804782
35 1 0.40874 0.105342 0.988021 0 0.000265241 0.0080477
36 1 0.801552 -0.000501694 0.70171 0 0.00720525 0.0208861
37 1 0.712699 0.49952 0.631659 0 -0.00285244 -0.00246346
38 1 0.551552 0.167169 0.70171 0 -0.00720501 0.0208861
39 1 0.462699 0.667147 0.631659 0 0.00285232 -0.00246274
40 1 0.479981 1.00971 0.844299 0 0.000652075 -0.00777042
41 1 0.390938 0.50151 0.773594 0 0.0144029 -0.00679243
42 1 0.229981 0.156955 0.844299 0 -0.000651479 -0.00776958
43 1 0.140938 0.665157 0.773594 0 -0.0144042 -0.0067935
44 1 0.15874 1.06132 0.988021 0 -0.000264525 0.0080477
45 1 0.0695017 0.530056 0.916645 0 -0.020986 -0.00922263
46 1 0.606497 0.667169 0.348742 0 -0.00720572 -0.0208858
47 1 0.534601 0.499266 0.490213 0 -0.00128019 -0.00957453
48 1 0.284601 0.667401 0.490213 0 0.00127935 -0.00957286
49 1 0.212699 0.49952 0.631659 0 -0.00285292 -0.0024631
50 1 0.962699 0.667147 0.631659 0 0.0028528 -0.00246298
51 1 0.890938 0.50151 0.773594 0 0.0144029 -0.00679302
52 1 0.90874 0.105342 0.988021 0 0.000265837 0.00804782
53 1 0.819502 0.636611 0.916645 0 0.0209849 -0.00922203
54 1 0.640938 0.665157 0.773594 0 -0.0144041 -0.0067935
55 1 0.569502 0.530056 0.916645 0 -0.0209854 -0.00922263
56 1 0.319502 0.636611 0.916645 0 0.0209858 -0.00922191
ITEM: TIMESTEP
6
ITEM: NUMBER OF ATOMS
56
ITEM: BOX BOUNDS xy xz yz pp pp pp
-3.5840123295783997e+00 1.2206987559795380e+01 -4.7683715820312500e-07
-7.5370073318481445e-03 5.5339480042457581e+00 -3.5621241331100464e+00
-3.2569408416748047e-02 1.9052529454231262e+01 2.8610229492187500e-06
ITEM: ATOMS id type xs ys zs fx fy fz
1 1 0.588644 1.02847 0.134143 0 -0.00541294 0.00597858
2 1 0.338644 0.138194 0.134143 0 0.00541198 0.00597835
3 1 0.267183 1.00293 0.277109 0 -0.000112653 -0.000507951
4 1 0.0171829 0.163735 0.277109 0 0.000112057 -0.00050807
5 1 0.945384 -0.000763161 0.418911 0 0.00178909 0.00243843
6 1 0.0886444 1.02847 0.134143 0 -0.00541317 0.00597847
7 1 0.999204 0.5614 0.0620722 0 0.00196767 0.0037334
8 1 0.838644 0.138194 0.134143 0 0.00541258 0.00597858
9 1 0.749204 0.605267 0.0620721 0 -0.0019666 0.00373352
10 1 0.767183 1.00293 0.277109 0 -0.000112653 -0.000508189
11 1 0.695384 0.16743 0.418911 0 -0.00178933 0.0024389
12 1 0.623507 -0.000903163 0.560447 0 0.000539422 0.0068233
13 1 0.373507 0.16757 0.560447 0 -0.000539541 0.0068233
14 1 0.301699 0.000161809 0.702216 0 0.00141037 -0.00361466
15 1 0.0516991 0.166505 0.702216 0 -0.00141096 -0.00361514
16 1 0.979949 1.01038 0.844188 0 -0.00845909 0.0116354
17 1 0.6781 0.51038 0.206265 0 -0.00845778 -0.0116358
18 1 0.517183 0.163735 0.277109 0 0.000112057 -0.00050807
19 1 0.4281 0.656287 0.206265 0 0.0084585 -0.0116358
20 1 0.445384 -0.000763146 0.418911 0 0.00178862 0.00243807
21 1 0.356349 0.500162 0.348237 0 0.00141084 0.0036149
22 1 0.195384 0.16743 0.418911 0 -0.00178981 0.00243819
23 1 0.106349 0.666505 0.348237 0 -0.00141001 0.00361526
24 1 0.123507 -0.000903132 0.560447 0 0.000538468 0.00682366
25 1 0.0345409 0.499097 0.490006 0 0.00053966 -0.00682354
26 1 0.873507 0.16757 0.560447 0 -0.000539064 0.00682271
27 1 0.784541 0.66757 0.490006 0 -0.000538826 -0.00682366
28 1 0.499204 0.5614 0.0620722 0 0.00196695 0.00373363
29 1 0.249204 0.605267 0.0620722 0 -0.00196564 0.00373316
30 1 0.1781 0.51038 0.206265 0 -0.0084573 -0.0116358
31 1 0.9281 0.656287 0.206265 0 0.00845778 -0.0116355
32 1 0.856349 0.500162 0.348237 0 0.00141084 0.00361502
33 1 0.729949 0.156287 0.844188 0 0.00845718 0.0116353
34 1 0.658844 1.0614 0.988381 0 0.00196683 -0.00373363
35 1 0.408844 0.105267 0.988381 0 -0.00196671 -0.00373352
36 1 0.801699 0.000161815 0.702216 0 0.0014106 -0.00361478
37 1 0.712665 0.499237 0.631542 0 0.00178862 -0.00243771
38 1 0.551699 0.166505 0.702216 0 -0.00141108 -0.0036149
39 1 0.462665 0.66743 0.631542 0 -0.00178874 -0.00243843
40 1 0.479949 1.01038 0.844188 0 -0.00845885 0.0116359
41 1 0.390865 0.502932 0.773344 0 -0.000111818 0.000507355
42 1 0.229949 0.156287 0.844188 0 0.00845754 0.0116359
43 1 0.140865 0.663735 0.773344 0 0.00011313 0.000507951
44 1 0.158844 1.0614 0.988381 0 0.00196576 -0.00373304
45 1 0.0694039 0.528473 0.916309 0 -0.00541222 -0.0059787
46 1 0.606349 0.666505 0.348237 0 -0.00141025 0.00361478
47 1 0.534541 0.499097 0.490006 0 0.000538945 -0.00682247
48 1 0.284541 0.66757 0.490006 0 -0.000538349 -0.00682378
49 1 0.212665 0.499237 0.631542 0 0.00178945 -0.00243807
50 1 0.962665 0.66743 0.631542 0 -0.00178921 -0.00243831
51 1 0.890865 0.502932 0.773344 0 -0.000111699 0.000507951
52 1 0.908844 0.105267 0.988381 0 -0.00196779 -0.00373375
53 1 0.819404 0.638194 0.916309 0 0.00541353 -0.00597799
54 1 0.640865 0.663735 0.773344 0 0.00011313 0.000507712
55 1 0.569404 0.528473 0.916309 0 -0.00541234 -0.00597799
56 1 0.319404 0.638194 0.916309 0 0.00541282 -0.00597847
ITEM: TIMESTEP
7
ITEM: NUMBER OF ATOMS
56
ITEM: BOX BOUNDS xy xz yz pp pp pp
-3.5840123295783997e+00 1.2206987559795380e+01 -4.7683715820312500e-07
-7.5370073318481445e-03 5.5339480042457581e+00 -3.5621241331100464e+00
-3.2569408416748047e-02 1.9052529454231262e+01 2.8610229492187500e-06
ITEM: ATOMS id type xs ys zs fx fy fz
1 1 0.588693 1.02787 0.13431 0 -0.00170445 -0.00186551
2 1 0.338693 0.138796 0.13431 0 0.00170505 -0.00186503
3 1 0.267191 1.00315 0.277138 0 -0.00506866 0.000692964
4 1 0.0171915 0.163521 0.277138 0 0.00506902 0.000692964
5 1 0.945403 -0.000689695 0.418976 0 0.00207746 0.00138617
6 1 0.0886929 1.02787 0.13431 0 -0.00170434 -0.00186551
7 1 0.999208 0.561541 0.0620874 0 -0.00321555 -0.00549972
8 1 0.838693 0.138796 0.13431 0 0.00170481 -0.00186491
9 1 0.749208 0.605126 0.0620874 0 0.00321496 -0.00549912
10 1 0.767191 1.00315 0.277138 0 -0.0050689 0.000693202
11 1 0.695403 0.167357 0.418976 0 -0.0020771 0.00138569
12 1 0.623555 -0.000894063 0.560609 0 0.000347257 -0.000756145
13 1 0.373555 0.167561 0.560609 0 -0.000346303 -0.000756621
14 1 0.301702 0.00035797 0.702226 0 -0.00015223 0.00184417
15 1 0.051702 0.166309 0.702226 0 0.00015223 0.00184417
16 1 0.980008 1.00993 0.844393 0 -0.00305915 0.000477791
17 1 0.67804 0.509929 0.20606 0 -0.00305986 -0.000478029
18 1 0.517191 0.163521 0.277138 0 0.00506926 0.000692964
19 1 0.42804 0.656739 0.20606 0 0.00305927 -0.000477672
20 1 0.445403 -0.000689706 0.418976 0 0.00207722 0.00138617
21 1 0.356346 0.500358 0.348227 0 -0.000152469 -0.00184417
22 1 0.195403 0.167357 0.418976 0 -0.00207686 0.00138581
23 1 0.106346 0.666309 0.348227 0 0.000151753 -0.00184429
24 1 0.123555 -0.000894087 0.560609 0 0.000347376 -0.000756502
25 1 0.0344936 0.499106 0.489844 0 0.000346303 0.000756145
26 1 0.873555 0.167561 0.560609 0 -0.000346422 -0.000755668
27 1 0.784494 0.667561 0.489844 0 -0.000347137 0.000756621
28 1 0.499208 0.561541 0.0620874 0 -0.00321531 -0.0054996
29 1 0.249208 0.605126 0.0620874 0 0.00321484 -0.00549901
30 1 0.17804 0.509928 0.20606 0 -0.00305986 -0.000478029
31 1 0.92804 0.656739 0.20606 0 0.00305974 -0.000477552
32 1 0.856346 0.500358 0.348227 0 -0.00015223 -0.00184464
33 1 0.730008 0.156739 0.844393 0 0.00305974 0.000478148
34 1 0.65884 1.06154 0.988365 0 -0.00321507 0.00549936
35 1 0.40884 0.105126 0.988365 0 0.00321519 0.00549948
36 1 0.801702 0.000357985 0.702226 0 -0.00015223 0.00184393
37 1 0.712646 0.49931 0.631477 0 0.0020771 -0.00138569
38 1 0.551702 0.166309 0.702226 0 0.000152469 0.00184381
39 1 0.462646 0.667357 0.631477 0 -0.00207722 -0.00138617
40 1 0.480008 1.00993 0.844393 0 -0.00305927 0.000478268
41 1 0.390857 0.503147 0.773315 0 -0.00506914 -0.000693083
42 1 0.230008 0.156739 0.844393 0 0.00305974 0.000477791
43 1 0.140857 0.663521 0.773314 0 0.00506902 -0.000692844
44 1 0.15884 1.06154 0.988365 0 -0.00321472 0.00549901
45 1 0.0693555 0.527871 0.916143 0 -0.00170529 0.00186551
46 1 0.606346 0.666309 0.348227 0 0.000152111 -0.00184417
47 1 0.534494 0.499106 0.489844 0 0.000346303 0.000755787
48 1 0.284494 0.667561 0.489844 0 -0.000347257 0.000756264
49 1 0.212646 0.49931 0.631477 0 0.00207686 -0.00138569
50 1 0.962646 0.667357 0.631477 0 -0.0020771 -0.0013864
51 1 0.890857 0.503147 0.773315 0 -0.00506914 -0.000692964
52 1 0.90884 0.105126 0.988365 0 0.00321579 0.00550008
53 1 0.819355 0.638796 0.916143 0 0.00170398 0.00186491
54 1 0.640857 0.663521 0.773314 0 0.00506878 -0.000692487
55 1 0.569355 0.527871 0.916143 0 -0.00170481 0.00186503
56 1 0.319355 0.638796 0.916143 0 0.00170445 0.00186503
ITEM: TIMESTEP
8
ITEM: NUMBER OF ATOMS
56
ITEM: BOX BOUNDS xy xz yz pp pp pp
-3.5840123295783997e+00 1.2206987559795380e+01 -4.7683715820312500e-07
-7.5370073318481445e-03 5.5339480042457581e+00 -3.5621241331100464e+00
-3.2569408416748047e-02 1.9052529454231262e+01 2.8610229492187500e-06
ITEM: ATOMS id type xs ys zs fx fy fz
1 1 0.588696 1.02752 0.13432 0 -0.00210321 -0.000104904
2 1 0.338696 0.139144 0.13432 0 0.00210273 -0.000105858
3 1 0.267199 1.00279 0.277165 0 -0.00176322 -0.000287175
4 1 0.0171993 0.163876 0.277165 0 0.00176263 -0.000286579
5 1 0.945419 -0.000489333 0.419032 0 -0.000394702 -0.00118756
6 1 0.0886959 1.02752 0.13432 0 -0.00210273 -0.000105143
7 1 0.999171 0.561317 0.0619576 0 0.00188828 0.00129139
8 1 0.838696 0.139144 0.13432 0 0.00210285 -0.000105739
9 1 0.749171 0.60535 0.0619576 0 -0.00188732 0.00129044
10 1 0.767199 1.00279 0.277165 0 -0.00176275 -0.00028789
11 1 0.695419 0.167156 0.419032 0 0.000394225 -0.00118732
12 1 0.623565 -0.000861646 0.560646 0 0.000666022 -0.000925899
13 1 0.373565 0.167529 0.560646 0 -0.000667095 -0.000925779
14 1 0.301716 0.000411399 0.702275 0 -0.00127363 0.00131106
15 1 0.0517162 0.166256 0.702275 0 0.00127423 0.00131142
16 1 0.980032 1.00952 0.844474 0 -0.000100017 -0.000289917
17 1 0.678016 0.509517 0.205979 0 -9.97782e-05 0.000290513
18 1 0.517199 0.163876 0.277165 0 0.00176203 -0.000286937
19 1 0.428016 0.65715 0.205979 0 0.000100374 0.000290751
20 1 0.445419 -0.000489373 0.419032 0 -0.000394225 -0.0011878
21 1 0.356332 0.500411 0.348178 0 -0.00127339 -0.00131154
22 1 0.195419 0.167156 0.419032 0 0.000394225 -0.00118792
23 1 0.106332 0.666256 0.348178 0 0.00127375 -0.00131106
24 1 0.123565 -0.000861679 0.560646 0 0.000666499 -0.000925303
25 1 0.034483 0.499138 0.489807 0 0.000667095 0.000926137
26 1 0.873565 0.167529 0.560646 0 -0.000667214 -0.000926018
27 1 0.784483 0.667529 0.489807 0 -0.000666499 0.00092566
28 1 0.499171 0.561317 0.0619576 0 0.00188839 0.00129104
29 1 0.249171 0.60535 0.0619576 0 -0.00188768 0.00129008
30 1 0.178016 0.509517 0.205979 0 -0.000100136 0.000290632
31 1 0.928016 0.65715 0.205979 0 0.000100136 0.000290036
32 1 0.856332 0.500411 0.348178 0 -0.00127387 -0.00131094
33 1 0.730032 0.15715 0.844474 0 9.98974e-05 -0.000290632