ITEM: TIMESTEP
0
ITEM: NUMBER OF ATOMS
32
ITEM: BOX BOUNDS xy xz yz pp pp pp
-3.4762620925903320e-03 7.4377087950706482e+00 1.0396791100502014e+00
-4.2882263660430908e-02 2.2125610172748566e+01 4.4107437133789062e-06
1.5788495540618896e-02 5.1666774749755859e+00 -1.5008449554443359e-04
ITEM: ATOMS id type xs ys zs fx fy fz
1 1 0.96455 0.33658 0.593597 0 0.00271225 -3.8147e-06
2 1 0.46455 0.33658 0.593597 0 0.00270844 -1.14441e-05
3 1 0.221304 0.294997 0.0935973 0 0.00244141 5.72205e-06
4 1 0.721303 0.294997 0.0935972 0 0.00243759 3.8147e-06
5 1 0.194249 0.461582 0.593597 0 0.000894547 -2.28882e-05
6 1 0.694249 0.461582 0.593597 0 0.000892639 -2.47955e-05
7 1 0.951002 0.419999 0.0935965 0 -0.00136185 1.52588e-05
8 1 0.451002 0.419999 0.0935967 0 -0.0013504 1.71661e-05
9 1 0.923948 0.586581 0.593597 0 0.00127411 0
10 1 0.423947 0.58658 0.593597 0 0.00127411 7.62939e-06
11 1 0.153647 0.711577 0.593597 0 -0.00240517 -5.72205e-06
12 1 0.653647 0.711577 0.593598 0 -0.00241089 -7.62939e-06
13 1 0.9104 0.67 0.0935966 0 -0.00276947 1.71661e-05
14 1 0.1807 0.545001 0.0935972 0 -0.00104713 1.71661e-05
15 1 0.680701 0.545001 0.0935972 0 -0.00104523 1.90735e-05
16 1 0.410399 0.67 0.0935969 0 -0.0027771 1.14441e-05
17 1 0.883346 0.836574 0.593597 0 0.0150852 0
18 1 0.383346 0.836574 0.593597 0 0.0150833 0
19 1 0.113045 0.961574 0.593597 0 -0.276712 4.00543e-05
20 1 0.613045 0.961574 0.593597 0 -0.276716 3.43323e-05
21 1 0.140099 0.794998 0.0935969 0 0.0153675 -1.90735e-06
22 1 0.640099 0.794998 0.093597 0 0.0153656 0
23 1 0.869798 0.919994 0.0935972 0 -0.515484 1.90735e-06
24 1 0.369798 0.919994 0.0935972 0 -0.515478 3.8147e-06
25 1 0.00515337 0.0865748 0.593597 0 0.5156 -9.53674e-06
26 1 0.505153 0.0865748 0.593597 0 0.515596 -9.53674e-06
27 1 0.261907 0.0449931 0.0935972 0 0.276819 -4.19617e-05
28 1 0.761907 0.0449931 0.0935972 0 0.276825 -4.00543e-05
29 1 0.234852 0.211577 0.593597 0 -0.0154705 -7.62939e-06
30 1 0.734852 0.211577 0.593597 0 -0.0154667 -5.72205e-06
31 1 0.991605 0.169994 0.0935969 0 -0.0149384 -1.90735e-06
32 1 0.491605 0.169994 0.093597 0 -0.0149441 0
ITEM: TIMESTEP
1
ITEM: NUMBER OF ATOMS
32
ITEM: BOX BOUNDS xy xz yz pp pp pp
-3.4762620925903320e-03 7.4377087950706482e+00 1.0396791100502014e+00
-4.2882263660430908e-02 2.2125610172748566e+01 4.4107437133789062e-06
1.5788495540618896e-02 5.1666774749755859e+00 -1.5008449554443359e-04
ITEM: ATOMS id type xs ys zs fx fy fz
1 1 0.964546 0.336603 0.593597 0 -0.00252342 -5.72205e-06
2 1 0.464546 0.336603 0.593597 0 -0.00252342 3.8147e-06
3 1 0.2213 0.295017 0.0935975 0 0.00284004 -1.14441e-05
4 1 0.7213 0.295017 0.0935973 0 0.00284004 -7.62939e-06
5 1 0.194247 0.461589 0.593596 0 0.0021534 1.33514e-05
6 1 0.694247 0.461589 0.593596 0 0.0021534 1.52588e-05
7 1 0.951004 0.419988 0.0935971 0 0.000232697 0
8 1 0.451004 0.419988 0.0935973 0 0.000219345 -3.8147e-06
9 1 0.923946 0.586591 0.593597 0 -0.000299454 0
10 1 0.423946 0.586591 0.593598 0 -0.000299454 -3.8147e-06
11 1 0.15365 0.711557 0.593597 0 -0.00279999 -1.90735e-06
12 1 0.65365 0.711557 0.593597 0 -0.00279808 -3.8147e-06
13 1 0.910403 0.669976 0.0935973 0 0.00243378 0
14 1 0.180702 0.544992 0.0935978 0 -0.00229073 -9.53674e-06
15 1 0.680702 0.544992 0.0935979 0 -0.00229263 -1.14441e-05
16 1 0.410403 0.669976 0.0935973 0 0.00244331 5.72205e-06
17 1 0.883326 0.836702 0.593597 0 -0.0961456 0
18 1 0.383325 0.836702 0.593597 0 -0.0961456 0
19 1 0.113426 0.959231 0.593598 0 0.0808449 2.67029e-05
20 1 0.613426 0.959231 0.593598 0 0.0808449 2.67029e-05
21 1 0.140077 0.795128 0.0935968 0 -0.105675 -7.62939e-06
22 1 0.640078 0.795128 0.093597 0 -0.105671 -9.53674e-06
23 1 0.870507 0.915628 0.0935973 0 -0.0472603 2.86102e-05
24 1 0.370507 0.915628 0.0935974 0 -0.047266 2.47955e-05
25 1 0.00444427 0.0909408 0.593597 0 0.04739 -3.24249e-05
26 1 0.504444 0.0909408 0.593597 0 0.0473919 -3.43323e-05
27 1 0.261526 0.0473372 0.0935956 0 -0.0807476 -2.47955e-05
28 1 0.761526 0.0473372 0.0935957 0 -0.0807457 -2.28882e-05
29 1 0.234873 0.211446 0.593597 0 0.105621 1.33514e-05
30 1 0.734873 0.211446 0.593597 0 0.105619 1.14441e-05
31 1 0.991626 0.169868 0.0935969 0 0.0962238 1.14441e-05
32 1 0.491626 0.169868 0.093597 0 0.0962315 9.53674e-06
ITEM: TIMESTEP
2
ITEM: NUMBER OF ATOMS
32
ITEM: BOX BOUNDS xy xz yz pp pp pp
-3.4762620925903320e-03 7.4377087950706482e+00 1.0396791100502014e+00
-4.2882263660430908e-02 2.2125610172748566e+01 4.4107437133789062e-06
1.5788495540618896e-02 5.1666774749755859e+00 -1.5008449554443359e-04
ITEM: ATOMS id type xs ys zs fx fy fz
1 1 0.964554 0.336555 0.593597 0 0.0543938 1.90735e-05
2 1 0.464554 0.336555 0.593597 0 0.0543861 9.53674e-06
3 1 0.22129 0.295081 0.0935965 0 0.0728512 2.28882e-05
4 1 0.72129 0.295081 0.0935966 0 0.0728455 1.90735e-05
5 1 0.19424 0.461636 0.593598 0 -0.00257683 -1.52588e-05
6 1 0.69424 0.461636 0.593598 0 -0.00258064 -2.09808e-05
7 1 0.951004 0.41999 0.0935972 0 0.00259018 -1.14441e-05
8 1 0.451003 0.41999 0.0935971 0 0.00260353 -9.53674e-06
9 1 0.923947 0.586587 0.593597 0 -0.00265694 0
10 1 0.423946 0.586587 0.593597 0 -0.00265312 -1.90735e-06
11 1 0.15366 0.711494 0.593597 0 -0.0729027 -7.62939e-06
12 1 0.65366 0.711494 0.593597 0 -0.0729065 -7.62939e-06
13 1 0.910396 0.670022 0.0935974 0 -0.0544853 0
14 1 0.18071 0.544942 0.0935971 0 0.00253868 9.53674e-06
15 1 0.68071 0.544942 0.093597 0 0.00253868 1.52588e-05
16 1 0.410396 0.670022 0.0935979 0 -0.0544872 -7.62939e-06
17 1 0.883647 0.834725 0.593597 0 0.0264454 1.90735e-06
18 1 0.383647 0.834725 0.593597 0 0.0264416 3.8147e-06
19 1 0.113234 0.960408 0.593601 0 0.00520325 1.14441e-05
20 1 0.613234 0.960408 0.593601 0 0.00520897 1.33514e-05
21 1 0.140431 0.792953 0.0935961 0 -0.0132561 1.52588e-05
22 1 0.640431 0.792953 0.0935962 0 -0.0132599 1.14441e-05
23 1 0.870821 0.913695 0.0935998 0 -0.00685692 -3.8147e-06
24 1 0.370821 0.913695 0.0935996 0 -0.00685501 1.90735e-06
25 1 0.0041298 0.092877 0.593594 0 0.00684166 0
26 1 0.50413 0.0928771 0.593594 0 0.00684547 5.72205e-06
27 1 0.261717 0.0461625 0.0935931 0 -0.0051136 -1.33514e-05
28 1 0.761717 0.0461626 0.0935933 0 -0.00511169 -1.14441e-05
29 1 0.23452 0.21362 0.593598 0 0.013361 -1.14441e-05
30 1 0.73452 0.21362 0.593598 0 0.0133591 -9.53674e-06
31 1 0.991305 0.171847 0.0935979 0 -0.0263691 -1.33514e-05
32 1 0.491304 0.171847 0.0935979 0 -0.0263824 -1.52588e-05
ITEM: TIMESTEP
3
ITEM: NUMBER OF ATOMS
32
ITEM: BOX BOUNDS xy xz yz pp pp pp
-3.4762620925903320e-03 7.4377087950706482e+00 1.0396791100502014e+00
-4.2882263660430908e-02 2.2125610172748566e+01 4.4107437133789062e-06
1.5788495540618896e-02 5.1666774749755859e+00 -1.5008449554443359e-04
ITEM: ATOMS id type xs ys zs fx fy fz
1 1 0.964377 0.337644 0.593598 0 0.0112972 -1.52588e-05
2 1 0.464377 0.337644 0.593598 0 0.0113106 -1.14441e-05
3 1 0.221047 0.29658 0.0935982 0 -0.00591087 -1.33514e-05
4 1 0.721046 0.29658 0.0935981 0 -0.00591278 -5.72205e-06
5 1 0.194246 0.461598 0.593597 0 0.0231457 -3.8147e-06
6 1 0.694246 0.461598 0.593596 0 0.0231438 3.8147e-06
7 1 0.950995 0.420044 0.0935962 0 0.0486279 2.67029e-05
8 1 0.450995 0.420044 0.0935962 0 0.0486259 2.86102e-05
9 1 0.923956 0.586532 0.593597 0 -0.0486546 -3.8147e-06
10 1 0.423955 0.586532 0.593597 0 -0.0486603 1.90735e-06
11 1 0.153904 0.709994 0.593596 0 0.00594711 1.33514e-05
12 1 0.653904 0.709994 0.593596 0 0.00595284 1.14441e-05
13 1 0.910573 0.668931 0.0935974 0 -0.0112438 -3.8147e-06
14 1 0.180704 0.544978 0.0935977 0 -0.0232182 -1.90735e-06
15 1 0.680704 0.544978 0.093598 0 -0.0232201 -7.62939e-06
16 1 0.410573 0.668931 0.0935975 0 -0.0112419 -3.8147e-06
17 1 0.883662 0.834632 0.593597 0 -0.00658226 5.72205e-06
18 1 0.383662 0.834631 0.593597 0 -0.00658417 0
19 1 0.113156 0.960888 0.593603 0 -0.010704 -9.53674e-06
20 1 0.613156 0.960889 0.593603 0 -0.010704 -7.62939e-06
21 1 0.140587 0.79199 0.0935972 0 -0.0104904 0
22 1 0.640587 0.79199 0.0935969 0 -0.0104904 5.72205e-06
23 1 0.870944 0.91294 0.0936003 0 0.0116425 3.05176e-05
24 1 0.370944 0.91294 0.0936005 0 0.0116405 2.47955e-05
25 1 0.00400701 0.0936331 0.593593 0 -0.0115757 -2.67029e-05
26 1 0.504007 0.0936332 0.593593 0 -0.0115814 -3.62396e-05
27 1 0.261794 0.0456842 0.0935911 0 0.0107327 7.62939e-06
28 1 0.761794 0.0456844 0.0935916 0 0.0107327 7.62939e-06
29 1 0.234363 0.214584 0.593597 0 0.010416 -1.14441e-05
30 1 0.734363 0.214584 0.593597 0 0.0104141 -9.53674e-06
31 1 0.991289 0.171942 0.093597 0 0.00657082 0
32 1 0.491289 0.171942 0.0935968 0 0.00657463 3.8147e-06
ITEM: TIMESTEP
4
ITEM: NUMBER OF ATOMS
32
ITEM: BOX BOUNDS xy xz yz pp pp pp
-3.4762620925903320e-03 7.4377087950706482e+00 1.0396791100502014e+00
-4.2882263660430908e-02 2.2125610172748566e+01 4.4107437133789062e-06
1.5788495540618896e-02 5.1666774749755859e+00 -1.5008449554443359e-04
ITEM: ATOMS id type xs ys zs fx fy fz
1 1 0.964293 0.338162 0.593597 0 0.00722694 1.90735e-06
2 1 0.464293 0.338162 0.593597 0 0.00722313 -3.8147e-06
3 1 0.220989 0.296934 0.0935977 0 0.00159073 -1.14441e-05
4 1 0.720989 0.296934 0.0935981 0 0.00160217 -1.71661e-05
5 1 0.194185 0.461975 0.593596 0 -0.0104084 3.62396e-05
6 1 0.694185 0.461974 0.593596 0 -0.0104065 4.00543e-05
7 1 0.95086 0.420874 0.0935978 0 0.00172424 -9.53674e-06
8 1 0.45086 0.420874 0.093598 0 0.00173187 -1.33514e-05
9 1 0.924091 0.585701 0.593597 0 -0.00172615 7.62939e-06
10 1 0.42409 0.585701 0.593597 0 -0.00172234 5.72205e-06
11 1 0.153961 0.70964 0.593597 0 -0.00160599 5.72205e-06
12 1 0.653961 0.70964 0.593597 0 -0.00160217 1.33514e-05
13 1 0.910657 0.668412 0.0935972 0 -0.00726128 5.72205e-06
14 1 0.180766 0.5446 0.0935977 0 0.0104141 -2.67029e-05
15 1 0.680766 0.5446 0.0935978 0 0.0104141 -3.05176e-05
16 1 0.410657 0.668413 0.093597 0 -0.007267 5.72205e-06
17 1 0.883684 0.834493 0.593597 0 -0.0089016 3.8147e-05
18 1 0.383684 0.834493 0.593597 0 -0.00889778 3.8147e-05
19 1 0.113162 0.960855 0.593603 0 -0.010498 1.90735e-05
20 1 0.613162 0.960855 0.593603 0 -0.0105057 2.09808e-05
21 1 0.140663 0.791524 0.0935975 0 0.00317764 -1.14441e-05
22 1 0.640663 0.791524 0.0935975 0 0.00317383 -1.14441e-05
23 1 0.870949 0.912906 0.0936027 0 -9.91821e-05 -1.14441e-05
24 1 0.370949 0.912906 0.0936026 0 -0.000101089 -1.14441e-05
25 1 0.00400134 0.093668 0.593591 0 9.15527e-05 1.33514e-05
26 1 0.504001 0.0936681 0.593591 0 9.91821e-05 1.71661e-05
27 1 0.261789 0.0457192 0.093591 0 0.0105095 -2.28882e-05
28 1 0.761789 0.0457194 0.0935916 0 0.0105057 -2.47955e-05
29 1 0.234288 0.215051 0.593596 0 -0.00314713 1.14441e-05
30 1 0.734288 0.21505 0.593597 0 -0.00313377 1.33514e-05
31 1 0.991266 0.172081 0.0935968 0 0.00889778 -4.3869e-05
32 1 0.491266 0.172081 0.0935968 0 0.0089016 -4.3869e-05
ITEM: TIMESTEP
5
ITEM: NUMBER OF ATOMS
32
ITEM: BOX BOUNDS xy xz yz pp pp pp
-3.4762620925903320e-03 7.4377087950706482e+00 1.0396791100502014e+00
-4.2882263660430908e-02 2.2125610172748566e+01 4.4107437133789062e-06
1.5788495540618896e-02 5.1666774749755859e+00 -1.5008449554443359e-04
ITEM: ATOMS id type xs ys zs fx fy fz
1 1 0.964266 0.338326 0.593597 0 -0.0057354 -9.53674e-06
2 1 0.464266 0.338326 0.593597 0 -0.00572777 0
3 1 0.22098 0.296992 0.0935969 0 0.00414467 1.90735e-05
4 1 0.720979 0.296992 0.0935969 0 0.00414276 1.52588e-05
5 1 0.194207 0.461838 0.593598 0 0.0018158 -2.67029e-05
6 1 0.694207 0.461838 0.593599 0 0.00182533 -3.43323e-05
7 1 0.950843 0.420976 0.0935973 0 0.00112534 1.71661e-05
8 1 0.450843 0.420976 0.0935972 0 0.00112343 1.90735e-05
9 1 0.924107 0.585599 0.593598 0 -0.00113869 -2.47955e-05
10 1 0.424107 0.585599 0.593597 0 -0.00113869 -2.67029e-05
11 1 0.153971 0.709583 0.593597 0 -0.00414276 -1.71661e-05
12 1 0.653971 0.709583 0.593598 0 -0.00415039 -1.90735e-05
13 1 0.910684 0.668248 0.0935976 0 0.00575066 3.8147e-06
14 1 0.180743 0.544737 0.0935958 0 -0.00181961 3.24249e-05
15 1 0.680744 0.544737 0.0935956 0 -0.00181961 3.8147e-05
16 1 0.410684 0.668248 0.0935974 0 0.00574875 1.90735e-06
17 1 0.88371 0.834335 0.5936 0 -0.00409317 -3.05176e-05
18 1 0.38371 0.834335 0.5936 0 -0.00408745 -2.67029e-05
19 1 0.11319 0.96068 0.593604 0 -0.00143623 -1.52588e-05
20 1 0.61319 0.96068 0.593604 0 -0.00143433 -1.71661e-05
21 1 0.140661 0.791534 0.0935968 0 -0.00321007 3.43323e-05
22 1 0.640661 0.791534 0.0935968 0 -0.00320816 4.19617e-05
23 1 0.87095 0.912901 0.0936021 0 0.00300026 3.62396e-05
24 1 0.37095 0.912901 0.0936019 0 0.00300217 3.8147e-05
25 1 0.00400059 0.0936726 0.593591 0 -0.00297546 -2.67029e-05
26 1 0.504 0.0936728 0.593592 0 -0.00298119 -3.62396e-05
27 1 0.26176 0.0458942 0.0935894 0 0.00143051 1.71661e-05
28 1 0.76176 0.0458943 0.0935899 0 0.00143242 1.14441e-05
29 1 0.234289 0.21504 0.593597 0 0.00319099 -3.24249e-05
30 1 0.734289 0.21504 0.593597 0 0.00318718 -4.19617e-05
31 1 0.991241 0.172239 0.0935937 0 0.00409126 2.67029e-05
32 1 0.49124 0.172239 0.0935937 0 0.00408745 3.24249e-05
ITEM: TIMESTEP
6
ITEM: NUMBER OF ATOMS
32
ITEM: BOX BOUNDS xy xz yz pp pp pp
-3.4762620925903320e-03 7.4377087950706482e+00 1.0396791100502014e+00
-4.2882263660430908e-02 2.2125610172748566e+01 4.4107437133789062e-06
1.5788495540618896e-02 5.1666774749755859e+00 -1.5008449554443359e-04
ITEM: ATOMS id type xs ys zs fx fy fz
1 1 0.964275 0.338276 0.593597 0 -0.000301361 2.28882e-05
2 1 0.464275 0.338276 0.593597 0 -0.000301361 2.09808e-05
3 1 0.220965 0.297082 0.0935981 0 0.00264549 -4.19617e-05
4 1 0.720965 0.297082 0.0935977 0 0.00263596 -3.24249e-05
5 1 0.194209 0.461828 0.593597 0 0.000379562 1.14441e-05
6 1 0.694209 0.461828 0.593597 0 0.000375748 1.90735e-05
7 1 0.950835 0.421026 0.0935985 0 -0.000389099 -3.24249e-05
8 1 0.450835 0.421026 0.0935984 0 -0.000394821 -2.86102e-05
9 1 0.924116 0.585548 0.593596 0 0.000392914 3.43323e-05
10 1 0.424115 0.585548 0.593596 0 0.000385284 4.3869e-05
11 1 0.153985 0.709492 0.593596 0 -0.0026474 4.3869e-05
12 1 0.653985 0.709492 0.593597 0 -0.00265121 4.00543e-05
13 1 0.910676 0.668299 0.093598 0 0.000303268 -2.86102e-05
14 1 0.180742 0.544747 0.0935977 0 -0.000389099 -2.67029e-05
15 1 0.680742 0.544746 0.0935979 0 -0.000368118 -2.09808e-05
16 1 0.410676 0.668299 0.0935977 0 0.000305176 -2.67029e-05
17 1 0.883729 0.834215 0.593599 0 0.000127792 3.05176e-05
18 1 0.383729 0.834215 0.593599 0 0.000133514 3.24249e-05
19 1 0.113203 0.960602 0.593603 0 0.000310898 3.8147e-05
20 1 0.613203 0.960602 0.593603 0 0.000312805 3.8147e-05
21 1 0.14067 0.791481 0.0935991 0 0.0016098 -2.09808e-05
22 1 0.64067 0.791481 0.0935997 0 0.00161171 -2.09808e-05
23 1 0.870942 0.912953 0.0936046 0 -0.00219345 -2.09808e-05
24 1 0.370942 0.912953 0.0936046 0 -0.00218964 -2.86102e-05
25 1 0.00400885 0.0936218 0.59359 0 0.00217438 9.53674e-06
26 1 0.504009 0.0936219 0.593589 0 0.00216484 2.67029e-05
27 1 0.261747 0.0459725 0.0935902 0 -0.000297546 -3.43323e-05
28 1 0.761747 0.0459726 0.0935902 0 -0.000303268 -3.05176e-05
29 1 0.234281 0.215093 0.593595 0 -0.00159454 1.33514e-05
30 1 0.734281 0.215093 0.593595 0 -0.00160408 1.90735e-05
31 1 0.991221 0.172359 0.0935947 0 -0.000123978 -2.09808e-05
32 1 0.491221 0.172359 0.0935952 0 -0.000120163 -2.86102e-05
ITEM: TIMESTEP
7
ITEM: NUMBER OF ATOMS
32
ITEM: BOX BOUNDS xy xz yz pp pp pp
-3.4762620925903320e-03 7.4377087950706482e+00 1.0396791100502014e+00
-4.2882263660430908e-02 2.2125610172748566e+01 4.4107437133789062e-06
1.5788495540618896e-02 5.1666774749755859e+00 -1.5008449554443359e-04
ITEM: ATOMS id type xs ys zs fx fy fz
1 1 0.964276 0.338266 0.593598 0 0.000185013 -2.47955e-05
2 1 0.464276 0.338266 0.593598 0 0.000173569 -1.90735e-05
3 1 0.220958 0.297124 0.093596 0 4.00543e-05 1.52588e-05
4 1 0.720958 0.297124 0.0935961 0 4.00543e-05 1.90735e-05
5 1 0.194208 0.461831 0.593598 0 -0.000104904 -2.09808e-05
6 1 0.694208 0.461832 0.593598 0 -0.000108719 -2.28882e-05
7 1 0.950835 0.421027 0.0935969 0 0.000377655 2.09808e-05
8 1 0.450835 0.421027 0.093597 0 0.000377655 1.90735e-05
9 1 0.924116 0.585547 0.593597 0 -0.000377655 -1.71661e-05
10 1 0.424115 0.585547 0.593598 0 -0.000368118 -2.47955e-05
11 1 0.153992 0.70945 0.593598 0 -4.95911e-05 -3.05176e-05
12 1 0.653992 0.70945 0.593599 0 -3.24249e-05 -1.90735e-05
13 1 0.910674 0.668308 0.0935965 0 -0.000181198 2.28882e-05
14 1 0.180742 0.544743 0.0935965 0 0.000104904 2.28882e-05
15 1 0.680742 0.544743 0.093597 0 9.53674e-05 2.09808e-05
16 1 0.410674 0.668308 0.0935963 0 -0.000177383 3.24249e-05
17 1 0.883731 0.834204 0.5936 0 -0.000421524 0
18 1 0.383731 0.834204 0.5936 0 -0.000427246 -7.62939e-06
19 1 0.113204 0.960597 0.593605 0 0.000934601 -1.90735e-06
20 1 0.613204 0.960597 0.593605 0 0.000919342 3.8147e-06
21 1 0.140668 0.791495 0.0935983 0 -0.000293732 2.28882e-05
22 1 0.640668 0.791495 0.0935989 0 -0.000297546 1.90735e-05
23 1 0.870945 0.912931 0.0936038 0 -0.000183105 1.71661e-05
24 1 0.370945 0.912931 0.0936034 0 -0.000181198 2.28882e-05
25 1 0.00400542 0.0936429 0.59359 0 0.000190735 -1.52588e-05
26 1 0.504005 0.0936429 0.59359 0 0.000192642 -1.33514e-05
27 1 0.261747 0.0459774 0.0935885 0 -0.000936508 3.8147e-06
28 1 0.761747 0.0459774 0.0935886 0 -0.000926971 -7.62939e-06
29 1 0.234283 0.215079 0.593595 0 0.000282288 -1.71661e-05
30 1 0.734283 0.215079 0.593595 0 0.000284195 -1.14441e-05
31 1 0.99122 0.17237 0.0935937 0 0.000434875 -5.72205e-06
32 1 0.491219 0.17237 0.0935938 0 0.000434875 -3.8147e-06
ITEM: TIMESTEP
8
ITEM: NUMBER OF ATOMS
32
ITEM: BOX BOUNDS xy xz yz pp pp pp
-3.4762620925903320e-03 7.4377087950706482e+00 1.0396791100502014e+00
-4.2882263660430908e-02 2.2125610172748566e+01 4.4107437133789062e-06
1.5788495540618896e-02 5.1666774749755859e+00 -1.5008449554443359e-04
ITEM: ATOMS id type xs ys zs fx fy fz
1 1 0.964276 0.338268 0.593596 0 0.000217438 2.67029e-05
2 1 0.464276 0.338268 0.593597 0 0.000226974 1.71661e-05
3 1 0.220957 0.29713 0.0935969 0 3.8147e-05 -2.09808e-05
4 1 0.720957 0.29713 0.0935973 0 4.3869e-05 -2.86102e-05
5 1 0.194208 0.46183 0.593596 0 -8.39233e-05 3.8147e-05
6 1 0.694208 0.46183 0.593596 0 -8.58307e-05 3.24249e-05
7 1 0.950834 0.421034 0.0935983 0 9.34601e-05 -3.43323e-05
8 1 0.450834 0.421034 0.0935983 0 9.15527e-05 -3.43323e-05
9 1 0.924117 0.585541 0.593596 0 -9.53674e-05 3.24249e-05
10 1 0.424116 0.585541 0.593596 0 -0.000106812 3.62396e-05
11 1 0.153993 0.709444 0.593596 0 -2.67029e-05 4.57764e-05
12 1 0.653993 0.709444 0.593597 0 -4.19617e-05 3.24249e-05
13 1 0.910675 0.668306 0.0935981 0 -0.000230789 -3.05176e-05
14 1 0.180742 0.544744 0.0935981 0 9.15527e-05 -2.67029e-05
15 1 0.680742 0.544744 0.0935985 0 9.34601e-05 -3.8147e-05
16 1 0.410674 0.668306 0.0935986 0 -0.000228882 -3.62396e-05
17 1 0.883733 0.834195 0.5936 0 0.000211716 1.33514e-05
18 1 0.383733 0.834195 0.5936 0 0.000207901 1.90735e-05
19 1 0.113201 0.960613 0.593605 0 -0.000175476 2.09808e-05
20 1 0.613201 0.960613 0.593606 0 -0.000164032 1.71661e-05
21 1 0.140668 0.791492 0.0935999 0 -0.000360489 -1.33514e-05
22 1 0.640668 0.791492 0.0936003 0 -0.000356674 -1.33514e-05
23 1 0.870946 0.912925 0.093605 0 -0.000326157 -7.62939e-06
24 1 0.370946 0.912925 0.093605 0 -0.000341415 -3.8147e-06
25 1 0.00400443 0.093649 0.593589 0 0.000333786 -5.72205e-06
26 1 0.504004 0.093649 0.593589 0 0.000326157 -1.33514e-05
27 1 0.261749 0.0459614 0.0935886 0 0.000183105 -1.52588e-05
28 1 0.761749 0.0459616 0.0935878 0 0.000169754 -9.53674e-06
29 1 0.234282 0.215083 0.593594 0 0.000368118 -1.90735e-06
30 1 0.734282 0.215083 0.593594 0 0.000366211 1.90735e-06
31 1 0.991218 0.17238 0.0935932 0 -0.00022316 -1.90735e-06
32 1 0.491218 0.17238 0.0935934 0 -0.00021553 1.90735e-06
ITEM: TIMESTEP
9
ITEM: NUMBER OF ATOMS
32
ITEM: BOX BOUNDS xy xz yz pp pp pp
-3.4762620925903320e-03 7.4377087950706482e+00 1.0396791100502014e+00
-4.2882263660430908e-02 2.2125610172748566e+01 4.4107437133789062e-06
1.5788495540618896e-02 5.1666774749755859e+00 -1.5008449554443359e-04
ITEM: ATOMS id type xs ys zs fx fy fz
1 1 0.964275 0.338274 0.593598 0 8.96454e-05 -4.57764e-05
2 1 0.464275 0.338274 0.593598 0 9.53674e-05 -4.19617e-05
3 1 0.220957 0.297133 0.0935953 0 4.95911e-05 1.52588e-05
4 1 0.720956 0.297134 0.0935951 0 4.19617e-05 3.05176e-05
5 1 0.194209 0.461828 0.593599 0 0.000152588 -6.86646e-05
6 1 0.694209 0.461828 0.593599 0 0.000160217 -6.67572e-05
7 1 0.950833 0.421038 0.0935956 0 -3.24249e-05 6.67572e-05
8 1 0.450833 0.421038 0.0935955 0 -3.05176e-05 6.10352e-05
9 1 0.924118 0.585536 0.593599 0 3.24249e-05 -6.48499e-05
10 1 0.424117 0.585536 0.593599 0 4.19617e-05 -6.48499e-05
11 1 0.153994 0.709441 0.5936 0 -4.95911e-05 -4.3869e-05
12 1 0.653994 0.709441 0.5936 0 -5.34058e-05 -4.19617e-05
13 1 0.910676 0.6683 0.0935958 0 -8.58307e-05 5.91278e-05
14 1 0.180742 0.544747 0.0935962 0 -0.000162125 5.91278e-05
15 1 0.680742 0.544747 0.0935955 0 -0.000162125 6.86646e-05
16 1 0.410675 0.6683 0.093596 0 -9.34601e-05 5.91278e-05
17 1 0.883733 0.834196 0.593602 0 -2.86102e-05 -5.72205e-06
18 1 0.383732 0.834196 0.593602 0 -3.24249e-05 0
19 1 0.113201 0.960615 0.593607 0 -5.91278e-05 -3.8147e-06
20 1 0.613201 0.960615 0.593608 0 -5.72205e-05 -7.62939e-06
21 1 0.14067 0.791483 0.0935993 0 -0.000137329 3.05176e-05
22 1 0.64067 0.791483 0.0935995 0 -0.000133514 2.86102e-05
23 1 0.870948 0.912916 0.0936047 0 0.000123978 2.86102e-05
24 1 0.370947 0.912916 0.0936052 0 0.000152588 2.09808e-05
25 1 0.00400291 0.0936584 0.593588 0 -0.000148773 1.90735e-06
26 1 0.504003 0.0936582 0.593588 0 -0.000133514 -1.90735e-06
27 1 0.26175 0.0459597 0.0935872 0 4.76837e-05 -9.53674e-06
28 1 0.76175 0.0459597 0.0935867 0 6.48499e-05 -5.72205e-06
29 1 0.234281 0.215092 0.593593 0 0.000137329 1.90735e-06
30 1 0.734281 0.215092 0.593594 0 0.000139236 -1.90735e-05
31 1 0.991218 0.172378 0.0935928 0 3.8147e-05 -1.33514e-05
32 1 0.491218 0.172378 0.0935934 0 3.24249e-05 -2.67029e-05
ITEM: TIMESTEP
10
ITEM: NUMBER OF ATOMS
32
ITEM: BOX BOUNDS xy xz yz pp pp pp
-3.4762620925903320e-03 7.4377087950706482e+00 1.0396791100502014e+00
-4.2882263660430908e-02 2.2125610172748566e+01 4.4107437133789062e-06
1.5788495540618896e-02 5.1666774749755859e+00 -1.5008449554443359e-04
ITEM: ATOMS id type xs ys zs fx fy fz
1 1 0.964275 0.338276 0.593595 0 8.96454e-05 4.00543e-05
2 1 0.464275 0.338276 0.593595 0 8.01086e-05 3.8147e-05
3 1 0.220956 0.297135 0.093596 0 3.43323e-05 -3.05176e-05
4 1 0.720956 0.297135 0.0935967 0 3.62396e-05 -4.3869e-05
5 1 0.194208 0.46183 0.593595 0 3.24249e-05 7.24792e-05
6 1 0.694208 0.46183 0.593595 0 3.62396e-05 8.2016e-05
7 1 0.950833 0.421038 0.0935995 0 -2.09808e-05 -6.86646e-05
8 1 0.450833 0.421038 0.0935991 0 -2.09808e-05 -6.10352e-05
9 1 0.924118 0.585536 0.593595 0 2.28882e-05 6.29425e-05
10 1 0.424117 0.585536 0.593595 0 1.71661e-05 6.29425e-05
11 1 0.153994 0.70944 0.593598 0 -4.00543e-05 4.57764e-05
12 1 0.653994 0.70944 0.593598 0 -2.28882e-05 4.19617e-05
13 1 0.910676 0.668298 0.0935993 0 -7.43866e-05 -4.19617e-05
14 1 0.180742 0.544745 0.0935997 0 -3.43323e-05 -7.43866e-05
15 1 0.680742 0.544745 0.0935994 0 -3.62396e-05 -7.62939e-05
16 1 0.410676 0.668298 0.0935995 0 -7.82013e-05 -4.57764e-05
17 1 0.883733 0.834196 0.593601 0 -6.29425e-05 1.90735e-05
18 1 0.383733 0.834196 0.593602 0 -5.91278e-05 1.71661e-05
19 1 0.113201 0.960614 0.593607 0 -4.00543e-05 9.53674e-06
20 1 0.613201 0.960614 0.593607 0 -3.62396e-05 0
21 1 0.14067 0.791479 0.0936011 0 4.19617e-05 -3.8147e-06
22 1 0.64067 0.791479 0.0936013 0 3.24249e-05 -1.90735e-06
23 1 0.870948 0.912917 0.0936065 0 1.52588e-05 -3.8147e-06
24 1 0.370947 0.912917 0.0936066 0 -9.53674e-06 -1.90735e-06
25 1 0.00400303 0.0936576 0.593588 0 3.8147e-06 -1.33514e-05
26 1 0.504003 0.0936577 0.593587 0 -1.90735e-06 -1.14441e-05
27 1 0.261749 0.0459601 0.0935863 0 4.00543e-05 1.90735e-06
28 1 0.761749 0.0459603 0.0935861 0 2.86102e-05 0
29 1 0.23428 0.215095 0.593593 0 -5.14984e-05 -1.33514e-05
30 1 0.73428 0.215095 0.593593 0 -4.57764e-05 0
31 1 0.991218 0.172378 0.0935919 0 6.67572e-05 0
32 1 0.491218 0.172379 0.0935916 0 5.72205e-05 -1.90735e-06
ITEM: TIMESTEP
11
ITEM: NUMBER OF ATOMS
32
ITEM: BOX BOUNDS xy xz yz pp pp pp
-3.4762620925903320e-03 7.4377087950706482e+00 1.0396791100502014e+00
-4.2882263660430908e-02 2.2125610172748566e+01 4.4107437133789062e-06
1.5788495540618896e-02 5.1666774749755859e+00 -1.5008449554443359e-04
ITEM: ATOMS id type xs ys zs fx fy fz
1 1 0.964274 0.338278 0.593597 0 -3.8147e-06 -1.33514e-05
2 1 0.464274 0.338278 0.593597 0 -5.72205e-06 -1.14441e-05
3 1 0.220956 0.297135 0.0935945 0 1.90735e-06 7.62939e-06
4 1 0.720956 0.297135 0.0935947 0 1.90735e-06 1.14441e-05
5 1 0.194208 0.461831 0.593598 0 1.14441e-05 -1.90735e-05
6 1 0.694208 0.461831 0.593598 0 1.90735e-06 -2.47955e-05
7 1 0.950833 0.421038 0.0935967 0 1.71661e-05 2.28882e-05
8 1 0.450833 0.421038 0.0935966 0 1.52588e-05 2.28882e-05
9 1 0.924118 0.585536 0.593598 0 -1.52588e-05 -1.71661e-05
10 1 0.424117 0.585536 0.593598 0 -1.71661e-05 -2.09808e-05
11 1 0.153994 0.709439 0.5936 0 -1.90735e-06 -5.72205e-06
12 1 0.653994 0.709439 0.593599 0 -9.53674e-06 5.72205e-06
13 1 0.910676 0.668296 0.0935978 0 -3.8147e-06 1.90735e-06
14 1 0.180742 0.544744 0.0935965 0 -3.8147e-06 1.52588e-05
15 1 0.680742 0.544744 0.0935962 0 1.90735e-06 2.47955e-05
16 1 0.410676 0.668296 0.0935978 0 3.8147e-06 3.8147e-06
17 1 0.883733 0.834195 0.593603 0 -4.00543e-05 1.90735e-05
18 1 0.383733 0.834195 0.593603 0 -4.00543e-05 1.33514e-05
19 1 0.113201 0.960614 0.593608 0 -1.90735e-05 -1.90735e-06
20 1 0.613201 0.960614 0.593607 0 -1.90735e-05 5.72205e-06
21 1 0.14067 0.791479 0.0936014 0 2.67029e-05 9.53674e-06
22 1 0.64067 0.791479 0.0936016 0 3.43323e-05 -1.90735e-06
23 1 0.870948 0.912917 0.0936068 0 -2.86102e-05 5.72205e-06
24 1 0.370947 0.912917 0.0936069 0 -1.90735e-05 7.62939e-06
25 1 0.00400305 0.0936575 0.593587 0 1.52588e-05 -7.62939e-06
26 1 0.504003 0.0936575 0.593587 0 1.71661e-05 -7.62939e-06
27 1 0.261749 0.0459608 0.0935862 0 1.90735e-05 -1.90735e-06
28 1 0.761749 0.0459609 0.0935859 0 1.71661e-05 1.90735e-06
29 1 0.23428 0.215096 0.593593 0 -1.71661e-05 -9.53674e-06
30 1 0.73428 0.215096 0.593593 0 -2.47955e-05 -1.33514e-05
31 1 0.991218 0.172379 0.0935916 0 3.8147e-05 -1.71661e-05
32 1 0.491218 0.172379 0.0935911 0 4.57764e-05 -5.72205e-06
ITEM: TIMESTEP
12
ITEM: NUMBER OF ATOMS
32
ITEM: BOX BOUNDS xy xz yz pp pp pp
-3.4762620925903320e-03 7.4377087950706482e+00 1.0396791100502014e+00
-4.2882263660430908e-02 2.2125610172748566e+01 4.4107437133789062e-06
1.5788495540618896e-02 5.1666774749755859e+00 -1.5008449554443359e-04
ITEM: ATOMS id type xs ys zs fx fy fz
1 1 0.964274 0.338278 0.593597 0 -3.8147e-06 -1.33514e-05
2 1 0.464274 0.338278 0.593597 0 -5.72205e-06 -1.14441e-05
3 1 0.220956 0.297135 0.0935945 0 1.90735e-06 7.62939e-06
4 1 0.720956 0.297135 0.0935947 0 1.90735e-06 1.14441e-05
5 1 0.194208 0.461831 0.593598 0 1.14441e-05 -1.90735e-05
6 1 0.694208 0.461831 0.593598 0 1.90735e-06 -2.47955e-05
7 1 0.950833 0.421038 0.0935967 0 1.71661e-05 2.28882e-05
8 1 0.450833 0.421038 0.0935966 0 1.52588e-05 2.28882e-05
9 1 0.924118 0.585536 0.593598 0 -1.52588e-05 -1.71661e-05
10 1 0.424117 0.585536 0.593598 0 -1.71661e-05 -2.09808e-05
11 1 0.153994 0.709439 0.5936 0 -1.90735e-06 -5.72205e-06
12 1 0.653994 0.709439 0.593599 0 -9.53674e-06 5.72205e-06
13 1 0.910676 0.668296 0.0935978 0 -3.8147e-06 1.90735e-06
14 1 0.180742 0.544744 0.0935965 0 -3.8147e-06 1.52588e-05
15 1 0.680742 0.544744 0.0935962 0 1.90735e-06 2.47955e-05
16 1 0.410676 0.668296 0.0935978 0 3.8147e-06 3.8147e-06
17 1 0.883733 0.834195 0.593603 0 -4.00543e-05 1.90735e-05
18 1 0.383733 0.834195 0.593603 0 -4.00543e-05 1.33514e-05
19 1 0.113201 0.960614 0.593608 0 -1.90735e-05 -1.90735e-06
20 1 0.613201 0.960614 0.593607 0 -1.90735e-05 5.72205e-06
21 1 0.14067 0.791479 0.0936014 0 2.67029e-05 9.53674e-06
22 1 0.64067 0.791479 0.0936016 0 3.43323e-05 -1.90735e-06
23 1 0.870948 0.912917 0.0936068 0 -2.86102e-05 5.72205e-06
24 1 0.370947 0.912917 0.0936069 0 -1.90735e-05 7.62939e-06
25 1 0.00400305 0.0936575 0.593587 0 1.52588e-05 -7.62939e-06
26 1 0.504003 0.0936575 0.593587 0 1.71661e-05 -7.62939e-06
27 1 0.261749 0.0459608 0.0935862 0 1.90735e-05 -1.90735e-06
28 1 0.761749 0.0459609 0.0935859 0 1.71661e-05 1.90735e-06
29 1 0.23428 0.215096 0.593593 0 -1.71661e-05 -9.53674e-06
30 1 0.73428 0.215096 0.593593 0 -2.47955e-05 -1.33514e-05
31 1 0.991218 0.172379 0.0935916 0 3.8147e-05 -1.71661e-05
32 1 0.491218 0.172379 0.0935911 0 4.57764e-05 -5.72205e-06
