ITEM: TIMESTEP
0
ITEM: NUMBER OF ATOMS
48
ITEM: BOX BOUNDS xy xz yz pp pp pp
-2.6791310906410217e+00 8.6067802309989929e+00 2.5094206929206848e+00
-9.4973444938659668e-03 9.3236122131347656e+00 -2.6670939922332764e+00
-2.8691649436950684e-02 1.9545819282531738e+01 7.1304261684417725e-02
ITEM: ATOMS id type xs ys zs fx fy fz
1 1 0.935579 0.16703 0.0320218 0 0 0.546432
2 1 0.481295 0.0738739 0.0528103 0 0 0.634687
3 1 0.310525 0.125314 0.657023 0 0 0.000810623
4 1 0.406061 0.948847 0.927808 0 0 -0.546431
5 1 0.131191 0.157156 0.802805 0 0 0.00466156
6 1 0.860345 0.0420026 0.90702 0 0 -0.634684
7 1 0.585471 0.250315 0.78202 0 0 -0.00839233
8 1 0.760422 0.208712 0.407029 0 0 0.000638962
9 1 0.856248 0.0321465 0.677802 0 0 0.00183678
10 1 0.581218 0.240498 0.552801 0 0 -0.000631332
11 1 0.756169 0.198895 0.17781 0 0 0.00839043
12 1 0.485392 0.0837297 0.282028 0 0 -0.00183868
13 1 0.210449 0.292053 0.157025 0 0 -0.00466347
14 1 0.306147 0.115534 0.427803 0 0 -0.00053215
15 1 0.935579 0.500363 0.0320219 0 0 0.546421
16 1 0.481295 0.407207 0.0528103 0 0 0.634686
17 1 0.310525 0.458648 0.657023 0 0 0.000812531
18 1 0.40606 0.28218 0.927808 0 0 -0.546434
19 1 0.131191 0.49049 0.802805 0 0 0.00466537
20 1 0.860345 0.375336 0.90702 0 0 -0.634672
21 1 0.585471 0.583648 0.78202 0 0 -0.00839233
22 1 0.0354934 0.333676 0.532027 0 0 0.000528336
23 1 0.760422 0.542046 0.407029 0 0 0.00063324
24 1 0.856248 0.36548 0.677802 0 0 0.00184059
25 1 0.581218 0.573831 0.552801 0 0 -0.000635147
26 1 0.031115 0.323895 0.302807 0 0 -0.000808716
27 1 0.756169 0.532228 0.17781 0 0 0.00839233
28 1 0.485392 0.417063 0.282028 0 0 -0.00183487
29 1 0.210449 0.625387 0.157025 0 0 -0.00466347
30 1 0.306147 0.448867 0.427803 0 0 -0.00053215
31 1 0.935579 0.833696 0.0320219 0 0 0.546421
32 1 0.481295 0.740541 0.0528104 0 0 0.634678
33 1 0.310525 0.791981 0.657023 0 0 0.000808716
34 1 0.40606 0.615514 0.927808 0 0 -0.546429
35 1 0.131191 0.823823 0.802805 0 0 0.00466919
36 1 0.860345 0.708669 0.90702 0 0 -0.634682
37 1 0.585471 0.916981 0.78202 0 0 -0.00839043
38 1 0.0354931 0.667009 0.532027 0 0 0.000526428
39 1 0.760422 0.875379 0.407029 0 0 0.00063324
40 1 0.856248 0.698813 0.677802 0 0 0.00183487
41 1 0.581218 0.907164 0.552801 0 0 -0.000629425
42 1 0.0311149 0.657228 0.302807 0 0 -0.000810623
43 1 0.756169 0.865562 0.17781 0 0 0.00839233
44 1 0.485392 0.750396 0.282028 0 0 -0.00183678
45 1 0.210449 0.95872 0.157026 0 0 -0.00466919
46 1 0.306147 0.782201 0.427803 0 0 -0.000526428
47 1 0.0354929 0.000342385 0.532027 0 0 0.000526428
48 1 0.0311151 0.990562 0.302807 0 0 -0.000808716
ITEM: TIMESTEP
1
ITEM: NUMBER OF ATOMS
48
ITEM: BOX BOUNDS xy xz yz pp pp pp
-2.6791310906410217e+00 8.6067802309989929e+00 2.5094206929206848e+00
-9.4973444938659668e-03 9.3236122131347656e+00 -2.6670939922332764e+00
-2.8691649436950684e-02 1.9545819282531738e+01 7.1304261684417725e-02
ITEM: ATOMS id type xs ys zs fx fy fz
1 1 0.937513 0.166996 0.0364201 0 0 -0.00573349
2 1 0.483541 0.0738346 0.057919 0 0 0.0808792
3 1 0.310528 0.125314 0.657029 0 0 -0.00507355
4 1 0.404127 0.948881 0.92341 0 0 0.0057373
5 1 0.131208 0.157156 0.802842 0 0 -0.11142
6 1 0.858098 0.0420419 0.901911 0 0 -0.0808811
7 1 0.585442 0.250315 0.781953 0 0 -0.130514
8 1 0.760424 0.208712 0.407034 0 0 -0.00235558
9 1 0.856255 0.0321464 0.677817 0 0 -0.00117493
10 1 0.581216 0.240498 0.552796 0 0 0.00235748
11 1 0.756198 0.198894 0.177878 0 0 0.130512
12 1 0.485385 0.0837298 0.282014 0 0 0.00117302
13 1 0.210432 0.292054 0.156988 0 0 0.111423
14 1 0.306145 0.115534 0.427799 0 0 -0.00210762
15 1 0.937513 0.500329 0.0364201 0 0 -0.00572968
16 1 0.483541 0.407168 0.057919 0 0 0.0808792
17 1 0.310528 0.458648 0.657029 0 0 -0.00506973
18 1 0.404126 0.282214 0.92341 0 0 0.00573349
19 1 0.131208 0.49049 0.802842 0 0 -0.111425
20 1 0.858099 0.375375 0.901911 0 0 -0.0808811
21 1 0.585442 0.583649 0.781953 0 0 -0.130516
22 1 0.0354952 0.333676 0.532031 0 0 0.00210762
23 1 0.760424 0.542045 0.407034 0 0 -0.00235748
24 1 0.856255 0.36548 0.677817 0 0 -0.00117874
25 1 0.581216 0.573831 0.552796 0 0 0.00235939
26 1 0.0311122 0.323895 0.302801 0 0 0.00506973
27 1 0.756198 0.532228 0.177878 0 0 0.130514
28 1 0.485385 0.417063 0.282014 0 0 0.00117493
29 1 0.210432 0.625387 0.156988 0 0 0.11142
30 1 0.306145 0.448867 0.427799 0 0 -0.00210571
31 1 0.937513 0.833662 0.0364202 0 0 -0.00572968
32 1 0.483541 0.740501 0.057919 0 0 0.080883
33 1 0.310527 0.791981 0.657029 0 0 -0.00506973
34 1 0.404126 0.615548 0.92341 0 0 0.00573349
35 1 0.131208 0.823823 0.802842 0 0 -0.111427
36 1 0.858098 0.708709 0.901911 0 0 -0.0808754
37 1 0.585442 0.916982 0.781953 0 0 -0.130516
38 1 0.035495 0.667009 0.532031 0 0 0.00210381
39 1 0.760424 0.875379 0.407034 0 0 -0.00235939
40 1 0.856254 0.698813 0.677817 0 0 -0.00117111
41 1 0.581215 0.907164 0.552796 0 0 0.00236511
42 1 0.0311121 0.657229 0.302801 0 0 0.00507164
43 1 0.756198 0.865561 0.177878 0 0 0.130508
44 1 0.485385 0.750397 0.282014 0 0 0.00117302
45 1 0.210432 0.95872 0.156988 0 0 0.111423
46 1 0.306145 0.782201 0.427799 0 0 -0.00210953
47 1 0.0354947 0.000342353 0.532031 0 0 0.00210762
48 1 0.0311123 0.990562 0.302801 0 0 0.00507164
ITEM: TIMESTEP
2
ITEM: NUMBER OF ATOMS
48
ITEM: BOX BOUNDS xy xz yz pp pp pp
-2.6791310906410217e+00 8.6067802309989929e+00 2.5094206929206848e+00
-9.4973444938659668e-03 9.3236122131347656e+00 -2.6670939922332764e+00
-2.8691649436950684e-02 1.9545819282531738e+01 7.1304261684417725e-02
ITEM: ATOMS id type xs ys zs fx fy fz
1 1 0.937446 0.166997 0.036268 0 0 0.0108204
2 1 0.484485 0.0738181 0.0600656 0 0 0.0455971
3 1 0.310469 0.125315 0.656895 0 0 -0.0746918
4 1 0.404194 0.94888 0.923562 0 0 -0.010828
5 1 0.129908 0.157179 0.799885 0 0 0.0207424
6 1 0.857154 0.0420584 0.899764 0 0 -0.0455894
7 1 0.583918 0.250342 0.778489 0 0 0.0140991
8 1 0.760397 0.208713 0.406972 0 0 0.00385666
9 1 0.856241 0.0321466 0.677785 0 0 -0.0678635
10 1 0.581243 0.240497 0.552858 0 0 -0.00385475
11 1 0.757721 0.198868 0.181342 0 0 -0.0140934
12 1 0.485399 0.0837295 0.282045 0 0 0.0678673
13 1 0.211732 0.292031 0.159945 0 0 -0.0207462
14 1 0.30612 0.115534 0.427743 0 0 0.00689507
15 1 0.937446 0.50033 0.0362681 0 0 0.0108166
16 1 0.484485 0.407151 0.0600657 0 0 0.0455952
17 1 0.310469 0.458649 0.656895 0 0 -0.0746956
18 1 0.404193 0.282213 0.923562 0 0 -0.0108204
19 1 0.129907 0.490512 0.799885 0 0 0.0207539
20 1 0.857155 0.375392 0.899764 0 0 -0.0455933
21 1 0.583918 0.583675 0.778489 0 0 0.0140972
22 1 0.0355198 0.333675 0.532087 0 0 -0.00689507
23 1 0.760397 0.542046 0.406972 0 0 0.00385475
24 1 0.856241 0.36548 0.677785 0 0 -0.0678558
25 1 0.581243 0.57383 0.552858 0 0 -0.00385857
26 1 0.0311714 0.323894 0.302935 0 0 0.0746975
27 1 0.757721 0.532201 0.181342 0 0 -0.0140934
28 1 0.485399 0.417063 0.282045 0 0 0.0678635
29 1 0.211732 0.625364 0.159945 0 0 -0.0207462
30 1 0.30612 0.448868 0.427743 0 0 0.00689125
31 1 0.937446 0.833664 0.0362681 0 0 0.0108185
32 1 0.484485 0.740485 0.0600658 0 0 0.0455875
33 1 0.310468 0.791982 0.656895 0 0 -0.0746994
34 1 0.404193 0.615546 0.923562 0 0 -0.0108223
35 1 0.129907 0.823846 0.799885 0 0 0.020752
36 1 0.857155 0.708725 0.899765 0 0 -0.045599
37 1 0.583918 0.917009 0.778489 0 0 0.014101
38 1 0.0355196 0.667009 0.532087 0 0 -0.00688744
39 1 0.760397 0.875379 0.406972 0 0 0.00386047
40 1 0.856241 0.698813 0.677785 0 0 -0.0678749
41 1 0.581243 0.907164 0.552859 0 0 -0.0038662
42 1 0.0311712 0.657227 0.302935 0 0 0.0746994
43 1 0.757722 0.865534 0.181342 0 0 -0.0140953
44 1 0.485399 0.750396 0.282045 0 0 0.0678673
45 1 0.211733 0.958697 0.159945 0 0 -0.0207481
46 1 0.30612 0.782201 0.427743 0 0 0.00688934
47 1 0.0355193 0.000341922 0.532087 0 0 -0.00689697
48 1 0.0311715 0.990561 0.302935 0 0 0.0746918
ITEM: TIMESTEP
3
ITEM: NUMBER OF ATOMS
48
ITEM: BOX BOUNDS xy xz yz pp pp pp
-2.6791310906410217e+00 8.6067802309989929e+00 2.5094206929206848e+00
-9.4973444938659668e-03 9.3236122131347656e+00 -2.6670939922332764e+00
-2.8691649436950684e-02 1.9545819282531738e+01 7.1304261684417725e-02
ITEM: ATOMS id type xs ys zs fx fy fz
1 1 0.937531 0.166995 0.0364606 0 0 -0.0374126
2 1 0.485214 0.0738053 0.0617238 0 0 -0.0372314
3 1 0.309726 0.125328 0.655205 0 0 -0.0132084
4 1 0.404109 0.948881 0.92337 0 0 0.0374222
5 1 0.129714 0.157182 0.799445 0 0 -0.0154324
6 1 0.856425 0.0420712 0.898106 0 0 0.0372276
7 1 0.583593 0.250348 0.777748 0 0 -0.0161037
8 1 0.760426 0.208712 0.407038 0 0 0.0307217
9 1 0.855578 0.0321582 0.676278 0 0 -0.0119286
10 1 0.581214 0.240498 0.552792 0 0 -0.0307178
11 1 0.758047 0.198862 0.182082 0 0 0.0161037
12 1 0.486062 0.0837179 0.283552 0 0 0.0119247
13 1 0.211926 0.292027 0.160385 0 0 0.0154324
14 1 0.30618 0.115533 0.427878 0 0 0.0345459
15 1 0.937531 0.500329 0.0364606 0 0 -0.0374203
16 1 0.485214 0.407139 0.0617238 0 0 -0.0372295
17 1 0.309726 0.458662 0.655205 0 0 -0.0132084
18 1 0.404109 0.282214 0.92337 0 0 0.0374203
19 1 0.129714 0.490516 0.799445 0 0 -0.0154381
20 1 0.856426 0.375405 0.898106 0 0 0.0372276
21 1 0.583593 0.583681 0.777748 0 0 -0.0160999
22 1 0.0354604 0.333676 0.531952 0 0 -0.0345421
23 1 0.760426 0.542045 0.407038 0 0 0.0307178
24 1 0.855578 0.365492 0.676278 0 0 -0.0119286
25 1 0.581214 0.573831 0.552792 0 0 -0.0307255
26 1 0.0319143 0.323881 0.304625 0 0 0.0131989
27 1 0.758047 0.532195 0.182082 0 0 0.0160999
28 1 0.486062 0.417051 0.283552 0 0 0.0119362
29 1 0.211926 0.625361 0.160385 0 0 0.0154381
30 1 0.30618 0.448867 0.427878 0 0 0.0345421
31 1 0.937531 0.833662 0.0364607 0 0 -0.037426
32 1 0.485214 0.740472 0.0617237 0 0 -0.0372314
33 1 0.309725 0.791995 0.655205 0 0 -0.0131969
34 1 0.404109 0.615548 0.92337 0 0 0.0374203
35 1 0.129714 0.823849 0.799445 0 0 -0.0154343
36 1 0.856425 0.708738 0.898106 0 0 0.0372334
37 1 0.583593 0.917014 0.777748 0 0 -0.0161037
38 1 0.0354602 0.66701 0.531952 0 0 -0.0345459
39 1 0.760426 0.875379 0.407038 0 0 0.0307178
40 1 0.855578 0.698825 0.676278 0 0 -0.0119171
41 1 0.581214 0.907164 0.552792 0 0 -0.0307217
42 1 0.0319142 0.657214 0.304625 0 0 0.0131931
43 1 0.758047 0.865529 0.182082 0 0 0.0161152
44 1 0.486062 0.750385 0.283552 0 0 0.011919
45 1 0.211926 0.958694 0.160385 0 0 0.0154305
46 1 0.30618 0.7822 0.427878 0 0 0.0345554
47 1 0.0354599 0.000342963 0.531952 0 0 -0.0345421
48 1 0.0319144 0.990548 0.304625 0 0 0.0132027
ITEM: TIMESTEP
4
ITEM: NUMBER OF ATOMS
48
ITEM: BOX BOUNDS xy xz yz pp pp pp
-2.6791310906410217e+00 8.6067802309989929e+00 2.5094206929206848e+00
-9.4973444938659668e-03 9.3236122131347656e+00 -2.6670939922332764e+00
-2.8691649436950684e-02 1.9545819282531738e+01 7.1304261684417725e-02
ITEM: ATOMS id type xs ys zs fx fy fz
1 1 0.937247 0.167 0.0358159 0 0 0.0121593
2 1 0.485202 0.0738055 0.0616966 0 0 -0.000221252
3 1 0.309302 0.125336 0.654241 0 0 0.00359154
4 1 0.404392 0.948876 0.924014 0 0 -0.0121593
5 1 0.129501 0.157186 0.798962 0 0 -0.00404358
6 1 0.856437 0.042071 0.898134 0 0 0.00021553
7 1 0.583319 0.250353 0.777126 0 0 -0.000497818
8 1 0.7607 0.208707 0.407661 0 0 0.00737381
9 1 0.855199 0.0321649 0.675415 0 0 0.00161934
10 1 0.58094 0.240502 0.552169 0 0 -0.00737572
11 1 0.758321 0.198857 0.182705 0 0 0.000490189
12 1 0.486441 0.0837113 0.284415 0 0 -0.00161552
13 1 0.212138 0.292024 0.160869 0 0 0.00404358
14 1 0.306499 0.115528 0.428605 0 0 0.00915718
15 1 0.937247 0.500334 0.0358158 0 0 0.0121632
16 1 0.485202 0.407139 0.0616966 0 0 -0.000217438
17 1 0.309302 0.458669 0.654241 0 0 0.00359726
18 1 0.404392 0.28221 0.924014 0 0 -0.0121593
19 1 0.129501 0.49052 0.798962 0 0 -0.00405121
20 1 0.856437 0.375404 0.898134 0 0 0.000217438
21 1 0.583319 0.583686 0.777126 0 0 -0.000497818
22 1 0.035141 0.333682 0.531226 0 0 -0.00916481
23 1 0.7607 0.542041 0.407661 0 0 0.00737762
24 1 0.855199 0.365498 0.675415 0 0 0.00161934
25 1 0.58094 0.573835 0.552169 0 0 -0.00737
26 1 0.0323381 0.323874 0.305589 0 0 -0.00358772
27 1 0.758321 0.53219 0.182705 0 0 0.000490189
28 1 0.486441 0.417045 0.284415 0 0 -0.00162506
29 1 0.212138 0.625357 0.160869 0 0 0.00403214
30 1 0.306499 0.448861 0.428605 0 0 0.00916862
31 1 0.937247 0.833667 0.0358157 0 0 0.0121689
32 1 0.485202 0.740472 0.0616965 0 0 -0.000209808
33 1 0.309302 0.792002 0.654241 0 0 0.00359344
34 1 0.404392 0.615543 0.924014 0 0 -0.0121613
35 1 0.129501 0.823853 0.798961 0 0 -0.00404358
36 1 0.856437 0.708738 0.898134 0 0 0.00021553
37 1 0.583319 0.917019 0.777126 0 0 -0.000499725
38 1 0.0351407 0.667015 0.531226 0 0 -0.00916481
39 1 0.7607 0.875374 0.407661 0 0 0.00736809
40 1 0.855198 0.698832 0.675415 0 0 0.00162506
41 1 0.58094 0.907169 0.552169 0 0 -0.00737
42 1 0.032338 0.657207 0.305589 0 0 -0.00357819
43 1 0.758321 0.865524 0.182705 0 0 0.000490189
44 1 0.486441 0.750378 0.284415 0 0 -0.00161934
45 1 0.212139 0.95869 0.160869 0 0 0.00403976
46 1 0.306499 0.782195 0.428605 0 0 0.00915146
47 1 0.0351404 0.000348556 0.531225 0 0 -0.00915527
48 1 0.0323382 0.99054 0.305589 0 0 -0.00358009
ITEM: TIMESTEP
5
ITEM: NUMBER OF ATOMS
48
ITEM: BOX BOUNDS xy xz yz pp pp pp
-2.6791310906410217e+00 8.6067802309989929e+00 2.5094206929206848e+00
-9.4973444938659668e-03 9.3236122131347656e+00 -2.6670939922332764e+00
-2.8691649436950684e-02 1.9545819282531738e+01 7.1304261684417725e-02
ITEM: ATOMS id type xs ys zs fx fy fz
1 1 0.937324 0.166999 0.0359905 0 0 0.0038147
2 1 0.4852 0.0738055 0.0616922 0 0 -0.0041256
3 1 0.309314 0.125336 0.654268 0 0 -0.00252533
4 1 0.404316 0.948878 0.92384 0 0 -0.00382042
5 1 0.129466 0.157187 0.798882 0 0 -0.00213432
6 1 0.856439 0.042071 0.898138 0 0 0.00412178
7 1 0.583307 0.250353 0.777098 0 0 -0.000293732
8 1 0.76076 0.208706 0.407799 0 0 -0.00272942
9 1 0.855198 0.0321649 0.675414 0 0 -0.00321198
10 1 0.58088 0.240503 0.552031 0 0 0.00273132
11 1 0.758333 0.198857 0.182732 0 0 0.000299454
12 1 0.486442 0.0837113 0.284416 0 0 0.00321198
13 1 0.212174 0.292023 0.160949 0 0 0.00214005
14 1 0.306574 0.115527 0.428774 0 0 -0.0023613
15 1 0.937324 0.500332 0.0359904 0 0 0.00382805
16 1 0.4852 0.407139 0.0616923 0 0 -0.0041256
17 1 0.309314 0.458669 0.654268 0 0 -0.00252724
18 1 0.404315 0.282211 0.92384 0 0 -0.00382233
19 1 0.129466 0.49052 0.798881 0 0 -0.00213432
20 1 0.856439 0.375404 0.898138 0 0 0.0041256
21 1 0.583307 0.583686 0.777098 0 0 -0.000297546
22 1 0.0350663 0.333683 0.531056 0 0 0.00236702
23 1 0.760761 0.54204 0.407799 0 0 -0.00273132
24 1 0.855198 0.365498 0.675414 0 0 -0.00321579
25 1 0.580879 0.573836 0.552031 0 0 0.00272942
26 1 0.0323262 0.323874 0.305562 0 0 0.00252914
27 1 0.758333 0.53219 0.182732 0 0 0.000293732
28 1 0.486442 0.417045 0.284416 0 0 0.00321388
29 1 0.212174 0.625356 0.160949 0 0 0.00214386
30 1 0.306574 0.44886 0.428774 0 0 -0.00236893
31 1 0.937324 0.833666 0.0359905 0 0 0.00382423
32 1 0.4852 0.740472 0.0616922 0 0 -0.00412369
33 1 0.309314 0.792002 0.654269 0 0 -0.00252724
34 1 0.404315 0.615544 0.92384 0 0 -0.00382233
35 1 0.129466 0.823853 0.798881 0 0 -0.00214005
36 1 0.856439 0.708738 0.898138 0 0 0.00411797
37 1 0.583307 0.917019 0.777098 0 0 -0.000303268
38 1 0.0350661 0.667017 0.531056 0 0 0.0023632
39 1 0.76076 0.875373 0.407799 0 0 -0.00272942
40 1 0.855198 0.698832 0.675414 0 0 -0.00321579
41 1 0.580879 0.90717 0.552031 0 0 0.00273132
42 1 0.0323261 0.657207 0.305562 0 0 0.00252533
43 1 0.758333 0.865524 0.182732 0 0 0.000295639
44 1 0.486442 0.750378 0.284416 0 0 0.00321198
45 1 0.212174 0.95869 0.160949 0 0 0.00214577
46 1 0.306574 0.782193 0.428774 0 0 -0.0023613
47 1 0.0350659 0.000349862 0.531056 0 0 0.00235939
48 1 0.0323263 0.990541 0.305562 0 0 0.00252342
ITEM: TIMESTEP
6
ITEM: NUMBER OF ATOMS
48
ITEM: BOX BOUNDS xy xz yz pp pp pp
-2.6791310906410217e+00 8.6067802309989929e+00 2.5094206929206848e+00
-9.4973444938659668e-03 9.3236122131347656e+00 -2.6670939922332764e+00
-2.8691649436950684e-02 1.9545819282531738e+01 7.1304261684417725e-02
ITEM: ATOMS id type xs ys zs fx fy fz
1 1 0.937407 0.166998 0.0361789 0 0 -0.00101471
2 1 0.485143 0.0738065 0.0615623 0 0 -0.00124741
3 1 0.309284 0.125336 0.654201 0 0 -0.000320435
4 1 0.404233 0.948879 0.923651 0 0 0.00101662
5 1 0.129423 0.157187 0.798783 0 0 -0.000318527
6 1 0.856496 0.04207 0.898268 0 0 0.00125313
7 1 0.583298 0.250353 0.777078 0 0 -0.000595093
8 1 0.760747 0.208707 0.40777 0 0 0.000982285
9 1 0.855154 0.0321656 0.675314 0 0 8.01086e-05
10 1 0.580893 0.240503 0.552061 0 0 -0.000980377
11 1 0.758342 0.198857 0.182752 0 0 0.000591278
12 1 0.486486 0.0837105 0.284516 0 0 -8.2016e-05
13 1 0.212217 0.292022 0.161047 0 0 0.000310898
14 1 0.306572 0.115527 0.428769 0 0 0.000164032
15 1 0.937407 0.500331 0.0361793 0 0 -0.00103569
16 1 0.485143 0.40714 0.0615624 0 0 -0.00125885
17 1 0.309284 0.458669 0.654201 0 0 -0.000322342
18 1 0.404232 0.282212 0.923651 0 0 0.00102425
19 1 0.129423 0.490521 0.798783 0 0 -0.00030899
20 1 0.856496 0.375403 0.898268 0 0 0.00126266
21 1 0.583298 0.583686 0.777078 0 0 -0.000589371
22 1 0.0350687 0.333683 0.531061 0 0 -0.000164032
23 1 0.760748 0.54204 0.40777 0 0 0.000980377
24 1 0.855154 0.365499 0.675314 0 0 8.2016e-05
25 1 0.580892 0.573836 0.55206 0 0 -0.000986099
26 1 0.0323559 0.323873 0.305629 0 0 0.000320435
27 1 0.758342 0.53219 0.182752 0 0 0.000602722
28 1 0.486486 0.417044 0.284516 0 0 -8.96454e-05
29 1 0.212217 0.625356 0.161047 0 0 0.000314713
30 1 0.306571 0.44886 0.428769 0 0 0.000167847
31 1 0.937407 0.833664 0.0361793 0 0 -0.00103569
32 1 0.485143 0.740473 0.0615625 0 0 -0.00125694
33 1 0.309284 0.792003 0.654201 0 0 -0.000326157
34 1 0.404232 0.615546 0.923651 0 0 0.00102425
35 1 0.129423 0.823854 0.798783 0 0 -0.000303268
36 1 0.856496 0.708737 0.898268 0 0 0.00126457
37 1 0.583298 0.917019 0.777078 0 0 -0.000585556
38 1 0.0350684 0.667016 0.531061 0 0 -0.000164032
39 1 0.760747 0.875373 0.40777 0 0 0.000980377
40 1 0.855154 0.698832 0.675314 0 0 8.01086e-05
41 1 0.580892 0.90717 0.552061 0 0 -0.000982285
42 1 0.0323559 0.657207 0.305629 0 0 0.000310898
43 1 0.758342 0.865523 0.182752 0 0 0.000602722
44 1 0.486486 0.750377 0.284516 0 0 -7.82013e-05
45 1 0.212217 0.958689 0.161047 0 0 0.000301361
46 1 0.306571 0.782193 0.428769 0 0 0.000177383
47 1 0.0350681 0.000349822 0.531061 0 0 -0.000162125
48 1 0.032356 0.99054 0.305629 0 0 0.000312805
ITEM: TIMESTEP
7
ITEM: NUMBER OF ATOMS
48
ITEM: BOX BOUNDS xy xz yz pp pp pp
-2.6791310906410217e+00 8.6067802309989929e+00 2.5094206929206848e+00
-9.4973444938659668e-03 9.3236122131347656e+00 -2.6670939922332764e+00
-2.8691649436950684e-02 1.9545819282531738e+01 7.1304261684417725e-02
ITEM: ATOMS id type xs ys zs fx fy fz
1 1 0.937407 0.166998 0.0361789 0 0 -0.00101471
2 1 0.485143 0.0738065 0.0615623 0 0 -0.00124741
3 1 0.309284 0.125336 0.654201 0 0 -0.000320435
4 1 0.404233 0.948879 0.923651 0 0 0.00101662
5 1 0.129423 0.157187 0.798783 0 0 -0.000318527
6 1 0.856496 0.04207 0.898268 0 0 0.00125313
7 1 0.583298 0.250353 0.777078 0 0 -0.000595093
8 1 0.760747 0.208707 0.40777 0 0 0.000982285
9 1 0.855154 0.0321656 0.675314 0 0 8.01086e-05
10 1 0.580893 0.240503 0.552061 0 0 -0.000980377
11 1 0.758342 0.198857 0.182752 0 0 0.000591278
12 1 0.486486 0.0837105 0.284516 0 0 -8.2016e-05
13 1 0.212217 0.292022 0.161047 0 0 0.000310898
14 1 0.306572 0.115527 0.428769 0 0 0.000164032
15 1 0.937407 0.500331 0.0361793 0 0 -0.00103569
16 1 0.485143 0.40714 0.0615624 0 0 -0.00125885
17 1 0.309284 0.458669 0.654201 0 0 -0.000322342
18 1 0.404232 0.282212 0.923651 0 0 0.00102425
19 1 0.129423 0.490521 0.798783 0 0 -0.00030899
20 1 0.856496 0.375403 0.898268 0 0 0.00126266
21 1 0.583298 0.583686 0.777078 0 0 -0.000589371
22 1 0.0350687 0.333683 0.531061 0 0 -0.000164032
23 1 0.760748 0.54204 0.40777 0 0 0.000980377
24 1 0.855154 0.365499 0.675314 0 0 8.2016e-05
25 1 0.580892 0.573836 0.55206 0 0 -0.000986099
26 1 0.0323559 0.323873 0.305629 0 0 0.000320435
27 1 0.758342 0.53219 0.182752 0 0 0.000602722
28 1 0.486486 0.417044 0.284516 0 0 -8.96454e-05
29 1 0.212217 0.625356 0.161047 0 0 0.000314713
30 1 0.306571 0.44886 0.428769 0 0 0.000167847
31 1 0.937407 0.833664 0.0361793 0 0 -0.00103569
32 1 0.485143 0.740473 0.0615625 0 0 -0.00125694
33 1 0.309284 0.792003 0.654201 0 0 -0.000326157
34 1 0.404232 0.615546 0.923651 0 0 0.00102425
35 1 0.129423 0.823854 0.798783 0 0 -0.000303268
36 1 0.856496 0.708737 0.898268 0 0 0.00126457
37 1 0.583298 0.917019 0.777078 0 0 -0.000585556
38 1 0.0350684 0.667016 0.531061 0 0 -0.000164032
39 1 0.760747 0.875373 0.40777 0 0 0.000980377
40 1 0.855154 0.698832 0.675314 0 0 8.01086e-05
41 1 0.580892 0.90717 0.552061 0 0 -0.000982285
42 1 0.0323559 0.657207 0.305629 0 0 0.000310898
43 1 0.758342 0.865523 0.182752 0 0 0.000602722
44 1 0.486486 0.750377 0.284516 0 0 -7.82013e-05
45 1 0.212217 0.958689 0.161047 0 0 0.000301361
46 1 0.306571 0.782193 0.428769 0 0 0.000177383
47 1 0.0350681 0.000349822 0.531061 0 0 -0.000162125
48 1 0.032356 0.99054 0.305629 0 0 0.000312805
