ITEM: TIMESTEP
0
ITEM: NUMBER OF ATOMS
48
ITEM: BOX BOUNDS xy xz yz pp pp pp
-1.7645271420478821e+00 8.6067802309989929e+00 2.5094206929206848e+00
-9.4973444938659668e-03 9.3236122131347656e+00 -1.7524900436401367e+00
-2.8691649436950684e-02 1.9545819282531738e+01 7.1304261684417725e-02
ITEM: ATOMS id type xs ys zs fx fy fz
1 1 0.930785 0.16703 0.0320218 0 0 0.0326977
2 1 0.473389 0.0738739 0.0528103 0 0 0.086298
3 1 0.212166 0.125314 0.657023 0 0 4.00543e-05
4 1 0.267164 0.948847 0.927808 0 0 -0.0326977
5 1 0.0110079 0.157156 0.802805 0 0 0.000570297
6 1 0.72456 0.0420026 0.90702 0 0 -0.0862923
7 1 0.468399 0.250315 0.78202 0 0 -0.00116158
8 1 0.699488 0.208712 0.407029 0 0 0.000499725
9 1 0.754778 0.0321465 0.677802 0 0 2.86102e-05
10 1 0.498461 0.240498 0.552801 0 0 -0.000492096
11 1 0.72955 0.198895 0.17781 0 0 0.00115967
12 1 0.443171 0.0837297 0.282028 0 0 -3.05176e-05
13 1 0.186941 0.292053 0.157025 0 0 -0.000574112
14 1 0.242103 0.115534 0.427803 0 0 -0.000242233
15 1 0.930785 0.500363 0.0320219 0 0 0.0326862
16 1 0.473389 0.407207 0.0528103 0 0 0.0862961
17 1 0.212166 0.458648 0.657023 0 0 4.19617e-05
18 1 0.267163 0.28218 0.927808 0 0 -0.0326958
19 1 0.0110078 0.49049 0.802805 0 0 0.000572205
20 1 0.72456 0.375336 0.90702 0 0 -0.0862846
21 1 0.468399 0.583648 0.78202 0 0 -0.00116348
22 1 0.955847 0.333676 0.532027 0 0 0.000238419
23 1 0.699488 0.542046 0.407029 0 0 0.000494003
24 1 0.754778 0.36548 0.677802 0 0 3.24249e-05
25 1 0.498461 0.573831 0.552801 0 0 -0.000495911
26 1 0.985783 0.323895 0.302807 0 0 -4.00543e-05
27 1 0.72955 0.532228 0.17781 0 0 0.00116348
28 1 0.443171 0.417063 0.282028 0 0 -2.67029e-05
29 1 0.186941 0.625387 0.157025 0 0 -0.000572205
30 1 0.242103 0.448867 0.427803 0 0 -0.000242233
31 1 0.930785 0.833696 0.0320219 0 0 0.0326881
32 1 0.473389 0.740541 0.0528104 0 0 0.0862865
33 1 0.212165 0.791981 0.657023 0 0 4.19617e-05
34 1 0.267163 0.615514 0.927808 0 0 -0.03269
35 1 0.0110079 0.823823 0.802805 0 0 0.000576019
36 1 0.72456 0.708669 0.90702 0 0 -0.0862885
37 1 0.468399 0.916981 0.78202 0 0 -0.00116158
38 1 0.955846 0.667009 0.532027 0 0 0.000236511
39 1 0.699488 0.875379 0.407029 0 0 0.000494003
40 1 0.754778 0.698813 0.677802 0 0 2.86102e-05
41 1 0.498461 0.907164 0.552801 0 0 -0.000490189
42 1 0.985783 0.657228 0.302807 0 0 -4.19617e-05
43 1 0.72955 0.865562 0.17781 0 0 0.00115776
44 1 0.443171 0.750396 0.282028 0 0 -2.86102e-05
45 1 0.186941 0.95872 0.157026 0 0 -0.000576019
46 1 0.242103 0.782201 0.427803 0 0 -0.000236511
47 1 0.955846 0.000342385 0.532027 0 0 0.000236511
48 1 0.985784 0.990562 0.302807 0 0 -4.00543e-05
ITEM: TIMESTEP
1
ITEM: NUMBER OF ATOMS
48
ITEM: BOX BOUNDS xy xz yz pp pp pp
-1.7645271420478821e+00 8.6067802309989929e+00 2.5094206929206848e+00
-9.4973444938659668e-03 9.3236122131347656e+00 -1.7524900436401367e+00
-2.8691649436950684e-02 1.9545819282531738e+01 7.1304261684417725e-02
ITEM: ATOMS id type xs ys zs fx fy fz
1 1 0.930933 0.167026 0.0325316 0 0 -0.0220547
2 1 0.473779 0.0738636 0.0541557 0 0 0.00426292
3 1 0.212166 0.125314 0.657024 0 0 -0.0014782
4 1 0.267016 0.948851 0.927299 0 0 0.0220566
5 1 0.0110105 0.157156 0.802814 0 0 -0.0177212
6 1 0.72417 0.0420129 0.905675 0 0 -0.00426483
7 1 0.468394 0.250315 0.782002 0 0 -0.0220661
8 1 0.69949 0.208712 0.407037 0 0 -0.000480652
9 1 0.754778 0.0321465 0.677802 0 0 -0.000501633
10 1 0.498459 0.240498 0.552793 0 0 0.000488281
11 1 0.729555 0.198895 0.177828 0 0 0.0220661
12 1 0.443171 0.0837297 0.282028 0 0 0.000497818
13 1 0.186939 0.292053 0.157016 0 0 0.0177193
14 1 0.242102 0.115534 0.427799 0 0 -0.000482559
15 1 0.930933 0.500359 0.0325315 0 0 -0.0220451
16 1 0.473779 0.407197 0.0541557 0 0 0.00425911
17 1 0.212166 0.458648 0.657023 0 0 -0.00147438
18 1 0.267015 0.282184 0.927299 0 0 0.0220528
19 1 0.0110104 0.49049 0.802814 0 0 -0.0177174
20 1 0.72417 0.375346 0.905675 0 0 -0.00426865
21 1 0.468394 0.583648 0.782002 0 0 -0.0220699
22 1 0.955848 0.333676 0.532031 0 0 0.000480652
23 1 0.69949 0.542045 0.407037 0 0 -0.000480652
24 1 0.754778 0.36548 0.677802 0 0 -0.000497818
25 1 0.498459 0.573831 0.552793 0 0 0.000482559
26 1 0.985783 0.323895 0.302807 0 0 0.0014782
27 1 0.729555 0.532228 0.177828 0 0 0.0220642
28 1 0.443171 0.417063 0.282028 0 0 0.000501633
29 1 0.186939 0.625387 0.157017 0 0 0.0177193
30 1 0.242101 0.448867 0.427799 0 0 -0.000486374
31 1 0.930933 0.833692 0.0325316 0 0 -0.022047
32 1 0.473779 0.74053 0.0541556 0 0 0.00426483
33 1 0.212166 0.791981 0.657023 0 0 -0.00147247
34 1 0.267015 0.615518 0.927299 0 0 0.022047
35 1 0.0110105 0.823823 0.802814 0 0 -0.0177174
36 1 0.72417 0.70868 0.905675 0 0 -0.00426674
37 1 0.468394 0.916982 0.782002 0 0 -0.0220699
38 1 0.955847 0.667009 0.532031 0 0 0.000488281
39 1 0.69949 0.875379 0.407037 0 0 -0.000488281
40 1 0.754778 0.698813 0.677802 0 0 -0.000497818
41 1 0.498459 0.907164 0.552793 0 0 0.000478745
42 1 0.985783 0.657228 0.302807 0 0 0.0014782
43 1 0.729555 0.865561 0.177828 0 0 0.0220699
44 1 0.443171 0.750396 0.282028 0 0 0.000497818
45 1 0.186939 0.95872 0.157017 0 0 0.0177212
46 1 0.242102 0.782201 0.4278 0 0 -0.000490189
47 1 0.955847 0.000342357 0.532031 0 0 0.000486374
48 1 0.985783 0.990562 0.302807 0 0 0.0014782
ITEM: TIMESTEP
2
ITEM: NUMBER OF ATOMS
48
ITEM: BOX BOUNDS xy xz yz pp pp pp
-1.7645271420478821e+00 8.6067802309989929e+00 2.5094206929206848e+00
-9.4973444938659668e-03 9.3236122131347656e+00 -1.7524900436401367e+00
-2.8691649436950684e-02 1.9545819282531738e+01 7.1304261684417725e-02
ITEM: ATOMS id type xs ys zs fx fy fz
1 1 0.930823 0.167029 0.0321535 0 0 -0.00223541
2 1 0.473925 0.0738597 0.0546588 0 0 -0.00370598
3 1 0.212156 0.125315 0.656988 0 0 -0.0101929
4 1 0.267125 0.948848 0.927677 0 0 0.00223732
5 1 0.0108878 0.15716 0.802391 0 0 0.00128746
6 1 0.724024 0.0420168 0.905171 0 0 0.00370598
7 1 0.468239 0.250319 0.781466 0 0 -0.00154305
8 1 0.699487 0.208712 0.407028 0 0 0.000858307
9 1 0.754775 0.0321466 0.67779 0 0 -0.0089817
10 1 0.498462 0.240498 0.552803 0 0 -0.000860214
11 1 0.72971 0.198891 0.178364 0 0 0.00153923
12 1 0.443174 0.0837296 0.28204 0 0 0.00898552
13 1 0.187061 0.29205 0.15744 0 0 -0.00128365
14 1 0.242098 0.115534 0.427787 0 0 0.00159645
15 1 0.930824 0.500362 0.0321536 0 0 -0.00224686
16 1 0.473925 0.407193 0.0546587 0 0 -0.00370026
17 1 0.212156 0.458648 0.656988 0 0 -0.0101833
18 1 0.267125 0.282181 0.927677 0 0 0.00224304
19 1 0.0108877 0.490493 0.802391 0 0 0.00128746
20 1 0.724024 0.37535 0.905171 0 0 0.00370026
21 1 0.468239 0.583652 0.781466 0 0 -0.00153542
22 1 0.955851 0.333675 0.532043 0 0 -0.00159073
23 1 0.699487 0.542046 0.407028 0 0 0.0008564
24 1 0.754775 0.36548 0.677791 0 0 -0.00899887
25 1 0.498462 0.573831 0.552802 0 0 -0.000862122
26 1 0.985794 0.323895 0.302842 0 0 0.0101891
27 1 0.72971 0.532224 0.178364 0 0 0.00154305
28 1 0.443174 0.417063 0.28204 0 0 0.00898743
29 1 0.187061 0.625383 0.15744 0 0 -0.00129128
30 1 0.242098 0.448868 0.427787 0 0 0.00160408
31 1 0.930824 0.833695 0.0321536 0 0 -0.00224113
32 1 0.473925 0.740526 0.0546587 0 0 -0.00370026
33 1 0.212155 0.791981 0.656988 0 0 -0.0101967
34 1 0.267125 0.615515 0.927677 0 0 0.00224113
35 1 0.0108878 0.823826 0.802391 0 0 0.00128555
36 1 0.724024 0.708683 0.905171 0 0 0.00370407
37 1 0.468239 0.916986 0.781466 0 0 -0.00153351
38 1 0.955851 0.667009 0.532044 0 0 -0.00160027
39 1 0.699487 0.875379 0.407028 0 0 0.000860214
40 1 0.754775 0.698813 0.67779 0 0 -0.00898552
41 1 0.498461 0.907164 0.552802 0 0 -0.000854492
42 1 0.985793 0.657228 0.302842 0 0 0.0101891
43 1 0.72971 0.865557 0.178364 0 0 0.00153542
44 1 0.443174 0.750396 0.28204 0 0 0.00898552
45 1 0.187061 0.958717 0.15744 0 0 -0.00129318
46 1 0.242098 0.782201 0.427787 0 0 0.00160599
47 1 0.955851 0.000342259 0.532043 0 0 -0.00160027
48 1 0.985794 0.990561 0.302842 0 0 0.0101891
ITEM: TIMESTEP
3
ITEM: NUMBER OF ATOMS
48
ITEM: BOX BOUNDS xy xz yz pp pp pp
-1.7645271420478821e+00 8.6067802309989929e+00 2.5094206929206848e+00
-9.4973444938659668e-03 9.3236122131347656e+00 -1.7524900436401367e+00
-2.8691649436950684e-02 1.9545819282531738e+01 7.1304261684417725e-02
ITEM: ATOMS id type xs ys zs fx fy fz
1 1 0.930794 0.167029 0.0320508 0 0 0.00520706
2 1 0.473915 0.07386 0.0546244 0 0 0.00166702
3 1 0.212079 0.125317 0.656723 0 0 -0.000469208
4 1 0.267155 0.948847 0.927779 0 0 -0.00520897
5 1 0.0108826 0.15716 0.802373 0 0 -0.00162125
6 1 0.724034 0.0420165 0.905206 0 0 -0.00166702
7 1 0.468209 0.25032 0.781363 0 0 -0.000808716
8 1 0.699493 0.208712 0.407049 0 0 0.00413704
9 1 0.754708 0.0321484 0.677559 0 0 -0.000375748
10 1 0.498456 0.240498 0.552782 0 0 -0.00414276
11 1 0.72974 0.19889 0.178467 0 0 0.000812531
12 1 0.443241 0.0837278 0.282271 0 0 0.00038147
13 1 0.187066 0.29205 0.157458 0 0 0.00162697
14 1 0.24211 0.115534 0.427826 0 0 0.00455284
15 1 0.930794 0.500363 0.0320506 0 0 0.0052166
16 1 0.473915 0.407193 0.0546245 0 0 0.00166702
17 1 0.212079 0.45865 0.656723 0 0 -0.000488281
18 1 0.267155 0.282181 0.92778 0 0 -0.0052166
19 1 0.0108825 0.490493 0.802373 0 0 -0.00162697
20 1 0.724034 0.37535 0.905206 0 0 -0.00166702
21 1 0.468209 0.583653 0.781363 0 0 -0.000812531
22 1 0.95584 0.333676 0.532004 0 0 -0.00455475
23 1 0.699494 0.542045 0.407049 0 0 0.00413322
24 1 0.754708 0.365482 0.677559 0 0 -0.000362396
25 1 0.498456 0.573831 0.552781 0 0 -0.00413704
26 1 0.98587 0.323893 0.303107 0 0 0.000476837
27 1 0.72974 0.532223 0.178468 0 0 0.000808716
28 1 0.443241 0.417061 0.282271 0 0 0.00037384
29 1 0.187066 0.625383 0.157457 0 0 0.00162888
30 1 0.242109 0.448867 0.427826 0 0 0.00455093
31 1 0.930794 0.833696 0.0320508 0 0 0.00520706
32 1 0.473915 0.740527 0.0546245 0 0 0.00166512
33 1 0.212078 0.791983 0.656723 0 0 -0.000473022
34 1 0.267155 0.615514 0.927779 0 0 -0.00520515
35 1 0.0108826 0.823826 0.802373 0 0 -0.00162506
36 1 0.724034 0.708683 0.905206 0 0 -0.00167084
37 1 0.468209 0.916986 0.781363 0 0 -0.000814438
38 1 0.95584 0.667009 0.532004 0 0 -0.00455284
39 1 0.699493 0.875379 0.407048 0 0 0.00414467
40 1 0.754707 0.698815 0.677559 0 0 -0.000379562
41 1 0.498455 0.907164 0.552782 0 0 -0.00414276
42 1 0.98587 0.657226 0.303107 0 0 0.000480652
43 1 0.72974 0.865556 0.178467 0 0 0.000810623
44 1 0.443241 0.750395 0.282271 0 0 0.00037384
45 1 0.187067 0.958717 0.157457 0 0 0.00162315
46 1 0.242109 0.782201 0.427826 0 0 0.00455093
47 1 0.955839 0.000342562 0.532004 0 0 -0.00454521
48 1 0.98587 0.990559 0.303107 0 0 0.000471115
ITEM: TIMESTEP
4
ITEM: NUMBER OF ATOMS
48
ITEM: BOX BOUNDS xy xz yz pp pp pp
-1.7645271420478821e+00 8.6067802309989929e+00 2.5094206929206848e+00
-9.4973444938659668e-03 9.3236122131347656e+00 -1.7524900436401367e+00
-2.8691649436950684e-02 1.9545819282531738e+01 7.1304261684417725e-02
ITEM: ATOMS id type xs ys zs fx fy fz
1 1 0.93082 0.167029 0.0321423 0 0 0.00100517
2 1 0.473923 0.0738597 0.0546532 0 0 -0.000564575
3 1 0.212051 0.125317 0.656629 0 0 0.000247955
4 1 0.267129 0.948848 0.927688 0 0 -0.000999451
5 1 0.0108698 0.15716 0.802329 0 0 -0.00303459
6 1 0.724025 0.0420168 0.905177 0 0 0.00056839
7 1 0.468194 0.25032 0.781311 0 0 -0.00155067
8 1 0.699524 0.208711 0.407153 0 0 -0.00119972
9 1 0.754684 0.032149 0.677478 0 0 -0.00012207
10 1 0.498425 0.240499 0.552677 0 0 0.00120354
11 1 0.729755 0.198889 0.178519 0 0 0.0015564
12 1 0.443265 0.0837272 0.282353 0 0 0.000114441
13 1 0.187079 0.29205 0.157502 0 0 0.00303078
14 1 0.242144 0.115533 0.427947 0 0 -0.0012455
15 1 0.93082 0.500362 0.0321423 0 0 0.00100136
16 1 0.473923 0.407193 0.0546533 0 0 -0.000566483
17 1 0.212051 0.458651 0.656629 0 0 0.00025177
18 1 0.267128 0.282181 0.927688 0 0 -0.00100708
19 1 0.0108697 0.490494 0.802328 0 0 -0.00303268
20 1 0.724025 0.37535 0.905177 0 0 0.000572205
21 1 0.468194 0.583654 0.781311 0 0 -0.0015564
22 1 0.955805 0.333677 0.531884 0 0 0.00124168
23 1 0.699524 0.542045 0.407153 0 0 -0.001194
24 1 0.754684 0.365482 0.677478 0 0 -0.000116348
25 1 0.498425 0.573832 0.552677 0 0 0.00120354
26 1 0.985898 0.323892 0.303201 0 0 -0.000253677
27 1 0.729755 0.532223 0.178519 0 0 0.00155067
28 1 0.443265 0.417061 0.282353 0 0 0.000116348
29 1 0.187079 0.625383 0.157502 0 0 0.0030365
30 1 0.242144 0.448866 0.427947 0 0 -0.0012455
31 1 0.93082 0.833695 0.0321423 0 0 0.000997543
32 1 0.473923 0.740526 0.0546533 0 0 -0.000570297
33 1 0.212051 0.791984 0.656629 0 0 0.00025177
34 1 0.267128 0.615515 0.927688 0 0 -0.00100517
35 1 0.0108698 0.823827 0.802328 0 0 -0.00304031
36 1 0.724025 0.708683 0.905177 0 0 0.000574112
37 1 0.468194 0.916987 0.781311 0 0 -0.00156212
38 1 0.955805 0.66701 0.531884 0 0 0.0012455
39 1 0.699524 0.875378 0.407153 0 0 -0.00119972
40 1 0.754684 0.698816 0.677477 0 0 -0.000110626
41 1 0.498425 0.907165 0.552677 0 0 0.00120544
42 1 0.985898 0.657225 0.303201 0 0 -0.000253677
43 1 0.729755 0.865556 0.178519 0 0 0.0015583
44 1 0.443265 0.750394 0.282353 0 0 0.000120163
45 1 0.187079 0.958716 0.157502 0 0 0.00304031
46 1 0.242144 0.7822 0.427947 0 0 -0.00125504
47 1 0.955805 0.000343488 0.531884 0 0 0.00124168
48 1 0.985898 0.990559 0.303201 0 0 -0.000249863
ITEM: TIMESTEP
5
ITEM: NUMBER OF ATOMS
48
ITEM: BOX BOUNDS xy xz yz pp pp pp
-1.7645271420478821e+00 8.6067802309989929e+00 2.5094206929206848e+00
-9.4973444938659668e-03 9.3236122131347656e+00 -1.7524900436401367e+00
-2.8691649436950684e-02 1.9545819282531738e+01 7.1304261684417725e-02
ITEM: ATOMS id type xs ys zs fx fy fz
1 1 0.930835 0.167028 0.032194 0 0 0.000167847
2 1 0.473921 0.0738598 0.0546454 0 0 0.000389099
3 1 0.212046 0.125318 0.656611 0 0 -0.000453949
4 1 0.267114 0.948848 0.927636 0 0 -0.000173569
5 1 0.0108423 0.157161 0.802234 0 0 0.000205994
6 1 0.724028 0.0420167 0.905185 0 0 -0.000402451
7 1 0.468177 0.250321 0.781255 0 0 0.000217438
8 1 0.699522 0.208711 0.407148 0 0 -0.000377655
9 1 0.754677 0.0321492 0.677453 0 0 -0.000658035
10 1 0.498427 0.240498 0.552682 0 0 0.000371933
11 1 0.729772 0.198889 0.178576 0 0 -0.00021553
12 1 0.443272 0.083727 0.282377 0 0 0.000663757
13 1 0.187107 0.292049 0.157597 0 0 -0.000205994
14 1 0.242144 0.115533 0.427944 0 0 -0.000535965
15 1 0.930835 0.500362 0.0321939 0 0 0.000171661
16 1 0.473921 0.407193 0.0546454 0 0 0.000389099
17 1 0.212046 0.458651 0.656611 0 0 -0.00044632
18 1 0.267113 0.282182 0.927636 0 0 -0.00015831
19 1 0.0108422 0.490494 0.802234 0 0 0.000204086
20 1 0.724028 0.37535 0.905185 0 0 -0.000392914
21 1 0.468177 0.583654 0.781255 0 0 0.000226974
22 1 0.955806 0.333677 0.531886 0 0 0.000543594
23 1 0.699522 0.542045 0.407148 0 0 -0.000375748
24 1 0.754677 0.365482 0.677453 0 0 -0.00066185
25 1 0.498427 0.573831 0.552682 0 0 0.000375748
26 1 0.985903 0.323892 0.303219 0 0 0.000453949
27 1 0.729772 0.532222 0.178575 0 0 -0.000225067
28 1 0.443272 0.41706 0.282377 0 0 0.000658035
29 1 0.187107 0.625382 0.157597 0 0 -0.000207901
30 1 0.242143 0.448866 0.427944 0 0 -0.00053978
31 1 0.930835 0.833695 0.0321937 0 0 0.000177383
32 1 0.473921 0.740526 0.0546453 0 0 0.000398636
33 1 0.212046 0.791984 0.656611 0 0 -0.000455856
34 1 0.267113 0.615515 0.927636 0 0 -0.000179291
35 1 0.0108423 0.823828 0.802234 0 0 0.000219345
36 1 0.724028 0.708683 0.905185 0 0 -0.000404358
37 1 0.468177 0.916987 0.781254 0 0 0.000225067
38 1 0.955805 0.66701 0.531886 0 0 0.000535965
39 1 0.699522 0.875378 0.407148 0 0 -0.000377655
40 1 0.754677 0.698816 0.677453 0 0 -0.000665665
41 1 0.498427 0.907165 0.552682 0 0 0.000371933
42 1 0.985903 0.657225 0.303219 0 0 0.000453949
43 1 0.729772 0.865556 0.178575 0 0 -0.000221252
44 1 0.443272 0.750394 0.282377 0 0 0.000659943
45 1 0.187107 0.958716 0.157596 0 0 -0.000202179
46 1 0.242144 0.7822 0.427944 0 0 -0.000526428
47 1 0.955805 0.00034347 0.531886 0 0 0.000526428
48 1 0.985903 0.990559 0.303219 0 0 0.000455856
ITEM: TIMESTEP
6
ITEM: NUMBER OF ATOMS
48
ITEM: BOX BOUNDS xy xz yz pp pp pp
-1.7645271420478821e+00 8.6067802309989929e+00 2.5094206929206848e+00
-9.4973444938659668e-03 9.3236122131347656e+00 -1.7524900436401367e+00
-2.8691649436950684e-02 1.9545819282531738e+01 7.1304261684417725e-02
ITEM: ATOMS id type xs ys zs fx fy fz
1 1 0.930836 0.167028 0.0321981 0 0 -0.000120163
2 1 0.473922 0.0738598 0.05465 0 0 8.58307e-05
3 1 0.212044 0.125318 0.656604 0 0 -4.00543e-05
4 1 0.267112 0.948848 0.927632 0 0 0.000118256
5 1 0.010842 0.157161 0.802233 0 0 -1.14441e-05
6 1 0.724026 0.0420167 0.90518 0 0 -8.01086e-05
7 1 0.468178 0.250321 0.781255 0 0 -6.29425e-05
8 1 0.699521 0.208711 0.407143 0 0 0.000160217
9 1 0.754674 0.0321492 0.677444 0 0 -0.0001297
10 1 0.498428 0.240498 0.552687 0 0 -0.00015831
11 1 0.729771 0.198889 0.178575 0 0 5.91278e-05
12 1 0.443275 0.0837269 0.282387 0 0 0.0001297
13 1 0.187107 0.292049 0.157597 0 0 9.53674e-06
14 1 0.242142 0.115533 0.427937 0 0 7.05719e-05
15 1 0.930836 0.500362 0.032198 0 0 -0.000120163
16 1 0.473922 0.407193 0.0546501 0 0 8.2016e-05
17 1 0.212044 0.458651 0.656604 0 0 -4.19617e-05
18 1 0.267112 0.282182 0.927632 0 0 0.00012207
19 1 0.0108419 0.490494 0.802233 0 0 -7.62939e-06
20 1 0.724026 0.37535 0.90518 0 0 -8.01086e-05
21 1 0.468178 0.583654 0.781255 0 0 -6.67572e-05
22 1 0.955808 0.333677 0.531893 0 0 -7.24792e-05
23 1 0.699521 0.542045 0.407143 0 0 0.000162125
24 1 0.754674 0.365483 0.677444 0 0 -0.000131607
25 1 0.498428 0.573831 0.552687 0 0 -0.00015831
26 1 0.985905 0.323892 0.303226 0 0 4.00543e-05
27 1 0.729771 0.532222 0.178575 0 0 6.86646e-05
28 1 0.443275 0.41706 0.282387 0 0 0.0001297
29 1 0.187107 0.625382 0.157597 0 0 1.14441e-05
30 1 0.242141 0.448866 0.427937 0 0 7.05719e-05
31 1 0.930836 0.833695 0.0321979 0 0 -0.000116348
32 1 0.473922 0.740526 0.0546501 0 0 7.62939e-05
33 1 0.212044 0.791984 0.656604 0 0 -4.19617e-05
34 1 0.267112 0.615515 0.927632 0 0 0.000120163
35 1 0.010842 0.823828 0.802233 0 0 -1.33514e-05
36 1 0.724026 0.708683 0.90518 0 0 -8.01086e-05
37 1 0.468178 0.916987 0.781255 0 0 -6.29425e-05
38 1 0.955807 0.66701 0.531893 0 0 -6.86646e-05
39 1 0.699521 0.875378 0.407143 0 0 0.00015831
40 1 0.754674 0.698816 0.677444 0 0 -0.000131607
41 1 0.498428 0.907165 0.552687 0 0 -0.00015831
42 1 0.985905 0.657225 0.303226 0 0 3.62396e-05
43 1 0.729771 0.865556 0.178575 0 0 6.29425e-05
44 1 0.443275 0.750394 0.282387 0 0 0.000135422
45 1 0.187107 0.958715 0.157597 0 0 3.8147e-06
46 1 0.242142 0.7822 0.427937 0 0 7.24792e-05
47 1 0.955807 0.000343417 0.531893 0 0 -7.05719e-05
48 1 0.985905 0.990559 0.303226 0 0 4.00543e-05
ITEM: TIMESTEP
7
ITEM: NUMBER OF ATOMS
48
ITEM: BOX BOUNDS xy xz yz pp pp pp
-1.7645271420478821e+00 8.6067802309989929e+00 2.5094206929206848e+00
-9.4973444938659668e-03 9.3236122131347656e+00 -1.7524900436401367e+00
-2.8691649436950684e-02 1.9545819282531738e+01 7.1304261684417725e-02
ITEM: ATOMS id type xs ys zs fx fy fz
1 1 0.930836 0.167028 0.0321958 0 0 -3.05176e-05
2 1 0.473923 0.0738597 0.0546524 0 0 3.05176e-05
3 1 0.212044 0.125318 0.656603 0 0 -4.00543e-05
4 1 0.267113 0.948848 0.927634 0 0 2.86102e-05
5 1 0.0108419 0.157161 0.802232 0 0 -4.95911e-05
6 1 0.724026 0.0420168 0.905178 0 0 -3.24249e-05
7 1 0.468177 0.250321 0.781254 0 0 -5.72205e-05
8 1 0.699522 0.208711 0.407146 0 0 3.24249e-05
9 1 0.754673 0.0321493 0.67744 0 0 -2.28882e-05
10 1 0.498427 0.240498 0.552684 0 0 -3.62396e-05
11 1 0.729772 0.198889 0.178576 0 0 6.29425e-05
12 1 0.443276 0.0837269 0.28239 0 0 1.71661e-05
13 1 0.187107 0.292049 0.157598 0 0 5.14984e-05
14 1 0.242142 0.115533 0.427938 0 0 2.86102e-05
15 1 0.930836 0.500362 0.0321957 0 0 -2.86102e-05
16 1 0.473923 0.407193 0.0546524 0 0 3.05176e-05
17 1 0.212044 0.458651 0.656603 0 0 -3.62396e-05
18 1 0.267113 0.282182 0.927634 0 0 2.67029e-05
19 1 0.0108418 0.490494 0.802232 0 0 -4.76837e-05
20 1 0.724026 0.37535 0.905178 0 0 -3.43323e-05
21 1 0.468177 0.583654 0.781254 0 0 -6.48499e-05
22 1 0.955807 0.333677 0.531892 0 0 -3.05176e-05
23 1 0.699522 0.542045 0.407146 0 0 2.86102e-05
24 1 0.754673 0.365483 0.67744 0 0 -1.14441e-05
25 1 0.498427 0.573831 0.552684 0 0 -3.24249e-05
26 1 0.985905 0.323892 0.303227 0 0 4.00543e-05
27 1 0.729772 0.532222 0.178576 0 0 6.67572e-05
28 1 0.443276 0.41706 0.28239 0 0 1.71661e-05
29 1 0.187107 0.625382 0.157598 0 0 4.76837e-05
30 1 0.242142 0.448866 0.427938 0 0 2.67029e-05
31 1 0.930836 0.833695 0.0321957 0 0 -3.24249e-05
32 1 0.473923 0.740526 0.0546522 0 0 3.43323e-05
33 1 0.212044 0.791984 0.656603 0 0 -3.43323e-05
34 1 0.267113 0.615515 0.927634 0 0 2.67029e-05
35 1 0.0108419 0.823828 0.802232 0 0 -5.14984e-05
36 1 0.724026 0.708683 0.905178 0 0 -3.62396e-05
37 1 0.468177 0.916987 0.781254 0 0 -5.72205e-05
38 1 0.955807 0.66701 0.531892 0 0 -2.86102e-05
39 1 0.699522 0.875378 0.407146 0 0 3.05176e-05
40 1 0.754673 0.698816 0.67744 0 0 -1.33514e-05
41 1 0.498427 0.907165 0.552684 0 0 -3.62396e-05
42 1 0.985905 0.657225 0.303227 0 0 4.3869e-05
43 1 0.729772 0.865556 0.178576 0 0 6.29425e-05
44 1 0.443276 0.750394 0.282391 0 0 1.52588e-05
45 1 0.187107 0.958715 0.157598 0 0 5.34058e-05
46 1 0.242142 0.7822 0.427938 0 0 3.05176e-05
47 1 0.955807 0.000343425 0.531892 0 0 -2.86102e-05
48 1 0.985905 0.990559 0.303227 0 0 4.00543e-05
ITEM: TIMESTEP
8
ITEM: NUMBER OF ATOMS
48
ITEM: BOX BOUNDS xy xz yz pp pp pp
-1.7645271420478821e+00 8.6067802309989929e+00 2.5094206929206848e+00
-9.4973444938659668e-03 9.3236122131347656e+00 -1.7524900436401367e+00
-2.8691649436950684e-02 1.9545819282531738e+01 7.1304261684417725e-02
ITEM: ATOMS id type xs ys zs fx fy fz
1 1 0.930836 0.167028 0.0321958 0 0 -3.05176e-05
2 1 0.473923 0.0738597 0.0546524 0 0 3.05176e-05
3 1 0.212044 0.125318 0.656603 0 0 -4.00543e-05
4 1 0.267113 0.948848 0.927634 0 0 2.86102e-05
5 1 0.0108419 0.157161 0.802232 0 0 -4.95911e-05
6 1 0.724026 0.0420168 0.905178 0 0 -3.24249e-05
7 1 0.468177 0.250321 0.781254 0 0 -5.72205e-05
8 1 0.699522 0.208711 0.407146 0 0 3.24249e-05
9 1 0.754673 0.0321493 0.67744 0 0 -2.28882e-05
10 1 0.498427 0.240498 0.552684 0 0 -3.62396e-05
11 1 0.729772 0.198889 0.178576 0 0 6.29425e-05
12 1 0.443276 0.0837269 0.28239 0 0 1.71661e-05
13 1 0.187107 0.292049 0.157598 0 0 5.14984e-05
14 1 0.242142 0.115533 0.427938 0 0 2.86102e-05
15 1 0.930836 0.500362 0.0321957 0 0 -2.86102e-05
16 1 0.473923 0.407193 0.0546524 0 0 3.05176e-05
17 1 0.212044 0.458651 0.656603 0 0 -3.62396e-05
18 1 0.267113 0.282182 0.927634 0 0 2.67029e-05
19 1 0.0108418 0.490494 0.802232 0 0 -4.76837e-05
20 1 0.724026 0.37535 0.905178 0 0 -3.43323e-05
21 1 0.468177 0.583654 0.781254 0 0 -6.48499e-05
22 1 0.955807 0.333677 0.531892 0 0 -3.05176e-05
23 1 0.699522 0.542045 0.407146 0 0 2.86102e-05
24 1 0.754673 0.365483 0.67744 0 0 -1.14441e-05
25 1 0.498427 0.573831 0.552684 0 0 -3.24249e-05
26 1 0.985905 0.323892 0.303227 0 0 4.00543e-05
27 1 0.729772 0.532222 0.178576 0 0 6.67572e-05
28 1 0.443276 0.41706 0.28239 0 0 1.71661e-05
29 1 0.187107 0.625382 0.157598 0 0 4.76837e-05
30 1 0.242142 0.448866 0.427938 0 0 2.67029e-05
31 1 0.930836 0.833695 0.0321957 0 0 -3.24249e-05
32 1 0.473923 0.740526 0.0546522 0 0 3.43323e-05
33 1 0.212044 0.791984 0.656603 0 0 -3.43323e-05
34 1 0.267113 0.615515 0.927634 0 0 2.67029e-05
35 1 0.0108419 0.823828 0.802232 0 0 -5.14984e-05
36 1 0.724026 0.708683 0.905178 0 0 -3.62396e-05
37 1 0.468177 0.916987 0.781254 0 0 -5.72205e-05
38 1 0.955807 0.66701 0.531892 0 0 -2.86102e-05
39 1 0.699522 0.875378 0.407146 0 0 3.05176e-05
40 1 0.754673 0.698816 0.67744 0 0 -1.33514e-05
41 1 0.498427 0.907165 0.552684 0 0 -3.62396e-05
42 1 0.985905 0.657225 0.303227 0 0 4.3869e-05
43 1 0.729772 0.865556 0.178576 0 0 6.29425e-05
44 1 0.443276 0.750394 0.282391 0 0 1.52588e-05
45 1 0.187107 0.958715 0.157598 0 0 5.34058e-05
46 1 0.242142 0.7822 0.427938 0 0 3.05176e-05
47 1 0.955807 0.000343425 0.531892 0 0 -2.86102e-05
48 1 0.985905 0.990559 0.303227 0 0 4.00543e-05
