ITEM: TIMESTEP
0
ITEM: NUMBER OF ATOMS
32
ITEM: BOX BOUNDS xy xz yz pp pp pp
2.3402176666958421e-03 9.5883131734999552e+00 3.1961043911666520e+00
-1.8700970345103249e-02 2.2101578970345098e+01 0.0000000000000000e+00
8.6472273715375633e-03 5.1738187726284668e+00 0.0000000000000000e+00
ITEM: ATOMS id type xs ys zs fx fy fz
1 1 0.850887 0.336531 0.593597 0 0.00221532 -9.13802e-06
2 1 0.350887 0.336531 0.593597 0 0.002217 -9.0811e-06
3 1 0.121636 0.295047 0.0935968 0 -0.00229069 7.61016e-06
4 1 0.621636 0.295047 0.0935968 0 -0.00228713 8.57537e-06
5 1 0.0383623 0.461534 0.593597 0 0.00200173 -9.73866e-06
6 1 0.538362 0.461534 0.593597 0 0.00199662 -9.18469e-06
7 1 0.809113 0.420048 0.0935968 0 -0.00227208 9.2325e-06
8 1 0.309113 0.420048 0.0935968 0 -0.00227461 9.1294e-06
9 1 0.725842 0.586531 0.593597 0 0.00220152 -7.7979e-06
10 1 0.225841 0.586531 0.593597 0 0.00220146 -8.62434e-06
11 1 0.91332 0.711528 0.593597 0 0.00231526 -6.50335e-06
12 1 0.41332 0.711528 0.593597 0 0.00231064 -6.35151e-06
13 1 0.684069 0.670045 0.0935969 0 -0.00210034 6.36486e-06
14 1 0.996591 0.545047 0.0935968 0 -0.00216886 8.90446e-06
15 1 0.496591 0.545047 0.0935968 0 -0.00216373 9.58882e-06
16 1 0.184068 0.670045 0.0935969 0 -0.00210021 6.87699e-06
17 1 0.600797 0.836529 0.593597 0 0.00214383 -3.82016e-06
18 1 0.100796 0.836529 0.593597 0 0.00214361 -3.72782e-06
19 1 0.788274 0.961528 0.593597 0 0.00214383 -3.42479e-06
20 1 0.288274 0.961528 0.593597 0 0.00213425 -3.74116e-06
21 1 0.871544 0.795048 0.0935969 0 -0.00241432 4.41619e-06
22 1 0.371544 0.795048 0.0935969 0 -0.00241143 4.90613e-06
23 1 0.559025 0.920043 0.0935969 0 -0.00208924 4.28633e-06
24 1 0.0590239 0.920043 0.0935969 0 -0.00208931 3.38552e-06
25 1 0.975936 0.0865253 0.593597 0 0.00233793 -1.82698e-06
26 1 0.475935 0.0865253 0.593597 0 0.00233909 -1.10789e-07
27 1 0.246685 0.0450412 0.093597 0 -0.00207984 1.51319e-06
28 1 0.746685 0.0450411 0.0935969 0 -0.00207217 1.78485e-06
29 1 0.163411 0.211528 0.593597 0 0.00225307 -4.2206e-06
30 1 0.663411 0.211528 0.593597 0 0.00224972 -5.11932e-06
31 1 0.934161 0.170044 0.0935969 0 -0.00219481 3.32959e-06
32 1 0.434161 0.170044 0.093597 0 -0.00219622 2.78146e-06
ITEM: TIMESTEP
3
ITEM: NUMBER OF ATOMS
32
ITEM: BOX BOUNDS xy xz yz pp pp pp
2.3402176666958421e-03 9.5883131734999552e+00 3.1961043911666520e+00
-1.8700970345103249e-02 2.2101578970345098e+01 0.0000000000000000e+00
8.6472273715375633e-03 5.1738187726284668e+00 0.0000000000000000e+00
ITEM: ATOMS id type xs ys zs fx fy fz
1 1 0.850852 0.336601 0.593597 0 1.73006e-05 -9.40031e-06
2 1 0.350852 0.336601 0.593597 0 1.85059e-05 -9.84506e-06
3 1 0.121673 0.294973 0.0935968 0 3.31964e-05 8.63453e-06
4 1 0.621673 0.294973 0.0935968 0 3.21658e-05 7.8912e-06
5 1 0.0383286 0.461601 0.593598 0 2.00162e-06 -1.15142e-05
6 1 0.538329 0.461601 0.593598 0 2.96e-06 -1.11306e-05
7 1 0.80915 0.419975 0.0935967 0 -1.72569e-05 1.10013e-05
8 1 0.309149 0.419975 0.0935967 0 -1.68923e-05 1.14479e-05
9 1 0.725806 0.586602 0.593597 0 -2.92891e-05 -1.02481e-05
10 1 0.225805 0.586602 0.593597 0 -2.88247e-05 -1.03728e-05
11 1 0.913283 0.711601 0.593597 0 1.32986e-06 -7.47998e-06
12 1 0.413283 0.711601 0.593597 0 3.08459e-06 -7.8779e-06
13 1 0.684104 0.669975 0.0935968 0 -3.15976e-06 9.00111e-06
14 1 0.996626 0.544975 0.0935967 0 -5.00246e-05 1.09118e-05
15 1 0.496626 0.544976 0.0935967 0 -5.07564e-05 1.02642e-05
16 1 0.184104 0.669975 0.0935968 0 -2.38676e-06 9.14524e-06
17 1 0.600761 0.8366 0.593597 0 1.25869e-05 -5.01701e-06
18 1 0.100761 0.8366 0.593597 0 1.72938e-05 -4.3095e-06
19 1 0.788238 0.961599 0.593597 0 3.79256e-05 -2.91189e-06
20 1 0.288238 0.961599 0.593597 0 4.03175e-05 -2.62252e-06
21 1 0.871581 0.794974 0.0935968 0 -1.01723e-05 5.33873e-06
22 1 0.371581 0.794974 0.0935969 0 -1.39277e-05 5.50654e-06
23 1 0.559059 0.919973 0.0935969 0 3.85231e-05 3.23649e-06
24 1 0.0590589 0.919973 0.0935969 0 3.78023e-05 3.31225e-06
25 1 0.975899 0.0865997 0.593597 0 2.05359e-05 -3.46666e-06
26 1 0.475898 0.0865997 0.593597 0 2.04883e-05 -2.47199e-06
27 1 0.246719 0.0449731 0.0935969 0 -1.90009e-05 2.49317e-06
28 1 0.746719 0.0449733 0.0935969 0 -2.04203e-05 2.83285e-06
29 1 0.163375 0.211601 0.593597 0 -4.36274e-05 -6.07298e-06
30 1 0.663375 0.211601 0.593597 0 -4.36911e-05 -6.16928e-06
31 1 0.934197 0.169973 0.0935969 0 6.27258e-06 5.73556e-06
32 1 0.434196 0.169973 0.0935969 0 6.87238e-06 4.49173e-06
