ITEM: TIMESTEP
0
ITEM: NUMBER OF ATOMS
32
ITEM: BOX BOUNDS xy xz yz pp pp pp
-4.7826766967773438e-03 8.7990810871124268e+00 2.3997493982315063e+00
-3.7661075592041016e-02 2.2120539069175720e+01 0.0000000000000000e+00
-1.1393904685974121e-02 5.1938598752021790e+00 0.0000000000000000e+00
ITEM: ATOMS id type xs ys zs fx fy fz
1 1 0.893104 0.336542 0.593597 0 0.000825882 5.72205e-06
2 1 0.393105 0.336542 0.593597 0 0.000822067 5.72205e-06
3 1 0.158659 0.295033 0.0935973 0 -0.00128365 -3.8147e-06
4 1 0.658659 0.295033 0.0935973 0 -0.00128555 -1.90735e-06
5 1 0.0962648 0.461543 0.593597 0 0.000946045 0
6 1 0.596265 0.461543 0.593597 0 0.00094986 5.72205e-06
7 1 0.861817 0.420037 0.0935973 0 -0.00122261 -7.62939e-06
8 1 0.361818 0.420037 0.0935973 0 -0.00122261 -3.8147e-06
9 1 0.799424 0.586543 0.593597 0 0.00116348 0
10 1 0.299424 0.586543 0.593597 0 0.00116158 0
11 1 0.00258609 0.711539 0.593597 0 0.0013752 7.62939e-06
12 1 0.502586 0.711539 0.593597 0 0.00136948 1.90735e-06
13 1 0.768135 0.670042 0.0935972 0 -0.00106812 -3.8147e-06
14 1 0.0649756 0.545043 0.0935972 0 -0.00105476 0
15 1 0.564976 0.545043 0.0935972 0 -0.00105095 0
16 1 0.268136 0.670042 0.0935972 0 -0.00107002 -7.62939e-06
17 1 0.705748 0.836533 0.593597 0 0.0113316 3.8147e-06
18 1 0.205748 0.836533 0.593597 0 0.0113335 0
19 1 0.908909 0.961533 0.593597 0 -0.186844 1.90735e-06
20 1 0.408909 0.961533 0.593597 0 -0.186834 1.90735e-06
21 1 0.971299 0.795035 0.0935971 0 0.000881195 1.90735e-06
22 1 0.471299 0.795035 0.0935971 0 0.000879288 -1.90735e-06
23 1 0.674459 0.920032 0.0935971 0 -0.326077 -5.72205e-06
24 1 0.17446 0.920032 0.0935971 0 -0.326078 0
25 1 0.986786 0.0865377 0.593597 0 0.325899 0
26 1 0.486787 0.0865377 0.593597 0 0.325897 0
27 1 0.25234 0.045031 0.093597 0 0.187115 0
28 1 0.75234 0.045031 0.093597 0 0.187117 0
29 1 0.189945 0.211541 0.593597 0 -0.000881195 0
30 1 0.689945 0.211541 0.593597 0 -0.000881195 0
31 1 0.9555 0.170031 0.093597 0 -0.0111065 0
32 1 0.4555 0.170031 0.093597 0 -0.0111065 0
ITEM: TIMESTEP
1
ITEM: NUMBER OF ATOMS
32
ITEM: BOX BOUNDS xy xz yz pp pp pp
-4.7826766967773438e-03 8.7990810871124268e+00 2.3997493982315063e+00
-3.7661075592041016e-02 2.2120539069175720e+01 0.0000000000000000e+00
-1.1393904685974121e-02 5.1938598752021790e+00 0.0000000000000000e+00
ITEM: ATOMS id type xs ys zs fx fy fz
1 1 0.893101 0.336551 0.593597 0 0.00028038 -5.72205e-06
2 1 0.393102 0.336551 0.593597 0 0.00028801 0
3 1 0.158664 0.29502 0.0935971 0 -1.52588e-05 0
4 1 0.658664 0.29502 0.0935972 0 -2.28882e-05 1.90735e-06
5 1 0.0962612 0.461552 0.593597 0 0.00112724 0
6 1 0.596261 0.461552 0.593597 0 0.00112915 0
7 1 0.861822 0.420025 0.093597 0 -0.00155258 1.90735e-06
8 1 0.361822 0.420025 0.0935971 0 -0.00154495 1.90735e-06
9 1 0.79942 0.586555 0.593597 0 0.00150681 3.8147e-06
10 1 0.29942 0.586555 0.593597 0 0.00150681 -3.8147e-06
11 1 0.00258085 0.711553 0.593597 0 0.000125885 -5.72205e-06
12 1 0.502581 0.711553 0.593597 0 0.000127792 0
13 1 0.768139 0.670031 0.093597 0 -0.000442505 1.90735e-06
14 1 0.0649797 0.545032 0.0935972 0 -0.00127792 -3.8147e-06
15 1 0.56498 0.545032 0.0935972 0 -0.00128555 0
16 1 0.26814 0.670031 0.0935969 0 -0.000440598 5.72205e-06
17 1 0.705705 0.836648 0.593597 0 -0.0637169 0
18 1 0.205705 0.836648 0.593597 0 -0.0637131 3.8147e-06
19 1 0.90962 0.959633 0.593597 0 0.0568104 -1.90735e-06
20 1 0.40962 0.959633 0.593597 0 0.0568085 -1.90735e-06
21 1 0.971295 0.795043 0.0935972 0 -0.0737419 -1.90735e-06
22 1 0.471295 0.795043 0.093597 0 -0.07374 0
23 1 0.675701 0.916717 0.0935968 0 -0.0227699 3.8147e-06
24 1 0.175702 0.916717 0.0935971 0 -0.0227699 -1.90735e-06
25 1 0.985545 0.0898504 0.593597 0 0.0229053 0
26 1 0.485545 0.0898504 0.593597 0 0.0229053 0
27 1 0.251627 0.046933 0.093597 0 -0.0567532 0
28 1 0.751627 0.046933 0.093597 0 -0.0567608 0
29 1 0.189949 0.211532 0.593597 0 0.0736332 0
30 1 0.689949 0.211532 0.593597 0 0.0736408 1.90735e-06
31 1 0.955542 0.169918 0.093597 0 0.0638771 0
32 1 0.455542 0.169918 0.093597 0 0.0638752 0
ITEM: TIMESTEP
2
ITEM: NUMBER OF ATOMS
32
ITEM: BOX BOUNDS xy xz yz pp pp pp
-4.7826766967773438e-03 8.7990810871124268e+00 2.3997493982315063e+00
-3.7661075592041016e-02 2.2120539069175720e+01 0.0000000000000000e+00
-1.1393904685974121e-02 5.1938598752021790e+00 0.0000000000000000e+00
ITEM: ATOMS id type xs ys zs fx fy fz
1 1 0.893098 0.33656 0.593597 0 0.0358009 5.72205e-06
2 1 0.393098 0.33656 0.593597 0 0.0358009 3.8147e-06
3 1 0.158666 0.295015 0.0935971 0 0.0438938 -5.72205e-06
4 1 0.658666 0.295015 0.0935974 0 0.0439034 -9.53674e-06
5 1 0.0962498 0.461582 0.593597 0 0.000337601 -3.8147e-06
6 1 0.59625 0.461583 0.593597 0 0.000328064 -1.90735e-06
7 1 0.861837 0.419984 0.0935971 0 0.00108528 1.90735e-06
8 1 0.361838 0.419984 0.0935973 0 0.00107574 0
9 1 0.799405 0.586595 0.593597 0 -0.00114632 -3.8147e-06
10 1 0.299405 0.586595 0.593597 0 -0.00114632 5.72205e-06
11 1 0.00257817 0.71156 0.593597 0 -0.0439491 1.90735e-06
12 1 0.502578 0.71156 0.593597 0 -0.0439434 0
13 1 0.768145 0.670017 0.0935972 0 -0.0358543 0
14 1 0.0649925 0.544998 0.0935968 0 -0.000411987 7.62939e-06
15 1 0.564993 0.544998 0.0935972 0 -0.000404358 -1.90735e-06
16 1 0.268145 0.670017 0.0935974 0 -0.0358543 -5.72205e-06
17 1 0.706274 0.83513 0.593597 0 0.0163841 1.90735e-06
18 1 0.206274 0.83513 0.593597 0 0.0163822 -7.62939e-06
19 1 0.909309 0.960463 0.593597 0 0.00908852 1.90735e-06
20 1 0.409309 0.960463 0.593597 0 0.00908661 0
21 1 0.971967 0.793251 0.093597 0 -0.0121059 1.90735e-06
22 1 0.471967 0.793251 0.093597 0 -0.0121059 1.90735e-06
23 1 0.676271 0.915197 0.0935972 0 0.00332069 0
24 1 0.176272 0.915197 0.0935969 0 0.00331879 1.90735e-06
25 1 0.984974 0.0913736 0.593597 0 -0.00330353 0
26 1 0.484974 0.0913736 0.593597 0 -0.00329399 0
27 1 0.251937 0.0461055 0.093597 0 -0.0089798 1.90735e-06
28 1 0.751937 0.0461053 0.093597 0 -0.0089798 -1.90735e-06
29 1 0.189278 0.213322 0.593597 0 0.0121803 3.8147e-06
30 1 0.689278 0.213322 0.593597 0 0.0121727 0
31 1 0.954971 0.171441 0.093597 0 -0.0163441 0
32 1 0.454972 0.171441 0.093597 0 -0.0163364 0
ITEM: TIMESTEP
3
ITEM: NUMBER OF ATOMS
32
ITEM: BOX BOUNDS xy xz yz pp pp pp
-4.7826766967773438e-03 8.7990810871124268e+00 2.3997493982315063e+00
-3.7661075592041016e-02 2.2120539069175720e+01 0.0000000000000000e+00
-1.1393904685974121e-02 5.1938598752021790e+00 0.0000000000000000e+00
ITEM: ATOMS id type xs ys zs fx fy fz
1 1 0.892754 0.337476 0.593597 0 0.00718117 0
2 1 0.392755 0.337477 0.593598 0 0.00716972 -1.14441e-05
3 1 0.158246 0.296135 0.0935964 0 -0.0043335 5.72205e-06
4 1 0.658246 0.296135 0.0935964 0 -0.00432396 1.14441e-05
5 1 0.0962435 0.461599 0.593597 0 0.0153923 5.72205e-06
6 1 0.596244 0.461599 0.593597 0 0.015398 3.8147e-06
7 1 0.861831 0.42 0.0935973 0 0.0295143 -3.8147e-06
8 1 0.361832 0.42 0.0935973 0 0.0295143 -1.90735e-06
9 1 0.799412 0.586577 0.593597 0 -0.0295544 -1.90735e-06
10 1 0.299412 0.586577 0.593597 0 -0.0295563 0
11 1 0.0029978 0.71044 0.593597 0 0.00432396 1.90735e-06
12 1 0.502998 0.710441 0.593597 0 0.00431824 0
13 1 0.768489 0.669099 0.0935972 0 -0.00714111 -1.90735e-06
14 1 0.0649999 0.544978 0.0935975 0 -0.0154419 -5.72205e-06
15 1 0.565 0.544978 0.093597 0 -0.0154457 3.8147e-06
16 1 0.268489 0.669099 0.0935969 0 -0.00714684 0
17 1 0.706271 0.835137 0.593597 0 -0.00218201 -5.72205e-06
18 1 0.206271 0.835137 0.593597 0 -0.00219536 9.53674e-06
19 1 0.909138 0.96092 0.593597 0 -0.013073 3.8147e-06
20 1 0.409138 0.96092 0.593597 0 -0.0130577 1.90735e-06
21 1 0.972265 0.792456 0.0935972 0 -0.00304031 -1.90735e-06
22 1 0.472265 0.792456 0.0935972 0 -0.00304794 1.90735e-06
23 1 0.676394 0.91487 0.0935973 0 -0.0041256 -3.8147e-06
24 1 0.176394 0.914869 0.0935971 0 -0.00411606 -7.62939e-06
25 1 0.984851 0.091702 0.593597 0 0.0042038 0
26 1 0.484851 0.0917022 0.593597 0 0.00418472 -1.90735e-06
27 1 0.252107 0.045652 0.0935972 0 0.0130882 -3.8147e-06
28 1 0.752107 0.0456518 0.0935968 0 0.0130997 5.72205e-06
29 1 0.18898 0.214118 0.593597 0 0.0030098 -7.62939e-06
30 1 0.68898 0.214118 0.593597 0 0.00300789 -1.90735e-06
31 1 0.954973 0.171436 0.093597 0 0.00218964 1.90735e-06
32 1 0.454973 0.171436 0.093597 0 0.00218582 3.8147e-06
ITEM: TIMESTEP
4
ITEM: NUMBER OF ATOMS
32
ITEM: BOX BOUNDS xy xz yz pp pp pp
-4.7826766967773438e-03 8.7990810871124268e+00 2.3997493982315063e+00
-3.7661075592041016e-02 2.2120539069175720e+01 0.0000000000000000e+00
-1.1393904685974121e-02 5.1938598752021790e+00 0.0000000000000000e+00
ITEM: ATOMS id type xs ys zs fx fy fz
1 1 0.892593 0.337907 0.593597 0 0.00287056 -3.8147e-06
2 1 0.392593 0.337907 0.593597 0 0.00287056 -1.90735e-06
3 1 0.158151 0.296389 0.0935968 0 -0.000196457 5.72205e-06
4 1 0.658151 0.296389 0.0935971 0 -0.000207901 0
5 1 0.096122 0.461924 0.593597 0 -0.006073 3.8147e-06
6 1 0.596122 0.461924 0.593597 0 -0.00606918 -7.62939e-06
7 1 0.8616 0.420617 0.093597 0 0.0013237 5.72205e-06
8 1 0.3616 0.420617 0.0935972 0 0.00132751 -1.90735e-06
9 1 0.799643 0.585958 0.593597 0 -0.00135422 5.72205e-06
10 1 0.299644 0.585958 0.593597 0 -0.00134659 0
11 1 0.0030932 0.710186 0.593597 0 0.00019455 -5.72205e-06
12 1 0.503093 0.710186 0.593597 0 0.00018692 -1.90735e-06
13 1 0.76865 0.668668 0.0935971 0 -0.00288582 -1.90735e-06
14 1 0.0651222 0.544652 0.0935972 0 0.00606918 -5.72205e-06
15 1 0.565122 0.544652 0.0935973 0 0.006073 1.90735e-06
16 1 0.268651 0.668668 0.0935967 0 -0.00288773 9.53674e-06
17 1 0.706287 0.835094 0.593597 0 -0.0097332 3.8147e-06
18 1 0.206288 0.835094 0.593597 0 -0.00972366 -3.8147e-06
19 1 0.909187 0.960789 0.593597 0 -0.00137329 -3.8147e-06
20 1 0.409187 0.960789 0.593597 0 -0.00139046 -1.90735e-06
21 1 0.97238 0.792148 0.093597 0 -0.00108147 0
22 1 0.47238 0.792148 0.0935974 0 -0.00107193 -5.72205e-06
23 1 0.676463 0.914683 0.093597 0 0.00387001 1.90735e-06
24 1 0.176464 0.914683 0.0935964 0 0.00385857 7.62939e-06
25 1 0.984781 0.0918902 0.593597 0 -0.00387001 0
26 1 0.484781 0.0918901 0.593597 0 -0.00385475 7.62939e-06
27 1 0.252058 0.0457841 0.0935969 0 0.00140381 -3.8147e-06
28 1 0.752058 0.0457841 0.0935972 0 0.00139427 0
29 1 0.188865 0.214425 0.593597 0 0.00111008 1.90735e-06
30 1 0.688865 0.214425 0.593597 0 0.00111771 3.8147e-06
31 1 0.954957 0.17148 0.0935972 0 0.00972748 -3.8147e-06
32 1 0.454957 0.17148 0.0935973 0 0.00972176 -5.72205e-06
ITEM: TIMESTEP
5
ITEM: NUMBER OF ATOMS
32
ITEM: BOX BOUNDS xy xz yz pp pp pp
-4.7826766967773438e-03 8.7990810871124268e+00 2.3997493982315063e+00
-3.7661075592041016e-02 2.2120539069175720e+01 0.0000000000000000e+00
-1.1393904685974121e-02 5.1938598752021790e+00 0.0000000000000000e+00
ITEM: ATOMS id type xs ys zs fx fy fz
1 1 0.892553 0.338014 0.593597 0 -0.00223351 7.62939e-06
2 1 0.392553 0.338014 0.593597 0 -0.00222969 7.62939e-06
3 1 0.158142 0.296414 0.0935973 0 0.0049839 -3.8147e-06
4 1 0.658142 0.296414 0.0935972 0 0.00498581 -7.62939e-06
5 1 0.0961534 0.46184 0.593597 0 -0.000705719 3.8147e-06
6 1 0.596153 0.46184 0.593597 0 -0.000703812 3.8147e-06
7 1 0.861563 0.420715 0.0935975 0 -0.000686646 -7.62939e-06
8 1 0.361564 0.420715 0.093597 0 -0.000688553 -3.8147e-06
9 1 0.79968 0.58586 0.593597 0 0.000688553 0
10 1 0.299681 0.58586 0.593597 0 0.000679016 0
11 1 0.00310276 0.71016 0.593597 0 -0.00500107 9.53674e-06
12 1 0.503103 0.71016 0.593597 0 -0.00498962 3.8147e-06
13 1 0.768691 0.66856 0.0935969 0 0.0022316 0
14 1 0.0650908 0.544735 0.0935967 0 0.000692368 1.90735e-06
15 1 0.565091 0.544735 0.0935975 0 0.000692368 -3.8147e-06
16 1 0.268691 0.66856 0.0935975 0 0.00224113 -7.62939e-06
17 1 0.706362 0.834894 0.593597 0 -0.000631332 -5.72205e-06
18 1 0.206362 0.834894 0.593597 0 -0.000621796 0
19 1 0.909203 0.960747 0.593597 0 -0.00349998 1.90735e-06
20 1 0.409203 0.960747 0.593597 0 -0.00348663 0
21 1 0.972402 0.792091 0.093597 0 0.000656128 0
22 1 0.472402 0.792091 0.093597 0 0.000652313 1.90735e-06
23 1 0.676443 0.914739 0.0935971 0 -0.0021286 -1.90735e-06
24 1 0.176443 0.914739 0.093597 0 -0.00212097 0
25 1 0.984801 0.0918345 0.593597 0 0.00214577 -3.8147e-06
26 1 0.484802 0.0918347 0.593597 0 0.00213623 -5.72205e-06
27 1 0.252042 0.0458274 0.0935966 0 0.00348663 7.62939e-06
28 1 0.752042 0.0458272 0.0935973 0 0.00349617 0
29 1 0.188843 0.214483 0.593597 0 -0.000652313 0
30 1 0.688843 0.214483 0.593597 0 -0.000658035 -3.8147e-06
31 1 0.954882 0.17168 0.0935969 0 0.00063324 1.90735e-06
32 1 0.454882 0.17168 0.0935969 0 0.000637054 3.8147e-06
ITEM: TIMESTEP
6
ITEM: NUMBER OF ATOMS
32
ITEM: BOX BOUNDS xy xz yz pp pp pp
-4.7826766967773438e-03 8.7990810871124268e+00 2.3997493982315063e+00
-3.7661075592041016e-02 2.2120539069175720e+01 0.0000000000000000e+00
-1.1393904685974121e-02 5.1938598752021790e+00 0.0000000000000000e+00
ITEM: ATOMS id type xs ys zs fx fy fz
1 1 0.892557 0.338002 0.593598 0 -0.00193405 -9.53674e-06
2 1 0.392558 0.338002 0.593597 0 -0.00192833 -1.14441e-05
3 1 0.158097 0.296535 0.0935971 0 0.000951767 1.90735e-06
4 1 0.658097 0.296535 0.0935965 0 0.000944138 1.52588e-05
5 1 0.0961705 0.461794 0.593598 0 0.0014019 -1.52588e-05
6 1 0.59617 0.461794 0.593597 0 0.00139618 -1.90735e-06
7 1 0.861556 0.420734 0.0935969 0 0.00142288 9.53674e-06
8 1 0.361556 0.420734 0.0935966 0 0.00141716 1.33514e-05
9 1 0.799688 0.58584 0.593597 0 -0.0014267 -7.62939e-06
10 1 0.299688 0.58584 0.593597 0 -0.00141907 -3.8147e-06
11 1 0.00314803 0.71004 0.593597 0 -0.00094223 -7.62939e-06
12 1 0.503148 0.71004 0.593597 0 -0.000946045 -7.62939e-06
13 1 0.768686 0.668572 0.0935968 0 0.00193024 5.72205e-06
14 1 0.065074 0.54478 0.0935967 0 -0.00139809 9.53674e-06
15 1 0.565074 0.54478 0.0935972 0 -0.00140572 3.8147e-06
16 1 0.268687 0.668572 0.0935971 0 0.00192833 5.72205e-06
17 1 0.706394 0.83481 0.593597 0 -0.000528336 1.90735e-06
18 1 0.206394 0.83481 0.593597 0 -0.000541687 3.8147e-06
19 1 0.909238 0.960653 0.593597 0 0.00141335 -5.72205e-06
20 1 0.409238 0.960653 0.593597 0 0.00140762 7.62939e-06
21 1 0.972404 0.792086 0.093597 0 -0.000818253 -1.90735e-06
22 1 0.472404 0.792086 0.093597 0 -0.000816345 1.90735e-06
23 1 0.676453 0.914711 0.0935969 0 0.000915527 -1.90735e-06
24 1 0.176453 0.914711 0.0935972 0 0.000917435 -1.90735e-06
25 1 0.984791 0.0918628 0.593597 0 -0.000926971 1.90735e-06
26 1 0.484791 0.0918629 0.593597 0 -0.000930786 0
27 1 0.252007 0.0459206 0.0935972 0 -0.00138664 -3.8147e-06
28 1 0.752007 0.0459206 0.0935973 0 -0.00139427 0
29 1 0.188841 0.214489 0.593597 0 0.000808716 0
30 1 0.688841 0.214489 0.593597 0 0.000816345 -3.8147e-06
31 1 0.95485 0.171764 0.0935969 0 0.000535965 0
32 1 0.45485 0.171764 0.0935971 0 0.000535965 1.90735e-06
ITEM: TIMESTEP
7
ITEM: NUMBER OF ATOMS
32
ITEM: BOX BOUNDS xy xz yz pp pp pp
-4.7826766967773438e-03 8.7990810871124268e+00 2.3997493982315063e+00
-3.7661075592041016e-02 2.2120539069175720e+01 0.0000000000000000e+00
-1.1393904685974121e-02 5.1938598752021790e+00 0.0000000000000000e+00
ITEM: ATOMS id type xs ys zs fx fy fz
1 1 0.892568 0.337974 0.593597 0 0.000349045 -1.90735e-06
2 1 0.392568 0.337974 0.593597 0 0.000341415 3.8147e-06
3 1 0.158085 0.296567 0.0935972 0 0.000190735 -3.8147e-06
4 1 0.658085 0.296567 0.0935973 0 0.000205994 -1.90735e-06
5 1 0.0961659 0.461806 0.593597 0 -0.000320435 1.90735e-06
6 1 0.596166 0.461806 0.593597 0 -0.000322342 7.62939e-06
7 1 0.861548 0.420757 0.0935974 0 0.000442505 -1.90735e-06
8 1 0.361548 0.420757 0.0935973 0 0.000450134 -5.72205e-06
9 1 0.799696 0.585818 0.593597 0 -0.000450134 1.90735e-06
10 1 0.299696 0.585818 0.593597 0 -0.000448227 0
11 1 0.00315996 0.710008 0.593597 0 -0.00019455 0
12 1 0.50316 0.710008 0.593597 0 -0.000190735 3.8147e-06
13 1 0.768676 0.668601 0.0935971 0 -0.000343323 -1.90735e-06
14 1 0.0650785 0.544768 0.0935973 0 0.000322342 0
15 1 0.565079 0.544768 0.0935973 0 0.000322342 -1.90735e-06
16 1 0.268676 0.668601 0.0935973 0 -0.000347137 -1.90735e-06
17 1 0.706401 0.834789 0.593597 0 8.58307e-05 1.90735e-06
18 1 0.206402 0.834789 0.593597 0 7.82013e-05 -1.90735e-06
19 1 0.909236 0.960658 0.593597 0 0.000505447 0
20 1 0.409236 0.960658 0.593597 0 0.000499725 -3.8147e-06
21 1 0.972408 0.792074 0.0935969 0 0.000291824 -1.90735e-06
22 1 0.472408 0.792074 0.0935971 0 0.000286102 0
23 1 0.67645 0.91472 0.0935968 0 -0.000198364 5.72205e-06
24 1 0.17645 0.91472 0.0935971 0 -0.000205994 0
25 1 0.984794 0.0918545 0.593597 0 0.000213623 1.90735e-06
26 1 0.484794 0.0918545 0.593597 0 0.000217438 3.8147e-06
27 1 0.252008 0.0459162 0.093597 0 -0.000511169 0
28 1 0.752008 0.0459161 0.0935973 0 -0.000509262 -3.8147e-06
29 1 0.188836 0.214501 0.593597 0 -0.000293732 1.90735e-06
30 1 0.688836 0.214501 0.593597 0 -0.000310898 1.90735e-06
31 1 0.954842 0.171785 0.0935969 0 -7.62939e-05 0
32 1 0.454843 0.171785 0.0935972 0 -8.01086e-05 -3.8147e-06
ITEM: TIMESTEP
8
ITEM: NUMBER OF ATOMS
32
ITEM: BOX BOUNDS xy xz yz pp pp pp
-4.7826766967773438e-03 8.7990810871124268e+00 2.3997493982315063e+00
-3.7661075592041016e-02 2.2120539069175720e+01 0.0000000000000000e+00
-1.1393904685974121e-02 5.1938598752021790e+00 0.0000000000000000e+00
ITEM: ATOMS id type xs ys zs fx fy fz
1 1 0.892567 0.337978 0.593597 0 4.76837e-05 -5.72205e-06
2 1 0.392567 0.337978 0.593597 0 4.95911e-05 3.8147e-06
3 1 0.158082 0.296574 0.0935968 0 1.71661e-05 1.90735e-06
4 1 0.658082 0.296575 0.0935972 0 0 1.90735e-06
5 1 0.0961679 0.461801 0.593597 0 -0.000118256 1.90735e-06
6 1 0.596168 0.461801 0.593598 0 -0.000118256 -3.8147e-06
7 1 0.861543 0.420769 0.0935973 0 0.00012207 -5.72205e-06
8 1 0.361544 0.420769 0.0935968 0 0.000118256 7.62939e-06
9 1 0.799701 0.585806 0.593597 0 -0.000118256 3.8147e-06
10 1 0.299701 0.585806 0.593597 0 -0.00012207 -1.90735e-06
11 1 0.00316287 0.71 0.593597 0 -1.71661e-05 -1.90735e-06
12 1 0.503163 0.71 0.593597 0 -1.33514e-05 3.8147e-06
13 1 0.768677 0.668597 0.093597 0 -5.72205e-05 3.8147e-06
14 1 0.0650765 0.544774 0.0935973 0 0.00012207 -1.90735e-06
15 1 0.565076 0.544774 0.0935972 0 0.000123978 3.8147e-06
16 1 0.268677 0.668597 0.0935972 0 -5.34058e-05 -7.62939e-06
17 1 0.706402 0.834789 0.593597 0 0.000133514 0
18 1 0.206402 0.834789 0.593597 0 0.000131607 1.90735e-06
19 1 0.909232 0.960669 0.593597 0 -0.000156403 0
20 1 0.409232 0.960669 0.593597 0 -0.000154495 1.90735e-06
21 1 0.972406 0.792078 0.0935967 0 -0.000209808 1.90735e-06
22 1 0.472406 0.792078 0.0935971 0 -0.000207901 -3.8147e-06
23 1 0.676451 0.914716 0.0935973 0 -0.000131607 0
24 1 0.176452 0.914716 0.0935971 0 -0.000125885 -1.90735e-06
25 1 0.984793 0.0918581 0.593597 0 0.000110626 0
26 1 0.484793 0.0918581 0.593597 0 0.000112534 -7.62939e-06
27 1 0.252013 0.0459049 0.093597 0 0.000169754 5.72205e-06
28 1 0.752013 0.0459048 0.093597 0 0.000162125 1.90735e-06
29 1 0.188838 0.214496 0.593597 0 0.000211716 -1.14441e-05
30 1 0.688838 0.214496 0.593597 0 0.000234604 -3.8147e-06
31 1 0.954842 0.171786 0.093597 0 -0.000135422 0
32 1 0.454842 0.171786 0.0935969 0 -0.000127792 1.14441e-05
ITEM: TIMESTEP
9
ITEM: NUMBER OF ATOMS
32
ITEM: BOX BOUNDS xy xz yz pp pp pp
-4.7826766967773438e-03 8.7990810871124268e+00 2.3997493982315063e+00
-3.7661075592041016e-02 2.2120539069175720e+01 0.0000000000000000e+00
-1.1393904685974121e-02 5.1938598752021790e+00 0.0000000000000000e+00
ITEM: ATOMS id type xs ys zs fx fy fz
1 1 0.892567 0.337978 0.593597 0 4.76837e-05 -5.72205e-06
2 1 0.392567 0.337978 0.593597 0 4.95911e-05 3.8147e-06
3 1 0.158082 0.296574 0.0935968 0 1.71661e-05 1.90735e-06
4 1 0.658082 0.296575 0.0935972 0 0 1.90735e-06
5 1 0.0961679 0.461801 0.593597 0 -0.000118256 1.90735e-06
6 1 0.596168 0.461801 0.593598 0 -0.000118256 -3.8147e-06
7 1 0.861543 0.420769 0.0935973 0 0.00012207 -5.72205e-06
8 1 0.361544 0.420769 0.0935968 0 0.000118256 7.62939e-06
9 1 0.799701 0.585806 0.593597 0 -0.000118256 3.8147e-06
10 1 0.299701 0.585806 0.593597 0 -0.00012207 -1.90735e-06
11 1 0.00316287 0.71 0.593597 0 -1.71661e-05 -1.90735e-06
12 1 0.503163 0.71 0.593597 0 -1.33514e-05 3.8147e-06
13 1 0.768677 0.668597 0.093597 0 -5.72205e-05 3.8147e-06
14 1 0.0650765 0.544774 0.0935973 0 0.00012207 -1.90735e-06
15 1 0.565076 0.544774 0.0935972 0 0.000123978 3.8147e-06
16 1 0.268677 0.668597 0.0935972 0 -5.34058e-05 -7.62939e-06
17 1 0.706402 0.834789 0.593597 0 0.000133514 0
18 1 0.206402 0.834789 0.593597 0 0.000131607 1.90735e-06
19 1 0.909232 0.960669 0.593597 0 -0.000156403 0
20 1 0.409232 0.960669 0.593597 0 -0.000154495 1.90735e-06
21 1 0.972406 0.792078 0.0935967 0 -0.000209808 1.90735e-06
22 1 0.472406 0.792078 0.0935971 0 -0.000207901 -3.8147e-06
23 1 0.676451 0.914716 0.0935973 0 -0.000131607 0
24 1 0.176452 0.914716 0.0935971 0 -0.000125885 -1.90735e-06
25 1 0.984793 0.0918581 0.593597 0 0.000110626 0
26 1 0.484793 0.0918581 0.593597 0 0.000112534 -7.62939e-06
27 1 0.252013 0.0459049 0.093597 0 0.000169754 5.72205e-06
28 1 0.752013 0.0459048 0.093597 0 0.000162125 1.90735e-06
29 1 0.188838 0.214496 0.593597 0 0.000211716 -1.14441e-05
30 1 0.688838 0.214496 0.593597 0 0.000234604 -3.8147e-06
31 1 0.954842 0.171786 0.093597 0 -0.000135422 0
32 1 0.454842 0.171786 0.0935969 0 -0.000127792 1.14441e-05
