LAMMPS data file via write_data, version 4 May 2022, timestep = 51

32 atoms
3 atom types

-0.004782676696777344 6.39933168888092 xlo xhi
-0.037661075592041016 22.12053906917572 ylo yhi
-0.011393904685974121 5.193859875202179 zlo zhi
2.79970761388540 0 0 xy xz yz
Masses

1 24.305
2 65.40900000000001
3 88.90600000000001

Atoms # atomic

1 1 0.11826347962613368 7.419514075898937 3.0784291874337635 0 0 0
2 1 3.320323133103431 7.419514075534033 3.0784291900984497 0 0 0
3 1 1.7192945414651601 6.4997326602901415 0.47580373895798594 0 0 0
4 1 4.921351713061931 6.499732660306443 0.47580374029636596 0 0 0
5 1 1.7192945457239381 10.189292812000597 3.0784291711717815 0 0 0
6 1 4.921351730486396 10.189292827318013 3.0784291760228553 0 0 0
7 1 0.11826348162516756 9.269612485683961 0.47580375925475166 0 0 0
8 1 3.320323119351613 9.269612484875822 0.47580375161020355 0 0 0
9 1 0.11826348310063 12.959084944749593 3.078429175992548 0 0 0
10 1 3.320323121508733 12.959084939411754 3.0784291718440078 0 0 0
11 1 1.7192945459071414 15.728765569214463 3.0784291764134712 0 0 0
12 1 4.9213517274192355 15.728765572903034 3.0784291751370247 0 0 0
13 1 0.11826347215564063 14.809269383820265 0.47580324261658963 0 0 0
14 1 1.7192945539356381 12.039502906778278 0.4758032515415275 0 0 0
15 1 4.921351720467855 12.039502898348724 0.47580324335964513 0 0 0
16 1 3.3203231252755523 14.809269388073664 0.4758032347376818 0 0 0
17 1 0.11826348995168767 18.498402010709135 3.0784291544350038 0 0 0
18 1 3.3203231246434086 18.498402024094485 3.078429155788772 0 0 0
19 1 1.7192945427220392 21.268168671272694 3.0784291553098235 0 0 0
20 1 4.921351726889304 21.26816870343451 3.078429153411229 0 0 0
21 1 1.7192945428001136 17.578872792852287 0.4758027414181805 0 0 0
22 1 4.921351722891697 17.57887278419101 0.4758027413606228 0 0 0
23 1 0.11826347720688897 20.348586197477978 0.4758027405092415 0 0 0
24 1 3.320323122098488 20.348586207461828 0.4758027375270434 0 0 0
25 1 0.11826348641506618 1.8798586461723226 3.078429137697596 0 0 0
26 1 3.320323121017899 1.8798586381590257 3.078429138929529 0 0 0
27 1 1.7192945496254872 0.9601452035293369 0.475802236692707 0 0 0
28 1 4.921351721118063 0.9601452001515167 0.475802236692707 0 0 0
29 1 1.7192945413222969 4.649704963037606 3.0784291668533665 0 0 0
30 1 4.921351719469656 4.649704959147501 3.0784291654438145 0 0 0
31 1 0.11826348554414266 3.7299236364268467 0.47580223594681154 0 0 0
32 1 3.320323127660526 3.7299236256803296 0.4758022396349813 0 0 0

Velocities

1 0 0 0
2 0 0 0
3 0 0 0
4 0 0 0
5 0 0 0
6 0 0 0
7 0 0 0
8 0 0 0
9 0 0 0
10 0 0 0
11 0 0 0
12 0 0 0
13 0 0 0
14 0 0 0
15 0 0 0
16 0 0 0
17 0 0 0
18 0 0 0
19 0 0 0
20 0 0 0
21 0 0 0
22 0 0 0
23 0 0 0
24 0 0 0
25 0 0 0
26 0 0 0
27 0 0 0
28 0 0 0
29 0 0 0
30 0 0 0
31 0 0 0
32 0 0 0
