ITEM: TIMESTEP
0
ITEM: NUMBER OF ATOMS
48
ITEM: BOX BOUNDS xy xz yz pp pp pp
-5.6043128294481406e+00 8.5889536499827912e+00 2.5120357483981479e+00
-2.3252728783138264e-03 9.4515407374878730e+00 -5.6127173607634999e+00
9.2526380721303085e-04 1.9516202358592782e+01 2.0640487290955647e-01
ITEM: ATOMS id type xs ys zs fx fy fz
1 1 0.950712 0.167048 0.0318988 0 0 2.77667
2 1 0.506827 0.074165 0.0529524 0 0 0.211651
3 1 0.643768 0.12485 0.656954 0 0 -0.00736067
4 1 0.87215 0.948828 0.927931 0 0 -2.77666
5 1 0.53834 0.157077 0.80274 0 0 -0.0030335
6 1 0.316035 0.0417114 0.906878 0 0 -0.211652
7 1 0.982116 0.249755 0.781855 0 0 -0.0191809
8 1 0.962948 0.208448 0.407115 0 0 -0.00160388
9 1 0.200124 0.0322453 0.677678 0 0 0.00771699
10 1 0.859914 0.240762 0.552715 0 0 0.00160518
11 1 0.840747 0.199455 0.177975 0 0 0.0191822
12 1 0.622738 0.083631 0.282152 0 0 -0.00771724
13 1 0.284522 0.292133 0.15709 0 0 0.00303389
14 1 0.519323 0.115898 0.427787 0 0 0.000338675
15 1 0.950712 0.500382 0.0318988 0 0 2.77666
16 1 0.506827 0.407498 0.0529524 0 0 0.211651
17 1 0.643768 0.458184 0.656954 0 0 -0.00736042
18 1 0.87215 0.282161 0.927931 0 0 -2.77667
19 1 0.53834 0.49041 0.80274 0 0 -0.00303298
20 1 0.316035 0.375045 0.906878 0 0 -0.211652
21 1 0.982116 0.583088 0.781855 0 0 -0.019181
22 1 0.30354 0.333312 0.532044 0 0 -0.000338203
23 1 0.962948 0.541781 0.407115 0 0 -0.00160378
24 1 0.200124 0.365579 0.677678 0 0 0.00771649
25 1 0.859914 0.574095 0.552715 0 0 0.00160475
26 1 0.179095 0.324359 0.302876 0 0 0.00736062
27 1 0.840747 0.532788 0.177975 0 0 0.0191813
28 1 0.622738 0.416964 0.282152 0 0 -0.00771693
29 1 0.284522 0.625466 0.15709 0 0 0.00303204
30 1 0.519323 0.449231 0.427787 0 0 0.000337675
31 1 0.950712 0.833715 0.0318988 0 0 2.77666
32 1 0.506827 0.740832 0.0529524 0 0 0.211651
33 1 0.643768 0.791517 0.656954 0 0 -0.00736121
34 1 0.87215 0.615495 0.927931 0 0 -2.77666
35 1 0.53834 0.823743 0.80274 0 0 -0.00303333
36 1 0.316035 0.708378 0.906878 0 0 -0.211652
37 1 0.982116 0.916422 0.781855 0 0 -0.019181
38 1 0.30354 0.666645 0.532044 0 0 -0.000338131
39 1 0.962948 0.875115 0.407115 0 0 -0.00160397
40 1 0.200124 0.698912 0.677678 0 0 0.00771656
41 1 0.859914 0.907428 0.552715 0 0 0.00160217
42 1 0.179095 0.657693 0.302876 0 0 0.00736293
43 1 0.840747 0.866121 0.177975 0 0 0.0191823
44 1 0.622738 0.750298 0.282152 0 0 -0.00771619
45 1 0.284522 0.9588 0.15709 0 0 0.00303336
46 1 0.519323 0.782564 0.427787 0 0 0.000338223
47 1 0.30354 0.999979 0.532044 0 0 -0.000338762
48 1 0.179095 0.991026 0.302876 0 0 0.00736084
ITEM: TIMESTEP
12
ITEM: NUMBER OF ATOMS
48
ITEM: BOX BOUNDS xy xz yz pp pp pp
-5.6043128294481406e+00 8.5889536499827912e+00 2.5120357483981479e+00
-2.3252728783138264e-03 9.4515407374878730e+00 -5.6127173607634999e+00
9.2526380721303085e-04 1.9516202358592782e+01 2.0640487290955647e-01
ITEM: ATOMS id type xs ys zs fx fy fz
1 1 0.964884 0.16671 0.0470703 0 0 -0.000100054
2 1 0.511118 0.0740625 0.057546 0 0 3.12168e-05
3 1 0.639502 0.124952 0.652388 0 0 -2.64606e-05
4 1 0.857978 0.949167 0.91276 0 0 9.99573e-05
5 1 0.531438 0.157242 0.79535 0 0 -5.68095e-05
6 1 0.311744 0.0418139 0.902284 0 0 -3.13417e-05
7 1 0.975442 0.249915 0.774711 0 0 -2.18627e-05
8 1 0.964109 0.20842 0.408358 0 0 -1.68919e-05
9 1 0.196347 0.0323356 0.673634 0 0 2.42828e-05
10 1 0.858753 0.240789 0.551472 0 0 1.48553e-05
11 1 0.84742 0.199295 0.185119 0 0 1.74906e-05
12 1 0.626516 0.0835408 0.286196 0 0 -2.53312e-05
13 1 0.291425 0.291968 0.16448 0 0 5.38602e-05
14 1 0.520837 0.115861 0.429408 0 0 -7.64753e-06
15 1 0.964884 0.500043 0.0470703 0 0 -9.39002e-05
16 1 0.511118 0.407396 0.057546 0 0 3.04842e-05
17 1 0.639502 0.458286 0.652388 0 0 -2.99395e-05
18 1 0.857978 0.2825 0.91276 0 0 0.000101095
19 1 0.531438 0.490575 0.79535 0 0 -5.19543e-05
20 1 0.311744 0.375147 0.902284 0 0 -3.05455e-05
21 1 0.975442 0.583248 0.774711 0 0 -1.7072e-05
22 1 0.302026 0.333348 0.530422 0 0 6.97213e-06
23 1 0.964109 0.541754 0.408358 0 0 -1.67802e-05
24 1 0.196347 0.365669 0.673634 0 0 2.74566e-05
25 1 0.858753 0.574123 0.551472 0 0 1.77969e-05
26 1 0.18336 0.324257 0.307443 0 0 3.01342e-05
27 1 0.84742 0.532628 0.185119 0 0 1.69588e-05
28 1 0.626516 0.416874 0.286196 0 0 -2.47723e-05
29 1 0.291425 0.625302 0.16448 0 0 5.30251e-05
30 1 0.520837 0.449195 0.429408 0 0 -7.92146e-06
31 1 0.964884 0.833376 0.0470703 0 0 -9.90264e-05
32 1 0.511118 0.740729 0.057546 0 0 3.07705e-05
33 1 0.639502 0.791619 0.652388 0 0 -2.87019e-05
34 1 0.857978 0.615833 0.91276 0 0 9.15608e-05
35 1 0.531438 0.823908 0.79535 0 0 -5.20984e-05
36 1 0.311744 0.708481 0.902284 0 0 -3.17583e-05
37 1 0.975442 0.916581 0.774711 0 0 -1.81892e-05
38 1 0.302026 0.666681 0.530422 0 0 6.71898e-06
39 1 0.964109 0.875087 0.408358 0 0 -1.7006e-05
40 1 0.196347 0.699002 0.673634 0 0 2.65166e-05
41 1 0.858753 0.907456 0.551472 0 0 1.39798e-05
42 1 0.18336 0.657591 0.307443 0 0 3.09409e-05
43 1 0.84742 0.865962 0.185119 0 0 1.86588e-05
44 1 0.626516 0.750207 0.286196 0 0 -2.5892e-05
45 1 0.291425 0.958635 0.16448 0 0 5.43564e-05
46 1 0.520837 0.782528 0.429408 0 0 -7.00745e-06
47 1 0.302026 1.00001 0.530422 0 0 9.83887e-06
48 1 0.18336 0.990924 0.307443 0 0 3.02384e-05
