ITEM: TIMESTEP
0
ITEM: NUMBER OF ATOMS
4000
ITEM: BOX BOUNDS pp pp pp
0.0000000000000000e+00 4.0800000011920929e+01
0.0000000000000000e+00 4.0800000011920929e+01
0.0000000000000000e+00 4.0800000011920929e+01
ITEM: ATOMS id type x y z vx vy vz
1 1 0 0 0 1.47256 -0.810412 -0.404083
2 1 2.04 2.04 0 -2.32236 -0.924035 0.332138
3 1 2.04 0 2.04 -1.39203 0.640155 0.771876
4 1 0 2.04 2.04 -1.49949 -2.87621 -2.07094
5 1 4.08 0 0 -0.623945 -0.720647 0.625572
8 1 4.08 2.04 2.04 0.206262 2.18857 -0.762389
41 1 0 4.08 0 -1.05224 0.082173 0.579451
43 1 2.04 4.08 2.04 -0.288938 -0.100639 -1.79392
45 1 4.08 4.08 0 -3.30413 1.3125 -0.129323
221 1 0 0 4.08 -0.344036 0.648227 2.10395
222 1 2.04 2.04 4.08 -1.36612 1.33117 -1.40224
225 1 4.08 0 4.08 1.32071 -0.165607 -0.760284
261 1 0 4.08 4.08 3.14248 -0.691433 -2.72802
265 1 4.08 4.08 4.08 -2.52391 2.33402 -2.77221
6 1 6.12 2.04 0 -3.73429 -2.02925 0.89667
7 1 6.12 0 2.04 -1.88578 0.738819 1.27819
9 1 8.16 0 0 -0.194119 2.87129 -0.0894085
12 1 8.16 2.04 2.04 1.62142 0.074622 1.71509
47 1 6.12 4.08 2.04 0.275062 1.13317 0.0426125
49 1 8.16 4.08 0 -1.158 -1.52356 -1.09481
226 1 6.12 2.04 4.08 -1.61688 -0.392529 -2.99443
229 1 8.16 0 4.08 -2.43198 -0.527016 -1.63038
269 1 8.16 4.08 4.08 1.52374 -2.93484 1.90301
10 1 10.2 2.04 0 -0.617935 -2.61275 0.145212
11 1 10.2 0 2.04 2.63346 -0.739686 -1.22504
13 1 12.24 0 0 -0.319026 -1.29157 1.51421
16 1 12.24 2.04 2.04 -1.21372 -1.04331 -0.0044257
51 1 10.2 4.08 2.04 -0.397554 0.465068 2.435
53 1 12.24 4.08 0 -3.14475 0.128091 -0.781356
230 1 10.2 2.04 4.08 -0.618595 -1.40241 -1.9045
233 1 12.24 0 4.08 3.43749 -0.16381 4.86248
273 1 12.24 4.08 4.08 0.0733867 -1.77905 3.49666
14 1 14.28 2.04 0 2.55269 1.66942 -0.5417
15 1 14.28 0 2.04 1.05939 0.514322 -2.73767
17 1 16.32 0 0 -0.563736 1.67002 0.6511
20 1 16.32 2.04 2.04 -1.05926 1.59506 -2.07485
55 1 14.28 4.08 2.04 1.27222 -0.21045 -0.0682724
57 1 16.32 4.08 0 1.68203 -0.757035 -0.906961
234 1 14.28 2.04 4.08 -0.449417 -0.970765 1.7666
237 1 16.32 0 4.08 0.705612 1.13551 -0.599325
277 1 16.32 4.08 4.08 0.138534 1.2175 -0.247413
18 1 18.36 2.04 0 -3.3149 -0.374577 1.41045
19 1 18.36 0 2.04 0.102355 -1.75257 0.898836
21 1 20.4 0 0 -2.36362 -0.79335 3.75881
24 1 20.4 2.04 2.04 -0.411613 -0.669285 -3.2207
59 1 18.36 4.08 2.04 -0.624169 -1.11208 2.51965
61 1 20.4 4.08 0 -0.535041 -0.240108 0.180297
238 1 18.36 2.04 4.08 -0.613169 -0.633092 3.08575
241 1 20.4 0 4.08 1.19484 0.404617 1.33669
281 1 20.4 4.08 4.08 0.754753 -2.64421 -1.46195
22 1 22.44 2.04 0 -0.175227 -1.72553 0.646744
23 1 22.44 0 2.04 -3.71416 0.173447 0.939142
25 1 24.48 0 0 0.195834 -1.14461 -1.74054
28 1 24.48 2.04 2.04 1.92525 -2.04683 -0.712869
63 1 22.44 4.08 2.04 -1.72808 -0.401588 -0.707273
65 1 24.48 4.08 0 -1.56986 1.502 2.18827
242 1 22.44 2.04 4.08 0.631282 0.650136 2.27433
245 1 24.48 0 4.08 2.2757 0.202289 -0.862426
285 1 24.48 4.08 4.08 -1.48287 1.85527 0.384957
26 1 26.52 2.04 0 -1.4465 0.240534 0.406144
27 1 26.52 0 2.04 -0.158653 5.8126 0.203614
29 1 28.56 0 0 0.365411 -1.16292 -1.86279
32 1 28.56 2.04 2.04 0.548052 1.78824 -0.549869
67 1 26.52 4.08 2.04 -1.83723 0.349555 2.10102
69 1 28.56 4.08 0 -0.0289566 -0.322189 0.800969
246 1 26.52 2.04 4.08 -0.565843 -2.59147 -2.37548
249 1 28.56 0 4.08 2.85452 1.75477 2.43667
289 1 28.56 4.08 4.08 -1.42018 2.32581 -1.11455
30 1 30.6 2.04 0 1.00239 1.01406 1.58926
31 1 30.6 0 2.04 -0.178755 -0.569974 1.02183
33 1 32.64 0 0 -0.535583 -2.59337 0.784529
36 1 32.64 2.04 2.04 0.778324 0.977401 -3.00206
71 1 30.6 4.08 2.04 1.85108 -2.25486 3.07478
73 1 32.64 4.08 0 -1.03963 0.88133 1.89473
250 1 30.6 2.04 4.08 2.06898 1.66879 1.76601
253 1 32.64 0 4.08 -1.29964 1.42011 2.17158
293 1 32.64 4.08 4.08 -0.00873884 -0.382212 -2.74198
34 1 34.68 2.04 0 -2.90206 0.0108001 -0.926393
35 1 34.68 0 2.04 -0.147706 -0.913367 -1.43785
37 1 36.72 0 0 -1.2414 1.51761 -1.29504
40 1 36.72 2.04 2.04 0.827167 -1.72556 -0.0127432
75 1 34.68 4.08 2.04 0.760285 -0.642585 -1.07442
77 1 36.72 4.08 0 -0.864752 -0.977928 0.501389
254 1 34.68 2.04 4.08 -0.632168 -1.95386 -0.0667593
257 1 36.72 0 4.08 -1.03946 1.53783 -2.14152
297 1 36.72 4.08 4.08 3.93598 -1.2767 -1.95592
38 1 38.76 2.04 0 2.41768 1.0056 -0.134752
39 1 38.76 0 2.04 -2.12326 0.581444 0.373429
79 1 38.76 4.08 2.04 1.15561 -1.27997 2.96743
258 1 38.76 2.04 4.08 -1.34708 -0.55377 -2.38972
42 1 2.04 6.12 0 -0.170801 -1.29918 -1.13107
44 1 0 6.12 2.04 -0.709172 -2.03252 -0.276943
48 1 4.08 6.12 2.04 -0.0450651 -2.39017 -2.32256
81 1 0 8.16 0 2.00696 -1.3983 -0.119554
83 1 2.04 8.16 2.04 -1.25737 1.63634 1.82236
85 1 4.08 8.16 0 -1.0074 1.67572 2.88796
262 1 2.04 6.12 4.08 -0.340287 -2.55873 0.866126
301 1 0 8.16 4.08 -1.93754 -2.73383 2.62594
305 1 4.08 8.16 4.08 1.00152 -0.542355 -0.837841
46 1 6.12 6.12 0 -2.03739 -1.89267 2.13472
52 1 8.16 6.12 2.04 1.36314 0.952445 0.679642
87 1 6.12 8.16 2.04 1.90603 0.477993 2.69606
89 1 8.16 8.16 0 -2.33748 -1.23267 -0.476651
266 1 6.12 6.12 4.08 1.62116 0.221245 -0.151062
309 1 8.16 8.16 4.08 1.03521 -1.82532 -0.61339
50 1 10.2 6.12 0 -0.128327 -0.115046 0.867867
56 1 12.24 6.12 2.04 -0.371718 0.708634 1.79954
91 1 10.2 8.16 2.04 -0.553758 0.797416 0.0748721
93 1 12.24 8.16 0 -0.359436 -1.4245 0.685038
270 1 10.2 6.12 4.08 -0.247255 -1.09284 0.0846403
313 1 12.24 8.16 4.08 1.27612 1.33707 -0.391455
54 1 14.28 6.12 0 -1.2835 0.652195 -0.460732
60 1 16.32 6.12 2.04 -0.949443 -0.766831 1.64381
95 1 14.28 8.16 2.04 -1.75413 1.76334 1.36138
97 1 16.32 8.16 0 2.14657 -1.07678 2.76453
274 1 14.28 6.12 4.08 -0.265229 -0.578131 -2.28515
317 1 16.32 8.16 4.08 -0.66654 1.5556 0.481694
58 1 18.36 6.12 0 -0.137208 -2.92461 0.593209
64 1 20.4 6.12 2.04 3.0782 0.428042 -0.66447
99 1 18.36 8.16 2.04 0.62965 0.726536 1.50388
101 1 20.4 8.16 0 -0.275705 -0.860984 -2.18418
278 1 18.36 6.12 4.08 0.14294 0.102943 -0.675227
321 1 20.4 8.16 4.08 -0.470104 -0.47819 2.32472
62 1 22.44 6.12 0 0.178388 0.144405 0.683751
68 1 24.48 6.12 2.04 -4.53247 0.00239719 -3.89222
103 1 22.44 8.16 2.04 -1.45544 -0.42213 1.62032
105 1 24.48 8.16 0 0.600866 -0.18312 1.09287
282 1 22.44 6.12 4.08 1.49196 -2.06708 2.09078
325 1 24.48 8.16 4.08 -2.15686 -1.37855 -4.15598
66 1 26.52 6.12 0 0.832636 -0.180633 0.918681
72 1 28.56 6.12 2.04 -2.90587 -0.153624 0.15836
107 1 26.52 8.16 2.04 2.2331 0.417502 -0.122749
109 1 28.56 8.16 0 -1.94984 -0.903709 -1.04585
286 1 26.52 6.12 4.08 -1.51773 -1.3294 0.0362437
329 1 28.56 8.16 4.08 -3.37962 0.121647 -2.26391
70 1 30.6 6.12 0 0.00535959 -0.0387555 0.447611
76 1 32.64 6.12 2.04 -0.119607 -0.816712 1.81651
111 1 30.6 8.16 2.04 1.58746 -1.11766 0.837138
113 1 32.64 8.16 0 0.480025 0.457034 -0.586077
290 1 30.6 6.12 4.08 0.849846 0.250261 0.68077
333 1 32.64 8.16 4.08 1.15314 -1.21186 -1.2253
74 1 34.68 6.12 0 -0.500141 0.987662 0.635782
80 1 36.72 6.12 2.04 1.03238 -0.812562 -0.488232
115 1 34.68 8.16 2.04 0.206261 1.98293 1.77914
117 1 36.72 8.16 0 -0.284375 1.77684 -2.25585
294 1 34.68 6.12 4.08 1.23975 2.09419 1.58541
337 1 36.72 8.16 4.08 0.281932 0.00141239 0.951752
78 1 38.76 6.12 0 -0.230058 1.53776 -0.603707
119 1 38.76 8.16 2.04 2.21111 0.782977 -0.870374
298 1 38.76 6.12 4.08 -0.978757 -1.27222 -1.95387
82 1 2.04 10.2 0 1.09008 -0.884005 -0.0244867
84 1 0 10.2 2.04 1.23324 -1.59434 -1.35985
88 1 4.08 10.2 2.04 0.300912 1.72283 2.12231
121 1 0 12.24 0 0.223137 -1.81743 3.23461
123 1 2.04 12.24 2.04 2.02366 0.632008 1.20781
125 1 4.08 12.24 0 0.98328 -1.18351 -3.9255
302 1 2.04 10.2 4.08 -0.819543 1.55341 -1.99511
341 1 0 12.24 4.08 0.882595 -0.546552 0.708787
345 1 4.08 12.24 4.08 -0.343302 -0.900231 1.43218
86 1 6.12 10.2 0 0.416287 -2.15042 3.6382
92 1 8.16 10.2 2.04 2.39528 -1.22583 0.120762
127 1 6.12 12.24 2.04 -0.250777 0.686363 -1.25239
129 1 8.16 12.24 0 -0.160362 1.25363 1.58049
306 1 6.12 10.2 4.08 -2.55 -1.96667 -0.708496
349 1 8.16 12.24 4.08 1.37237 0.517154 0.748557
90 1 10.2 10.2 0 -0.317883 -0.989498 -0.19708
96 1 12.24 10.2 2.04 0.694298 -1.88398 2.05357
131 1 10.2 12.24 2.04 -0.894477 0.360185 3.3078
133 1 12.24 12.24 0 0.296831 0.541522 3.92921
310 1 10.2 10.2 4.08 -0.542793 -1.12911 1.27893
353 1 12.24 12.24 4.08 -1.30719 0.796729 -1.8246
94 1 14.28 10.2 0 0.831048 -3.50045 0.598743
100 1 16.32 10.2 2.04 0.866161 -2.28699 -1.12876
135 1 14.28 12.24 2.04 0.796105 0.875589 -1.94533
137 1 16.32 12.24 0 1.33346 -1.80952 0.262853
314 1 14.28 10.2 4.08 -2.06775 -1.45622 -0.227214
357 1 16.32 12.24 4.08 2.0418 1.27355 0.792711
98 1 18.36 10.2 0 -0.0704222 0.58176 1.82616
104 1 20.4 10.2 2.04 1.23071 1.55691 -0.379196
139 1 18.36 12.24 2.04 -0.465152 -0.214864 -0.629277
141 1 20.4 12.24 0 -0.895844 2.15886 -0.965889
318 1 18.36 10.2 4.08 1.40374 -1.41572 -1.8551
361 1 20.4 12.24 4.08 0.301123 2.36747 -3.02937
102 1 22.44 10.2 0 -0.630351 2.76116 -1.90915
108 1 24.48 10.2 2.04 0.394183 -0.194305 2.86549
143 1 22.44 12.24 2.04 0.545692 -0.74911 1.03624
145 1 24.48 12.24 0 1.92747 0.767524 1.0292
322 1 22.44 10.2 4.08 0.42535 0.305293 -0.191377
365 1 24.48 12.24 4.08 1.27854 0.704392 -2.06877
106 1 26.52 10.2 0 -0.34007 -2.77905 -0.135611
112 1 28.56 10.2 2.04 -0.826772 2.41218 -1.44704
147 1 26.52 12.24 2.04 -2.34937 0.589464 0.265686
149 1 28.56 12.24 0 -0.786718 0.898547 -1.91608
326 1 26.52 10.2 4.08 -0.31172 0.207522 0.812737
369 1 28.56 12.24 4.08 -0.903682 2.18065 -0.823388
110 1 30.6 10.2 0 0.366618 0.0300002 1.45386
116 1 32.64 10.2 2.04 2.3728 1.55179 2.42292
151 1 30.6 12.24 2.04 -0.740059 0.794085 -1.07304
153 1 32.64 12.24 0 1.48841 -0.851069 -3.02782
330 1 30.6 10.2 4.08 -0.955114 -1.14178 -1.93116
373 1 32.64 12.24 4.08 -2.88219 -1.04484 0.0481104
114 1 34.68 10.2 0 -0.258813 1.24764 0.316489
120 1 36.72 10.2 2.04 -4.00366 -1.21086 -0.816194
155 1 34.68 12.24 2.04 0.0272849 -0.501653 1.43791
157 1 36.72 12.24 0 -0.865254 3.72997 1.0136
334 1 34.68 10.2 4.08 -2.4196 -0.14346 -0.222469
377 1 36.72 12.24 4.08 0.415414 0.0795316 1.54003
118 1 38.76 10.2 0 2.03589 -2.31554 0.109381
159 1 38.76 12.24 2.04 -0.0148569 -1.79492 -0.321624
338 1 38.76 10.2 4.08 0.0419579 1.27703 0.883557
122 1 2.04 14.28 0 0.545318 1.26968 -0.652732
124 1 0 14.28 2.04 0.454971 2.0575 1.07945
128 1 4.08 14.28 2.04 0.111423 3.35209 0.10289
161 1 0 16.32 0 1.08699 2.0724 2.89775
163 1 2.04 16.32 2.04 3.20809 0.394377 0.841702
165 1 4.08 16.32 0 -1.24223 2.65403 1.17904
342 1 2.04 14.28 4.08 -0.734142 1.12971 -2.05284
381 1 0 16.32 4.08 -1.69432 1.46048 1.39636
385 1 4.08 16.32 4.08 -0.443379 0.286226 1.87237
126 1 6.12 14.28 0 0.0506567 2.45668 -1.08948
132 1 8.16 14.28 2.04 -0.714292 -1.52297 0.823165
167 1 6.12 16.32 2.04 3.13272 -1.5219 0.439534
169 1 8.16 16.32 0 3.10328 0.539802 0.508266
346 1 6.12 14.28 4.08 -1.14793 2.41275 -0.802336
389 1 8.16 16.32 4.08 2.89773 0.459284 -0.092275
130 1 10.2 14.28 0 -1.5702 -0.557824 2.34903
136 1 12.24 14.28 2.04 -0.0960341 -1.25582 0.344781
171 1 10.2 16.32 2.04 -1.24312 2.60137 0.790657
173 1 12.24 16.32 0 -2.38775 0.555729 -0.267465
350 1 10.2 14.28 4.08 0.563397 0.488477 -1.04059
393 1 12.24 16.32 4.08 1.04488 0.755713 -0.578025
134 1 14.28 14.28 0 -0.529155 2.82837 0.212778
140 1 16.32 14.28 2.04 -0.545493 -0.51761 1.47005
175 1 14.28 16.32 2.04 -1.56579 -0.353634 -1.23038
177 1 16.32 16.32 0 0.146854 1.20762 2.14757
354 1 14.28 14.28 4.08 1.98153 -1.78196 0.359843
397 1 16.32 16.32 4.08 -1.35724 -0.630287 0.247115
138 1 18.36 14.28 0 -0.898815 1.04972 -1.19232
144 1 20.4 14.28 2.04 -0.0461409 1.37573 2.27722
179 1 18.36 16.32 2.04 1.12296 1.06679 0.677476
181 1 20.4 16.32 0 -0.846999 0.672664 0.0641908
358 1 18.36 14.28 4.08 -0.952101 -1.14361 -2.00871
401 1 20.4 16.32 4.08 -2.08957 -0.427159 -3.04057
142 1 22.44 14.28 0 -1.20883 0.565538 -1.5377
148 1 24.48 14.28 2.04 -0.562662 -1.99838 0.79161
183 1 22.44 16.32 2.04 -1.5157 -0.942249 -1.72183
185 1 24.48 16.32 0 -0.974705 -1.09099 1.97581
362 1 22.44 14.28 4.08 -0.0825851 -0.690459 -0.500906
405 1 24.48 16.32 4.08 -0.97439 -0.946635 2.66509
146 1 26.52 14.28 0 1.27974 1.19152 -0.597109
152 1 28.56 14.28 2.04 -2.38696 -0.230158 -1.30456
187 1 26.52 16.32 2.04 -0.965849 -1.47022 1.23946
189 1 28.56 16.32 0 -1.19051 -0.923382 1.59001
366 1 26.52 14.28 4.08 2.12589 0.423543 1.11647
409 1 28.56 16.32 4.08 2.47717 -0.0325701 0.503991
150 1 30.6 14.28 0 3.30599 -0.0624392 -0.521004
156 1 32.64 14.28 2.04 -0.214907 0.921802 2.15376
191 1 30.6 16.32 2.04 -0.69812 -0.313538 1.14824
193 1 32.64 16.32 0 1.40665 -1.5823 -0.834953
370 1 30.6 14.28 4.08 -1.26453 0.627584 -0.303857
413 1 32.64 16.32 4.08 2.37579 0.53263 0.369977
154 1 34.68 14.28 0 -2.4647 -0.387833 -1.67685
160 1 36.72 14.28 2.04 0.994802 -1.36143 -0.0988559
195 1 34.68 16.32 2.04 -0.332113 -0.782203 -0.253857
197 1 36.72 16.32 0 -0.0701806 0.0110146 1.98928
374 1 34.68 14.28 4.08 -3.16851 -2.10921 -1.08251
417 1 36.72 16.32 4.08 0.559917 -1.46501 -1.51957
158 1 38.76 14.28 0 -2.25785 2.60327 -2.04714
199 1 38.76 16.32 2.04 -1.43147 -0.875759 -1.93245
378 1 38.76 14.28 4.08 0.993995 1.18247 -0.162191
162 1 2.04 18.36 0 2.3354 1.81254 1.13753
164 1 0 18.36 2.04 2.49605 1.1108 1.01062
168 1 4.08 18.36 2.04 -4.37334 0.723768 -0.724097
201 1 0 20.4 0 1.43843 0.0963575 -2.59049
202 1 2.04 20.4 2.04 -1.34643 -2.45229 -1.35958
203 1 4.08 20.4 0 -0.122203 0.029679 1.43573
382 1 2.04 18.36 4.08 0.325002 -3.04394 1.5878
421 1 0 20.4 4.08 1.76821 -1.87408 -2.86168
423 1 4.08 20.4 4.08 -0.656747 -0.0841874 2.47532
166 1 6.12 18.36 0 4.40973 -0.0259064 2.05719
172 1 8.16 18.36 2.04 -0.740572 2.34211 0.651382
204 1 6.12 20.4 2.04 -0.527701 3.77081 -0.819824
205 1 8.16 20.4 0 -1.33713 0.282548 1.22968
386 1 6.12 18.36 4.08 -1.68074 0.763191 1.97869
425 1 8.16 20.4 4.08 -1.07918 2.38964 0.491692
170 1 10.2 18.36 0 0.0325047 -0.896792 3.52783
176 1 12.24 18.36 2.04 0.548126 0.546716 2.67406
206 1 10.2 20.4 2.04 -1.66521 -0.372691 -0.650384
207 1 12.24 20.4 0 -0.290445 1.07252 1.72607
390 1 10.2 18.36 4.08 -0.534802 1.52346 1.8469
427 1 12.24 20.4 4.08 0.821145 0.715347 0.0017752
174 1 14.28 18.36 0 0.115433 -0.271225 5.23848
180 1 16.32 18.36 2.04 0.323106 1.50461 0.0356838
208 1 14.28 20.4 2.04 0.732749 -2.42338 -0.116991
209 1 16.32 20.4 0 -1.58167 0.466572 1.04029
394 1 14.28 18.36 4.08 3.45018 -1.66089 0.0410841
429 1 16.32 20.4 4.08 0.524535 -0.898869 1.20036
178 1 18.36 18.36 0 -0.124531 -1.87272 -0.385436
184 1 20.4 18.36 2.04 -1.10208 1.63425 -0.020436
210 1 18.36 20.4 2.04 1.14854 0.479685 0.521562
211 1 20.4 20.4 0 0.246762 -0.0179439 0.320442
398 1 18.36 18.36 4.08 1.75744 -2.39448 -0.0601868
431 1 20.4 20.4 4.08 -1.32266 -2.09123 -2.24796
182 1 22.44 18.36 0 0.540342 1.10472 -1.07659
188 1 24.48 18.36 2.04 1.22267 1.76545 0.714122
212 1 22.44 20.4 2.04 -2.47355 2.10262 -0.890153
213 1 24.48 20.4 0 1.19144 -2.12908 -2.59964
402 1 22.44 18.36 4.08 -2.10761 -4.65872 1.64121
433 1 24.48 20.4 4.08 1.09461 0.985607 1.57977
186 1 26.52 18.36 0 0.904288 -1.06307 -1.85954
192 1 28.56 18.36 2.04 1.94745 2.28732 -0.737712
214 1 26.52 20.4 2.04 1.90734 0.683554 -0.822267
215 1 28.56 20.4 0 0.0509868 -2.3871 -1.2788
406 1 26.52 18.36 4.08 -0.0773517 -0.406097 1.80298
435 1 28.56 20.4 4.08 0.862374 -1.04325 0.166227
190 1 30.6 18.36 0 -0.460203 -1.05662 -1.60104
196 1 32.64 18.36 2.04 -3.20426 -0.175929 -0.172782
216 1 30.6 20.4 2.04 -0.145337 1.34227 0.279372
217 1 32.64 20.4 0 1.08101 -0.311164 -0.430095
410 1 30.6 18.36 4.08 -3.9341 2.27247 1.00132
437 1 32.64 20.4 4.08 -1.78388 0.593906 1.10899
194 1 34.68 18.36 0 -1.42517 0.0265132 0.648816
200 1 36.72 18.36 2.04 1.49054 -3.09477 1.77054
218 1 34.68 20.4 2.04 0.354763 -1.02715 1.06042
219 1 36.72 20.4 0 1.44011 0.195755 1.18236
414 1 34.68 18.36 4.08 3.45584 -0.467759 -0.437805
439 1 36.72 20.4 4.08 -1.7882 -1.82365 -2.51066
198 1 38.76 18.36 0 -1.85339 -0.797528 -1.20347
220 1 38.76 20.4 2.04 0.577731 0.123408 2.43952
418 1 38.76 18.36 4.08 -1.73165 -1.33516 2.82684
223 1 2.04 0 6.12 1.55523 2.47778 -1.52121
224 1 0 2.04 6.12 -0.0718 3.83399 -0.00680734
228 1 4.08 2.04 6.12 0.859267 0.880546 1.25982
263 1 2.04 4.08 6.12 2.09689 1.52858 2.02855
441 1 0 0 8.16 1.31293 -1.64086 -3.07968
442 1 2.04 2.04 8.16 -0.301562 1.06583 0.0450449
445 1 4.08 0 8.16 -0.0532859 0.0969128 0.0944934
481 1 0 4.08 8.16 1.94329 0.61872 -3.1153
485 1 4.08 4.08 8.16 -0.802865 -3.55361 -0.553041
227 1 6.12 0 6.12 -0.0188459 0.136794 0.428112
232 1 8.16 2.04 6.12 -0.838016 -0.799218 0.800744
267 1 6.12 4.08 6.12 -0.903297 0.091417 -0.542627
446 1 6.12 2.04 8.16 -1.01114 0.395768 1.27903
449 1 8.16 0 8.16 -2.00872 -0.898441 -1.29135
489 1 8.16 4.08 8.16 -0.75721 1.79596 -0.633848
231 1 10.2 0 6.12 -0.315617 -0.116259 1.38674
236 1 12.24 2.04 6.12 0.484057 3.62713 0.42438
271 1 10.2 4.08 6.12 -0.939968 2.3494 -1.5517
450 1 10.2 2.04 8.16 0.0813861 0.0806667 0.0874889
453 1 12.24 0 8.16 2.8676 2.14076 -1.00366
493 1 12.24 4.08 8.16 -1.55113 0.307295 0.181744
235 1 14.28 0 6.12 0.265732 -1.83767 2.9008
240 1 16.32 2.04 6.12 0.188329 -1.30117 -1.65751
275 1 14.28 4.08 6.12 0.684021 0.0475312 1.39748
454 1 14.28 2.04 8.16 2.85153 -1.82784 0.519953
457 1 16.32 0 8.16 0.0616301 -0.358761 0.244629
497 1 16.32 4.08 8.16 0.760441 -1.05331 1.47413
239 1 18.36 0 6.12 -3.34705 2.24183 -5.1903
244 1 20.4 2.04 6.12 -2.63346 -0.291681 1.19275
279 1 18.36 4.08 6.12 -0.66148 -0.662218 0.672532
458 1 18.36 2.04 8.16 0.638846 -2.28371 -2.95992
461 1 20.4 0 8.16 2.26391 -1.99379 2.74405
501 1 20.4 4.08 8.16 0.795989 -3.39011 -0.389423
243 1 22.44 0 6.12 0.0174353 0.421123 -0.618486
248 1 24.48 2.04 6.12 1.39252 -0.515395 -0.893254
283 1 22.44 4.08 6.12 0.629396 -0.425509 0.889676
462 1 22.44 2.04 8.16 1.09928 -2.54316 0.357095
465 1 24.48 0 8.16 1.7541 -0.754216 0.871542
505 1 24.48 4.08 8.16 -2.16523 0.545396 1.35996
247 1 26.52 0 6.12 1.48868 -0.479311 -0.182302
252 1 28.56 2.04 6.12 -2.21143 -2.55193 -0.89763
287 1 26.52 4.08 6.12 -1.52874 0.652925 2.15211
466 1 26.52 2.04 8.16 3.73859 0.601728 0.394374
469 1 28.56 0 8.16 -0.376956 0.275018 1.67012
509 1 28.56 4.08 8.16 -1.06438 1.11175 -0.350327
251 1 30.6 0 6.12 -3.39345 0.106464 -1.15049
256 1 32.64 2.04 6.12 -2.85479 -0.589978 -1.3282
291 1 30.6 4.08 6.12 3.03302 0.211107 0.363454
470 1 30.6 2.04 8.16 2.18098 0.461923 1.45735
473 1 32.64 0 8.16 0.809918 -2.23298 2.27852
513 1 32.64 4.08 8.16 0.493821 0.10409 -0.376034
255 1 34.68 0 6.12 0.946853 0.20147 -0.0959545
260 1 36.72 2.04 6.12 0.386569 0.0503573 -2.39869
295 1 34.68 4.08 6.12 -0.152318 2.24374 -0.34338
474 1 34.68 2.04 8.16 -0.212595 1.1597 3.89105
477 1 36.72 0 8.16 0.449197 1.38649 -0.657079
517 1 36.72 4.08 8.16 -1.07473 2.36715 0.245581
259 1 38.76 0 6.12 1.89624 1.06563 -0.942183
299 1 38.76 4.08 6.12 1.59186 0.64375 -1.23383
478 1 38.76 2.04 8.16 -2.3729 0.953547 -0.234566
264 1 0 6.12 6.12 3.12103 0.169244 -2.6646
268 1 4.08 6.12 6.12 0.742832 -0.426655 -1.03519
303 1 2.04 8.16 6.12 2.64882 -1.27248 0.547991
482 1 2.04 6.12 8.16 -0.860741 -2.40464 1.51277
521 1 0 8.16 8.16 -0.734988 -0.0899742 -1.80597
525 1 4.08 8.16 8.16 1.1605 2.23164 2.66396
272 1 8.16 6.12 6.12 0.217626 -2.08337 -1.07069
307 1 6.12 8.16 6.12 -0.179392 0.263929 0.698263
486 1 6.12 6.12 8.16 -2.67008 1.43549 -0.35853
529 1 8.16 8.16 8.16 -0.796354 1.36549 -0.549588
276 1 12.24 6.12 6.12 -1.62222 -2.24032 1.77276
311 1 10.2 8.16 6.12 1.0173 -2.14162 0.297505
490 1 10.2 6.12 8.16 1.31353 -0.998349 -1.16772
533 1 12.24 8.16 8.16 2.12642 -0.549802 -1.37415
280 1 16.32 6.12 6.12 -3.4339 3.07748 -0.408033
315 1 14.28 8.16 6.12 1.02861 0.0301693 0.534571
494 1 14.28 6.12 8.16 -1.14284 -1.34379 0.414602
537 1 16.32 8.16 8.16 0.338025 0.355829 -1.96335
284 1 20.4 6.12 6.12 0.992324 1.32683 -3.82486
319 1 18.36 8.16 6.12 0.0499769 -0.744213 2.14263
498 1 18.36 6.12 8.16 -1.32658 3.66363 -2.35757
541 1 20.4 8.16 8.16 -0.558114 0.459634 -1.29555
288 1 24.48 6.12 6.12 -2.16359 1.70507 -2.86397
323 1 22.44 8.16 6.12 -0.184975 1.445 -2.69422
502 1 22.44 6.12 8.16 -0.399414 3.56162 -0.220628
545 1 24.48 8.16 8.16 -1.12765 0.899258 2.38424
292 1 28.56 6.12 6.12 -0.777976 0.245094 0.271211
327 1 26.52 8.16 6.12 -2.28747 0.557271 -1.12838
506 1 26.52 6.12 8.16 -0.267316 1.20018 -1.095
549 1 28.56 8.16 8.16 1.00978 1.21303 -1.02734
296 1 32.64 6.12 6.12 -0.72313 -0.721946 -2.30792
331 1 30.6 8.16 6.12 2.63111 0.782224 -1.34856
510 1 30.6 6.12 8.16 1.40737 0.622503 1.12665
553 1 32.64 8.16 8.16 -0.272616 -0.919868 0.613875
300 1 36.72 6.12 6.12 -0.87913 -1.73409 1.16815
335 1 34.68 8.16 6.12 -0.360458 1.36573 -0.124215
514 1 34.68 6.12 8.16 1.20854 0.315628 -0.631416
557 1 36.72 8.16 8.16 0.660624 -2.48065 1.34614
339 1 38.76 8.16 6.12 2.78975 0.374235 -1.68042
518 1 38.76 6.12 8.16 -4.33253 0.314652 1.16564
304 1 0 10.2 6.12 -3.27602 2.25919 -1.44028
308 1 4.08 10.2 6.12 0.527426 -2.8464 0.290016
343 1 2.04 12.24 6.12 0.769128 -1.28208 -0.571903
522 1 2.04 10.2 8.16 -0.30834 -0.118256 -1.96673
561 1 0 12.24 8.16 0.716323 -0.654864 -0.746588
565 1 4.08 12.24 8.16 -1.32614 0.908998 -0.867005
312 1 8.16 10.2 6.12 2.46417 -0.923569 -1.12285
347 1 6.12 12.24 6.12 -0.96501 2.01746 -2.16343
526 1 6.12 10.2 8.16 0.479459 2.27941 0.756653
569 1 8.16 12.24 8.16 0.894911 -0.050598 -2.18282
316 1 12.24 10.2 6.12 1.37841 1.30865 -0.993092
351 1 10.2 12.24 6.12 3.80798 2.44659 -2.46662
530 1 10.2 10.2 8.16 0.769457 0.722847 2.66552
573 1 12.24 12.24 8.16 0.369231 0.351034 -1.81994
320 1 16.32 10.2 6.12 -1.25291 0.0896312 -2.87616
355 1 14.28 12.24 6.12 -0.0494442 -1.4227 1.2422
534 1 14.28 10.2 8.16 2.2817 -2.80379 -0.842547
577 1 16.32 12.24 8.16 2.05651 -0.754417 -0.306118
324 1 20.4 10.2 6.12 0.466016 -1.05718 -0.0368067
359 1 18.36 12.24 6.12 3.13297 -0.887323 0.827726
538 1 18.36 10.2 8.16 -0.843931 0.207567 -1.56528
581 1 20.4 12.24 8.16 0.0393153 1.26904 -0.142926
328 1 24.48 10.2 6.12 -0.581873 -0.70089 0.864213
363 1 22.44 12.24 6.12 -0.912774 -1.4108 1.01431
542 1 22.44 10.2 8.16 -0.695878 0.931983 0.536561
585 1 24.48 12.24 8.16 -0.185415 -2.68553 1.37595
332 1 28.56 10.2 6.12 -1.45545 1.20793 1.38734
367 1 26.52 12.24 6.12 0.00798174 -0.749793 -2.2308
546 1 26.52 10.2 8.16 -2.10811 1.42734 -0.546583
589 1 28.56 12.24 8.16 -0.861131 -1.63138 -1.16987
336 1 32.64 10.2 6.12 0.521355 -1.04533 -0.219755
371 1 30.6 12.24 6.12 1.18267 0.586973 1.01257
550 1 30.6 10.2 8.16 -4.16836 1.72675 1.14881
593 1 32.64 12.24 8.16 -2.1469 2.00579 0.976814
340 1 36.72 10.2 6.12 0.767919 -0.994415 -4.82322
375 1 34.68 12.24 6.12 1.44541 1.34836 1.05126
554 1 34.68 10.2 8.16 0.795849 -1.38737 -0.300884
597 1 36.72 12.24 8.16 2.07677 0.733594 0.283764
379 1 38.76 12.24 6.12 0.327303 1.12118 -0.643423
558 1 38.76 10.2 8.16 -0.132534 0.534769 -3.26196
344 1 0 14.28 6.12 -3.97061 -0.872919 3.70334
348 1 4.08 14.28 6.12 4.19884 -1.0135 -0.141782
383 1 2.04 16.32 6.12 1.77589 1.85432 -1.09821
562 1 2.04 14.28 8.16 1.22689 2.02739 0.614497
601 1 0 16.32 8.16 1.42619 -2.18474 -0.658603
605 1 4.08 16.32 8.16 0.0472995 -1.26731 -0.674263
352 1 8.16 14.28 6.12 -0.623621 1.04474 2.49584
387 1 6.12 16.32 6.12 -1.21795 -2.28777 -0.779395
566 1 6.12 14.28 8.16 1.00479 -0.650743 -0.144184
609 1 8.16 16.32 8.16 0.894785 0.174318 3.07711
356 1 12.24 14.28 6.12 -0.191249 -1.2599 -0.937426
391 1 10.2 16.32 6.12 0.240308 0.0284001 0.74882
570 1 10.2 14.28 8.16 -0.652078 0.66197 -1.77254
613 1 12.24 16.32 8.16 -0.967013 0.755111 -2.42154
360 1 16.32 14.28 6.12 0.272599 -4.29881 -1.83318
395 1 14.28 16.32 6.12 -1.79757 -2.82413 -2.20985
574 1 14.28 14.28 8.16 0.0357272 -0.740581 -0.492321
617 1 16.32 16.32 8.16 -1.3384 -3.08661 1.18079
364 1 20.4 14.28 6.12 -1.79798 -0.97337 2.38514
399 1 18.36 16.32 6.12 -1.6886 -2.08183 -0.129033
578 1 18.36 14.28 8.16 -1.34558 0.821726 -0.310647
621 1 20.4 16.32 8.16 0.185134 1.50003 -0.794276
368 1 24.48 14.28 6.12 -0.00235175 -2.07235 2.77357
403 1 22.44 16.32 6.12 0.728311 0.198535 0.522534
582 1 22.44 14.28 8.16 -0.914148 -2.30745 -2.52202
625 1 24.48 16.32 8.16 0.567152 0.194953 0.391503
372 1 28.56 14.28 6.12 0.722778 -0.683803 -2.57661
407 1 26.52 16.32 6.12 -1.4763 2.07924 -0.060317
586 1 26.52 14.28 8.16 1.47849 -1.36099 -2.31495
629 1 28.56 16.32 8.16 2.4386 1.18711 -1.45175
376 1 32.64 14.28 6.12 1.96009 -0.438049 -2.19964
411 1 30.6 16.32 6.12 -2.05784 1.14028 -2.45701
590 1 30.6 14.28 8.16 2.2796 -0.755987 -1.42821
633 1 32.64 16.32 8.16 -0.805517 -3.17921 -2.56027
380 1 36.72 14.28 6.12 1.5146 0.40121 0.552028
415 1 34.68 16.32 6.12 0.575314 -0.762461 -1.4146
594 1 34.68 14.28 8.16 3.25324 -2.849 1.99989
637 1 36.72 16.32 8.16 3.00675 2.19038 -2.01436
419 1 38.76 16.32 6.12 -0.689835 2.28331 0.900257
598 1 38.76 14.28 8.16 1.15711 1.1326 1.54899
384 1 0 18.36 6.12 -0.24344 1.11882 0.967193
388 1 4.08 18.36 6.12 -1.98985 -0.772587 0.920738
422 1 2.04 20.4 6.12 -0.706123 -1.12787 0.85788
602 1 2.04 18.36 8.16 0.496293 0.446318 1.65455
641 1 0 20.4 8.16 0.827283 -2.40022 2.45376
643 1 4.08 20.4 8.16 0.413144 0.786173 1.72909
392 1 8.16 18.36 6.12 0.186234 3.27648 -1.77289
424 1 6.12 20.4 6.12 -1.79699 -0.318259 -0.83934
606 1 6.12 18.36 8.16 0.979329 -1.44608 0.430322
645 1 8.16 20.4 8.16 0.0156541 1.92039 -0.256547
396 1 12.24 18.36 6.12 4.11507 0.364406 3.3147
426 1 10.2 20.4 6.12 -0.951054 1.59759 1.35719
610 1 10.2 18.36 8.16 -0.253334 2.86843 0.885491
647 1 12.24 20.4 8.16 -0.577887 -1.83526 2.28563
400 1 16.32 18.36 6.12 0.2164 1.51984 0.16462
428 1 14.28 20.4 6.12 2.65031 -0.417839 0.0345742
614 1 14.28 18.36 8.16 -3.35136 -0.554965 0.0739922
649 1 16.32 20.4 8.16 0.197224 2.2352 -0.178357
404 1 20.4 18.36 6.12 1.24696 -2.17949 2.957
430 1 18.36 20.4 6.12 -0.0969748 0.426711 -2.51831
618 1 18.36 18.36 8.16 -0.493702 0.320046 0.555561
651 1 20.4 20.4 8.16 -0.249248 3.62961 2.03041
408 1 24.48 18.36 6.12 0.0398588 -0.962502 1.99385
432 1 22.44 20.4 6.12 1.36223 -2.68592 0.21141
622 1 22.44 18.36 8.16 0.106292 0.0435327 -1.72382
653 1 24.48 20.4 8.16 1.18415 -1.87788 0.492742
412 1 28.56 18.36 6.12 -0.730227 0.0962025 0.0365099
434 1 26.52 20.4 6.12 3.24186 -1.16424 -0.773818
626 1 26.52 18.36 8.16 0.0636789 0.37818 -0.385538
655 1 28.56 20.4 8.16 -1.32863 -2.18907 -2.35866
416 1 32.64 18.36 6.12 -1.15611 1.40649 1.63426
436 1 30.6 20.4 6.12 1.13982 -0.706231 -2.09826
630 1 30.6 18.36 8.16 -3.71329 1.83994 1.91155
657 1 32.64 20.4 8.16 -1.13106 -0.957391 -1.30661
420 1 36.72 18.36 6.12 -0.763138 2.23583 0.583707
438 1 34.68 20.4 6.12 0.568898 -2.50948 1.0161
634 1 34.68 18.36 8.16 -1.17831 -2.58733 0.753461
659 1 36.72 20.4 8.16 0.477009 0.953059 -2.41632
440 1 38.76 20.4 6.12 -3.37985 2.29765 0.0503859
638 1 38.76 18.36 8.16 -1.76113 0.820267 2.38328
443 1 2.04 0 10.2 -0.78206 -1.76378 0.121678
444 1 0 2.04 10.2 -2.65457 0.574913 -0.522525
448 1 4.08 2.04 10.2 -3.05517 -0.130761 0.279396
483 1 2.04 4.08 10.2 3.27451 1.34458 -0.22863
661 1 0 0 12.24 -1.5417 3.6172 -3.72102
662 1 2.04 2.04 12.24 -1.77809 -0.330135 -2.39931
665 1 4.08 0 12.24 1.00935 0.370643 -0.589266
701 1 0 4.08 12.24 -0.688794 -0.781707 1.34103
705 1 4.08 4.08 12.24 -1.20553 -1.11678 1.36191
447 1 6.12 0 10.2 -1.32769 -0.491982 0.70556
452 1 8.16 2.04 10.2 -1.21897 0.0928532 -1.74768
487 1 6.12 4.08 10.2 0.999015 -0.0900269 -1.70085
666 1 6.12 2.04 12.24 0.358529 0.0674797 -2.53889
669 1 8.16 0 12.24 0.347948 -0.174599 -4.60725
709 1 8.16 4.08 12.24 -2.05945 1.95177 0.786603
451 1 10.2 0 10.2 -1.49256 -2.2388 1.14338
456 1 12.24 2.04 10.2 0.177734 -1.00344 -0.848169
491 1 10.2 4.08 10.2 -1.87301 1.93668 -0.128037
670 1 10.2 2.04 12.24 1.44202 -0.777192 -0.557912
673 1 12.24 0 12.24 3.22327 1.3015 1.80899
713 1 12.24 4.08 12.24 1.73744 2.42661 -0.0641653
455 1 14.28 0 10.2 -0.133787 1.98965 1.90672
460 1 16.32 2.04 10.2 0.00517465 1.81546 -1.36744
495 1 14.28 4.08 10.2 -0.474971 0.961186 2.54342
674 1 14.28 2.04 12.24 -0.943758 -0.571816 -0.348644
677 1 16.32 0 12.24 1.34598 1.93795 0.546715
717 1 16.32 4.08 12.24 -2.78515 -2.78032 0.946603
459 1 18.36 0 10.2 2.69406 1.94773 -0.0127622
464 1 20.4 2.04 10.2 -0.792194 -0.685632 3.12924
499 1 18.36 4.08 10.2 0.695896 -0.0825244 0.0277407
678 1 18.36 2.04 12.24 -1.0608 2.86043 -0.401496
681 1 20.4 0 12.24 -0.466479 -1.13979 0.824994
721 1 20.4 4.08 12.24 -0.756597 -0.533218 0.826828
463 1 22.44 0 10.2 2.38181 -2.85925 -1.75655
468 1 24.48 2.04 10.2 -0.743848 -0.642261 -2.12864
503 1 22.44 4.08 10.2 1.69194 -3.05516 0.372384
682 1 22.44 2.04 12.24 0.0470555 0.0712834 -0.498636
685 1 24.48 0 12.24 1.49648 -0.0830832 -1.40798
725 1 24.48 4.08 12.24 -0.448407 1.31053 1.16816
467 1 26.52 0 10.2 -2.61624 -1.94741 1.91334
472 1 28.56 2.04 10.2 -0.371195 -1.48073 -0.729099
507 1 26.52 4.08 10.2 0.284748 0.00365942 2.04982
686 1 26.52 2.04 12.24 2.2415 1.30939 -0.450218
689 1 28.56 0 12.24 -1.12293 0.0988093 0.93664
729 1 28.56 4.08 12.24 3.79873 0.630195 0.82377
471 1 30.6 0 10.2 1.24264 1.31438 -0.036473
476 1 32.64 2.04 10.2 1.24852 -0.553319 -0.513638
511 1 30.6 4.08 10.2 -4.9828 -2.30348 1.92378
690 1 30.6 2.04 12.24 1.46577 0.953827 -3.01325
693 1 32.64 0 12.24 -3.33876 0.408546 -2.52398
733 1 32.64 4.08 12.24 1.85915 -0.634661 1.4073
475 1 34.68 0 10.2 1.64562 1.02786 0.214654
480 1 36.72 2.04 10.2 -0.58829 -1.25041 0.296154
515 1 34.68 4.08 10.2 -0.80471 -3.21294 -0.691547
694 1 34.68 2.04 12.24 1.12654 0.081457 1.11258
697 1 36.72 0 12.24 -0.505729 0.424344 0.575888
737 1 36.72 4.08 12.24 1.59339 -0.584569 -1.09575
479 1 38.76 0 10.2 1.25868 -0.758079 0.184427
519 1 38.76 4.08 10.2 1.89522 -2.18744 0.203498
698 1 38.76 2.04 12.24 0.885641 -3.23945 -1.73849
484 1 0 6.12 10.2 -0.975259 -0.771276 -0.724798
488 1 4.08 6.12 10.2 0.122556 1.48581 1.72721
523 1 2.04 8.16 10.2 1.99598 -0.248505 -0.628321
702 1 2.04 6.12 12.24 3.30231 -2.69619 -0.691187
741 1 0 8.16 12.24 -0.320723 -1.27019 -1.82221
745 1 4.08 8.16 12.24 1.04015 -0.0340293 2.22503
492 1 8.16 6.12 10.2 3.48029 -1.09625 -0.469108
527 1 6.12 8.16 10.2 -1.49064 0.569725 -0.402761
706 1 6.12 6.12 12.24 -0.422635 -1.42855 2.36947
749 1 8.16 8.16 12.24 0.66684 -1.38937 1.39441
496 1 12.24 6.12 10.2 1.00553 -0.481952 -1.52433
531 1 10.2 8.16 10.2 0.28258 0.0154231 -1.91461
710 1 10.2 6.12 12.24 -1.90025 0.0907257 1.47365
753 1 12.24 8.16 12.24 2.38967 1.26415 0.289573
500 1 16.32 6.12 10.2 0.597946 -2.50482 -1.57273