LAMMPS (4 May 2022)
# Au Equilibrium of msst shock dynamics
# Energy in eV, time in ps, distance in angstroms.

variable	temp equal 300		# equlibrium temperature
variable	press equal 1		# equlibrium pressure
variable	Num equal 10

units		metal
boundary        p p p

atom_style	atomic
lattice		fcc 4.08
Lattice spacing in x,y,z = 4.08 4.08 4.08
region		sim_box block 0 ${Num} 0 ${Num} 0 ${Num}
region		sim_box block 0 10 0 ${Num} 0 ${Num}
region		sim_box block 0 10 0 10 0 ${Num}
region		sim_box block 0 10 0 10 0 10
create_box	1 sim_box
Created orthogonal box = (0 0 0) to (40.8 40.8 40.8)
  1 by 2 by 2 MPI processor grid
create_atoms	1 box
Created 4000 atoms
  using lattice units in orthogonal box = (0 0 0) to (40.8 40.8 40.8)
  create_atoms CPU = 0.000 seconds

pair_style	nvnmd model.pb
pair_coeff	* *

thermo		1000
atom_modify	sort 10000 0.0
mass		1 197

# Define initial velocity

velocity	all create 600 123456 mom yes rot yes dist gaussian

# Equilibrate the system

variable	tdamp equal 100*dt
variable	pdamp equal 1000*dt
fix		NPT all npt temp ${temp} ${temp} ${tdamp} iso ${press} ${press} ${pdamp}
fix		NPT all npt temp 300 ${temp} ${tdamp} iso ${press} ${press} ${pdamp}
fix		NPT all npt temp 300 300 ${tdamp} iso ${press} ${press} ${pdamp}
fix		NPT all npt temp 300 300 0.1 iso ${press} ${press} ${pdamp}
fix		NPT all npt temp 300 300 0.1 iso 1 ${press} ${pdamp}
fix		NPT all npt temp 300 300 0.1 iso 1 1 ${pdamp}
fix		NPT all npt temp 300 300 0.1 iso 1 1 1

thermo_style 	custom step cpu temp press ke pe vol density
thermo          1000

#Settings

dump            imf all custom 10000 Coords_ShockCompression0.txt id type x y z vx vy vz
timestep	1e-3

run		100000
Generated 0 of 0 mixed pair_coeff terms from geometric mixing rule
Neighbor list info ...
  update every 1 steps, delay 10 steps, check yes
  max neighbors/atom: 2000, page size: 100000
  master list distance cutoff = 8
  ghost atom cutoff = 8
  binsize = 4, bins = 11 11 11
  1 neighbor lists, perpetual/occasional/extra = 1 0 0
  (1) pair nvnmd, perpetual
      attributes: full, newton on
      pair build: full/bin/atomonly
      stencil: full/bin/3d
      bin: standard
Per MPI rank memory allocation (min/avg/max) = 4.879 | 4.888 | 4.893 Mbytes
   Step          CPU            Temp          Press          KinEng         PotEng         Volume        Density    
         0   0              600           -38254.902      310.14679     -14747.537      67917.312      19.266143    
      1000   1.8593445      299.08705     -345.05721      154.60148     -14603.767      67682.129      19.33309     
      2000   3.7300617      290.08503      139.28636      149.94823     -14603.75       67658.385      19.339875    
      3000   5.5985614      307.67327     -266.15519      159.0398      -14603.969      67677.56       19.334395    
      4000   7.4618726      301.39801      1025.8858      155.79604     -14607.424      67594.945      19.358026    
      5000   9.3236776      304.8228       130.22603      157.56635     -14603.002      67677.543      19.3344      
      6000   11.178789      295.53358      595.79021      152.76465     -14603.424      67649.151      19.342514    
      7000   13.038904      303.25782      533.75744      156.7574      -14605.139      67643.63       19.344093    
      8000   14.898403      301.96146     -374.62022      156.0873      -14604.447      67676.187      19.334787    
      9000   16.757023      302.45176     -168.45779      156.34074     -14603.63       67676.634      19.334659    
     10000   18.618478      304.09663     -292.71139      157.19099     -14605.566      67663.948      19.338284    
     11000   20.476601      304.38498      160.12557      157.34004     -14603.457      67675.664      19.334937    
     12000   22.339662      300.15755      1139.007       155.15484     -14602.22       67639.236      19.34535     
     13000   24.199932      296.86232     -1340.1883      153.45149     -14605.383      67700.282      19.327906    
     14000   26.059887      303.87612      429.92439      157.07701     -14602.801      67658.009      19.339982    
     15000   27.922072      303.67143     -441.83343      156.9712      -14605.695      67670.574      19.336391    
     16000   29.784274      304.7623      -283.40084      157.53508     -14603.709      67682.965      19.332851    
     17000   31.642984      301.28867      831.21243      155.73952     -14603.371      67644.007      19.343985    
     18000   33.508386      305.40087     -645.91324      157.86517     -14600.924      67715.701      19.323505    
     19000   35.368002      297.43218     -1401.3957      153.74606     -14606.564      67701.004      19.3277      
     20000   37.234309      302.28816     -1752.1404      156.25617     -14607.95       67693.186      19.329932    
     21000   39.096674      299.13045      1123.8524      154.62391     -14604.914      67619.177      19.351089    
     22000   40.958822      297.46296     -800.14785      153.76197     -14601.47       67713.492      19.324135    
     23000   42.821105      302.24094     -134.32848      156.23176     -14604.6        67667.004      19.337411    
     24000   44.684274      301.02339     -1097.8237      155.6024      -14606.401      67684.154      19.332511    
     25000   46.531888      298.21862     -535.31456      154.15258     -14601.998      67698.399      19.328443    
     26000   48.394447      296.93042      92.918599      153.48669     -14603.5        67662.769      19.338621    
     27000   50.254215      306.62976      1070.8991      158.5004      -14606.875      67605.21       19.355086    
     28000   52.113351      292.86381      587.49697      151.38462     -14600.157      67678.871      19.33402     
     29000   53.973967      305.38095      1193.8862      157.85487     -14605.235      67613.016      19.352852    
     30000   55.830463      300.26409     -314.96107      155.20991     -14605.079      67668.156      19.337082    
     31000   57.690002      300.33369      404.62396      155.24588     -14605.412      67636.1        19.346247    
     32000   59.551701      297.90682      2341.8061      153.99141     -14603.357      67584.512      19.361014    
     33000   61.411636      296.47941      1488.2636      153.25356     -14604.186      67615.334      19.352188    
     34000   63.273206      300.49914      538.63929      155.33141     -14608.923      67609.707      19.353799    
     35000   65.130272      299.72817      197.46852      154.93289     -14600.66       67680.723      19.333491    
     36000   66.991166      300.88188      1051.5537      155.52925     -14603.206      67633.661      19.346944    
     37000   68.853819      301.50842     -2402.1297      155.85311     -14609.919      67702.49       19.327275    
     38000   70.715284      300.26197      83.728941      155.20881     -14606.357      67647.276      19.343051    
     39000   72.577178      302.75117      1197.5709      156.49551     -14603.842      67634.466      19.346714    
     40000   74.438095      300.22451      1753.2777      155.18945     -14603.721      67604.657      19.355245    
     41000   76.298587      299.78494     -502.01662      154.96223     -14604.685      67679.879      19.333732    
     42000   78.166352      298.80394      213.53393      154.45514     -14602.535      67685.704      19.332069    
     43000   80.030358      301.59         1463.9564      155.89528     -14598.238      67656.508      19.340411    
     44000   81.891906      292.18484      386.72771      151.03365     -14603.476      67656.482      19.340418    
     45000   83.753877      302.3396       3178.8669      156.28276     -14602.598      67569.733      19.365248    
     46000   85.614337      306.12746      181.61019      158.24075     -14604.977      67654.585      19.340961    
     47000   87.475676      300.31702     -641.24257      155.23727     -14603.423      67690.402      19.330727    
     48000   89.344406      299.9132       732.73959      155.02853     -14604.561      67636.741      19.346063    
     49000   91.206097      299.73192     -431.46335      154.93482     -14604.318      67680.914      19.333437    
     50000   93.07231       295.70391      1215.0341      152.8527      -14603.84       67620.724      19.350646    
     51000   94.933874      298.46854      780.63666      154.28177     -14601.446      67652.067      19.341681    
     52000   96.797077      298.31585     -559.62293      154.20284     -14604.544      67686.575      19.33182     
     53000   98.654826      300.51096     -1250.6906      155.33752     -14605.921      67698.273      19.328479    
     54000   100.51431      303.8017      -2426.0452      157.03854     -14604.223      67746.344      19.314764    
     55000   102.37402      295.23101     -346.3187       152.60825     -14604.624      67667.274      19.337334    
     56000   104.2346       300.49446     -749.52935      155.32899     -14604.48       67690.016      19.330837    
     57000   106.09246      299.9377       269.01265      155.04119     -14602.165      67670.351      19.336455    
     58000   107.95417      295.08992      769.63675      152.53532     -14602.19       67653.251      19.341342    
     59000   109.81387      302.03401      1278.7235      156.1248      -14604.692      67613.298      19.352771    
     60000   111.67637      298.71501      590.104        154.40917     -14607.121      67621.12       19.350532    
     61000   113.53806      298.99217     -281.66867      154.55244     -14602.598      67685.119      19.332236    
     62000   115.3995       301.10025      1050.109       155.64213     -14603.634      67626.908      19.348876    
     63000   117.25948      301.99676      292.00794      156.10554     -14606.135      67638.549      19.345546    
     64000   119.11623      298.01985     -415.02028      154.04984     -14604.083      67665.775      19.337762    
     65000   120.97775      303.51114      436.66585      156.88835     -14605.58       67641.732      19.344636    
     66000   122.83946      297.07305     -2131.2376      153.56042     -14604.963      67731.785      19.318916    
     67000   124.69779      302.27275      290.12559      156.24821     -14602.332      67672.653      19.335797    
     68000   126.55748      301.90969      548.95989      156.06054     -14604.126      67653.755      19.341198    
     69000   128.41999      299.81789     -91.236189      154.97926     -14606.923      67648.819      19.342609    
     70000   130.28035      301.13338     -288.10456      155.65925     -14609.507      67632.033      19.34741     
     71000   132.14295      292.53499      572.56155      151.21465     -14602.033      67659.942      19.33943     
     72000   134.0056       300.82092      1266.7457      155.49774     -14602.986      67621.676      19.350373    
     73000   135.86926      304.31392     -1723.7131      157.30331     -14605.868      67714.765      19.323772    
     74000   137.73093      294.73353     -837.83655      152.3511      -14600.328      67722.693      19.32151     
     75000   139.59615      299.23704     -774.534        154.67902     -14602.826      67696.225      19.329064    
     76000   141.45919      300.39183      1479.0633      155.27594     -14603.915      67613.214      19.352795    
     77000   143.32322      300.76005     -1385.137       155.46628     -14607.616      67687.639      19.331516    
     78000   145.18726      298.98599      1355.8513      154.54924     -14607.757      67586.899      19.36033     
     79000   147.05009      304.94727     -1186.2263      157.63069     -14599.03       67753.591      19.312698    
     80000   148.91795      297.03973     -1082.3216      153.5432      -14604.548      67698.892      19.328303    
     81000   150.78263      301.4279      -598.75421      155.81149     -14605.583      67676.567      19.334679    
     82000   152.64564      299.45601      1123.612       154.7922      -14604.765      67621.695      19.350368    
     83000   154.50893      300.94651      645.66603      155.56266     -14598.861      67686.749      19.33177     
     84000   156.37164      295.31844     -1732.7814      152.65344     -14603.857      67730.464      19.319293    
     85000   158.23484      302.6268       756.99173      156.43122     -14603.732      67646.806      19.343185    
     86000   160.0986       299.49366      1877.3708      154.81166     -14606.594      67577.973      19.362887    
     87000   161.96181      294.46785     -1864.3667      152.21377     -14602.811      67741.593      19.316119    
     88000   163.82199      299.21989      573.04042      154.67015     -14603.211      67655.837      19.340603    
     89000   165.68436      297.12946     -382.78048      153.58958     -14604.219      67667.088      19.337387    
     90000   167.54726      301.92308      905.77295      156.06746     -14602.277      67640.91       19.344871    
     91000   169.40736      304.74029     -2059.1205      157.5237      -14601.16       67765.768      19.309228    
     92000   171.2698       307.32377     -366.2452       158.85914     -14603.885      67677.952      19.334283    
     93000   173.13851      299.4699       767.66333      154.79938     -14603.684      67639.762      19.345199    
     94000   174.99851      300.5274      -1040.2022      155.34601     -14606.297      67683.121      19.332806    
     95000   176.8591       301.38681     -533.86217      155.79025     -14604.602      67674.77       19.335192    
     96000   178.72113      298.50251      227.24328      154.29933     -14602.314      67668.204      19.337068    
     97000   180.58166      307.8303      -1134.1582      159.12097     -14602.772      67718.53       19.322698    
     98000   182.44821      299.00314     -1250.1216      154.55811     -14607.01       67685.432      19.332146    
     99000   184.30873      300.98415      750.71884      155.58211     -14601.914      67656.379      19.340448    
    100000   186.17576      300.6462      -897.44481      155.40742     -14604.238      67683.786      19.332617    
Loop time of 186.176 on 4 procs for 100000 steps with 4000 atoms

Performance: 46.408 ns/day, 0.517 hours/ns, 537.127 timesteps/s
84.7% CPU use with 4 MPI tasks x no OpenMP threads

MPI task timing breakdown:
Section |  min time  |  avg time  |  max time  |%varavg| %total
---------------------------------------------------------------
Pair    | 94.978     | 137.14     | 177.61     | 264.2 | 73.66
Neigh   | 0          | 0          | 0          |   0.0 |  0.00
Comm    | 3.5068     | 44.188     | 86.569     | 467.6 | 23.73
Output  | 0.024299   | 0.024451   | 0.024867   |   0.2 |  0.01
Modify  | 3.608      | 3.8075     | 4.0378     |   8.1 |  2.05
Other   |            | 1.016      |            |       |  0.55

Nlocal:           1000 ave        1210 max         810 min
Histogram: 1 0 0 0 2 0 0 0 0 1
Nghost:           2901 ave        3091 max        2691 min
Histogram: 1 0 0 0 0 2 0 0 0 1
Neighs:              0 ave           0 max           0 min
Histogram: 4 0 0 0 0 0 0 0 0 0
FullNghs:       134000 ave      162140 max      108540 min
Histogram: 1 0 0 0 2 0 0 0 0 1

Total # of neighbors = 536000
Ave neighs/atom = 134
Neighbor list builds = 0
Dangerous builds = 0

undump		imf
write_restart	restart.equil_Au
System init for write_restart ...
Generated 0 of 0 mixed pair_coeff terms from geometric mixing rule

reset_timestep	0
clear
jump		in.msst
# Au Equilibrium of msst shock dynamics

# Energy in eV, time in ps, distance in angstroms.

variable	temp equal 300		# equlibrium temperature
variable	press equal 1		# equlibrium pressure
#variable	up index 40 45 50 55 60 65 70 75 # shock velocity  km/s
variable	up index 40 45 50 55 60 65 70 # shock velocity  km/s


units		metal
boundary        p p p

#plugin		clear
#plugin		load libdeepmd_lmp.so
read_restart	restart.equil_Au
Reading restart file ...
  restart file = 4 May 2022, LAMMPS = 4 May 2022
  restoring atom style atomic from restart
  orthogonal box = (0.023407936 0.023407936 0.023407936) to (40.776592 40.776592 40.776592)
  1 by 2 by 2 MPI processor grid
  restoring pair style nvnmd from restart
  4000 atoms
  read_restart CPU = 0.000 seconds

# DEBUG2, add new rcut
pair_style	nvnmd model.pb
pair_coeff	* *

## DEBUG1, add neighbor
neighbor        0.0 bin
neigh_modify    every 1 delay 0 check no

thermo		1000
atom_modify	sort 10000 0.0
mass		1 197

#Settings

timestep	1e-3

# MSST fix

fix             msst all msst z ${up} q 36 mu 0.903 tscale 0.02
fix             msst all msst z 40 q 36 mu 0.903 tscale 0.02
MSST parameters:
  Shock in z direction
  Cell mass-like parameter qmass (units of mass^2/length^4) = 36
  Shock velocity = 40
  Artificial viscosity (units of mass/length/time) = 0.903
  Initial pressure calculated on first step
  Initial volume calculated on first step
  Initial energy calculated on first step

variable	time equal dt*step
variable	temp equal temp
variable	rho equal density

variable	volume equal vol			# volume
variable	pzz equal pzz				# axial stress
variable	tau equal 0.5*(pzz-0.5*(pxx+pyy))	# shear stress
variable	tauvm equal sqrt(0.5*(pzz-pyy)^2+(pzz-pxx)^2+(pxx-pyy)^2)	# Von Mises Stress
variable	dhug equal f_msst[1]
variable	dray equal f_msst[2]
variable	lgr_vel equal f_msst[3]
variable	lgr_pos equal f_msst[4]
variable	msst equal econserve

thermo_style 	custom step cpu temp ke pe lx ly lz pxx pyy pzz etotal v_dhug v_dray v_lgr_vel v_lgr_pos v_msst
thermo		1000

fix 		stress2 all print 1000 "${time} ${temp} ${rho} ${volume} ${pzz} ${tau} ${tauvm} ${dhug} ${dray} ${lgr_vel} ${lgr_pos} ${msst}" screen no file output_${up}.txt title 'time temp rho vol pzz tau tauvm dhug dray lgr_vel lgr_pos msst'
fix 		stress2 all print 1000 "${time} ${temp} ${rho} ${volume} ${pzz} ${tau} ${tauvm} ${dhug} ${dray} ${lgr_vel} ${lgr_pos} ${msst}" screen no file output_40.txt title 'time temp rho vol pzz tau tauvm dhug dray lgr_vel lgr_pos msst'

# pair correlation

compute		rdf all rdf 100 1 1
fix		rdf all ave/time 100 1000 100000 c_rdf[*] file RDF_${up}.txt mode vector
fix		rdf all ave/time 100 1000 100000 c_rdf[*] file RDF_40.txt mode vector

# Coordinate

compute		keatom all ke/atom
compute		peatom all pe/atom
variable	keatom atom c_keatom
variable	peatom atom c_peatom

dump		imf all custom 10000 Coords_ShockCompression_${up}.txt id type x y z vx vy vz
dump		imf all custom 10000 Coords_ShockCompression_40.txt id type x y z vx vy vz

run	        200000
Generated 0 of 0 mixed pair_coeff terms from geometric mixing rule
Unused restart file global fix info:
  fix style: npt, fix ID: NPT
Neighbor list info ...
  update every 1 steps, delay 0 steps, check no
  max neighbors/atom: 2000, page size: 100000
  master list distance cutoff = 6
  ghost atom cutoff = 6
  binsize = 3, bins = 14 14 14
  2 neighbor lists, perpetual/occasional/extra = 1 1 0
  (1) pair nvnmd, perpetual
      attributes: full, newton on
      pair build: full/bin/atomonly
      stencil: full/bin/3d
      bin: standard
  (2) compute rdf, occasional, copy from (1)
      attributes: full, newton on
      pair build: copy
      stencil: none
      bin: none
Fix MSST v0 = 67683.786
Fix MSST p0 = -1196.0362
Fix MSST e0 = -14448.83
Fix MSST initial strain rate of -0.53533268 established by reducing temperature by factor of 0.02
Per MPI rank memory allocation (min/avg/max) = 4.445 | 4.455 | 4.459 Mbytes
   Step          CPU            Temp          KinEng         PotEng           Lx             Ly             Lz            Pxx            Pyy            Pzz           TotEng         v_dhug         v_dray       v_lgr_vel      v_lgr_pos        v_msst    
    100000   0              294.63327      152.29927     -14604.238      40.753184      40.753184      40.753184     -805.32133     -789.60575     -1244.5564     -14451.938      3.006462      -48.520252      0              0             -14448.83     
    101000   3.9749719      582.33128      301.01363     -13795.166      40.753184      40.753184      35.811088      333182.15      333402.34      373736.4      -13494.152     -0.4034464     -178.96462      4.8507586     -35.443016     -14448.871    
    102000   7.948518       593.08311      306.57137     -13771.702      40.753184      40.753184      35.736759      341125.6       339843.78      379899.71     -13465.13       0.90737053     342.68607      4.9237138     -70.560812     -14448.871    
    103000   11.94254       589.05587      304.48965     -13742.853      40.753184      40.753184      35.669151      348849.93      349050.25      385419.85     -13438.363      1.9219074      731.33913      4.9900717     -105.6276      -14448.871    
    104000   15.890738      584.67042      302.22276     -13748.815      40.753184      40.753184      35.689786      347163.64      346313.87      383680.96     -13446.592      1.492981       558.64836      4.9698184     -140.67926     -14448.871    
    105000   19.858902      599.02084      309.64065     -13719.746      40.753184      40.753184      35.598678      355329.57      355374.01      392374.97     -13410.105      6.137076       2337.4714      5.0592422     -175.71167     -14448.872    
    106000   23.826857      587.69141      303.78434     -13741.59       40.753184      40.753184      35.667758      349240.82      349346.51      384882.02     -13437.805      0.27949747     87.769552      4.991439      -210.74355     -14448.87     
    107000   27.805125      588.31585      304.10712     -13776.51       40.753184      40.753184      35.75504       339804.11      340133.82      376382.24     -13472.403     -4.3427862     -1787.1966      4.9057702     -245.77063     -14448.87     
    108000   31.777267      590.3301       305.14831     -13764.78       40.753184      40.753184      35.722802      342751.83      342999.92      379898.59     -13459.632     -1.7642419     -717.77375      4.9374126     -280.80488     -14448.87     
    109000   35.750551      582.80822      301.26016     -13761.939      40.753184      40.753184      35.725412      342648.16      343529.42      380054.94     -13460.679     -0.85324793    -363.2884       4.9348504     -315.84242     -14448.869    
    110000   39.752578      587.99958      303.94364     -13751.055      40.753184      40.753184      35.69115       345636.48      346993.88      383303.11     -13447.112      0.77480077     284.29428      4.96848       -350.88444     -14448.87     
    111000   43.703601      592.73123      306.38948     -13744.864      40.753184      40.753184      35.669444      348653.64      347946.36      385477.48     -13438.475      2.1201374      811.20157      4.9897842     -385.92164     -14448.87     
    112000   47.664272      586.5149       303.17619     -13755.842      40.753184      40.753184      35.705162      345475.06      344487.14      382369.22     -13452.666      1.0997549      413.94362      4.9547268     -420.96612     -14448.87     
    113000   51.664983      586.71419      303.27921     -13784.492      40.753184      40.753184      35.777716      337676.18      337798.04      374132.09     -13481.213     -5.6991926     -2316.2571      4.8835139     -456.01654     -14448.871    
    114000   55.655336      590.09271      305.0256      -13754.132      40.753184      40.753184      35.696212      345614.2       345723.76      382778.09     -13449.107      0.40367978     143.51268      4.9635112     -491.0607      -14448.869    
    115000   59.64259       595.23374      307.68306     -13732.26       40.753184      40.753184      35.634747      352455.64      351373.53      388417.69     -13424.577      2.9070581      1117.824       5.0238405     -526.10311     -14448.87     
    116000   63.621914      590.9166       305.45148     -13760.684      40.753184      40.753184      35.711574      344950.85      344129.67      380187.27     -13455.232     -3.1584592     -1281.2867      4.9484329     -561.13405     -14448.87     
    117000   67.598658      593.17591      306.61934     -13757.34       40.753184      40.753184      35.700284      345771.26      345786.22      381317.31     -13450.72      -2.5148963     -1008.1862      4.9595143     -596.16364     -14448.87     
    118000   71.549276      596.95357      308.57206     -13734.256      40.753184      40.753184      35.637454      351622.1       351461.09      388013.58     -13425.684      2.415617       919.18248      5.0211835     -631.19919     -14448.871    
    119000   75.517001      584.61749      302.1954      -13766.133      40.753184      40.753184      35.733726      342882.71      342093.27      379223.77     -13463.937     -1.3718216     -563.4512       4.9266905     -666.23902     -14448.87     
    120000   79.493487      585.46844      302.63526     -13726.757      40.753184      40.753184      35.633593      352742.85      352207.69      389409.89     -13424.122      5.2372916      2022.4337      5.0249731     -701.27513     -14448.87     
    121000   83.457577      588.82725      304.37147     -13758.189      40.753184      40.753184      35.708095      344526.09      344639.15      381614.72     -13453.817     -0.25548513    -117.95678      4.9518483     -736.31936     -14448.871    
    122000   87.43592       589.2706       304.60064     -13756.058      40.753184      40.753184      35.702058      345157.45      344799.16      382643.61     -13451.458      1.2188238      452.73771      4.9577735     -771.37159     -14448.872    
    123000   91.427323      586.15773      302.99157     -13772.423      40.753184      40.753184      35.747695      340701.27      340589.92      377764.16     -13469.431     -2.3681974     -962.78336      4.9129795     -806.41927     -14448.873    
    124000   95.403066      582.45959      301.07996     -13741.623      40.753184      40.753184      35.674613      348144.58      348950.39      384995.38     -13440.543      1.8979131      721.39392      4.9847113     -841.45681     -14448.872    
    125000   99.387305      587.25538      303.55895     -13746.843      40.753184      40.753184      35.68128       347363.58      347414.15      384471        -13443.284      1.9332632      703.05782      4.9781674     -876.49697     -14448.873    
    126000   103.34646      582.72323      301.21623     -13767.137      40.753184      40.753184      35.738596      341680.12      341818.37      379002.58     -13465.92      -0.93270242    -415.00095      4.9219106     -911.55928     -14448.873    
    127000   107.30644      588.50192      304.20331     -13767.887      40.753184      40.753184      35.733092      342191.57      342406.97      379028.36     -13463.684     -1.988693      -806.95569      4.9273125     -946.60358     -14448.874    
    128000   111.28558      584.28214      302.02205     -13753.003      40.753184      40.753184      35.700926      345153.91      345780.48      382913.12     -13450.981      1.6572223      636.35766      4.9588841     -981.6537      -14448.873    
    129000   115.25398      593.07179      306.56552     -13765.142      40.753184      40.753184      35.720111      343011.11      343650.61      379676.84     -13458.576     -2.8340385     -1143.7486      4.9400536     -1016.6952     -14448.873    
    130000   119.24311      593.27169      306.66885     -13745.556      40.753184      40.753184      35.670486      348458.69      348231.76      385066.8      -13438.887      1.2719849      479.59964      4.9887616     -1051.7309     -14448.874    
    131000   123.20803      590.94505      305.46619     -13743.918      40.753184      40.753184      35.669415      348776.56      347940.5       385278.4      -13438.451      1.5960975      609.89413      4.989813      -1086.7578     -14448.872    
    132000   127.17124      590.50779      305.24016     -13770.47       40.753184      40.753184      35.73702       341970.92      341237.54      378646.21     -13465.23      -2.1984477     -890.98822      4.9234574     -1121.7891     -14448.872    
    133000   131.15304      590.24053      305.10201     -13726.008      40.753184      40.753184      35.625503      352661.9       353674.98      389790.31     -13420.906      4.6789686      1788.8177      5.0329136     -1156.8244     -14448.871    
    134000   135.12587      577.53343      298.53357     -13748.104      40.753184      40.753184      35.697368      346825.08      346359.63      382740.38     -13449.57       0.53544856     193.51309      4.9623769     -1191.8585     -14448.87     
    135000   139.12616      589.53878      304.73927     -13743.036      40.753184      40.753184      35.669014      348394.88      348844.26      385261.52     -13438.296      1.4802733      562.61404      4.9902061     -1226.8973     -14448.872    
    136000   143.08403      589.73573      304.84108     -13774.006      40.753184      40.753184      35.746941      340491         340664.07      377328.8      -13469.165     -3.5762038     -1455.3818      4.9137197     -1261.9511     -14448.872    
    137000   147.07927      584.36338      302.06404     -13731.459      40.753184      40.753184      35.646715      351242.6       350549.08      388649.84     -13429.395      5.8378015      2258.3852      5.0120933     -1296.9869     -14448.871    
    138000   151.07222      590.03862      304.99764     -13723.945      40.753184      40.753184      35.620698      353473.93      353156.27      390826.21     -13418.947      6.3857831      2460.0377      5.0376294     -1332.0326     -14448.872    
    139000   155.05498      586.37134      303.10198     -13762.052      40.753184      40.753184      35.721091      344820.93      342881.99      379674.88     -13458.95      -2.6628635     -1071.348       4.939092      -1367.08       -14448.871    
    140000   159.05052      583.2381       301.48238     -13751.9        40.753184      40.753184      35.699514      346422.61      345731.47      382468.21     -13450.418      0.25529228     84.245341      4.9602704     -1402.1195     -14448.871    
    141000   162.88311      588.76074      304.33709     -13778.741      40.753184      40.753184      35.760358      339460.87      338626.27      376378.72     -13474.404     -3.4160318     -1387.1212      4.9005511     -1437.1632     -14448.871    
    142000   166.80238      593.05821      306.5585      -13771.835      40.753184      40.753184      35.737143      341705.27      340993.81      378144.34     -13465.276     -3.4385511     -1383.5353      4.9233369     -1472.2075     -14448.871    
    143000   170.81497      593.69488      306.88761     -13748.164      40.753184      40.753184      35.676507      347257.6       347562.2       385077.58     -13441.276      2.4518618      947.40506      4.9828516     -1507.2524     -14448.872    
    144000   174.79407      585.00955      302.39806     -13749.131      40.753184      40.753184      35.690121      346635.02      346754.46      383756.45     -13446.733      1.7560422      659.52805      4.96949       -1542.3109     -14448.871    
    145000   178.77241      580.76813      300.20562     -13772.304      40.753184      40.753184      35.75444       339720.62      341416.05      377153.67     -13472.099     -2.5913237     -1061.2864      4.9063589     -1577.3649     -14448.869    
    146000   182.73745      595.63264      307.88926     -13741.94       40.753184      40.753184      35.658385      349709.44      349490.85      385868.79     -13434.05       0.97092888     363.11297      5.0006389     -1612.4019     -14448.872    
    147000   186.73816      587.71219      303.79508     -13776.813      40.753184      40.753184      35.756861      339675.52      339676.87      376740.87     -13473.018     -3.1925329     -1290.3352      4.9039827     -1647.4349     -14448.871    
    148000   190.73957      583.94837      301.84952     -13736.954      40.753184      40.753184      35.661009      349674.39      350521.37      386050.15     -13435.105      1.9477023      743.60281      4.9980638     -1682.469      -14448.87     
    149000   194.70453      588.13801      304.0152      -13739.745      40.753184      40.753184      35.6626        349317.28      349150.26      386297.28     -13435.729      2.8757742      1111.4765      4.9965025     -1717.5089     -14448.871    
    150000   198.67359      593.52621      306.80042     -13723.968      40.753184      40.753184      35.616274      353602.39      354359.07      390502.93     -13417.168      4.6964121      1800.9474      5.041972      -1752.5347     -14448.871    
    151000   202.64197      579.93741      299.77621     -13758.974      40.753184      40.753184      35.721632      343751.19      343517.11      381053.23     -13459.197      0.95034702     348.06092      4.938561      -1787.5787     -14448.87     
    152000   206.63044      588.57506      304.24111     -13740.002      40.753184      40.753184      35.662653      348857.44      349821.65      386156.91     -13435.761      2.5375622      975.16059      4.9964501     -1822.6283     -14448.871    
    153000   210.57169      589.10549      304.5153      -13762.53       40.753184      40.753184      35.718719      343902.77      343414.64      380325.77     -13458.015     -1.4750587     -600.45852      4.9414197     -1857.6638     -14448.872    
    154000   214.53304      585.84757      302.83124     -13750.077      40.753184      40.753184      35.691516      347279.92      346542.47      382951.65     -13447.246     -0.057612478   -39.332684      4.9681201     -1892.708      -14448.871    
    155000   218.49513      593.89074      306.98885     -13754.052      40.753184      40.753184      35.690986      345363.77      346332.55      383665.23     -13447.064      1.6786511      633.99955      4.9686405     -1927.751      -14448.872    
    156000   222.4321       588.21857      304.05684     -13756          40.753184      40.753184      35.703372      344507.86      345408.53      382322.98     -13451.943      0.62575698     231.85491      4.9564836     -1962.7928     -14448.87     
    157000   226.42702      583.55199      301.64463     -13775.895      40.753184      40.753184      35.76001       339834.37      339683.88      376234.44     -13474.25      -3.8608957     -1557.7691      4.9008921     -1997.8373     -14448.87     
    158000   230.41677      593.71059      306.89573     -13738.893      40.753184      40.753184      35.653244      350294.65      349831.04      386619.99     -13431.998      1.8974852      724.10246      5.0056849     -2032.8756     -14448.871    
    159000   234.38728      589.5053       304.72196     -13741.829      40.753184      40.753184      35.666005      349185.3       348427.11      385686.01     -13437.108      1.9923831      758.65709      4.9931603     -2067.9197     -14448.87     
    160000   238.36861      593.54022      306.80766     -13741.39       40.753184      40.753184      35.659565      349768.78      349277.89      385762.92     -13434.582      0.98750416     346.80149      4.9994807     -2102.9625     -14448.87     
    161000   242.31305      583.51125      301.62357     -13770.535      40.753184      40.753184      35.746215      341045.02      341411.4       377760.35     -13468.911     -2.6009777     -1078.9107      4.914432      -2138.0094     -14448.87     
    162000   246.29692      593.80314      306.94357     -13759.72       40.753184      40.753184      35.705461      344529.03      344698.86      381281.91     -13452.777     -1.6017817     -650.67385      4.9544334     -2173.052      -14448.87     
    163000   250.2735       585.29737      302.54684     -13721.857      40.753184      40.753184      35.62164       354319.91      354342.75      389844.79     -13419.31       4.0282588      1550.1385      5.0367046     -2208.0772     -14448.87     
    164000   254.22037      584.73884      302.25812     -13739.5        40.753184      40.753184      35.666387      349336.88      349315.83      385739.48     -13437.242      2.1851321      841.134        4.9927852     -2243.1026     -14448.87     
    165000   258.17961      598.63468      309.44104     -13756.772      40.753184      40.753184      35.69157       345676.21      346942.34      381965.02     -13447.331     -2.4893175     -1021.8938      4.9680674     -2278.1384     -14448.871    
    166000   262.15667      589.5514       304.74579     -13755.453      40.753184      40.753184      35.700253      345139.34      344923.33      382828.12     -13450.707      1.305708       500.24049      4.9595452     -2313.182      -14448.869    
    167000   266.11401      575.17962      297.31686     -13766.291      40.753184      40.753184      35.746525      342000         341041.73      378703.77     -13468.974     -0.23049136    -111.98312      4.9141281     -2348.23       -14448.869    
    168000   270.08012      586.85061      303.34972     -13768.954      40.753184      40.753184      35.737918      341748.51      340891.06      378818.46     -13465.604     -1.5731813     -650.55498      4.9225757     -2383.2703     -14448.869    
    169000   274.07344      588.48735      304.19577     -13744.165      40.753184      40.753184      35.673212      349039.19      348239.08      384937.45     -13439.969      1.4644764      557.18407      4.9860857     -2418.3068     -14448.87     
    170000   278.04481      593.42674      306.749       -13741.058      40.753184      40.753184      35.659007      349183.46      349768.65      386234.25     -13434.309      2.0344197      775.80732      5.0000281     -2453.3427     -14448.871    
    171000   281.9986       596.43114      308.30201     -13761.31       40.753184      40.753184      35.706059      343855.38      344466.21      381484.56     -13453.008     -0.97989092    -402.61898      4.9538463     -2488.391      -14448.87     
    172000   285.96083      581.59302      300.63202     -13796.843      40.753184      40.753184      35.816406      334062.5       333408.01      371688.83     -13496.211     -4.4731473     -1822.8679      4.8455386     -2523.4406     -14448.87     
    173000   289.93025      578.0298       298.79014     -13760.341      40.753184      40.753184      35.727685      342630.83      343294.65      380549.61     -13461.551      0.8049486      303.88984      4.9326197     -2558.4949     -14448.87     
    174000   293.89386      592.43947      306.23867     -13754.924      40.753184      40.753184      35.695027      345568.93      345411.02      383100.16     -13448.685      1.0394199      375.62313      4.9646745     -2593.541      -14448.871    
    175000   297.85339      573.13038      296.25758     -13767.321      40.753184      40.753184      35.751586      340843.41      341644.96      378199.03     -13471.064     -0.43299926    -232.57318      4.9091605     -2628.5993     -14448.87     
    176000   301.83012      592.17975      306.10442     -13728.544      40.753184      40.753184      35.629376      352002.31      353735.45      389104.71     -13422.439      3.6466819      1397.2079      5.0291118     -2663.6409     -14448.871    
    177000   305.79449      589.28802      304.60965     -13750.322      40.753184      40.753184      35.687656      346002.43      346782.24      384065.03     -13445.712      2.0254053      781.01737      4.9719094     -2698.6889     -14448.869    
    178000   309.74868      581.46003      300.56327     -13762.817      40.753184      40.753184      35.729278      342946.16      342840.39      379701.35     -13462.253     -0.95471209    -423.50374      4.9310567     -2733.7438     -14448.87     
    179000   313.72722      581.81157      300.74499     -13743.243      40.753184      40.753184      35.679585      347715.4       347750.31      385438.84     -13442.498      3.9602551      1542.2225      4.9798313     -2768.7861     -14448.869    
    180000   317.72106      594.95966      307.54138     -13763.666      40.753184      40.753184      35.713917      343680.33      342808.03      381339.81     -13456.125      0.17171105     49.036337      4.9461338     -2803.8325     -14448.871    
    181000   321.65836      591.25615      305.627       -13780.876      40.753184      40.753184      35.762533      338535.26      339219.53      375605.69     -13475.249     -4.9427202     -1995.0566      4.8984161     -2838.8768     -14448.869    
    182000   325.62937      594.78089      307.44898     -13743.81       40.753184      40.753184      35.664068      348178.08      349215.93      385372.14     -13436.361      0.84319394     297.79997      4.9950611     -2873.9127     -14448.869    
    183000   329.58371      586.78095      303.31372     -13773.464      40.753184      40.753184      35.749522      340882.93      340282.41      377510.28     -13470.15      -2.6542044     -1077.9965      4.9111864     -2908.9529     -14448.869    
    184000   333.54445      585.5765       302.69112     -13755.037      40.753184      40.753184      35.704333      345751.11      345253.96      381668.3      -13452.346     -0.82596393    -349.89231      4.9555404     -2943.9833     -14448.869    
    185000   337.49294      590.06907      305.01338     -13740.783      40.753184      40.753184      35.662701      349807.44      349213.82      385874.58     -13435.77       1.8163684      696.50947      4.9964024     -2979.003      -14448.869    
    186000   341.48527      586.38508      303.10909     -13740.733      40.753184      40.753184      35.66735       348562.8       349736.49      385341.03     -13437.624      1.3526513      515.81666      4.9918394     -3014.0313     -14448.869    
    187000   345.45172      588.13788      304.01513     -13737.738      40.753184      40.753184      35.657556      350185.79      350492.21      386080.75     -13433.723      1.3552138      512.11215      5.0014531     -3049.0614     -14448.868    
    188000   349.40858      584.71446      302.24552     -13710.483      40.753184      40.753184      35.594107      357560.66      356439.92      392529.68     -13408.238      5.6274773      2145.1821      5.0637294     -3084.0935     -14448.869    
    189000   353.35283      594.82858      307.47362     -13744.633      40.753184      40.753184      35.666052      349143.66      348749.63      384531.12     -13437.159     -0.9122524     -392.6094       4.9931134     -3119.1323     -14448.871    
    190000   357.32356      595.18665      307.65872     -13731.665      40.753184      40.753184      35.633266      352638.88      352247.13      388084.21     -13424.007      1.7867331      671.93646      5.0252941     -3154.1767     -14448.871    
    191000   361.26802      591.6152       305.8126      -13756.821      40.753184      40.753184      35.700831      345214.42      345228.45      381799.73     -13451.008     -1.1188834     -484.25272      4.9589776     -3189.215      -14448.871    
    192000   365.22287      598.29362      309.26475     -13733.316      40.753184      40.753184      35.633427      352371.9       351405.77      388136.08     -13424.051      1.9312691      736.05766      5.0251356     -3224.2504     -14448.871    
    193000   369.21947      583.37626      301.55379     -13733.059      40.753184      40.753184      35.651929      351066.1       350581.19      387300.17     -13431.505      3.414847       1304.4548      5.0069758     -3259.2861     -14448.87     
    194000   373.2035       581.66743      300.67048     -13763.602      40.753184      40.753184      35.731131      342025.95      342874.87      379718.62     -13462.932     -0.60699435    -265.52782      4.9292372     -3294.3298     -14448.871    
    195000   377.16262      583.00195      301.36031     -13759.13       40.753184      40.753184      35.71806       343400.11      344502.06      380926.25     -13457.77      -0.070644324   -50.044185      4.9420671     -3329.3715     -14448.872    
    196000   381.12769      580.8674       300.25693     -13749.215      40.753184      40.753184      35.695707      346524.52      346799.43      382765.85     -13448.958      0.32557963     92.951074      4.9640067     -3364.4105     -14448.871    
    197000   385.10842      594.43872      307.2721      -13774.981      40.753184      40.753184      35.743063      340965.88      340647.84      377409.83     -13467.709     -4.0493408     -1668.6715      4.9175258     -3399.4562     -14448.872    
    198000   389.05987      585.56141      302.68332     -13742.437      40.753184      40.753184      35.672605      348356.41      348752.21      385457.22     -13439.753      2.6967454      1030.8285      4.986682      -3434.4977     -14448.871    
    199000   393.05073      590.96851      305.47831     -13771.915      40.753184      40.753184      35.740014      340876.34      340962.47      378186.23     -13466.437     -2.7533331     -1123.7269      4.9205188     -3469.5531     -14448.869    
    200000   397.02273      582.18649      300.93879     -13765.518      40.753184      40.753184      35.735376      342861.18      341911.98      379298.58     -13464.58      -0.87504691    -363.41884      4.9250713     -3504.6108     -14448.87     
    201000   400.95662      586.89568      303.37302     -13756.109      40.753184      40.753184      35.705372      344880.89      344454.98      382437.49     -13452.736      1.2996526      498.18176      4.9545203     -3539.6612     -14448.869    
    202000   404.92197      597.24338      308.72186     -13778.129      40.753184      40.753184      35.747642      339749.01      340270.01      377359.17     -13469.407     -3.3974751     -1371.7944      4.9130316     -3574.7183     -14448.87     
    203000   408.89253      602.70584      311.54547     -13758.522      40.753184      40.753184      35.690781      344726.22      345591.37      383151.07     -13446.977      0.32916723     104.25386      4.9688421     -3609.7825     -14448.87     
    204000   412.83709      585.25671      302.52582     -13757.641      40.753184      40.753184      35.711229      343950.12      344733.39      381699.71     -13455.115      0.6170059      204.94084      4.9487718     -3644.8341     -14448.87     
    205000   416.80723      581.30879      300.4851      -13753.578      40.753184      40.753184      35.706181      345106.67      345975.06      381593.47     -13453.093     -0.64538647    -284.43237      4.9537263     -3679.8831     -14448.869    
    206000   420.7779       586.8506       303.34972     -13758.751      40.753184      40.753184      35.712112      343490.43      344563.51      381840.13     -13455.401      1.0799456      412.40032      4.9479048     -3714.9213     -14448.869    
    207000   424.76293      591.22008      305.60835     -13784.288      40.753184      40.753184      35.771337      338041.16      337831.53      374859.44     -13478.68      -5.14034       -2073.0279      4.8897743     -3749.9606     -14448.868    
    208000   428.74608      588.6868       304.29887     -13745.023      40.753184      40.753184      35.674541      347434.93      348492.31      384807.44     -13440.724      1.6082548      527.97353      4.9847821     -3784.9986     -14448.867    
    209000   432.73343      599.87961      310.08456     -13740.58       40.753184      40.753184      35.649483      349295.28      350014.02      387043.15     -13430.496      2.2541058      861.7731       5.0093768     -3820.0415     -14448.867    
    210000   436.72051      586.7293       303.28702     -13774.88       40.753184      40.753184      35.753233      339910.7       340299.27      377103.93     -13471.593     -2.9773252     -1202.7117      4.9075445     -3855.0772     -14448.867    
    211000   440.69         592.33055      306.18236     -13751.326      40.753184      40.753184      35.686204      346566.15      346112.12      384034.75     -13445.143      1.676645       640.59298      4.9733337     -3890.1308     -14448.866    
    212000   444.65643      585.85725      302.83625     -13759.302      40.753184      40.753184      35.714677      344046.55      344260.77      381151.04     -13456.466     -0.12010764    -82.045902      4.9453878     -3925.1779     -14448.867    
    213000   448.63966      589.02789      304.47518     -13789.614      40.753184      40.753184      35.787902      335348.19      336662.74      374182.41     -13485.138     -3.6813763     -1492.778       4.8735158     -3960.2157     -14448.866    
    214000   452.60178      584.59815      302.1854      -13776.891      40.753184      40.753184      35.761157      338800.53      339788.13      376301.04     -13474.705     -3.4696162     -1404.1422      4.8997666     -3995.256      -14448.865    
    215000   456.58333      588.52021      304.21276     -13756.304      40.753184      40.753184      35.703708      344658.27      345449.66      381992.7      -13452.091     -0.13166256    -72.9188        4.9561537     -4030.2913     -14448.865    
    216000   460.55602      591.59151      305.80035     -13759.833      40.753184      40.753184      35.708654      344294.83      344235.05      381544.2      -13454.033     -0.3319102     -145.97849      4.9512987     -4065.3396     -14448.866    
    217000   464.5273       597.79488      309.00694     -13762.908      40.753184      40.753184      35.708291      344116.08      343803.49      380936.89     -13453.901     -1.9263504     -780.88305      4.9516556     -4100.3969     -14448.866    
    218000   468.49654      594.73663      307.42609     -13762.016      40.753184      40.753184      35.709707      344311.19      343905.14      380746.88     -13454.59      -2.0098282     -863.42215      4.9502658     -4135.4519     -14448.867    
    219000   472.47403      581.87782      300.77923     -13773.854      40.753184      40.753184      35.757022      339929.48      340411.4       376590.11     -13473.075     -3.545099      -1428.9092      4.9038251     -4170.491      -14448.864    
    220000   476.44218      594.78586      307.45154     -13737.797      40.753184      40.753184      35.649074      350112.2       350702.07      386682.05     -13430.345      1.2636605      469.61107      5.0097783     -4205.5355     -14448.866    
    221000   480.39762      584.22772      301.99392     -13766.419      40.753184      40.753184      35.734998      341487.56      341936.38      379341.01     -13464.425     -0.84588397    -349.67661      4.9254422     -4240.5719     -14448.865    
    222000   484.36833      592.76545      306.40717     -13760.677      40.753184      40.753184      35.709258      344104.56      343749.26      381569.35     -13454.27      -0.15390255    -75.03775       4.9507066     -4275.6272     -14448.865    
    223000   488.34089      587.35323      303.60953     -13762.689      40.753184      40.753184      35.721399      343337.42      342866.82      380292.51     -13459.08      -1.0384141     -430.309        4.9387893     -4310.6793     -14448.866    
    224000   492.3147       588.07478      303.98251     -13739.48       40.753184      40.753184      35.662036      349314.61      349510.93      386510.93     -13435.497      3.3055355      1282.351       4.9970556     -4345.7281     -14448.864    
    225000   496.28491      586.71365      303.27893     -13779.773      40.753184      40.753184      35.765748      338260.76      338336.03      376431.39     -13476.494     -2.2774346     -925.29186      4.89526       -4380.7696     -14448.865    
    226000   500.25802      582.87936      301.29694     -13769.446      40.753184      40.753184      35.744041      341192.1       341196.12      378360.92     -13468.149     -1.4192541     -643.40467      4.9165666     -4415.8272     -14448.864    
    227000   504.21226      584.0857       301.92051     -13769.186      40.753184      40.753184      35.74222       341618.07      340307.37      378997.41     -13467.265     -0.33111373    -145.13316      4.918354      -4450.8775     -14448.865    
    228000   508.17535      590.69948      305.33925     -13757.573      40.753184      40.753184      35.704117      344757.24      344731.87      381853.44     -13452.233     -0.42478336    -181.12352      4.9557522     -4485.9429     -14448.865    
    229000   512.13327      583.75672      301.75046     -13780.392      40.753184      40.753184      35.771239      337587.43      338262.48      376594.13     -13478.641     -0.82634805    -345.79616      4.8898707     -4520.9931     -14448.864    
    230000   516.08015      584.30682      302.03481     -13762.725      40.753184      40.753184      35.725514      342515.64      343729.69      380552.34     -13460.69       0.39259579     141.80484      4.934751      -4556.0554     -14448.863    
    231000   520.0266       578.97259      299.27749     -13786.127      40.753184      40.753184      35.792292      336331.34      336423.61      374064.92     -13486.85      -3.1391843     -1277.0437      4.8692067     -4591.113      -14448.863    
    232000   523.98353      587.74572      303.81242     -13787.077      40.753184      40.753184      35.783041      336455.22      337040.45      374443.37     -13483.265     -3.93455       -1600.7667      4.8782869     -4626.1659     -14448.865    
    233000   527.93017      590.93444      305.4607      -13756.625      40.753184      40.753184      35.701263      344953.7       345458.33      382514.65     -13451.164      0.76037567     263.45503      4.9585535     -4661.2216     -14448.865    
    234000   531.90265      581.75183      300.71411     -13754.18       40.753184      40.753184      35.707197      345300.22      345335.85      381736.09     -13453.466     -0.11736434    -64.694115      4.952729      -4696.2703     -14448.864    
    235000   535.86791      591.43968      305.72187     -13750.54       40.753184      40.753184      35.685416      346579.02      346527.4       384100.68     -13444.818      1.6809106      646.66097      4.9741079     -4731.3236     -14448.864    
    236000   539.79953      593.81278      306.94855     -13776.947      40.753184      40.753184      35.749177      339343.03      340496.13      377520.58     -13469.999     -2.7099771     -1093.8858      4.911525      -4766.3793     -14448.865    
    237000   543.75055      577.76142      298.65142     -13773.177      40.753184      40.753184      35.760701      340155.76      339951.27      376972.28     -13474.525     -1.8778018     -767.52985      4.9002145     -4801.4267     -14448.864    
    238000   547.72892      578.0379       298.79433     -13777.525      40.753184      40.753184      35.771467      339036.95      338698.22      375717.75     -13478.731     -2.9715548     -1204.8954      4.8896472     -4836.4685     -14448.864    
    239000   551.67999      580.24067      299.93297     -13776.756      40.753184      40.753184      35.766207      339255.54      339319.62      375936.24     -13476.823     -3.2828676     -1385.6228      4.8948098     -4871.5016     -14448.865    
    240000   555.645        585.20611      302.49967     -13750.651      40.753184      40.753184      35.693821      346373.3       346021.77      382990.03     -13448.151      0.47469261     173.97231      4.965858      -4906.5457     -14448.865    
    241000   559.60099      578.89561      299.23769     -13716.277      40.753184      40.753184      35.61599       354802.96      354836.46      391548.29     -13417.039      7.3199075      2824.7971      5.0422501     -4941.6012     -14448.863    
    242000   563.57013      596.08923      308.12527     -13754.638      40.753184      40.753184      35.689673      346130.78      346035.02      383142.76     -13446.513      0.071135589    11.907392      4.9699289     -4976.6492     -14448.864    
    243000   567.53406      597.00227      308.59723     -13751.75       40.753184      40.753184      35.681234      346934.64      346940.18      383701.8      -13443.153     -0.14098169    -69.590747      4.978212      -5011.699      -14448.865    
    244000   571.46469      586.10448      302.96404     -13758.838      40.753184      40.753184      35.713214      344296.51      344448.3       381004.45     -13455.874     -0.78418402    -339.65582      4.9468234     -5046.7551     -14448.864    
    245000   575.43853      591.58493      305.79695     -13717.236      40.753184      40.753184      35.602094      355341.19      355639.07      391948.15     -13411.439      5.6551107      2169.8775      5.05589       -5081.7983     -14448.863    
    246000   579.39785      584.7824       302.28064     -13715.25       40.753184      40.753184      35.605916      355862.32      355486.63      392068.86     -13412.969      6.6981129      2580.6697      5.0521388     -5116.8306     -14448.863    
    247000   583.37829      585.68988      302.74973     -13762.57       40.753184      40.753184      35.723235      342953.22      343313.05      379951.26     -13459.821     -1.530964      -632.25744      4.9369879     -5151.8729     -14448.862    
    248000   587.34573      585.97515      302.89719     -13757.137      40.753184      40.753184      35.709045      344911.69      343586.9       382138.2      -13454.24       1.2955926      477.68026      4.9509151     -5186.9226     -14448.862    
    249000   591.29215      574.09696      296.75722     -13735.219      40.753184      40.753184      35.669299      349952.86      349578.58      386123.36     -13438.462      3.7822905      1446.0335      4.9899271     -5221.9603     -14448.861    
    250000   595.25591      592.01484      306.01917     -13763.052      40.753184      40.753184      35.716222      343348.86      343397.41      380897.08     -13457.033     -0.50740627    -218.6883       4.9438707     -5257.0014     -14448.861    
    251000   599.22039      597.92758      309.07553     -13783.798      40.753184      40.753184      35.761175      339096.58      339264.76      374711.87     -13474.722     -7.4341591     -2991.9518      4.8997491     -5292.0289     -14448.863    
    252000   603.19149      593.19682      306.63015     -13756.529      40.753184      40.753184      35.69822       345536.44      345340.16      382175.01     -13449.899     -0.74217541    -307.1901       4.9615407     -5327.0564     -14448.863    
    253000   607.13857      587.58148      303.72752     -13767.378      40.753184      40.753184      35.732918      342543.48      342285.33      378541.61     -13463.65      -3.2131034     -1306.9435      4.9274837     -5362.0876     -14448.862    
    254000   611.1142       586.89652      303.37345     -13741.465      40.753184      40.753184      35.668392      348716.87      349130.8       385489.33     -13438.092      1.9825406      743.19868      4.9908168     -5397.1215     -14448.862    
    255000   615.09383      590.93927      305.4632      -13738.979      40.753184      40.753184      35.657077      349717.3       350400.95      386260.8      -13433.516      1.7080108      655.84074      5.0019228     -5432.1601     -14448.863    
    256000   619.06949      589.18927      304.5586      -13765.259      40.753184      40.753184      35.725535      342361.98      343200.29      379428.17     -13460.7       -2.4354784     -980.73839      4.9347299     -5467.1911     -14448.862    
    257000   623.04201      590.2986       305.13203     -13786.755      40.753184      40.753184      35.778847      337900.72      337271.6       373852.2      -13481.623     -6.2123649     -2510.3044      4.8824038     -5502.2217     -14448.863    
    258000   627.01032      587.24059      303.55131     -13751.545      40.753184      40.753184      35.693254      346620.56      345655.94      383386.41     -13447.994      1.4363785      527.28971      4.9664149     -5537.2596     -14448.863    
    259000   630.98078      588.02141      303.95492     -13743.558      40.753184      40.753184      35.672324      348486.52      348220.23      385769.54     -13439.603      3.4011746      1321.822       4.9869579     -5572.3064     -14448.862    
    260000   634.94803      581.85834      300.76916     -13743.138      40.753184      40.753184      35.679096      347561.34      348079.99      385316.44     -13442.369      3.6182001      1382.7265      4.9803111     -5607.3605     -14448.861    
    261000   638.91138      583.85304      301.80025     -13740.661      40.753184      40.753184      35.670444      348990.16      349119.18      385172.43     -13438.861      1.5240118      582.00226      4.9888034     -5642.4091     -14448.863    
    262000   642.91037      593.50096      306.78736     -13715.877      40.753184      40.753184      35.596323      356045.94      355719.86      392690.89     -13409.09       6.433545       2474.6228      5.061554      -5677.4466     -14448.862    
    263000   646.8871       588.53371      304.21974     -13743.043      40.753184      40.753184      35.670315      348671.45      348795.48      385120.16     -13438.823      1.379122       519.97723      4.9889295     -5712.4808     -14448.862    
    264000   650.86627      585.2499       302.5223      -13739.216      40.753184      40.753184      35.664967      349427.9       349446.5       385946.12     -13436.694      2.455459       940.01695      4.9941786     -5747.5123     -14448.862    
    265000   654.84721      583.67787      301.7097      -13733.394      40.753184      40.753184      35.652452      350052.64      351177.51      387582.79     -13431.684      4.20961        1626.7842      5.0064624     -5782.5555     -14448.861    
    266000   658.80228      589.02122      304.47174     -13770.252      40.753184      40.753184      35.738369      341016.68      342189.31      378500.16     -13465.78      -2.2885759     -934.61486      4.9221329     -5817.6009     -14448.863    
    267000   662.77419      586.49532      303.16607     -13760.83       40.753184      40.753184      35.717849      343278.79      343227.83      381448.77     -13457.664      1.1858203      456.50446      4.9422737     -5852.657      -14448.863    
    268000   666.74335      587.41645      303.64221     -13765.806      40.753184      40.753184      35.729254      341612.47      342577.13      380193.46     -13462.164      0.20278662     66.827675      4.9310797     -5887.7141     -14448.863    
    269000   670.69993      578.56453      299.06656     -13757.296      40.753184      40.753184      35.719288      343840.38      344396         380747.1      -13458.23      -0.31173322    -135.97813      4.9408616     -5922.7599     -14448.862    
    270000   674.66763      590.40615      305.18762     -13735.77       40.753184      40.753184      35.649673      350376.2       350510.51      387823.24     -13430.582      4.2970007      1656.3072      5.0091899     -5957.8048     -14448.863    
    271000   678.63701      586.6212       303.23114     -13776.493      40.753184      40.753184      35.757268      339451.05      340215.3       376723.56     -13473.262     -3.0759455     -1276.8179      4.9035839     -5992.8499     -14448.863    
    272000   682.62248      590.76576      305.37351     -13760.994      40.753184      40.753184      35.712553      343644.9       343469.41      381591.98     -13455.621      0.58124482     197.74064      4.9474718     -6027.8983     -14448.863    
    273000   686.58356      582.51196      301.10703     -13740.949      40.753184      40.753184      35.672923      348892.4       348427.51      385598.8      -13439.842      3.0812765      1196.5264      4.9863702     -6062.9496     -14448.863    
    274000   690.57162      581.64736      300.66011     -13802.53       40.753184      40.753184      35.830986      332774.46      332191.94      369623.67     -13501.87      -6.8037184     -2781.3705      4.8312278     -6097.997      -14448.864    
    275000   694.54522      586.86235      303.35579     -13749.049      40.753184      40.753184      35.687628      347073.84      346803.33      383703.33     -13445.693      1.0938781      417.23672      4.9719363     -6133.0395     -14448.865    
    276000   698.53011      581.33843      300.50042     -13779.953      40.753184      40.753184      35.77328       338273.04      338097.93      376114.17     -13479.453     -1.6240138     -670.86242      4.8878677     -6168.1012     -14448.865    
    277000   702.49544      581.0575       300.3552      -13744.098      40.753184      40.753184      35.68267       348273.45      347315.27      384737.77     -13443.743      2.7878407      1075.3667      4.9768026     -6203.1519     -14448.865    
    278000   706.48789      589.8377       304.89378     -13740.286      40.753184      40.753184      35.66175       349274.1       348880.43      386645.41     -13435.392      3.6019499      1395.0946      4.9973366     -6238.2012     -14448.866    
    279000   710.49437      586.85867      303.35389     -13718.628      40.753184      40.753184      35.611494      354494.1       355125.67      391014.06     -13415.274      5.1153894      1949.252       5.0466638     -6273.2473     -14448.866    
    280000   714.47827      589.25694      304.59358     -13703.669      40.753184      40.753184      35.571579      358682.34      358686.78      395429.77     -13399.076      8.7185058      3335.3758      5.085841      -6308.2854     -14448.866    
    281000   718.42615      583.73827      301.74092     -13716.407      40.753184      40.753184      35.610109      355021.8       356333.71      390945.39     -13414.666      4.6209692      1775.4652      5.0480232     -6343.3236     -14448.866    
    282000   722.40361      586.18322      303.00474     -13758.106      40.753184      40.753184      35.711355      344714.59      344352.98      381882.27     -13455.101      1.0410237      397.0498       4.9486483     -6378.3621     -14448.866    
    283000   726.3751       591.81911      305.918       -13756.717      40.753184      40.753184      35.700391      344659.93      345639.23      382369.71     -13450.799      0.2068543      52.351667      4.9594091     -6413.415      -14448.867    
    284000   730.35239      590.34474      305.15588     -13756.307      40.753184      40.753184      35.701358      345039.49      345642.13      381800        -13451.151     -1.0803735     -443.96224      4.9584599     -6448.4554     -14448.866    
    285000   734.3145       590.81127      305.39703     -13714.662      40.753184      40.753184      35.596751      356098.22      356305.86      392701.09     -13409.265      6.5456715      2517.2984      5.061134      -6483.4954     -14448.866    
    286000   738.28291      577.84126      298.69269     -13781.415      40.753184      40.753184      35.781672      338165.16      337961.07      374230.86     -13482.723     -4.7324695     -1917.226       4.879631      -6518.5289     -14448.865    
    287000   742.27841      593.45796      306.76514     -13721.014      40.753184      40.753184      35.609043      354695.54      354404.54      391213.4      -13414.249      5.116859       1962.5693      5.0490695     -6553.5646     -14448.865    
    288000   746.2497       581.85403      300.76694     -13753.499      40.753184      40.753184      35.705338      345315.3       344819.65      381962.01     -13452.732      0.099147883    20.133312      4.9545536     -6588.5938     -14448.865    
    289000   750.20054      591.19056      305.59309     -13751.778      40.753184      40.753184      35.688817      346799.84      346368.48      382792.23     -13446.185     -0.97197051    -403.64582      4.9707697     -6623.624      -14448.867    
    290000   754.16247      574.80943      297.1255      -13738.245      40.753184      40.753184      35.676124      348703.7       349349.96      385474.17     -13441.119      3.3830856      1314.8867      4.983228      -6658.6671     -14448.866    
    291000   758.13236      583.91593      301.83275     -13779.553      40.753184      40.753184      35.768726      338257.1       339229.14      375432.16     -13477.72      -4.1482755     -1698.4759      4.892337      -6693.7087     -14448.865    
    292000   762.09287      575.97138      297.72613     -13759.104      40.753184      40.753184      35.72718       343341.37      344213.07      380016.07     -13461.377     -0.61087042    -268.02274      4.9331159     -6728.7522     -14448.864    
    293000   766.06095      593.15529      306.60868     -13751.584      40.753184      40.753184      35.68577       346701.62      346965.55      382576.3      -13444.975     -2.1076943     -850.8147       4.9737599     -6763.7893     -14448.865    
    294000   770.0276       590.44491      305.20766     -13740          40.753184      40.753184      35.660247      349014.4       350243.82      386125.07     -13434.792      1.9837896      760.69637      4.9988116     -6798.8216     -14448.864    
    295000   774.0025       586.42496      303.1297      -13719.39       40.753184      40.753184      35.613948      354741.2       354735.54      390849.83     -13416.26       5.1665251      1971.328       5.0442547     -6833.8539     -14448.864    
    296000   777.9743       580.27301      299.94969     -13766.192      40.753184      40.753184      35.73948       342287.76      342250.64      378565.51     -13466.242     -1.8874208     -784.96274      4.9210428     -6868.8855     -14448.864    
    297000   781.94468      583.2254       301.47581     -13762.397      40.753184      40.753184      35.726065      343583.18      343044.74      379725.94     -13460.921     -1.5717313     -642.77408      4.9342102     -6903.9263     -14448.865    
    298000   785.90081      588.72006      304.31606     -13738.421      40.753184      40.753184      35.658396      349825.7       350344.92      386236.99     -13434.105      1.9616997      732.1507       5.000628      -6938.9669     -14448.865    
    299000   789.87037      588.43941      304.17099     -13747.552      40.753184      40.753184      35.681797      347226.35      347962.06      384231.25     -13443.381      1.3175367      502.54923      4.9776599     -6974.0112     -14448.865    
    300000   793.85422      595.2264       307.67926     -13760.053      40.753184      40.753184      35.704459      344437.46      344444.04      381700.45     -13452.374     -0.74133248    -308.13352      4.9554161     -7009.0547     -14448.867    
Loop time of 793.854 on 4 procs for 200000 steps with 4000 atoms

Performance: 21.767 ns/day, 1.103 hours/ns, 251.935 timesteps/s
93.1% CPU use with 4 MPI tasks x no OpenMP threads

MPI task timing breakdown:
Section |  min time  |  avg time  |  max time  |%varavg| %total
---------------------------------------------------------------
Pair    | 99.414     | 183.77     | 269.96     | 468.6 | 23.15
Neigh   | 474.1      | 476.74     | 478.11     |   7.1 | 60.05
Comm    | 16.301     | 99.86      | 183.71     | 624.3 | 12.58
Output  | 0.057275   | 0.057526   | 0.058247   |   0.2 |  0.01
Modify  | 31.575     | 31.648     | 31.72      |   0.9 |  3.99
Other   |            | 1.783      |            |       |  0.22

Nlocal:           1000 ave        1013 max         992 min
Histogram: 1 1 0 1 0 0 0 0 0 1
Nghost:        2274.75 ave        2291 max        2257 min
Histogram: 1 0 0 0 0 2 0 0 0 1
Neighs:              0 ave           0 max           0 min
Histogram: 4 0 0 0 0 0 0 0 0 0
FullNghs:        61559 ave       62352 max       61046 min
Histogram: 1 0 1 1 0 0 0 0 0 1

Total # of neighbors = 246236
Ave neighs/atom = 61.559
Neighbor list builds = 200000
Dangerous builds not checked

write_restart	restart_shock.${up}
write_restart	restart_shock.40
System init for write_restart ...
Generated 0 of 0 mixed pair_coeff terms from geometric mixing rule

clear
next		up
jump		in.msst
# Au Equilibrium of msst shock dynamics

# Energy in eV, time in ps, distance in angstroms.

variable	temp equal 300		# equlibrium temperature
variable	press equal 1		# equlibrium pressure
#variable	up index 40 45 50 55 60 65 70 75 # shock velocity  km/s
variable	up index 40 45 50 55 60 65 70 # shock velocity  km/s


units		metal
boundary        p p p

#plugin		clear
#plugin		load libdeepmd_lmp.so
read_restart	restart.equil_Au
Reading restart file ...
  restart file = 4 May 2022, LAMMPS = 4 May 2022
  restoring atom style atomic from restart
  orthogonal box = (0.023407936 0.023407936 0.023407936) to (40.776592 40.776592 40.776592)
  1 by 2 by 2 MPI processor grid
  restoring pair style nvnmd from restart
  4000 atoms
  read_restart CPU = 0.000 seconds

# DEBUG2, add new rcut
pair_style	nvnmd model.pb
pair_coeff	* *

## DEBUG1, add neighbor
neighbor        0.0 bin
neigh_modify    every 1 delay 0 check no

thermo		1000
atom_modify	sort 10000 0.0
mass		1 197

#Settings

timestep	1e-3

# MSST fix

fix             msst all msst z ${up} q 36 mu 0.903 tscale 0.02
fix             msst all msst z 45 q 36 mu 0.903 tscale 0.02
MSST parameters:
  Shock in z direction
  Cell mass-like parameter qmass (units of mass^2/length^4) = 36
  Shock velocity = 45
  Artificial viscosity (units of mass/length/time) = 0.903
  Initial pressure calculated on first step
  Initial volume calculated on first step
  Initial energy calculated on first step

variable	time equal dt*step
variable	temp equal temp
variable	rho equal density

variable	volume equal vol			# volume
variable	pzz equal pzz				# axial stress
variable	tau equal 0.5*(pzz-0.5*(pxx+pyy))	# shear stress
variable	tauvm equal sqrt(0.5*(pzz-pyy)^2+(pzz-pxx)^2+(pxx-pyy)^2)	# Von Mises Stress
variable	dhug equal f_msst[1]
variable	dray equal f_msst[2]
variable	lgr_vel equal f_msst[3]
variable	lgr_pos equal f_msst[4]
variable	msst equal econserve

thermo_style 	custom step cpu temp ke pe lx ly lz pxx pyy pzz etotal v_dhug v_dray v_lgr_vel v_lgr_pos v_msst
thermo		1000

fix 		stress2 all print 1000 "${time} ${temp} ${rho} ${volume} ${pzz} ${tau} ${tauvm} ${dhug} ${dray} ${lgr_vel} ${lgr_pos} ${msst}" screen no file output_${up}.txt title 'time temp rho vol pzz tau tauvm dhug dray lgr_vel lgr_pos msst'
fix 		stress2 all print 1000 "${time} ${temp} ${rho} ${volume} ${pzz} ${tau} ${tauvm} ${dhug} ${dray} ${lgr_vel} ${lgr_pos} ${msst}" screen no file output_45.txt title 'time temp rho vol pzz tau tauvm dhug dray lgr_vel lgr_pos msst'

# pair correlation

compute		rdf all rdf 100 1 1
fix		rdf all ave/time 100 1000 100000 c_rdf[*] file RDF_${up}.txt mode vector
fix		rdf all ave/time 100 1000 100000 c_rdf[*] file RDF_45.txt mode vector

# Coordinate

compute		keatom all ke/atom
compute		peatom all pe/atom
variable	keatom atom c_keatom
variable	peatom atom c_peatom

dump		imf all custom 10000 Coords_ShockCompression_${up}.txt id type x y z vx vy vz
dump		imf all custom 10000 Coords_ShockCompression_45.txt id type x y z vx vy vz

run	        200000
Generated 0 of 0 mixed pair_coeff terms from geometric mixing rule
Unused restart file global fix info:
  fix style: npt, fix ID: NPT
Neighbor list info ...
  update every 1 steps, delay 0 steps, check no
  max neighbors/atom: 2000, page size: 100000
  master list distance cutoff = 6
  ghost atom cutoff = 6
  binsize = 3, bins = 14 14 14
  2 neighbor lists, perpetual/occasional/extra = 1 1 0
  (1) pair nvnmd, perpetual
      attributes: full, newton on
      pair build: full/bin/atomonly
      stencil: full/bin/3d
      bin: standard
  (2) compute rdf, occasional, copy from (1)
      attributes: full, newton on
      pair build: copy
      stencil: none
      bin: none
Fix MSST v0 = 67683.786
Fix MSST p0 = -1196.0362
Fix MSST e0 = -14448.83
Fix MSST initial strain rate of -0.53533268 established by reducing temperature by factor of 0.02
Per MPI rank memory allocation (min/avg/max) = 4.445 | 4.455 | 4.459 Mbytes
   Step          CPU            Temp          KinEng         PotEng           Lx             Ly             Lz            Pxx            Pyy            Pzz           TotEng         v_dhug         v_dray       v_lgr_vel      v_lgr_pos        v_msst    
    100000   0              294.63327      152.29927     -14604.238      40.753184      40.753184      40.753184     -805.32133     -789.60575     -1244.5564     -14451.938      3.006462      -48.520252      0              0             -14448.83     
    101000   4.205975       1190.923       615.60156     -12095.056      40.753184      40.753184      33.017634      727103.25      729376.83      740402.87     -11479.454     -5.4529033     -1497.7005      8.5416575     -37.051529     -14448.927    
    102000   8.3868919      1205.5069      623.14014     -12235.716      40.753184      40.753184      33.192981      701222.87      703351.33      723302.49     -11612.576     -6.4850134     -1753.7968      8.3480378     -73.563054     -14448.926    
    103000   12.619623      1215.8661      628.49497     -12323.604      40.753184      40.753184      33.303536      681588.23      682379.98      712758.15     -11695.109     -6.0566776     -1677.9641      8.2259624     -110.27735     -14448.928    
    104000   16.838205      1208.3756      624.62303     -12232.34       40.753184      40.753184      33.186586      700570.03      703770.93      724969.31     -11607.717     -2.5468449     -701.35111      8.3550999     -146.96468     -14448.93     
    105000   21.055053      1188.7441      614.4753      -12274.035      40.753184      40.753184      33.25566       689980.89      692499.68      719848.19     -11659.56       3.2864652      812.92362      8.2788281     -183.65421     -14448.927    
    106000   25.275064      1205.6734      623.22622     -12244.036      40.753184      40.753184      33.204035      697968.44      698402.23      727850.63     -11620.81       14.691442      3856.2264      8.3358319     -220.39157     -14448.929    
    107000   29.490215      1199.5771      620.07497     -12244.41       40.753184      40.753184      33.208711      696425.75      699011.45      725468.77     -11624.335      7.3888278      1923.5176      8.330669      -257.0793      -14448.928    
    108000   33.697663      1199.1539      619.85622     -12294.746      40.753184      40.753184      33.27642       685697.59      689681.89      716112.9      -11674.89      -3.3661695     -928.03632      8.2559039     -293.8208      -14448.931    
    109000   37.90968       1211.0146      625.98713     -12235.124      40.753184      40.753184      33.18822       698918.26      701086.49      728157.72     -11609.137      10.326573      2644.0611      8.3532952     -330.55822     -14448.93     
    110000   42.11169       1210.1952      625.56361     -12341.057      40.753184      40.753184      33.331245      676860.55      678658.43      708375.22     -11715.493     -12.532779     -3399.1187      8.1953662     -367.2566      -14448.93     
    111000   46.26327       1189.8358      615.03961     -12307.972      40.753184      40.753184      33.300754      681499.97      684477.81      715274.48     -11692.933      2.2318174      571.15552      8.2290339     -404.0183      -14448.93     
    112000   50.433334      1199.7223      620.15004     -12341.392      40.753184      40.753184      33.338882      676166.08      675759.13      709760.11     -11721.242     -4.5319268     -1280.5771      8.186933      -440.72929     -14448.933    
    113000   54.606281      1224.2682      632.83808     -12275.833      40.753184      40.753184      33.233558      691372.97      694160.96      721685.67     -11642.995      2.153859       527.26106      8.303233      -477.47904     -14448.933    
    114000   58.78467       1183.2848      611.65331     -12253.908      40.753184      40.753184      33.232595      695062.3       696379.24      722397.47     -11642.255      4.4698998      1146.5567      8.3042963     -514.20381     -14448.931    
    115000   62.972398      1208.2966      624.58218     -12295.05       40.753184      40.753184      33.270213      687298.91      688358.35      716878.77     -11670.468     -2.545129      -758.44592      8.262758      -550.91551     -14448.934    
[...]
    228000   608.10908      10322.904      5336.0257      2841.7878      40.753184      40.753184      27.047555      3188734.6      3170521.3      3188457.8      8177.8135      14.080669      3812.557       23.541573     -5949.8086     -14435.902    
    229000   612.91505      10257.492      5302.2137      2746.6963      40.753184      40.753184      27.086691      3176457.3      3160169.9      3161675.4      8048.91       -107.27211     -13872.672      23.474351     -5996.2824     -14435.886    
    230000   617.73976      10359.789      5355.092       3125.9135      40.753184      40.753184      26.956127      3231850.4      3218594        3240578.1      8481.0055      227.4229       34680.722      23.698615     -6042.7325     -14435.918    
    231000   622.3563       10163.074      5253.408       2919.7195      40.753184      40.753184      27.044219      3183565.4      3180184.7      3204353.3      8173.1275      133.19201      18932.786      23.547302     -6089.2399     -14451.833    
    232000   627.04205      10117.168      5229.6789      2732.7479      40.753184      40.753184      27.11306       3155058.4      3154910.4      3158464.6      7962.4268     -87.357355     -10954.032      23.429057     -6135.7262     -14435.852    
    233000   631.74984      10274.636      5311.0755      2961.447       40.753184      40.753184      27.018949      3213634.1      3200553.6      3184615.2      8272.5225     -58.27897      -6679.2755      23.590707     -6182.2241     -14435.914    
    234000   636.4751       10310.982      5329.8633      2795.3951      40.753184      40.753184      27.063578      3190176.1      3160057.9      3172369.9      8125.2584     -71.102388     -8550.6292      23.51405      -6228.7016     -14435.943    
    235000   641.22989      10105.729      5223.7655      2604.2418      40.753184      40.753184      27.154012      3141197.6      3123686.3      3135465        7828.0073     -178.96559     -24434.485      23.358716     -6275.1707     -14435.892    
    236000   646.01951      10389.138      5370.2628      3220.8485      40.753184      40.753184      26.923014      3251750.6      3234494.1      3252954.9      8591.1113      260.51295      39360.434      23.755491     -6321.6444     -14435.954    
    237000   650.84035      10256.989      5301.9536      2844.3645      40.753184      40.753184      27.057205      3179983.1      3168067.6      3194876.1      8146.3181      73.196018      12474.14       23.524997     -6368.1171     -14435.883    
    238000   655.60444      10232.495      5289.2923      2888.2498      40.753184      40.753184      27.047725      3181359.1      3192094.2      3188467.5      8177.5421      14.137403      3861.9909      23.54128      -6414.6016     -14435.927    
    239000   660.40596      10286.849      5317.3889      2763.7294      40.753184      40.753184      27.071927      3196805.3      3147352.7      3172100.5      8081.1183     -43.528554     -6879.3269      23.499709     -6461.0963     -14451.912    
    240000   665.2237       10178.579      5261.4227      3171.4777      40.753184      40.753184      26.970537      3237887.5      3226348        3224077.1      8432.9004      136.53264      21529.279      23.673864     -6507.5853     -14435.89     
    241000   669.81954      10279.459      5313.5689      3098.4659      40.753184      40.753184      26.976866      3231913.1      3225155.5      3210769.2      8412.0348      54.57458       9692.7195      23.662991     -6554.0611     -14435.878    
    242000   674.4893       10060.156      5200.2086      2678.2584      40.753184      40.753184      27.133688      3173195.8      3132816.1      3139518.2      7878.467      -168.16255     -25105.51       23.393626     -6600.5131     -14451.871    
    243000   679.19869      10125.024      5233.7393      2756.2233      40.753184      40.753184      27.099833      3175722.7      3150963.3      3167697.4      7989.9626     -29.855683     -4795.894       23.451777     -6647.0046     -14451.902    
    244000   683.9281       10384.337      5367.7812      3140.6024      40.753184      40.753184      26.947851      3235969.9      3237662.5      3229938.2      8508.3837      140.73995      22117.114      23.71283      -6693.4734     -14435.972    
    245000   688.68191      10135.664      5239.2397      2551.7878      40.753184      40.753184      27.165346      3128582.4      3135975.2      3125479.1      7791.0275     -229.03084     -31785.796      23.339248     -6739.9431     -14435.896    
    246000   693.46871      10171.682      5257.8577      2959.3908      40.753184      40.753184      27.03574       3184408        3218247.9      3180517.4      8217.2485     -59.792068     -6874.0969      23.561867     -6786.4145     -14435.876    
    247000   698.25148      10148.45       5245.8486      3144.938       40.753184      40.753184      26.983271      3212164.1      3221903.8      3233864.9      8390.7866      224.26214      34277.1        23.65199      -6832.8705     -14435.905    
    248000   703.02358      10115.935      5229.0414      2808.3964      40.753184      40.753184      27.090223      3174971.6      3160313.5      3171073.4      8037.4378     -37.396214     -3653.7423      23.468284     -6879.347      -14435.872    
    249000   707.81734      10311.448      5330.104       2834.2559      40.753184      40.753184      27.051633      3198906.5      3150537.8      3192985        8164.3599      51.67596       9287.8513      23.534568     -6925.8344     -14435.907    
    250000   712.64615      10196.258      5270.5611      3057.6735      40.753184      40.753184      27.002145      3211383.1      3208778.8      3210727.5      8328.2346      94.670133      15526.786      23.619572     -6972.3214     -14435.834    
    251000   717.26347      10361.291      5355.8688      2974.1675      40.753184      40.753184      27.001604      3215475        3194248.2      3206151        8330.0363      62.245446      10824.759      23.6205       -7018.7598     -14435.97     
    252000   721.95011      10116.745      5229.46        2848.1288      40.753184      40.753184      27.077972      3166024.5      3170666.9      3195202.7      8077.5888      108.66609      17627.873      23.489327     -7065.2242     -14435.872    
    253000   726.67417      10142.985      5243.0237      2844.5806      40.753184      40.753184      27.074989      3170686.8      3180543.8      3173901.1      8087.6043     -42.321974     -4366.9001      23.494449     -7111.7056     -14435.894    
    254000   731.42019      10213.846      5279.6524      2949.5055      40.753184      40.753184      27.032023      3208155.2      3201922.6      3170300.2      8229.1579     -135.67193     -17955.324      23.568251     -7158.1582     -14435.933    
    255000   736.20315      10218.553      5282.0855      3165.0464      40.753184      40.753184      26.966241      3216075.1      3260715.2      3211176.3      8447.1318      40.536895      7629.8565      23.681242     -7204.5491     -14435.923    
    256000   740.94598      10309.238      5328.962       2951.7122      40.753184      40.753184      27.016366      3193685.3      3191163.8      3214230.3      8280.6742      141.91445      22335.311      23.595145     -7251.0482     -14435.926    
    257000   745.70581      10173.983      5259.0472      2697.0537      40.753184      40.753184      27.115005      3136121.5      3167534.2      3162818.4      7956.1009     -54.548223     -6148.1058      23.425716     -7297.5395     -14435.894    
    258000   750.48813      10162.346      5253.0315      2709.267       40.753184      40.753184      27.112898      3146622.1      3162943.2      3159203.2      7962.2985     -81.924827     -10253.204      23.429336     -7344.0268     -14435.926    
    259000   755.31347      10357.264      5353.787       2756.2493      40.753184      40.753184      27.067391      3160353.1      3178682.9      3172316.5      8110.0363     -62.80664      -7717.7762      23.507501     -7390.521      -14435.955    
    260000   760.14325      10227.355      5286.6356      2935.9169      40.753184      40.753184      27.033918      3175913.4      3191450.9      3213959.4      8222.5526      167.99717      26144.468      23.564995     -7437.0088     -14435.877    
    261000   764.78763      10150.397      5246.855       2912.6319      40.753184      40.753184      27.052597      3168510.3      3190885.5      3198136.5      8159.4869      90.231399      14663.363      23.532912     -7483.4943     -14435.896    
    262000   769.45963      10242.304      5294.3631      2730.7517      40.753184      40.753184      27.094         3161850.3      3158917.3      3170451.8      8025.1148     -35.73653      -3397.3664      23.461796     -7529.9883     -14435.89     
    263000   774.18378      10167.279      5255.5815      3064.0353      40.753184      40.753184      27.004724      3197803.2      3211765        3224794.1      8319.6168      195.8133       30192.9        23.615142     -7576.4701     -14435.893    
    264000   778.94373      10242.566      5294.4982      3017.7494      40.753184      40.753184      27.006698      3221703.8      3204502.6      3196537.7      8312.2475      5.0150736      2395.4234      23.611751     -7622.9319     -14435.911    
    265000   783.7073       10123.559      5232.982       2711.9492      40.753184      40.753184      27.113511      3139167.7      3175757.8      3154826.2      7944.9313     -96.027042     -14487.678      23.428283     -7669.4313     -14451.911    
    266000   788.46527      10022.141      5180.5584      2936.8266      40.753184      40.753184      27.065863      3190722.7      3184328.7      3181525.8      8117.385      -4.2911207      1136.4512      23.510125     -7715.9382     -14435.816    
    267000   793.23468      10129.42       5236.0118      3056.6992      40.753184      40.753184      27.012936      3222274.2      3198791.8      3210041.3      8292.7111      106.94112      17349.036      23.601037     -7762.4727     -14435.834    
    268000   798.02408      10234.092      5290.118       3098.9812      40.753184      40.753184      26.983091      3222579.1      3218536.5      3215344.5      8389.0992      98.329811      15714.884      23.6523       -7808.9642     -14435.948    
    269000   802.85494      10387.216      5369.2697      2816.6462      40.753184      40.753184      27.04513       3167504.6      3193879.1      3185229.7      8185.9159     -12.066846      20.83239       23.545738     -7855.4273     -14435.939    
    270000   807.64227      10061.012      5200.6508      2736.4142      40.753184      40.753184      27.120792      3157015.3      3138179.1      3169346.8      7937.0651     -0.68920599     1725.5037      23.415776     -7901.9283     -14435.839    
    271000   812.26893      10076.021      5208.4095      2797.3071      40.753184      40.753184      27.095018      3185233.7      3163199        3157044.8      8005.7166     -110.39481     -16567.57       23.460047     -7948.4312     -14451.915    
    272000   816.97585      10243.644      5295.0557      2889.5527      40.753184      40.753184      27.045439      3184597.3      3198869        3174494.4      8184.6084     -85.072307     -10642.518      23.545207     -7994.9072     -14435.883    
    273000   821.70762      10042.308      5190.9828      2899.7077      40.753184      40.753184      27.074101      3191785.9      3177958.5      3179233.6      8090.6905     -7.3241657      759.05449      23.495976     -8041.337      -14435.875    
    274000   826.43266      10318.886      5333.949       2565.9211      40.753184      40.753184      27.132011      3147669.4      3120954.5      3147384.1      7899.8701     -132.51274     -17629.364      23.396505     -8087.8478     -14435.985    
    275000   831.19333      10130.895      5236.7741      2726.758       40.753184      40.753184      27.112727      3145924.7      3144351        3169965        7963.5321     -9.2518674      468.82223      23.42963      -8134.3523     -14435.803    
    276000   835.94496      10124.068      5233.2454      2863.1435      40.753184      40.753184      27.07232       3175707.2      3174875.5      3182761.1      8096.3889      14.195962      3872.4439      23.499035     -8180.8207     -14435.818    
    277000   840.71597      10207.704      5276.478       3169.0781      40.753184      40.753184      26.966766      3247042.2      3229589.6      3210449.5      8445.5561      36.192114      7025.2719      23.68034      -8227.3066     -14435.921    
    278000   845.50293      10203.788      5274.4536      3099.0644      40.753184      40.753184      26.983539      3215943.9      3235162.4      3209336.8      8373.518       71.205271      9811.3059      23.65153      -8273.812      -14451.85     
    279000   850.29933      10227.008      5286.4561      3115.0795      40.753184      40.753184      26.980052      3232793.1      3196593.7      3241861.5      8401.5356      274.29914      41525.462      23.657519     -8320.2817     -14435.956    
    280000   855.08965      10203.459      5274.2836      2804.281       40.753184      40.753184      27.077606      3183258.4      3176693.6      3155828.2      8078.5646     -161.65106     -21831.71       23.489956     -8366.7642     -14435.956    
    281000   859.75211      9998.9678      5168.5797      2864.8646      40.753184      40.753184      27.091183      3163091.4      3187997        3174441.4      8033.4442     -11.990773     -62.561831      23.466635     -8413.2035     -14435.847    
    282000   864.43318      10089.512      5215.3829      3049.8008      40.753184      40.753184      27.01631       3209983        3191682        3224889.5      8265.1838      230.39833      32981.468      23.595241     -8459.6874     -14451.793    
    283000   869.14986      10132.422      5237.5637      2925.0786      40.753184      40.753184      27.052039      3200833.6      3177389.3      3191659.7      8162.6422      43.584421      8056.7866      23.533871     -8506.2225     -14435.882    
    284000   873.88565      10208.722      5277.0041      2884.1987      40.753184      40.753184      27.052669      3185326.6      3203258.3      3164868.7      8161.2028     -140.04996     -18587.715      23.532789     -8552.7062     -14435.914    
    285000   878.69718      10297.898      5323.1001      3018.1386      40.753184      40.753184      26.998251      3207063.9      3210910.1      3207898.2      8341.2388      68.846839      11792.401      23.626261     -8599.1825     -14435.895    
    286000   883.46986      10237.569      5291.9152      3099.664       40.753184      40.753184      26.983085      3208003.3      3231820        3223636.4      8391.5792      153.18446      24005.324      23.65231      -8645.709      -14435.819    
    287000   888.23411      10304.663      5326.597       3301.7882      40.753184      40.753184      26.911886      3262649.5      3259447.3      3248497.3      8628.3851      211.66737      32316.208      23.774605     -8692.2235     -14435.82     
    288000   893.01857      10057.6        5198.8873      2953.1187      40.753184      40.753184      27.055428      3190035.6      3202604.5      3181447.9      8152.006      -21.676587     -1367.116       23.528049     -8738.6809     -14435.823    
    289000   897.82189      10092.852      5217.1093      2875.7551      40.753184      40.753184      27.073364      3182161        3191932.7      3159108.9      8092.8644     -146.27335     -19537.046      23.497242     -8785.1558     -14435.885    
    290000   902.63787      10216.24       5280.89        2833.4415      40.753184      40.753184      27.066902      3171424.9      3179886.4      3181409.8      8114.3315     -3.789322       1261.8696      23.508341     -8831.5981     -14435.841    
    291000   907.24258      10186.832      5265.6887      2569.9293      40.753184      40.753184      27.151725      3153301        3120988.9      3126766.8      7835.6181     -242.04772     -33664.207      23.362644     -8878.1014     -14435.901    
    292000   911.93408      10107.199      5224.5254      3108.0982      40.753184      40.753184      27.00078       3223429        3212084.9      3211728.6      8332.6236      99.521935      16210.787      23.621915     -8924.6174     -14435.819    
    293000   916.65031      10227.306      5286.6101      2990.1747      40.753184      40.753184      27.01759       3197570.4      3198078.2      3206455.7      8276.7848      90.166655      14845.259      23.593042     -8971.0866     -14435.904    
    294000   921.39232      10290.547      5319.3003      2648.025       40.753184      40.753184      27.11153       3135181.1      3178663        3144411.3      7967.3254     -185.78564     -25363.051      23.431686     -9017.5863     -14435.925    
    295000   926.1679       10236.359      5291.29        2638.3751      40.753184      40.753184      27.122959      3144285.5      3143282.8      3146839.5      7929.6651     -150.77576     -20278.106      23.412054     -9064.0424     -14435.894    
    296000   930.93646      10211.662      5278.5234      2861.8628      40.753184      40.753184      27.04925       3198949.4      3204261.5      3153261.8      8140.3862     -194.23557     -30989.422      23.538662     -9110.4997     -14467.882    
    297000   935.72725      10249.544      5298.1053      2815.2497      40.753184      40.753184      27.066829      3170588.5      3172933        3191300.5      8113.355       65.137728      11135.428      23.508467     -9156.9609     -14435.946    
    298000   940.50059      10067.222      5203.861       2914.6449      40.753184      40.753184      27.065648      3167844.9      3197337.4      3187866.1      8118.5059      38.476187      7426.5957      23.510495     -9203.4637     -14435.843    
    299000   945.31824      10154.557      5249.0052      2601.8179      40.753184      40.753184      27.147068      3132356.1      3141508        3138093.3      7850.8231     -172.19539     -23420.287      23.370643     -9249.9255     -14435.882    
    300000   950.14535      10228.322      5287.1355      2785.2021      40.753184      40.753184      27.079645      3191328.2      3172630.5      3152237.4      8072.3376     -183.46777     -24948.521      23.486453     -9296.3962     -14435.954    
Loop time of 950.145 on 4 procs for 200000 steps with 4000 atoms

Performance: 18.187 ns/day, 1.320 hours/ns, 210.494 timesteps/s
94.1% CPU use with 4 MPI tasks x no OpenMP threads

MPI task timing breakdown:
Section |  min time  |  avg time  |  max time  |%varavg| %total
---------------------------------------------------------------
Pair    | 110.75     | 185.03     | 277.62     | 445.4 | 19.47
Neigh   | 613.92     | 625.24     | 648.45     |  54.4 | 65.80
Comm    | 20.21      | 105.6      | 191.24     | 620.3 | 11.11
Output  | 0.057074   | 0.057327   | 0.058057   |   0.2 |  0.01
Modify  | 32.283     | 32.312     | 32.332     |   0.3 |  3.40
Other   |            | 1.903      |            |       |  0.20

Nlocal:           1000 ave        1005 max         994 min
Histogram: 1 0 1 0 0 0 0 0 0 2
Nghost:         2877.5 ave        2888 max        2867 min
Histogram: 1 0 0 1 0 0 1 0 0 1
Neighs:              0 ave           0 max           0 min
Histogram: 4 0 0 0 0 0 0 0 0 0
FullNghs:      77525.5 ave       77999 max       76939 min
Histogram: 1 0 0 0 1 0 0 0 1 1

Total # of neighbors = 310102
Ave neighs/atom = 77.5255
Neighbor list builds = 200000
Dangerous builds not checked

write_restart	restart_shock.${up}
write_restart	restart_shock.70
System init for write_restart ...
Generated 0 of 0 mixed pair_coeff terms from geometric mixing rule

clear
next		up
jump		in.msst

Total wall time: 1:47:52
