LAMMPS (4 May 2022)
# Au Equilibrium of msst shock dynamics

# Energy in eV, time in ps, distance in angstroms.

variable	temp equal 300		# equlibrium temperature
variable	press equal 1		# equlibrium pressure
variable	up index 40 45 50 55 60 65 70 75 # shock velocity  km/s


units		metal
boundary        p p p

#plugin		clear
#plugin		load libdeepmd_lmp.so
read_restart	restart.equil_Au
Reading restart file ...
  restart file = 4 May 2022, LAMMPS = 4 May 2022
  restoring atom style atomic from restart
  orthogonal box = (0.023407936 0.023407936 0.023407936) to (40.776592 40.776592 40.776592)
  1 by 2 by 2 MPI processor grid
  restoring pair style nvnmd from restart
  4000 atoms
  read_restart CPU = 0.000 seconds

# DEBUG2, add new rcut
pair_style	nvnmd model.pb
pair_coeff	* *

## DEBUG1, add neighbor
neighbor        0.0 bin
neigh_modify    every 1 delay 0 check no

thermo		1000
atom_modify	sort 10000 0.0
mass		1 197

#Settings

timestep	1e-3

# MSST fix

fix             msst all msst z ${up} q 36 mu 0.903 tscale 0.02
fix             msst all msst z 40 q 36 mu 0.903 tscale 0.02
MSST parameters:
  Shock in z direction
  Cell mass-like parameter qmass (units of mass^2/length^4) = 36
  Shock velocity = 40
  Artificial viscosity (units of mass/length/time) = 0.903
  Initial pressure calculated on first step
  Initial volume calculated on first step
  Initial energy calculated on first step

variable	time equal dt*step
variable	temp equal temp
variable	rho equal density

variable	volume equal vol			# volume
variable	pzz equal pzz				# axial stress
variable	tau equal 0.5*(pzz-0.5*(pxx+pyy))	# shear stress
variable	tauvm equal sqrt(0.5*(pzz-pyy)^2+(pzz-pxx)^2+(pxx-pyy)^2)	# Von Mises Stress
variable	dhug equal f_msst[1]
variable	dray equal f_msst[2]
variable	lgr_vel equal f_msst[3]
variable	lgr_pos equal f_msst[4]
variable	msst equal econserve

thermo_style 	custom step cpu temp ke pe lx ly lz pxx pyy pzz etotal v_dhug v_dray v_lgr_vel v_lgr_pos v_msst
thermo		1000

fix 		stress2 all print 1000 "${time} ${temp} ${rho} ${volume} ${pzz} ${tau} ${tauvm} ${dhug} ${dray} ${lgr_vel} ${lgr_pos} ${msst}" screen no file output_${up}.txt title 'time temp rho vol pzz tau tauvm dhug dray lgr_vel lgr_pos msst'
fix 		stress2 all print 1000 "${time} ${temp} ${rho} ${volume} ${pzz} ${tau} ${tauvm} ${dhug} ${dray} ${lgr_vel} ${lgr_pos} ${msst}" screen no file output_40.txt title 'time temp rho vol pzz tau tauvm dhug dray lgr_vel lgr_pos msst'

# pair correlation

compute		rdf all rdf 100 1 1
fix		rdf all ave/time 100 1000 100000 c_rdf[*] file RDF_${up}.txt mode vector
fix		rdf all ave/time 100 1000 100000 c_rdf[*] file RDF_40.txt mode vector

# Coordinate

compute		keatom all ke/atom
compute		peatom all pe/atom
variable	keatom atom c_keatom
variable	peatom atom c_peatom

dump		imf all custom 10000 Coords_ShockCompression_${up}.txt id type x y z vx vy vz
dump		imf all custom 10000 Coords_ShockCompression_40.txt id type x y z vx vy vz

run	        200000
Generated 0 of 0 mixed pair_coeff terms from geometric mixing rule
Unused restart file global fix info:
  fix style: npt, fix ID: NPT
Neighbor list info ...
  update every 1 steps, delay 0 steps, check no
  max neighbors/atom: 2000, page size: 100000
  master list distance cutoff = 6
  ghost atom cutoff = 6
  binsize = 3, bins = 14 14 14
  2 neighbor lists, perpetual/occasional/extra = 1 1 0
  (1) pair nvnmd, perpetual
      attributes: full, newton on
      pair build: full/bin/atomonly
      stencil: full/bin/3d
      bin: standard
  (2) compute rdf, occasional, copy from (1)
      attributes: full, newton on
      pair build: copy
      stencil: none
      bin: none
Fix MSST v0 = 67683.786
Fix MSST p0 = -1196.0362
Fix MSST e0 = -14448.83
Fix MSST initial strain rate of -0.53533268 established by reducing temperature by factor of 0.02
Per MPI rank memory allocation (min/avg/max) = 4.445 | 4.455 | 4.459 Mbytes
   Step          CPU            Temp          KinEng         PotEng           Lx             Ly             Lz            Pxx            Pyy            Pzz           TotEng         v_dhug         v_dray       v_lgr_vel      v_lgr_pos        v_msst    
    100000   0              294.63327      152.29927     -14604.238      40.753184      40.753184      40.753184     -805.32133     -789.60575     -1244.5564     -14451.938      3.006462      -48.520252      0              0             -14448.83     
    101000   3.3483952      582.33128      301.01363     -13795.166      40.753184      40.753184      35.811088      333182.15      333402.34      373736.4      -13494.152     -0.4034464     -178.96462      4.8507586     -35.443016     -14448.871    
    102000   6.6887995      593.08311      306.57137     -13771.702      40.753184      40.753184      35.736759      341125.6       339843.78      379899.71     -13465.13       0.90737053     342.68607      4.9237138     -70.560812     -14448.871    
    103000   10.052874      589.05587      304.48965     -13742.853      40.753184      40.753184      35.669151      348849.93      349050.25      385419.85     -13438.363      1.9219074      731.33913      4.9900717     -105.6276      -14448.871    
    104000   13.387827      584.67042      302.22276     -13748.815      40.753184      40.753184      35.689786      347163.64      346313.87      383680.96     -13446.592      1.492981       558.64836      4.9698184     -140.67926     -14448.871    
    105000   16.732479      599.02084      309.64065     -13719.746      40.753184      40.753184      35.598678      355329.57      355374.01      392374.97     -13410.105      6.137076       2337.4714      5.0592422     -175.71167     -14448.872    
    106000   20.077155      587.69141      303.78434     -13741.59       40.753184      40.753184      35.667758      349240.82      349346.51      384882.02     -13437.805      0.27949747     87.769552      4.991439      -210.74355     -14448.87     
    107000   23.423444      588.31585      304.10712     -13776.51       40.753184      40.753184      35.75504       339804.11      340133.82      376382.24     -13472.403     -4.3427862     -1787.1966      4.9057702     -245.77063     -14448.87     
    108000   26.793765      590.3301       305.14831     -13764.78       40.753184      40.753184      35.722802      342751.83      342999.92      379898.59     -13459.632     -1.7642419     -717.77375      4.9374126     -280.80488     -14448.87     
    109000   30.158756      582.80822      301.26016     -13761.939      40.753184      40.753184      35.725412      342648.16      343529.42      380054.94     -13460.679     -0.85324793    -363.2884       4.9348504     -315.84242     -14448.869    
    110000   33.526182      587.99958      303.94364     -13751.055      40.753184      40.753184      35.69115       345636.48      346993.88      383303.11     -13447.112      0.77480077     284.29428      4.96848       -350.88444     -14448.87     
    111000   36.855343      592.73123      306.38948     -13744.864      40.753184      40.753184      35.669444      348653.64      347946.36      385477.48     -13438.475      2.1201374      811.20157      4.9897842     -385.92164     -14448.87     
    112000   40.186148      586.5149       303.17619     -13755.842      40.753184      40.753184      35.705162      345475.06      344487.14      382369.22     -13452.666      1.0997549      413.94362      4.9547268     -420.96612     -14448.87     
    113000   43.545901      586.71419      303.27921     -13784.492      40.753184      40.753184      35.777716      337676.18      337798.04      374132.09     -13481.213     -5.6991926     -2316.2571      4.8835139     -456.01654     -14448.871    
    114000   46.900655      590.09271      305.0256      -13754.132      40.753184      40.753184      35.696212      345614.2       345723.76      382778.09     -13449.107      0.40367978     143.51268      4.9635112     -491.0607      -14448.869    
    115000   50.259269      595.23374      307.68306     -13732.26       40.753184      40.753184      35.634747      352455.64      351373.53      388417.69     -13424.577      2.9070581      1117.824       5.0238405     -526.10311     -14448.87     
    116000   53.607844      590.9166       305.45148     -13760.684      40.753184      40.753184      35.711574      344950.85      344129.67      380187.27     -13455.232     -3.1584592     -1281.2867      4.9484329     -561.13405     -14448.87     
    117000   56.958476      593.17591      306.61934     -13757.34       40.753184      40.753184      35.700284      345771.26      345786.22      381317.31     -13450.72      -2.5148963     -1008.1862      4.9595143     -596.16364     -14448.87     
    118000   60.29108       596.95357      308.57206     -13734.256      40.753184      40.753184      35.637454      351622.1       351461.09      388013.58     -13425.684      2.415617       919.18248      5.0211835     -631.19919     -14448.871    
    119000   63.627119      584.61749      302.1954      -13766.133      40.753184      40.753184      35.733726      342882.71      342093.27      379223.77     -13463.937     -1.3718216     -563.4512       4.9266905     -666.23902     -14448.87     
    120000   66.974063      585.46844      302.63526     -13726.757      40.753184      40.753184      35.633593      352742.85      352207.69      389409.89     -13424.122      5.2372916      2022.4337      5.0249731     -701.27513     -14448.87     
    121000   70.309825      588.82725      304.37147     -13758.189      40.753184      40.753184      35.708095      344526.09      344639.15      381614.72     -13453.817     -0.25548513    -117.95678      4.9518483     -736.31936     -14448.871    
    122000   73.654156      589.2706       304.60064     -13756.058      40.753184      40.753184      35.702058      345157.45      344799.16      382643.61     -13451.458      1.2188238      452.73771      4.9577735     -771.37159     -14448.872    
    123000   77.007744      586.15773      302.99157     -13772.423      40.753184      40.753184      35.747695      340701.27      340589.92      377764.16     -13469.431     -2.3681974     -962.78336      4.9129795     -806.41927     -14448.873    
    124000   80.350125      582.45959      301.07996     -13741.623      40.753184      40.753184      35.674613      348144.58      348950.39      384995.38     -13440.543      1.8979131      721.39392      4.9847113     -841.45681     -14448.872    
    125000   83.70215       587.25538      303.55895     -13746.843      40.753184      40.753184      35.68128       347363.58      347414.15      384471        -13443.284      1.9332632      703.05782      4.9781674     -876.49697     -14448.873    
    126000   87.032473      582.72323      301.21623     -13767.137      40.753184      40.753184      35.738596      341680.12      341818.37      379002.58     -13465.92      -0.93270242    -415.00095      4.9219106     -911.55928     -14448.873    
    127000   90.364755      588.50192      304.20331     -13767.887      40.753184      40.753184      35.733092      342191.57      342406.97      379028.36     -13463.684     -1.988693      -806.95569      4.9273125     -946.60358     -14448.874    
    128000   93.714402      584.28214      302.02205     -13753.003      40.753184      40.753184      35.700926      345153.91      345780.48      382913.12     -13450.981      1.6572223      636.35766      4.9588841     -981.6537      -14448.873    
    129000   97.05385       593.07179      306.56552     -13765.142      40.753184      40.753184      35.720111      343011.11      343650.61      379676.84     -13458.576     -2.8340385     -1143.7486      4.9400536     -1016.6952     -14448.873    
    130000   100.41375      593.27169      306.66885     -13745.556      40.753184      40.753184      35.670486      348458.69      348231.76      385066.8      -13438.887      1.2719849      479.59964      4.9887616     -1051.7309     -14448.874    
    131000   103.7413       590.94505      305.46619     -13743.918      40.753184      40.753184      35.669415      348776.56      347940.5       385278.4      -13438.451      1.5960975      609.89413      4.989813      -1086.7578     -14448.872    
    132000   107.09085      590.50779      305.24016     -13770.47       40.753184      40.753184      35.73702       341970.92      341237.54      378646.21     -13465.23      -2.1984477     -890.98822      4.9234574     -1121.7891     -14448.872    
    133000   110.44151      590.24053      305.10201     -13726.008      40.753184      40.753184      35.625503      352661.9       353674.98      389790.31     -13420.906      4.6789686      1788.8177      5.0329136     -1156.8244     -14448.871    
    134000   113.78159      577.53343      298.53357     -13748.104      40.753184      40.753184      35.697368      346825.08      346359.63      382740.38     -13449.57       0.53544856     193.51309      4.9623769     -1191.8585     -14448.87     
    135000   117.13182      589.53878      304.73927     -13743.036      40.753184      40.753184      35.669014      348394.88      348844.26      385261.52     -13438.296      1.4802733      562.61404      4.9902061     -1226.8973     -14448.872    
    136000   120.45895      589.73573      304.84108     -13774.006      40.753184      40.753184      35.746941      340491         340664.07      377328.8      -13469.165     -3.5762038     -1455.3818      4.9137197     -1261.9511     -14448.872    
    137000   123.82348      584.36338      302.06404     -13731.459      40.753184      40.753184      35.646715      351242.6       350549.08      388649.84     -13429.395      5.8378015      2258.3852      5.0120933     -1296.9869     -14448.871    
    138000   127.17951      590.03862      304.99764     -13723.945      40.753184      40.753184      35.620698      353473.93      353156.27      390826.21     -13418.947      6.3857831      2460.0377      5.0376294     -1332.0326     -14448.872    
    139000   130.52371      586.37134      303.10198     -13762.052      40.753184      40.753184      35.721091      344820.93      342881.99      379674.88     -13458.95      -2.6628635     -1071.348       4.939092      -1367.08       -14448.871    
    140000   133.87642      583.2381       301.48238     -13751.9        40.753184      40.753184      35.699514      346422.61      345731.47      382468.21     -13450.418      0.25529228     84.245341      4.9602704     -1402.1195     -14448.871    
    141000   137.21076      588.76074      304.33709     -13778.741      40.753184      40.753184      35.760358      339460.87      338626.27      376378.72     -13474.404     -3.4160318     -1387.1212      4.9005511     -1437.1632     -14448.871    
    142000   140.55367      593.05821      306.5585      -13771.835      40.753184      40.753184      35.737143      341705.27      340993.81      378144.34     -13465.276     -3.4385511     -1383.5353      4.9233369     -1472.2075     -14448.871    
    143000   143.9103       593.69488      306.88761     -13748.164      40.753184      40.753184      35.676507      347257.6       347562.2       385077.58     -13441.276      2.4518618      947.40506      4.9828516     -1507.2524     -14448.872    
    144000   147.26159      585.00955      302.39806     -13749.131      40.753184      40.753184      35.690121      346635.02      346754.46      383756.45     -13446.733      1.7560422      659.52805      4.96949       -1542.3109     -14448.871    
    145000   150.61487      580.76813      300.20562     -13772.304      40.753184      40.753184      35.75444       339720.62      341416.05      377153.67     -13472.099     -2.5913237     -1061.2864      4.9063589     -1577.3649     -14448.869    
    146000   153.95511      595.63264      307.88926     -13741.94       40.753184      40.753184      35.658385      349709.44      349490.85      385868.79     -13434.05       0.97092888     363.11297      5.0006389     -1612.4019     -14448.872    
    147000   157.29809      587.71219      303.79508     -13776.813      40.753184      40.753184      35.756861      339675.52      339676.87      376740.87     -13473.018     -3.1925329     -1290.3352      4.9039827     -1647.4349     -14448.871    
    148000   160.67386      583.94837      301.84952     -13736.954      40.753184      40.753184      35.661009      349674.39      350521.37      386050.15     -13435.105      1.9477023      743.60281      4.9980638     -1682.469      -14448.87     
    149000   164.01919      588.13801      304.0152      -13739.745      40.753184      40.753184      35.6626        349317.28      349150.26      386297.28     -13435.729      2.8757742      1111.4765      4.9965025     -1717.5089     -14448.871    
    150000   167.36512      593.52621      306.80042     -13723.968      40.753184      40.753184      35.616274      353602.39      354359.07      390502.93     -13417.168      4.6964121      1800.9474      5.041972      -1752.5347     -14448.871    
    151000   170.71351      579.93741      299.77621     -13758.974      40.753184      40.753184      35.721632      343751.19      343517.11      381053.23     -13459.197      0.95034702     348.06092      4.938561      -1787.5787     -14448.87     
    152000   174.06835      588.57506      304.24111     -13740.002      40.753184      40.753184      35.662653      348857.44      349821.65      386156.91     -13435.761      2.5375622      975.16059      4.9964501     -1822.6283     -14448.871    
    153000   177.39697      589.10549      304.5153      -13762.53       40.753184      40.753184      35.718719      343902.77      343414.64      380325.77     -13458.015     -1.4750587     -600.45852      4.9414197     -1857.6638     -14448.872    
    154000   180.73798      585.84757      302.83124     -13750.077      40.753184      40.753184      35.691516      347279.92      346542.47      382951.65     -13447.246     -0.057612478   -39.332684      4.9681201     -1892.708      -14448.871    
    155000   184.07496      593.89074      306.98885     -13754.052      40.753184      40.753184      35.690986      345363.77      346332.55      383665.23     -13447.064      1.6786511      633.99955      4.9686405     -1927.751      -14448.872    
    156000   187.39187      588.21857      304.05684     -13756          40.753184      40.753184      35.703372      344507.86      345408.53      382322.98     -13451.943      0.62575698     231.85491      4.9564836     -1962.7928     -14448.87     
    157000   190.75716      583.55199      301.64463     -13775.895      40.753184      40.753184      35.76001       339834.37      339683.88      376234.44     -13474.25      -3.8608957     -1557.7691      4.9008921     -1997.8373     -14448.87     
    158000   194.1487       593.71059      306.89573     -13738.893      40.753184      40.753184      35.653244      350294.65      349831.04      386619.99     -13431.998      1.8974852      724.10246      5.0056849     -2032.8756     -14448.871    
    159000   197.49659      589.5053       304.72196     -13741.829      40.753184      40.753184      35.666005      349185.3       348427.11      385686.01     -13437.108      1.9923831      758.65709      4.9931603     -2067.9197     -14448.87     
    160000   200.85079      593.54022      306.80766     -13741.39       40.753184      40.753184      35.659565      349768.78      349277.89      385762.92     -13434.582      0.98750416     346.80149      4.9994807     -2102.9625     -14448.87     
    161000   204.17696      583.51125      301.62357     -13770.535      40.753184      40.753184      35.746215      341045.02      341411.4       377760.35     -13468.911     -2.6009777     -1078.9107      4.914432      -2138.0094     -14448.87     
    162000   207.53297      593.80314      306.94357     -13759.72       40.753184      40.753184      35.705461      344529.03      344698.86      381281.91     -13452.777     -1.6017817     -650.67385      4.9544334     -2173.052      -14448.87     
    163000   210.88564      585.29737      302.54684     -13721.857      40.753184      40.753184      35.62164       354319.91      354342.75      389844.79     -13419.31       4.0282588      1550.1385      5.0367046     -2208.0772     -14448.87     
    164000   214.21946      584.73884      302.25812     -13739.5        40.753184      40.753184      35.666387      349336.88      349315.83      385739.48     -13437.242      2.1851321      841.134        4.9927852     -2243.1026     -14448.87     
    165000   217.55985      598.63468      309.44104     -13756.772      40.753184      40.753184      35.69157       345676.21      346942.34      381965.02     -13447.331     -2.4893175     -1021.8938      4.9680674     -2278.1384     -14448.871    
    166000   220.91467      589.5514       304.74579     -13755.453      40.753184      40.753184      35.700253      345139.34      344923.33      382828.12     -13450.707      1.305708       500.24049      4.9595452     -2313.182      -14448.869    
    167000   224.25057      575.17962      297.31686     -13766.291      40.753184      40.753184      35.746525      342000         341041.73      378703.77     -13468.974     -0.23049136    -111.98312      4.9141281     -2348.23       -14448.869    
    168000   227.59777      586.85061      303.34972     -13768.954      40.753184      40.753184      35.737918      341748.51      340891.06      378818.46     -13465.604     -1.5731813     -650.55498      4.9225757     -2383.2703     -14448.869    
    169000   231.06009      588.48735      304.19577     -13744.165      40.753184      40.753184      35.673212      349039.19      348239.08      384937.45     -13439.969      1.4644764      557.18407      4.9860857     -2418.3068     -14448.87     
    170000   235.02717      593.42674      306.749       -13741.058      40.753184      40.753184      35.659007      349183.46      349768.65      386234.25     -13434.309      2.0344197      775.80732      5.0000281     -2453.3427     -14448.871    
    171000   238.98052      596.43114      308.30201     -13761.31       40.753184      40.753184      35.706059      343855.38      344466.21      381484.56     -13453.008     -0.97989092    -402.61898      4.9538463     -2488.391      -14448.87     
    172000   242.9365       581.59302      300.63202     -13796.843      40.753184      40.753184      35.816406      334062.5       333408.01      371688.83     -13496.211     -4.4731473     -1822.8679      4.8455386     -2523.4406     -14448.87     
    173000   246.9073       578.0298       298.79014     -13760.341      40.753184      40.753184      35.727685      342630.83      343294.65      380549.61     -13461.551      0.8049486      303.88984      4.9326197     -2558.4949     -14448.87     
    174000   250.86946      592.43947      306.23867     -13754.924      40.753184      40.753184      35.695027      345568.93      345411.02      383100.16     -13448.685      1.0394199      375.62313      4.9646745     -2593.541      -14448.871    
    175000   254.827        573.13038      296.25758     -13767.321      40.753184      40.753184      35.751586      340843.41      341644.96      378199.03     -13471.064     -0.43299926    -232.57318      4.9091605     -2628.5993     -14448.87     
    176000   258.80086      592.17975      306.10442     -13728.544      40.753184      40.753184      35.629376      352002.31      353735.45      389104.71     -13422.439      3.6466819      1397.2079      5.0291118     -2663.6409     -14448.871    
    177000   262.79192      589.28802      304.60965     -13750.322      40.753184      40.753184      35.687656      346002.43      346782.24      384065.03     -13445.712      2.0254053      781.01737      4.9719094     -2698.6889     -14448.869    
    178000   266.74148      581.46003      300.56327     -13762.817      40.753184      40.753184      35.729278      342946.16      342840.39      379701.35     -13462.253     -0.95471209    -423.50374      4.9310567     -2733.7438     -14448.87     
    179000   270.72238      581.81157      300.74499     -13743.243      40.753184      40.753184      35.679585      347715.4       347750.31      385438.84     -13442.498      3.9602551      1542.2225      4.9798313     -2768.7861     -14448.869    
    180000   274.70773      594.95966      307.54138     -13763.666      40.753184      40.753184      35.713917      343680.33      342808.03      381339.81     -13456.125      0.17171105     49.036337      4.9461338     -2803.8325     -14448.871    
    181000   278.64368      591.25615      305.627       -13780.876      40.753184      40.753184      35.762533      338535.26      339219.53      375605.69     -13475.249     -4.9427202     -1995.0566      4.8984161     -2838.8768     -14448.869    
    182000   282.61427      594.78089      307.44898     -13743.81       40.753184      40.753184      35.664068      348178.08      349215.93      385372.14     -13436.361      0.84319394     297.79997      4.9950611     -2873.9127     -14448.869    
    183000   286.57121      586.78095      303.31372     -13773.464      40.753184      40.753184      35.749522      340882.93      340282.41      377510.28     -13470.15      -2.6542044     -1077.9965      4.9111864     -2908.9529     -14448.869    
    184000   290.5267       585.5765       302.69112     -13755.037      40.753184      40.753184      35.704333      345751.11      345253.96      381668.3      -13452.346     -0.82596393    -349.89231      4.9555404     -2943.9833     -14448.869    
    185000   294.48037      590.06907      305.01338     -13740.783      40.753184      40.753184      35.662701      349807.44      349213.82      385874.58     -13435.77       1.8163684      696.50947      4.9964024     -2979.003      -14448.869    
    186000   298.47512      586.38508      303.10909     -13740.733      40.753184      40.753184      35.66735       348562.8       349736.49      385341.03     -13437.624      1.3526513      515.81666      4.9918394     -3014.0313     -14448.869    
    187000   302.42311      588.13788      304.01513     -13737.738      40.753184      40.753184      35.657556      350185.79      350492.21      386080.75     -13433.723      1.3552138      512.11215      5.0014531     -3049.0614     -14448.868    
    188000   306.3803       584.71446      302.24552     -13710.483      40.753184      40.753184      35.594107      357560.66      356439.92      392529.68     -13408.238      5.6274773      2145.1821      5.0637294     -3084.0935     -14448.869    
    189000   310.33116      594.82858      307.47362     -13744.633      40.753184      40.753184      35.666052      349143.66      348749.63      384531.12     -13437.159     -0.9122524     -392.6094       4.9931134     -3119.1323     -14448.871    
    190000   314.30788      595.18665      307.65872     -13731.665      40.753184      40.753184      35.633266      352638.88      352247.13      388084.21     -13424.007      1.7867331      671.93646      5.0252941     -3154.1767     -14448.871    
    191000   318.26547      591.6152       305.8126      -13756.821      40.753184      40.753184      35.700831      345214.42      345228.45      381799.73     -13451.008     -1.1188834     -484.25272      4.9589776     -3189.215      -14448.871    
    192000   322.22374      598.29362      309.26475     -13733.316      40.753184      40.753184      35.633427      352371.9       351405.77      388136.08     -13424.051      1.9312691      736.05766      5.0251356     -3224.2504     -14448.871    
    193000   326.22316      583.37626      301.55379     -13733.059      40.753184      40.753184      35.651929      351066.1       350581.19      387300.17     -13431.505      3.414847       1304.4548      5.0069758     -3259.2861     -14448.87     
    194000   330.21358      581.66743      300.67048     -13763.602      40.753184      40.753184      35.731131      342025.95      342874.87      379718.62     -13462.932     -0.60699435    -265.52782      4.9292372     -3294.3298     -14448.871    
    195000   334.18425      583.00195      301.36031     -13759.13       40.753184      40.753184      35.71806       343400.11      344502.06      380926.25     -13457.77      -0.070644324   -50.044185      4.9420671     -3329.3715     -14448.872    
    196000   338.16555      580.8674       300.25693     -13749.215      40.753184      40.753184      35.695707      346524.52      346799.43      382765.85     -13448.958      0.32557963     92.951074      4.9640067     -3364.4105     -14448.871    
    197000   342.13273      594.43872      307.2721      -13774.981      40.753184      40.753184      35.743063      340965.88      340647.84      377409.83     -13467.709     -4.0493408     -1668.6715      4.9175258     -3399.4562     -14448.872    
    198000   346.07848      585.56141      302.68332     -13742.437      40.753184      40.753184      35.672605      348356.41      348752.21      385457.22     -13439.753      2.6967454      1030.8285      4.986682      -3434.4977     -14448.871    
    199000   350.07826      590.96851      305.47831     -13771.915      40.753184      40.753184      35.740014      340876.34      340962.47      378186.23     -13466.437     -2.7533331     -1123.7269      4.9205188     -3469.5531     -14448.869    
    200000   354.0501       582.18649      300.93879     -13765.518      40.753184      40.753184      35.735376      342861.18      341911.98      379298.58     -13464.58      -0.87504691    -363.41884      4.9250713     -3504.6108     -14448.87     
    201000   357.98486      586.89568      303.37302     -13756.109      40.753184      40.753184      35.705372      344880.89      344454.98      382437.49     -13452.736      1.2996526      498.18176      4.9545203     -3539.6612     -14448.869    
    202000   361.95646      597.24338      308.72186     -13778.129      40.753184      40.753184      35.747642      339749.01      340270.01      377359.17     -13469.407     -3.3974751     -1371.7944      4.9130316     -3574.7183     -14448.87     
    203000   365.93232      602.70584      311.54547     -13758.522      40.753184      40.753184      35.690781      344726.22      345591.37      383151.07     -13446.977      0.32916723     104.25386      4.9688421     -3609.7825     -14448.87     
    204000   369.88485      585.25671      302.52582     -13757.641      40.753184      40.753184      35.711229      343950.12      344733.39      381699.71     -13455.115      0.6170059      204.94084      4.9487718     -3644.8341     -14448.87     
    205000   373.85546      581.30879      300.4851      -13753.578      40.753184      40.753184      35.706181      345106.67      345975.06      381593.47     -13453.093     -0.64538647    -284.43237      4.9537263     -3679.8831     -14448.869    
    206000   377.82741      586.8506       303.34972     -13758.751      40.753184      40.753184      35.712112      343490.43      344563.51      381840.13     -13455.401      1.0799456      412.40032      4.9479048     -3714.9213     -14448.869    
    207000   381.81522      591.22008      305.60835     -13784.288      40.753184      40.753184      35.771337      338041.16      337831.53      374859.44     -13478.68      -5.14034       -2073.0279      4.8897743     -3749.9606     -14448.868    
    208000   385.80604      588.6868       304.29887     -13745.023      40.753184      40.753184      35.674541      347434.93      348492.31      384807.44     -13440.724      1.6082548      527.97353      4.9847821     -3784.9986     -14448.867    
    209000   389.79144      599.87961      310.08456     -13740.58       40.753184      40.753184      35.649483      349295.28      350014.02      387043.15     -13430.496      2.2541058      861.7731       5.0093768     -3820.0415     -14448.867    
    210000   393.77998      586.7293       303.28702     -13774.88       40.753184      40.753184      35.753233      339910.7       340299.27      377103.93     -13471.593     -2.9773252     -1202.7117      4.9075445     -3855.0772     -14448.867    
    211000   397.75365      592.33055      306.18236     -13751.326      40.753184      40.753184      35.686204      346566.15      346112.12      384034.75     -13445.143      1.676645       640.59298      4.9733337     -3890.1308     -14448.866    
    212000   401.75062      585.85725      302.83625     -13759.302      40.753184      40.753184      35.714677      344046.55      344260.77      381151.04     -13456.466     -0.12010764    -82.045902      4.9453878     -3925.1779     -14448.867    
    213000   405.21291      589.02789      304.47518     -13789.614      40.753184      40.753184      35.787902      335348.19      336662.74      374182.41     -13485.138     -3.6813763     -1492.778       4.8735158     -3960.2157     -14448.866    
    214000   408.86368      584.59815      302.1854      -13776.891      40.753184      40.753184      35.761157      338800.53      339788.13      376301.04     -13474.705     -3.4696162     -1404.1422      4.8997666     -3995.256      -14448.865    
    215000   412.45205      588.52021      304.21276     -13756.304      40.753184      40.753184      35.703708      344658.27      345449.66      381992.7      -13452.091     -0.13166256    -72.9188        4.9561537     -4030.2913     -14448.865    
    216000   415.98611      591.59151      305.80035     -13759.833      40.753184      40.753184      35.708654      344294.83      344235.05      381544.2      -13454.033     -0.3319102     -145.97849      4.9512987     -4065.3396     -14448.866    
    217000   419.96202      597.79488      309.00694     -13762.908      40.753184      40.753184      35.708291      344116.08      343803.49      380936.89     -13453.901     -1.9263504     -780.88305      4.9516556     -4100.3969     -14448.866    
    218000   423.93535      594.73663      307.42609     -13762.016      40.753184      40.753184      35.709707      344311.19      343905.14      380746.88     -13454.59      -2.0098282     -863.42215      4.9502658     -4135.4519     -14448.867    
    219000   427.80884      581.87782      300.77923     -13773.854      40.753184      40.753184      35.757022      339929.48      340411.4       376590.11     -13473.075     -3.545099      -1428.9092      4.9038251     -4170.491      -14448.864    
    220000   431.49696      594.78586      307.45154     -13737.797      40.753184      40.753184      35.649074      350112.2       350702.07      386682.05     -13430.345      1.2636605      469.61107      5.0097783     -4205.5355     -14448.866    
    221000   435.12249      584.22772      301.99392     -13766.419      40.753184      40.753184      35.734998      341487.56      341936.38      379341.01     -13464.425     -0.84588397    -349.67661      4.9254422     -4240.5719     -14448.865    
    222000   439.0743       592.76545      306.40717     -13760.677      40.753184      40.753184      35.709258      344104.56      343749.26      381569.35     -13454.27      -0.15390255    -75.03775       4.9507066     -4275.6272     -14448.865    
    223000   443.05784      587.35323      303.60953     -13762.689      40.753184      40.753184      35.721399      343337.42      342866.82      380292.51     -13459.08      -1.0384141     -430.309        4.9387893     -4310.6793     -14448.866    
    224000   447.04049      588.07478      303.98251     -13739.48       40.753184      40.753184      35.662036      349314.61      349510.93      386510.93     -13435.497      3.3055355      1282.351       4.9970556     -4345.7281     -14448.864    
    225000   451.01554      586.71365      303.27893     -13779.773      40.753184      40.753184      35.765748      338260.76      338336.03      376431.39     -13476.494     -2.2774346     -925.29186      4.89526       -4380.7696     -14448.865    
    226000   454.99249      582.87936      301.29694     -13769.446      40.753184      40.753184      35.744041      341192.1       341196.12      378360.92     -13468.149     -1.4192541     -643.40467      4.9165666     -4415.8272     -14448.864    
    227000   458.97148      584.0857       301.92051     -13769.186      40.753184      40.753184      35.74222       341618.07      340307.37      378997.41     -13467.265     -0.33111373    -145.13316      4.918354      -4450.8775     -14448.865    
    228000   462.94077      590.69948      305.33925     -13757.573      40.753184      40.753184      35.704117      344757.24      344731.87      381853.44     -13452.233     -0.42478336    -181.12352      4.9557522     -4485.9429     -14448.865    
    229000   466.89974      583.75672      301.75046     -13780.392      40.753184      40.753184      35.771239      337587.43      338262.48      376594.13     -13478.641     -0.82634805    -345.79616      4.8898707     -4520.9931     -14448.864    
    230000   470.84953      584.30682      302.03481     -13762.725      40.753184      40.753184      35.725514      342515.64      343729.69      380552.34     -13460.69       0.39259579     141.80484      4.934751      -4556.0554     -14448.863    
    231000   474.80051      578.97259      299.27749     -13786.127      40.753184      40.753184      35.792292      336331.34      336423.61      374064.92     -13486.85      -3.1391843     -1277.0437      4.8692067     -4591.113      -14448.863    
    232000   478.72849      587.74572      303.81242     -13787.077      40.753184      40.753184      35.783041      336455.22      337040.45      374443.37     -13483.265     -3.93455       -1600.7667      4.8782869     -4626.1659     -14448.865    
    233000   482.61055      590.93444      305.4607      -13756.625      40.753184      40.753184      35.701263      344953.7       345458.33      382514.65     -13451.164      0.76037567     263.45503      4.9585535     -4661.2216     -14448.865    
    234000   486.45088      581.75183      300.71411     -13754.18       40.753184      40.753184      35.707197      345300.22      345335.85      381736.09     -13453.466     -0.11736434    -64.694115      4.952729      -4696.2703     -14448.864    
    235000   490.419        591.43968      305.72187     -13750.54       40.753184      40.753184      35.685416      346579.02      346527.4       384100.68     -13444.818      1.6809106      646.66097      4.9741079     -4731.3236     -14448.864    
    236000   494.33401      593.81278      306.94855     -13776.947      40.753184      40.753184      35.749177      339343.03      340496.13      377520.58     -13469.999     -2.7099771     -1093.8858      4.911525      -4766.3793     -14448.865    
    237000   498.27123      577.76142      298.65142     -13773.177      40.753184      40.753184      35.760701      340155.76      339951.27      376972.28     -13474.525     -1.8778018     -767.52985      4.9002145     -4801.4267     -14448.864    
    238000   502.2164       578.0379       298.79433     -13777.525      40.753184      40.753184      35.771467      339036.95      338698.22      375717.75     -13478.731     -2.9715548     -1204.8954      4.8896472     -4836.4685     -14448.864    
    239000   506.18532      580.24067      299.93297     -13776.756      40.753184      40.753184      35.766207      339255.54      339319.62      375936.24     -13476.823     -3.2828676     -1385.6228      4.8948098     -4871.5016     -14448.865    
    240000   510.16462      585.20611      302.49967     -13750.651      40.753184      40.753184      35.693821      346373.3       346021.77      382990.03     -13448.151      0.47469261     173.97231      4.965858      -4906.5457     -14448.865    
    241000   514.13213      578.89561      299.23769     -13716.277      40.753184      40.753184      35.61599       354802.96      354836.46      391548.29     -13417.039      7.3199075      2824.7971      5.0422501     -4941.6012     -14448.863    
    242000   518.09895      596.08923      308.12527     -13754.638      40.753184      40.753184      35.689673      346130.78      346035.02      383142.76     -13446.513      0.071135589    11.907392      4.9699289     -4976.6492     -14448.864    
    243000   522.08193      597.00227      308.59723     -13751.75       40.753184      40.753184      35.681234      346934.64      346940.18      383701.8      -13443.153     -0.14098169    -69.590747      4.978212      -5011.699      -14448.865    
    244000   525.98688      586.10448      302.96404     -13758.838      40.753184      40.753184      35.713214      344296.51      344448.3       381004.45     -13455.874     -0.78418402    -339.65582      4.9468234     -5046.7551     -14448.864    
    245000   529.94597      591.58493      305.79695     -13717.236      40.753184      40.753184      35.602094      355341.19      355639.07      391948.15     -13411.439      5.6551107      2169.8775      5.05589       -5081.7983     -14448.863    
    246000   533.9255       584.7824       302.28064     -13715.25       40.753184      40.753184      35.605916      355862.32      355486.63      392068.86     -13412.969      6.6981129      2580.6697      5.0521388     -5116.8306     -14448.863    
    247000   537.91516      585.68988      302.74973     -13762.57       40.753184      40.753184      35.723235      342953.22      343313.05      379951.26     -13459.821     -1.530964      -632.25744      4.9369879     -5151.8729     -14448.862    
    248000   541.87347      585.97515      302.89719     -13757.137      40.753184      40.753184      35.709045      344911.69      343586.9       382138.2      -13454.24       1.2955926      477.68026      4.9509151     -5186.9226     -14448.862    
    249000   545.81237      574.09696      296.75722     -13735.219      40.753184      40.753184      35.669299      349952.86      349578.58      386123.36     -13438.462      3.7822905      1446.0335      4.9899271     -5221.9603     -14448.861    
    250000   549.7951       592.01484      306.01917     -13763.052      40.753184      40.753184      35.716222      343348.86      343397.41      380897.08     -13457.033     -0.50740627    -218.6883       4.9438707     -5257.0014     -14448.861    
    251000   553.77039      597.92758      309.07553     -13783.798      40.753184      40.753184      35.761175      339096.58      339264.76      374711.87     -13474.722     -7.4341591     -2991.9518      4.8997491     -5292.0289     -14448.863    
    252000   557.74429      593.19682      306.63015     -13756.529      40.753184      40.753184      35.69822       345536.44      345340.16      382175.01     -13449.899     -0.74217541    -307.1901       4.9615407     -5327.0564     -14448.863    
    253000   561.70015      587.58148      303.72752     -13767.378      40.753184      40.753184      35.732918      342543.48      342285.33      378541.61     -13463.65      -3.2131034     -1306.9435      4.9274837     -5362.0876     -14448.862    
    254000   565.70109      586.89652      303.37345     -13741.465      40.753184      40.753184      35.668392      348716.87      349130.8       385489.33     -13438.092      1.9825406      743.19868      4.9908168     -5397.1215     -14448.862    
    255000   569.67536      590.93927      305.4632      -13738.979      40.753184      40.753184      35.657077      349717.3       350400.95      386260.8      -13433.516      1.7080108      655.84074      5.0019228     -5432.1601     -14448.863    
    256000   573.64874      589.18927      304.5586      -13765.259      40.753184      40.753184      35.725535      342361.98      343200.29      379428.17     -13460.7       -2.4354784     -980.73839      4.9347299     -5467.1911     -14448.862    
    257000   577.63117      590.2986       305.13203     -13786.755      40.753184      40.753184      35.778847      337900.72      337271.6       373852.2      -13481.623     -6.2123649     -2510.3044      4.8824038     -5502.2217     -14448.863    
    258000   581.60603      587.24059      303.55131     -13751.545      40.753184      40.753184      35.693254      346620.56      345655.94      383386.41     -13447.994      1.4363785      527.28971      4.9664149     -5537.2596     -14448.863    
    259000   585.55126      588.02141      303.95492     -13743.558      40.753184      40.753184      35.672324      348486.52      348220.23      385769.54     -13439.603      3.4011746      1321.822       4.9869579     -5572.3064     -14448.862    
    260000   589.54024      581.85834      300.76916     -13743.138      40.753184      40.753184      35.679096      347561.34      348079.99      385316.44     -13442.369      3.6182001      1382.7265      4.9803111     -5607.3605     -14448.861    
    261000   593.51569      583.85304      301.80025     -13740.661      40.753184      40.753184      35.670444      348990.16      349119.18      385172.43     -13438.861      1.5240118      582.00226      4.9888034     -5642.4091     -14448.863    
    262000   597.5296       593.50096      306.78736     -13715.877      40.753184      40.753184      35.596323      356045.94      355719.86      392690.89     -13409.09       6.433545       2474.6228      5.061554      -5677.4466     -14448.862    
    263000   601.51177      588.53371      304.21974     -13743.043      40.753184      40.753184      35.670315      348671.45      348795.48      385120.16     -13438.823      1.379122       519.97723      4.9889295     -5712.4808     -14448.862    
    264000   605.48705      585.2499       302.5223      -13739.216      40.753184      40.753184      35.664967      349427.9       349446.5       385946.12     -13436.694      2.455459       940.01695      4.9941786     -5747.5123     -14448.862    
    265000   609.46397      583.67787      301.7097      -13733.394      40.753184      40.753184      35.652452      350052.64      351177.51      387582.79     -13431.684      4.20961        1626.7842      5.0064624     -5782.5555     -14448.861    
    266000   613.42406      589.02122      304.47174     -13770.252      40.753184      40.753184      35.738369      341016.68      342189.31      378500.16     -13465.78      -2.2885759     -934.61486      4.9221329     -5817.6009     -14448.863    
    267000   617.40783      586.49532      303.16607     -13760.83       40.753184      40.753184      35.717849      343278.79      343227.83      381448.77     -13457.664      1.1858203      456.50446      4.9422737     -5852.657      -14448.863    
    268000   621.38949      587.41645      303.64221     -13765.806      40.753184      40.753184      35.729254      341612.47      342577.13      380193.46     -13462.164      0.20278662     66.827675      4.9310797     -5887.7141     -14448.863    
    269000   625.33581      578.56453      299.06656     -13757.296      40.753184      40.753184      35.719288      343840.38      344396         380747.1      -13458.23      -0.31173322    -135.97813      4.9408616     -5922.7599     -14448.862    
    270000   629.31425      590.40615      305.18762     -13735.77       40.753184      40.753184      35.649673      350376.2       350510.51      387823.24     -13430.582      4.2970007      1656.3072      5.0091899     -5957.8048     -14448.863    
    271000   633.29399      586.6212       303.23114     -13776.493      40.753184      40.753184      35.757268      339451.05      340215.3       376723.56     -13473.262     -3.0759455     -1276.8179      4.9035839     -5992.8499     -14448.863    
    272000   637.29975      590.76576      305.37351     -13760.994      40.753184      40.753184      35.712553      343644.9       343469.41      381591.98     -13455.621      0.58124482     197.74064      4.9474718     -6027.8983     -14448.863    
    273000   641.26601      582.51196      301.10703     -13740.949      40.753184      40.753184      35.672923      348892.4       348427.51      385598.8      -13439.842      3.0812765      1196.5264      4.9863702     -6062.9496     -14448.863    
    274000   645.26387      581.64736      300.66011     -13802.53       40.753184      40.753184      35.830986      332774.46      332191.94      369623.67     -13501.87      -6.8037184     -2781.3705      4.8312278     -6097.997      -14448.864    
    275000   649.25701      586.86235      303.35579     -13749.049      40.753184      40.753184      35.687628      347073.84      346803.33      383703.33     -13445.693      1.0938781      417.23672      4.9719363     -6133.0395     -14448.865    
    276000   653.25135      581.33843      300.50042     -13779.953      40.753184      40.753184      35.77328       338273.04      338097.93      376114.17     -13479.453     -1.6240138     -670.86242      4.8878677     -6168.1012     -14448.865    
    277000   657.23084      581.0575       300.3552      -13744.098      40.753184      40.753184      35.68267       348273.45      347315.27      384737.77     -13443.743      2.7878407      1075.3667      4.9768026     -6203.1519     -14448.865    
    278000   661.25308      589.8377       304.89378     -13740.286      40.753184      40.753184      35.66175       349274.1       348880.43      386645.41     -13435.392      3.6019499      1395.0946      4.9973366     -6238.2012     -14448.866    
    279000   665.26788      586.85867      303.35389     -13718.628      40.753184      40.753184      35.611494      354494.1       355125.67      391014.06     -13415.274      5.1153894      1949.252       5.0466638     -6273.2473     -14448.866    
    280000   669.25737      589.25694      304.59358     -13703.669      40.753184      40.753184      35.571579      358682.34      358686.78      395429.77     -13399.076      8.7185058      3335.3758      5.085841      -6308.2854     -14448.866    
    281000   673.23797      583.73827      301.74092     -13716.407      40.753184      40.753184      35.610109      355021.8       356333.71      390945.39     -13414.666      4.6209692      1775.4652      5.0480232     -6343.3236     -14448.866    
    282000   677.2258       586.18322      303.00474     -13758.106      40.753184      40.753184      35.711355      344714.59      344352.98      381882.27     -13455.101      1.0410237      397.0498       4.9486483     -6378.3621     -14448.866    
    283000   681.2033       591.81911      305.918       -13756.717      40.753184      40.753184      35.700391      344659.93      345639.23      382369.71     -13450.799      0.2068543      52.351667      4.9594091     -6413.415      -14448.867    
    284000   685.19417      590.34474      305.15588     -13756.307      40.753184      40.753184      35.701358      345039.49      345642.13      381800        -13451.151     -1.0803735     -443.96224      4.9584599     -6448.4554     -14448.866    
    285000   689.16782      590.81127      305.39703     -13714.662      40.753184      40.753184      35.596751      356098.22      356305.86      392701.09     -13409.265      6.5456715      2517.2984      5.061134      -6483.4954     -14448.866    
    286000   693.12838      577.84126      298.69269     -13781.415      40.753184      40.753184      35.781672      338165.16      337961.07      374230.86     -13482.723     -4.7324695     -1917.226       4.879631      -6518.5289     -14448.865    
    287000   697.11141      593.45796      306.76514     -13721.014      40.753184      40.753184      35.609043      354695.54      354404.54      391213.4      -13414.249      5.116859       1962.5693      5.0490695     -6553.5646     -14448.865    
    288000   701.11552      581.85403      300.76694     -13753.499      40.753184      40.753184      35.705338      345315.3       344819.65      381962.01     -13452.732      0.099147883    20.133312      4.9545536     -6588.5938     -14448.865    
    289000   705.07019      591.19056      305.59309     -13751.778      40.753184      40.753184      35.688817      346799.84      346368.48      382792.23     -13446.185     -0.97197051    -403.64582      4.9707697     -6623.624      -14448.867    
    290000   709.07279      574.80943      297.1255      -13738.245      40.753184      40.753184      35.676124      348703.7       349349.96      385474.17     -13441.119      3.3830856      1314.8867      4.983228      -6658.6671     -14448.866    
    291000   713.03109      583.91593      301.83275     -13779.553      40.753184      40.753184      35.768726      338257.1       339229.14      375432.16     -13477.72      -4.1482755     -1698.4759      4.892337      -6693.7087     -14448.865    
    292000   717.00235      575.97138      297.72613     -13759.104      40.753184      40.753184      35.72718       343341.37      344213.07      380016.07     -13461.377     -0.61087042    -268.02274      4.9331159     -6728.7522     -14448.864    
    293000   720.9763       593.15529      306.60868     -13751.584      40.753184      40.753184      35.68577       346701.62      346965.55      382576.3      -13444.975     -2.1076943     -850.8147       4.9737599     -6763.7893     -14448.865    
    294000   724.96289      590.44491      305.20766     -13740          40.753184      40.753184      35.660247      349014.4       350243.82      386125.07     -13434.792      1.9837896      760.69637      4.9988116     -6798.8216     -14448.864    
    295000   728.96092      586.42496      303.1297      -13719.39       40.753184      40.753184      35.613948      354741.2       354735.54      390849.83     -13416.26       5.1665251      1971.328       5.0442547     -6833.8539     -14448.864    
    296000   732.94011      580.27301      299.94969     -13766.192      40.753184      40.753184      35.73948       342287.76      342250.64      378565.51     -13466.242     -1.8874208     -784.96274      4.9210428     -6868.8855     -14448.864    
    297000   736.93647      583.2254       301.47581     -13762.397      40.753184      40.753184      35.726065      343583.18      343044.74      379725.94     -13460.921     -1.5717313     -642.77408      4.9342102     -6903.9263     -14448.865    
    298000   740.92391      588.72006      304.31606     -13738.421      40.753184      40.753184      35.658396      349825.7       350344.92      386236.99     -13434.105      1.9616997      732.1507       5.000628      -6938.9669     -14448.865    
    299000   744.88999      588.43941      304.17099     -13747.552      40.753184      40.753184      35.681797      347226.35      347962.06      384231.25     -13443.381      1.3175367      502.54923      4.9776599     -6974.0112     -14448.865    
    300000   748.88606      595.2264       307.67926     -13760.053      40.753184      40.753184      35.704459      344437.46      344444.04      381700.45     -13452.374     -0.74133248    -308.13352      4.9554161     -7009.0547     -14448.867    
Loop time of 748.886 on 4 procs for 200000 steps with 4000 atoms

Performance: 23.074 ns/day, 1.040 hours/ns, 267.063 timesteps/s
92.6% CPU use with 4 MPI tasks x no OpenMP threads

MPI task timing breakdown:
Section |  min time  |  avg time  |  max time  |%varavg| %total
---------------------------------------------------------------
Pair    | 98.778     | 184.37     | 269.88     | 470.2 | 24.62
Neigh   | 431.75     | 432.92     | 434.01     |   4.4 | 57.81
Comm    | 15.841     | 100.23     | 184.78     | 629.0 | 13.38
Output  | 0.050439   | 0.050791   | 0.051808   |   0.3 |  0.01
Modify  | 29.602     | 29.638     | 29.689     |   0.7 |  3.96
Other   |            | 1.673      |            |       |  0.22

Nlocal:           1000 ave        1013 max         992 min
Histogram: 1 1 0 1 0 0 0 0 0 1
Nghost:        2274.75 ave        2291 max        2257 min
Histogram: 1 0 0 0 0 2 0 0 0 1
Neighs:              0 ave           0 max           0 min
Histogram: 4 0 0 0 0 0 0 0 0 0
FullNghs:        61559 ave       62352 max       61046 min
Histogram: 1 0 1 1 0 0 0 0 0 1

Total # of neighbors = 246236
Ave neighs/atom = 61.559
Neighbor list builds = 200000
Dangerous builds not checked

write_restart	restart_shock.${up}
write_restart	restart_shock.40
System init for write_restart ...
Generated 0 of 0 mixed pair_coeff terms from geometric mixing rule

clear
next		up
jump		in.msst
# Au Equilibrium of msst shock dynamics

# Energy in eV, time in ps, distance in angstroms.

variable	temp equal 300		# equlibrium temperature
variable	press equal 1		# equlibrium pressure
variable	up index 40 45 50 55 60 65 70 75 # shock velocity  km/s


units		metal
boundary        p p p

#plugin		clear
#plugin		load libdeepmd_lmp.so
read_restart	restart.equil_Au
Reading restart file ...
  restart file = 4 May 2022, LAMMPS = 4 May 2022
  restoring atom style atomic from restart
  orthogonal box = (0.023407936 0.023407936 0.023407936) to (40.776592 40.776592 40.776592)
  1 by 2 by 2 MPI processor grid
  restoring pair style nvnmd from restart
  4000 atoms
  read_restart CPU = 0.000 seconds

# DEBUG2, add new rcut
pair_style	nvnmd model.pb
pair_coeff	* *

## DEBUG1, add neighbor
neighbor        0.0 bin
neigh_modify    every 1 delay 0 check no

thermo		1000
atom_modify	sort 10000 0.0
mass		1 197

#Settings

timestep	1e-3

# MSST fix

fix             msst all msst z ${up} q 36 mu 0.903 tscale 0.02
fix             msst all msst z 45 q 36 mu 0.903 tscale 0.02
MSST parameters:
  Shock in z direction
  Cell mass-like parameter qmass (units of mass^2/length^4) = 36
  Shock velocity = 45
  Artificial viscosity (units of mass/length/time) = 0.903
  Initial pressure calculated on first step
  Initial volume calculated on first step
  Initial energy calculated on first step

variable	time equal dt*step
variable	temp equal temp
variable	rho equal density

variable	volume equal vol			# volume
variable	pzz equal pzz				# axial stress
variable	tau equal 0.5*(pzz-0.5*(pxx+pyy))	# shear stress
variable	tauvm equal sqrt(0.5*(pzz-pyy)^2+(pzz-pxx)^2+(pxx-pyy)^2)	# Von Mises Stress
variable	dhug equal f_msst[1]
variable	dray equal f_msst[2]
variable	lgr_vel equal f_msst[3]
variable	lgr_pos equal f_msst[4]
variable	msst equal econserve

thermo_style 	custom step cpu temp ke pe lx ly lz pxx pyy pzz etotal v_dhug v_dray v_lgr_vel v_lgr_pos v_msst
thermo		1000

fix 		stress2 all print 1000 "${time} ${temp} ${rho} ${volume} ${pzz} ${tau} ${tauvm} ${dhug} ${dray} ${lgr_vel} ${lgr_pos} ${msst}" screen no file output_${up}.txt title 'time temp rho vol pzz tau tauvm dhug dray lgr_vel lgr_pos msst'
fix 		stress2 all print 1000 "${time} ${temp} ${rho} ${volume} ${pzz} ${tau} ${tauvm} ${dhug} ${dray} ${lgr_vel} ${lgr_pos} ${msst}" screen no file output_45.txt title 'time temp rho vol pzz tau tauvm dhug dray lgr_vel lgr_pos msst'

# pair correlation

compute		rdf all rdf 100 1 1
fix		rdf all ave/time 100 1000 100000 c_rdf[*] file RDF_${up}.txt mode vector
fix		rdf all ave/time 100 1000 100000 c_rdf[*] file RDF_45.txt mode vector

# Coordinate

compute		keatom all ke/atom
compute		peatom all pe/atom
variable	keatom atom c_keatom
variable	peatom atom c_peatom

dump		imf all custom 10000 Coords_ShockCompression_${up}.txt id type x y z vx vy vz
dump		imf all custom 10000 Coords_ShockCompression_45.txt id type x y z vx vy vz

run	        200000
Generated 0 of 0 mixed pair_coeff terms from geometric mixing rule
Unused restart file global fix info:
  fix style: npt, fix ID: NPT
Neighbor list info ...
  update every 1 steps, delay 0 steps, check no
  max neighbors/atom: 2000, page size: 100000
  master list distance cutoff = 6
  ghost atom cutoff = 6
  binsize = 3, bins = 14 14 14
  2 neighbor lists, perpetual/occasional/extra = 1 1 0
  (1) pair nvnmd, perpetual
      attributes: full, newton on
      pair build: full/bin/atomonly
      stencil: full/bin/3d
      bin: standard
  (2) compute rdf, occasional, copy from (1)
      attributes: full, newton on
      pair build: copy
      stencil: none
      bin: none
Fix MSST v0 = 67683.786
Fix MSST p0 = -1196.0362
Fix MSST e0 = -14448.83
Fix MSST initial strain rate of -0.53533268 established by reducing temperature by factor of 0.02
Per MPI rank memory allocation (min/avg/max) = 4.445 | 4.455 | 4.459 Mbytes
   Step          CPU            Temp          KinEng         PotEng           Lx             Ly             Lz            Pxx            Pyy            Pzz           TotEng         v_dhug         v_dray       v_lgr_vel      v_lgr_pos        v_msst    
    100000   0              294.63327      152.29927     -14604.238      40.753184      40.753184      40.753184     -805.32133     -789.60575     -1244.5564     -14451.938      3.006462      -48.520252      0              0             -14448.83     
    101000   4.1811192      1190.923       615.60156     -12095.056      40.753184      40.753184      33.017634      727103.25      729376.83      740402.87     -11479.454     -5.4529033     -1497.7005      8.5416575     -37.051529     -14448.927    
    102000   8.3843248      1205.5069      623.14014     -12235.716      40.753184      40.753184      33.192981      701222.87      703351.33      723302.49     -11612.576     -6.4850134     -1753.7968      8.3480378     -73.563054     -14448.926    
    103000   12.622389      1215.8661      628.49497     -12323.604      40.753184      40.753184      33.303536      681588.23      682379.98      712758.15     -11695.109     -6.0566776     -1677.9641      8.2259624     -110.27735     -14448.928    
    104000   16.833052      1208.3756      624.62303     -12232.34       40.753184      40.753184      33.186586      700570.03      703770.93      724969.31     -11607.717     -2.5468449     -701.35111      8.3550999     -146.96468     -14448.93     
    105000   21.08273       1188.7441      614.4753      -12274.035      40.753184      40.753184      33.25566       689980.89      692499.68      719848.19     -11659.56       3.2864652      812.92362      8.2788281     -183.65421     -14448.927    
    106000   25.240363      1205.6734      623.22622     -12244.036      40.753184      40.753184      33.204035      697968.44      698402.23      727850.63     -11620.81       14.691442      3856.2264      8.3358319     -220.39157     -14448.929    
    107000   29.456765      1199.5771      620.07497     -12244.41       40.753184      40.753184      33.208711      696425.75      699011.45      725468.77     -11624.335      7.3888278      1923.5176      8.330669      -257.0793      -14448.928    
    108000   33.662718      1199.1539      619.85622     -12294.746      40.753184      40.753184      33.27642       685697.59      689681.89      716112.9      -11674.89      -3.3661695     -928.03632      8.2559039     -293.8208      -14448.931    
    109000   37.880705      1211.0146      625.98713     -12235.124      40.753184      40.753184      33.18822       698918.26      701086.49      728157.72     -11609.137      10.326573      2644.0611      8.3532952     -330.55822     -14448.93     
    110000   42.125402      1210.1952      625.56361     -12341.057      40.753184      40.753184      33.331245      676860.55      678658.43      708375.22     -11715.493     -12.532779     -3399.1187      8.1953662     -367.2566      -14448.93     
    111000   45.89743       1189.8358      615.03961     -12307.972      40.753184      40.753184      33.300754      681499.97      684477.81      715274.48     -11692.933      2.2318174      571.15552      8.2290339     -404.0183      -14448.93     
    112000   50.056431      1199.7223      620.15004     -12341.392      40.753184      40.753184      33.338882      676166.08      675759.13      709760.11     -11721.242     -4.5319268     -1280.5771      8.186933      -440.72929     -14448.933    
    113000   54.234982      1224.2682      632.83808     -12275.833      40.753184      40.753184      33.233558      691372.97      694160.96      721685.67     -11642.995      2.153859       527.26106      8.303233      -477.47904     -14448.933    
    114000   58.43073       1183.2848      611.65331     -12253.908      40.753184      40.753184      33.232595      695062.3       696379.24      722397.47     -11642.255      4.4698998      1146.5567      8.3042963     -514.20381     -14448.931    
    115000   62.645024      1208.2966      624.58218     -12295.05       40.753184      40.753184      33.270213      687298.91      688358.35      716878.77     -11670.468     -2.545129      -758.44592      8.262758      -550.91551     -14448.934    
    116000   66.551433      1204.4022      622.56914     -12293.411      40.753184      40.753184      33.270978      686709.95      688824.43      716630.66     -11670.842     -3.3890902     -933.05948      8.2619132     -587.64199     -14448.931    
    117000   70.698144      1206.7426      623.77892     -12257.695      40.753184      40.753184      33.221268      693732.07      696292.6       724610.15     -11633.916      8.8544759      2271.1376      8.3168037     -624.35705     -14448.934    
    118000   74.85268       1205.0999      622.92978     -12305.424      40.753184      40.753184      33.286563      682787.46      686718.98      714908.99     -11682.495     -4.1525075     -1157.5651      8.2447038     -661.12151     -14448.933    
    119000   78.931766      1192.8645      616.60514     -12262.433      40.753184      40.753184      33.237327      691549.14      695640.43      721925.92     -11645.828      4.43817        1129.5781      8.2990712     -697.84696     -14448.931    
    120000   83.149156      1206.7575      623.78662     -12264.479      40.753184      40.753184      33.2305        692665.94      694500.61      724355.53     -11640.692      11.10027       2903.4038      8.3066092     -734.57248     -14448.932    
    121000   87.216373      1196.5586      618.51466     -12274.413      40.753184      40.753184      33.25093       690070.26      691745.29      721502.86     -11655.898      7.6721688      2013.2766      8.2840504     -771.31398     -14448.933    
    122000   91.352562      1222.2229      631.78086     -12291.143      40.753184      40.753184      33.255568      688411.79      688283.94      719150.8      -11659.362      0.50710695     106.77769      8.2789288     -808.04358     -14448.936    
    123000   95.501665      1197.7684      619.14004     -12313.899      40.753184      40.753184      33.303163      681269.87      684293.83      713094.28     -11694.759     -5.0074672     -1377.6434      8.226374      -844.78556     -14448.932    
    124000   99.640727      1207.2314      624.0316      -12232.944      40.753184      40.753184      33.188164      698905.27      701147.2       730223.65     -11608.912      17.965336      4704.5732      8.3533575     -881.5125      -14448.93     
    125000   103.77646      1233.4334      637.57566     -12298.169      40.753184      40.753184      33.257169      685202         689535.18      720132.08     -11660.593      4.8094498      1241.8453      8.277161      -918.24008     -14448.934    
    126000   107.91246      1192.0651      616.19197     -12282.632      40.753184      40.753184      33.265083      690553.21      689642.81      716245.35     -11666.44      -6.9786937     -1884.6849      8.2684228     -954.97805     -14448.93     
    127000   112.07491      1191.9612      616.13824     -12318          40.753184      40.753184      33.312812      681861.06      681759.49      711455.33     -11701.862     -7.6936644     -2089.7588      8.2157203     -991.70386     -14448.93     
    128000   116.19821      1204.8961      622.82443     -12300.014      40.753184      40.753184      33.279521      685885.27      686305.31      715134.77     -11677.19      -5.9177732     -1608.2913      8.2524801     -1028.4231     -14448.931    
    129000   120.37613      1215.7053      628.41183     -12298.967      40.753184      40.753184      33.270539      686371.73      687338.33      716911.54     -11670.555     -2.4551607     -694.35856      8.262398      -1065.1357     -14448.934    
    130000   124.5459       1209.7237      625.31985     -12272.54       40.753184      40.753184      33.239216      692021.67      692604.44      723054.94     -11647.22       9.3556499      2440.0852      8.2969851     -1101.8704     -14448.931    
    131000   128.59909      1201.0524      620.83757     -12318.337      40.753184      40.753184      33.306919      679941.89      683080.2       713650.04     -11697.499     -1.6219544     -461.12068      8.2222271     -1138.6219     -14448.932    
    132000   132.73281      1207.1522      623.99065     -12292.145      40.753184      40.753184      33.267367      685996.91      688433.77      719853.86     -11668.154      7.4029785      1943.2378      8.2659007     -1175.3545     -14448.931    
    133000   136.856        1209.1037      624.99939     -12342.404      40.753184      40.753184      33.333805      675732.83      677139.64      709125.86     -11717.405     -8.7995182     -2402.5813      8.1925396     -1212.0936     -14448.935    
    134000   141.01238      1197.7332      619.12185     -12304.855      40.753184      40.753184      33.290998      685842.52      685075.16      714100.93     -11685.733     -5.6293399     -1539.6722      8.2398076     -1248.8384     -14448.934    
    135000   145.00397      1217.5902      629.38618     -12301.846      40.753184      40.753184      33.273162      685810.82      687092.63      716579.83     -11672.46      -2.7983453     -774.06434      8.2595013     -1285.5709     -14448.936    
    136000   148.96992      1209.2513      625.07568     -12332.695      40.753184      40.753184      33.320515      679413.95      680887.71      707060.74     -11707.62      -21.24281      -5744.3906      8.2072147     -1322.2845     -14448.935    
    137000   152.99236      1223.6317      632.50908     -12301.397      40.753184      40.753184      33.268359      685630.37      687189.37      719033.25     -11668.887      4.6754711      1217.9793      8.2648047     -1359.0259     -14448.936    
    138000   156.93115      1198.74        619.64228     -12281.231      40.753184      40.753184      33.258558      689082.75      690667.43      718081.53     -11661.589     -2.4331397     -675.29535      8.2756275     -1395.766      -14448.933    
    139000   160.90382      1206.2758      623.53759     -12267.154      40.753184      40.753184      33.23447       693266.11      693396.66      722614.11     -11643.617      5.9258097      1543.3161      8.3022258     -1432.4839     -14448.935    
    140000   165.08607      1198.9238      619.73728     -12344.716      40.753184      40.753184      33.344104      674715.11      677069.67      707984.95     -11724.978     -9.366921      -2554.1472      8.1811674     -1469.2314     -14448.935    
    141000   169.26224      1203.4628      622.08356     -12328.482      40.753184      40.753184      33.318944      680986.83      680115.64      708499.01     -11706.399     -16.507516     -4456.9652      8.2089486     -1505.9669     -14448.936    
    142000   173.40174      1213.4499      627.24599     -12322.756      40.753184      40.753184      33.304219      680439.95      683323.02      713481.28     -11695.51      -3.2124001     -889.23085      8.2252083     -1542.6974     -14448.938    
    143000   177.57557      1222.7612      632.05912     -12261.298      40.753184      40.753184      33.215242      696019.35      695947.66      725396.1      -11629.239      9.4865381      2478.1941      8.3234578     -1579.4422     -14448.938    
    144000   181.75427      1194.6716      617.53927     -12283.532      40.753184      40.753184      33.26435       688585.89      688770.55      719665.63     -11665.992      5.692413       1465.1709      8.2692323     -1616.1837     -14448.934    
    145000   185.89817      1226.2747      633.8753      -12277.709      40.753184      40.753184      33.234679      691309.68      693630.34      720115.13     -11643.833     -3.3599984     -935.57607      8.301995      -1652.9136     -14448.936    
    146000   190.08995      1189.7051      614.97202     -12342.853      40.753184      40.753184      33.348054      675674.75      677605.91      704027.61     -11727.881     -22.650881     -6132.055       8.1768059     -1689.6112     -14448.932    
    147000   194.24713      1192.6861      616.51295     -12278.324      40.753184      40.753184      33.25886       688384.62      692237.55      717437.74     -11661.811     -4.7459042     -1290.0587      8.275294      -1726.3264     -14448.934    
    148000   198.44823      1197.8531      619.18384     -12314.4        40.753184      40.753184      33.302882      681371.84      683126.06      713490.2      -11695.216     -2.9853594     -1008.7768      8.2266849     -1763.0565     -14448.937    
    149000   202.61832      1213.5706      627.30839     -12250.588      40.753184      40.753184      33.207301      696713.78      696910.55      727056.81     -11623.28       12.887964      3376.1235      8.3322258     -1799.7899     -14448.936    
    150000   206.63993      1216.6055      628.87717     -12305.784      40.753184      40.753184      33.279133      686304.45      684085.05      717397.22     -11676.907      2.4252265      616.86479      8.2529086     -1836.539      -14448.936    
    151000   210.4953       1195.6334      618.03645     -12257.875      40.753184      40.753184      33.229396      693948.91      693148.56      725004.01     -11639.838      13.120943      3445.7928      8.3078286     -1873.2785     -14448.934    
    152000   214.60774      1209.1528      625.02477     -12285.084      40.753184      40.753184      33.256355      688695.53      689451.75      720543.36     -11660.06       6.1325515      1574.8691      8.2780606     -1910.02       -14448.938    
    153000   218.77828      1224.815       633.12076     -12322.544      40.753184      40.753184      33.295986      681856.86      682827.14      715214.55     -11689.423      0.31995806     53.197189      8.2342988     -1946.7602     -14448.939    
    154000   222.95973      1211.5265      626.25178     -12286.22       40.753184      40.753184      33.256327      688871.02      689349.86      720960.01     -11659.968      7.6195083      1988.9066      8.2780906     -1983.5093     -14448.936    
    155000   227.10123      1205.6791      623.22917     -12323.065      40.753184      40.753184      33.309846      683464.16      679198.05      713539.11     -11699.836     -0.82132925    -290.91541      8.2189955     -2020.2556     -14448.934    
    156000   231.28595      1226.4151      633.94783     -12321.708      40.753184      40.753184      33.29375       686936.6       680300.9       713631.44     -11687.76      -6.4085887     -1744.7506      8.2367682     -2057.0247     -14448.935    
    157000   235.44914      1201.8714      621.26094     -12353.53       40.753184      40.753184      33.353987      676513.05      671220.66      707949.58     -11732.269     -5.9476232     -1640.0671      8.1702538     -2093.7821     -14448.933    
    158000   239.61794      1189.4589      614.84475     -12327.077      40.753184      40.753184      33.326833      683971.54      675949.45      712330.46     -11712.232      0.60292146     132.28779      8.200238      -2130.5608     -14448.933    
    159000   243.79922      1207.116       623.9719      -12325.072      40.753184      40.753184      33.311693      685438.99      676353.65      714059.32     -11701.1        1.6826139      406.72573      8.216956      -2167.3492     -14448.933    
    160000   247.98155      1197.0178      618.75206     -12342.249      40.753184      40.753184      33.342116      681470.72      673108.63      708695.04     -11723.497     -7.4568913     -2034.9585      8.1833617     -2204.1298     -14448.933    
    161000   252.10862      1206.8484      623.83362     -12295.596      40.753184      40.753184      33.272022      690181.87      683887.91      719943.29     -11671.763      9.5518512      2479.8291      8.2607607     -2240.8956     -14448.935    
    162000   256.28262      1228.5317      635.04194     -12263.867      40.753184      40.753184      33.214696      698079.82      691488.95      728996.64     -11628.825      22.892415      6026.266       8.3240609     -2277.6831     -14448.936    
    163000   260.44973      1197.6399      619.0736      -12335.631      40.753184      40.753184      33.332553      682024.42      675636.1       709664.02     -11716.557     -7.173066      -1984.6154      8.1939212     -2314.4726     -14448.937    
    164000   264.51024      1235.704       638.74938     -12305.011      40.753184      40.753184      33.264804      688957.09      683695.06      720800.77     -11666.261      10.050458      2643.9608      8.2687305     -2351.2673     -14448.936    
    165000   268.39265      1213.788       627.42075     -12311.261      40.753184      40.753184      33.288244      686790.81      680289.45      719043.53     -11683.84       12.020895      3138.4446      8.2428478     -2388.0571     -14448.935    
    166000   272.58066      1220.8995      631.09676     -12322.634      40.753184      40.753184      33.298865      687587.61      678861.84      712325.1      -11691.537     -9.4638642     -2559.7513      8.2311204     -2424.8276     -14448.934    
    167000   276.76042      1231.3266      636.48663     -12310.588      40.753184      40.753184      33.275372      687128.03      682945         718207.71     -11674.101      4.1003073      1066.0342      8.2570619     -2461.5951     -14448.937    
    168000   280.93289      1216.6372      628.89356     -12329.944      40.753184      40.753184      33.311216      683647.3       674751.16      715855.43     -11701.051      8.5064913      2157.1041      8.2174818     -2498.3969     -14448.935    
    169000   285.1141       1179.3659      609.62759     -12311.632      40.753184      40.753184      33.312999      685896.23      679268.5       714866.06     -11702.005      5.1001768      1338.9359      8.2155139     -2535.1739     -14448.932    
    170000   289.26115      1233.9598      637.84777     -12310.199      40.753184      40.753184      33.272835      688574.85      681559.52      720213.44     -11672.352      10.841797      2828.0578      8.2598633     -2571.9771     -14448.937    
    171000   293.38465      1190.667       615.46925     -12358.001      40.753184      40.753184      33.367856      677033.12      670280.42      705384.59     -11742.531     -10.432714     -2872.7655      8.1549395     -2608.7318     -14448.935    
    172000   297.52486      1207.4923      624.16644     -12332.191      40.753184      40.753184      33.32114       681844.79      677817.78      711404.7      -11708.025     -4.8865489     -1340.3374      8.2065239     -2645.5159     -14448.935    
    173000   301.70451      1202.0559      621.35631     -12288.151      40.753184      40.753184      33.265542      692012.26      685454.11      720846.94     -11666.795      10.473899      2760.9742      8.2679163     -2682.3113     -14448.932    
    174000   305.86702      1216.1702      628.65215     -12314.559      40.753184      40.753184      33.291252      687096.76      679269.28      718080.23     -11685.906      9.3335555      2464.1057      8.2395262     -2719.0921     -14448.935    
    175000   310.04711      1193.0435      616.6977      -12334.476      40.753184      40.753184      33.334322      681950.92      675044.66      712559.05     -11717.778      4.147666       1080.2639      8.1919689     -2755.8958     -14448.931    
    176000   314.24809      1208.0372      624.44808     -12334.563      40.753184      40.753184      33.323946      685044.57      674515.94      712057.24     -11710.115     -1.4330834     -418.29469      8.2034261     -2792.7206     -14448.931    
    177000   318.45617      1214.5484      627.81383     -12341.426      40.753184      40.753184      33.32865       685533.93      671060.44      713251.73     -11713.612      4.7191406      1228.1394      8.1982311     -2829.5416     -14448.931    
[...]
    228000   634.04905      14129.228      7303.5577      7830.9255      40.753184      40.753184      26.114326      3933239.9      3896375.2      3915250.7      15134.483      110.24921      10207.818      26.940579     -6158.4973     -14483.486    
    229000   639.04642      14073.451      7274.7263      7567.615       40.753184      40.753184      26.178876      3866235.4      3901151.4      3868582.4      14842.341     -74.828395     -19235.721      26.821783     -6206.6018     -14515.556    
    230000   644.06874      14230.772      7356.0473      7808.62        40.753184      40.753184      26.074966      3923695.2      3917116.6      3949004.2      15164.667      406.6746       33458.464      27.013015     -6254.7446     -14611.507    
    231000   648.87565      14293.517      7388.4809      7611.5697      40.753184      40.753184      26.108315      3925251.5      3895371.6      3917114.3      15000.051      265.76042      10467.627      26.95164      -6302.8264     -14643.654    
    232000   653.75903      14323.616      7404.0391      7757.8977      40.753184      40.753184      26.092134      3916361.7      3930463.8      3923966.7      15161.937      191.30531      13002.044      26.98142      -6350.8893     -14547.758    
    233000   658.69738      14296.123      7389.8279      7395.4894      40.753184      40.753184      26.177415      3867854.9      3874856.6      3865642.7      14785.317     -38.317868     -22565.394      26.824473     -6398.9663     -14579.616    
    234000   663.65151      14293.489      7388.466       7753.3815      40.753184      40.753184      26.105048      3916724.6      3906006        3925286.8      15141.848      195.03465      17768.124      26.957654     -6447.0879     -14515.563    
    235000   668.61995      14209.92       7345.2686      7817.8848      40.753184      40.753184      26.091481      3941327.3      3950990.4      3881341.1      15163.153     -121.91065     -29797.684      26.982621     -6495.2044     -14547.635    
    236000   673.60223      14182.61       7331.1515      8000.4404      40.753184      40.753184      26.030721      3950069.9      3984474.2      3954137.5      15331.592      370.6703       26785.514      27.094441     -6543.2729     -14627.517    
    237000   678.61122      14341.049      7413.0505      7444.498       40.753184      40.753184      26.143542      3885485.6      3894813.2      3886993.1      14857.549      113.8201      -10253.666      26.886811     -6591.3861     -14643.737    
    238000   683.5919       14227.027      7354.1112      7833.2801      40.753184      40.753184      26.07799       3961783.7      3916624.6      3922565.2      15187.391      184.18787      7826.5061      27.007449     -6639.4854     -14579.539    
    239000   688.5959       14378.033      7432.168       7827.4998      40.753184      40.753184      26.064143      3924444.6      3913329.1      3968754.2      15259.668      481.64728      50320.526      27.032933     -6687.623      -14563.629    
    240000   693.6456       14170.551      7324.9183      7777.7002      40.753184      40.753184      26.10283       3922211        3918123.4      3925547.9      15102.619      239.25989      17437.654      26.961734     -6735.7418     -14563.595    
    241000   698.45978      14355.234      7420.3829      7544.277       40.753184      40.753184      26.133004      3901683.6      3890861.4      3890210.5      14964.66       54.324816     -9848.0728      26.906204     -6783.8328     -14579.612    
    242000   703.36127      14103.083      7290.0431      7679.25        40.753184      40.753184      26.146977      3898420.3      3865841.8      3913524.2      14969.293      193.31965      17194.159      26.880489     -6831.9399     -14515.565    
    243000   708.27757      14001.789      7237.6831      7558.0022      40.753184      40.753184      26.18249       3901303.6      3868387.4      3856075.5      14795.685     -128.06702     -30778.515      26.815134     -6880.0591     -14547.564    
    244000   713.2273       14262.325      7372.3573      8295.0488      40.753184      40.753184      25.97193       3991940.2      3991025.5      4019045.5      15667.406      643.35453      76005.783      27.202636     -6928.1276     -14531.653    
    245000   718.20616      14273.431      7378.0983      7721.5306      40.753184      40.753184      26.099612      3895885.5      3937702.6      3926617        15099.629      256.33797      17647.962      26.967657     -6976.2219     -14579.741    
    246000   723.19014      14427.799      7457.8928      7324.2945      40.753184      40.753184      26.197994      3877137.5      3810838.5      3868323.4      14782.187     -55.600071     -14393.345      26.7866       -7024.3352     -14499.849    
    247000   728.17768      14242.095      7361.9         7919.4272      40.753184      40.753184      26.066555      3938045.8      3946496.8      3932148.8      15281.327      186.37142      14358.637      27.028495     -7072.4251     -14531.674    
    248000   733.18972      14282.206      7382.6341      7541.3529      40.753184      40.753184      26.158786      3884386.1      3879376.7      3891170.8      14923.987      50.42631      -2008.2637      26.858757     -7120.5376     -14515.692    
    249000   738.19168      14039.146      7256.9936      7881.9067      40.753184      40.753184      26.097843      3945902        3936128.6      3898153.9      15138.9        12.70341      -11287.219      26.970913     -7168.6455     -14547.623    
    250000   743.2386       13976.01       7224.3577      7359.0155      40.753184      40.753184      26.218818      3851884.9      3846999        3859541.4      14583.373      32.345791     -17618.792      26.748277     -7216.712      -14611.515    
    251000   748.03109      14413.779      7450.6454      7573.4051      40.753184      40.753184      26.129725      3915007.2      3883417.2      3895118.8      15024.051      39.256131     -5814.9613      26.912239     -7264.7784     -14531.725    
    252000   752.9266       14206.775      7343.6427      7491.2695      40.753184      40.753184      26.192722      3875122.6      3862025.2      3858525.6      14834.912     -167.90063     -25597.966      26.796302     -7312.8819     -14467.609    
    253000   757.85603      14077.449      7276.7929      7678.1651      40.753184      40.753184      26.14325       3917055.6      3895241        3885024.4      14954.958      5.7467924     -12300.258      26.887348     -7360.9747     -14547.546    
    254000   762.79734      14199.071      7339.6608      7519.9101      40.753184      40.753184      26.151084      3903565.7      3889676        3869766.9      14859.571     -28.937339     -25467.269      26.87293      -7409.0719     -14611.568    
    255000   767.78291      14189.798      7334.8671      8186.6212      40.753184      40.753184      26.023378      3978064.6      3946858.1      3991537.7      15521.488      477.72793      62226.432      27.107954     -7457.1461     -14467.642    
    256000   772.76275      14068.454      7272.143       7162.9613      40.753184      40.753184      26.252602      3840082.5      3822869.7      3832880.3      14435.104     -83.407691     -35264.796      26.686102     -7505.2294     -14627.555    
    257000   777.76305      14450.479      7469.6164      7741.4012      40.753184      40.753184      26.03672       3953751.2      3937345.6      3958907.3      15211.018      510.60279      33156.128      27.0834       -7553.3118     -14723.75     
    258000   782.78617      13884.88       7177.2518      7068.5788      40.753184      40.753184      26.307686      3804728.8      3810180.4      3802551.2      14245.831     -225.79192     -50895.252      26.584728     -7601.4079     -14595.615    
    259000   787.79288      14198.377      7339.3019      7621.7934      40.753184      40.753184      26.129936      3894425.7      3931330.2      3886049.9      14961.095      33.252325     -14827.395      26.91185      -7649.4993     -14595.567    
    260000   792.80422      14147.728      7313.1207      7524.8992      40.753184      40.753184      26.188157      3881146.3      3855691.4      3868094.9      14838.02      -92.201709     -17246.917      26.804705     -7697.5425     -14483.686    
    261000   797.60004      14134.531      7306.2992      7485.5992      40.753184      40.753184      26.171631      3867850.7      3882636.5      3883121.3      14791.898      94.297297     -6630.1442      26.835117     -7745.6481     -14595.582    
    262000   802.48832      13870.873      7170.0112      7417.0184      40.753184      40.753184      26.226741      3877002        3835018.7      3852280        14587.03      -39.400765     -22765.815      26.733695     -7793.7457     -14579.432    
    263000   807.40004      14382.256      7434.3508      7385.0844      40.753184      40.753184      26.180872      3851115.2      3890887.6      3856220.1      14819.435     -146.85791     -31065.421      26.81811      -7841.8639     -14531.636    
    264000   812.34339      14110.637      7293.9478      7562.349       40.753184      40.753184      26.175692      3851277.7      3887072        3893946.2      14856.297      103.21379      5278.3546      26.827643     -7890.0059     -14515.63     
    265000   817.32093      14256.184      7369.183       7505.4839      40.753184      40.753184      26.151303      3873621        3898852.4      3888342.2      14874.667      92.019821     -6833.762       26.872529     -7938.1032     -14595.674    
    266000   822.31017      14173.438      7326.4103      7659.1885      40.753184      40.753184      26.13175       3894738.1      3913190.8      3902989.9      14985.599      130.19378      2596.604       26.908512     -7986.2004     -14563.74     
    267000   827.32196      14352.595      7419.0189      7986.7093      40.753184      40.753184      26.039951      3965780.2      3946732.8      3957946.5      15405.728      308.76522      33057.337      27.077455     -8034.2748     -14515.707    
    268000   832.35448      14261.123      7371.7361      7566.5122      40.753184      40.753184      26.146446      3912135        3888754.4      3878700.5      14938.248     -30.622659     -17771.446      26.881467     -8082.3493     -14547.684    
    269000   837.39078      14374.311      7430.2438      7917.7015      40.753184      40.753184      26.046342      3945880.5      3926483.9      3966611.7      15347.945      415.86876      43428.134      27.065692     -8130.4497     -14547.661    
    270000   842.42228      14290.293      7386.8144      7826.1133      40.753184      40.753184      26.063814      3939830.1      3929671.9      3943777.2      15212.928      343.57162      25255.753      27.033538     -8178.5141     -14611.571    
    271000   847.22179      14274.255      7378.5242      7796.7365      40.753184      40.753184      26.076951      3926924.8      3940318.2      3926390.4      15175.261      226.10963      11374.399      27.009362     -8226.5759     -14595.678    
    272000   852.11125      14241.631      7361.6602      7518.6115      40.753184      40.753184      26.153832      3896256.4      3888812.8      3876157.9      14880.272     -7.5114526     -18343.103      26.867874     -8274.6315     -14579.767    
    273000   857.03972      14201.995      7341.172       7226.9662      40.753184      40.753184      26.251329      3845262        3809682.5      3830461.7      14568.138     -227.22743     -38023.151      26.688446     -8322.6672     -14499.678    
    274000   861.99486      14281.324      7382.1781      7626.3354      40.753184      40.753184      26.114243      3882008.3      3921168.8      3912313.7      15008.514      210.70337      7248.8502      26.940731     -8370.744      -14611.656    
    275000   866.97437      14032.894      7253.7615      7749.8248      40.753184      40.753184      26.13513       3895070.7      3912778.4      3903661        15003.586      111.10179      4169.6071      26.902292     -8418.8287     -14531.553    
    276000   871.96863      14231.349      7356.3452      7644.2973      40.753184      40.753184      26.115697      3910571.6      3899208.5      3911893.6      15000.642      212.38467      7216.5148      26.938056     -8466.9312     -14611.648    
    277000   876.96884      14178.176      7328.8599      7601.6065      40.753184      40.753184      26.141405      3913031.3      3877920.6      3895617.4      14930.466      110.62809     -2199.5845      26.890743     -8515.0142     -14579.623    
    278000   881.97989      14364.778      7425.3162      7907.9017      40.753184      40.753184      26.010551      3933798.5      3964633.9      4005725.9      15333.218      790.36802      72991.766      27.131561     -8563.1131     -14707.671    
    279000   886.99164      14269.123      7375.8711      7333.9854      40.753184      40.753184      26.208082      3853259.9      3854502.4      3840260.8      14709.857     -209.82897     -39764.057      26.768035     -8611.2065     -14531.651    
    280000   892.0166       14122.124      7299.8857      7601.3009      40.753184      40.753184      26.152643      3890218.6      3860825.2      3915609.1      14901.187      263.34651      20790.888      26.870062     -8659.2995     -14563.746    
    281000   896.82959      14388.458      7437.5568      7810.2862      40.753184      40.753184      26.063001      3950858.9      3928196.7      3938061.2      15247.843      269.30822      19322.828      27.035035     -8707.3882     -14579.725    
    282000   901.72148      14071.135      7273.5288      8138.1582      40.753184      40.753184      26.022828      3981191.4      3970467.1      3967338.6      15411.687      406.32908      37880.372      27.108967     -8755.4792     -14579.694    
    283000   906.65503      14221.281      7351.1413      7310.2559      40.753184      40.753184      26.203695      3856788.7      3844429.5      3867463.9      14661.397      43.917837     -13731.73       26.77611      -8803.5314     -14595.701    
    284000   911.6117       14232.442      7356.9101      7709.4196      40.753184      40.753184      26.080139      3911941.8      3949191.9      3933628.5      15066.33       378.44835      19463.244      27.003494     -8851.6072     -14691.725    
    285000   916.58036      14118.49       7298.0075      7568.6848      40.753184      40.753184      26.133486      3921039.1      3900598.8      3880807.2      14866.692      79.226292     -19122.981      26.905318     -8899.699      -14675.604    
    286000   921.56724      14216.401      7348.6184      7784.9021      40.753184      40.753184      26.094884      3922562.9      3938115.6      3907628.6      15133.52       93.317517     -2602.1735      26.976359     -8947.7692     -14563.701    
    287000   926.57675      14147.015      7312.752       7820.3999      40.753184      40.753184      26.095077      3899598.7      3909586.5      3970164.4      15133.152      552.85554      59985.353      26.976003     -8995.8558     -14563.641    
    288000   931.59829      14316.633      7400.4297      7574.3911      40.753184      40.753184      26.154147      3864536.5      3901838.9      3891943.2      14974.821      15.955972     -2473.7561      26.867294     -9043.9528     -14483.751    
    289000   936.61187      14037.971      7256.3862      7533.4696      40.753184      40.753184      26.188191      3894595.6      3867552.3      3849469.9      14789.856     -181.68031     -35862.824      26.804642     -9092.0254     -14531.57     
    290000   941.61852      14372.933      7429.5318      7641.5617      40.753184      40.753184      26.102615      3898729.2      3918605        3919986.9      15071.093      229.33163      11819.14       26.962131     -9140.1071     -14595.739    
    291000   946.41006      14159.18       7319.0403      7083.1475      40.753184      40.753184      26.272724      3820927.9      3805652.7      3819564.3      14402.188     -186.89268     -43211.477      26.649071     -9188.2462     -14579.757    
    292000   951.29848      14114.806      7296.1032      7767.3648      40.753184      40.753184      26.108552      3903510.4      3926498.6      3931904        15063.468      312.53925      25320.453      26.951205     -9236.3792     -14579.543    
    293000   956.24185      14068.123      7271.9722      7795.7925      40.753184      40.753184      26.123292      3901798.9      3930605.4      3898017.9      15067.765      30.79405      -4632.4409      26.924078     -9284.4424     -14515.601    
    294000   961.18397      14197.547      7338.8725      7285.0136      40.753184      40.753184      26.233332      3834287.8      3853862.3      3835002.4      14623.886     -213.54846     -38284.694      26.721566     -9332.524      -14515.61     
    295000   966.19788      14202.617      7341.4932      7705.1961      40.753184      40.753184      26.088589      3935540.2      3913338.3      3933071.8      15046.689      376.6937       21161.434      26.987943     -9380.6171     -14675.667    
    296000   971.19134      14239.262      7360.4356      7478.9667      40.753184      40.753184      26.159908      3883267.4      3882333        3879130.7      14839.402      41.967811     -13749.057      26.856693     -9428.6692     -14595.775    
    297000   976.21025      14078.774      7277.4775      7608.2019      40.753184      40.753184      26.144573      3892397.8      3908510.3      3893646.4      14885.679      133.32925     -3325.1274      26.884913     -9476.7366     -14611.677    
    298000   981.22266      14267.275      7374.9159      7384.5713      40.753184      40.753184      26.183795      3826166.5      3862428.8      3904418.3      14759.487      257.53347      17912.721      26.812731     -9524.8413     -14579.671    
    299000   986.1894       14339.432      7412.2147      7572.6098      40.753184      40.753184      26.1357        3899385.9      3878011.6      3902326        14984.825      118.35137      2986.6297      26.901243     -9572.9539     -14547.759    
    300000   991.21607      14295.946      7389.7361      7795.3321      40.753184      40.753184      26.086486      3948994.8      3915619.6      3919461.6      15185.068      146.9112       6989.9542      26.991814     -9620.987      -14547.574    
Loop time of 991.216 on 4 procs for 200000 steps with 4000 atoms

Performance: 17.433 ns/day, 1.377 hours/ns, 201.772 timesteps/s
94.2% CPU use with 4 MPI tasks x no OpenMP threads

MPI task timing breakdown:
Section |  min time  |  avg time  |  max time  |%varavg| %total
---------------------------------------------------------------
Pair    | 114.72     | 196.3      | 287.38     | 479.9 | 19.80
Neigh   | 646.45     | 652.01     | 666.93     |  33.8 | 65.78
Comm    | 21.322     | 108.34     | 195.46     | 623.8 | 10.93
Output  | 0.062111   | 0.062355   | 0.06308    |   0.2 |  0.01
Modify  | 32.564     | 32.591     | 32.605     |   0.3 |  3.29
Other   |            | 1.915      |            |       |  0.19

Nlocal:           1000 ave        1012 max         989 min
Histogram: 2 0 0 0 0 0 0 0 1 1
Nghost:           2963 ave        2980 max        2949 min
Histogram: 1 0 1 0 0 1 0 0 0 1
Neighs:              0 ave           0 max           0 min
Histogram: 4 0 0 0 0 0 0 0 0 0
FullNghs:        81127 ave       82546 max       79938 min
Histogram: 1 1 0 0 0 0 0 1 0 1

Total # of neighbors = 324508
Ave neighs/atom = 81.127
Neighbor list builds = 200000
Dangerous builds not checked

write_restart	restart_shock.${up}
write_restart	restart_shock.75
System init for write_restart ...
Generated 0 of 0 mixed pair_coeff terms from geometric mixing rule

clear
next		up
jump		in.msst

Total wall time: 2:00:14
