ITEM: TIMESTEP
0
ITEM: NUMBER OF ATOMS
56
ITEM: BOX BOUNDS xy xz yz pp pp pp
-5.4251596324952951e+00 1.2163911692441133e+01 1.5526132515564727e-08
-3.0061665652343075e-03 5.5294143007778995e+00 -5.4463478138803225e+00
7.7232233150646462e-04 1.9019187752468508e+01 2.1812666742635317e-08
ITEM: ATOMS id type xs ys zs fx fy fz
2 1 0.359838 0.166637 0.132367 0 0.096555 0.27659
3 1 0.311747 1.50434e-05 0.275226 0 -0.00354465 0.00434412
4 1 0.0617465 0.166653 0.275226 0 0.00353452 0.00434591
5 1 0.0136014 1.01858e-05 0.418082 0 -0.000826899 -1.75142e-05
6 1 0.109838 3.06084e-05 0.132367 0 -0.0965674 0.276591
7 1 0.00885742 0.500062 0.06094 0 0.911256 0.934816
14 1 0.417299 1.61665e-05 0.703801 0 -0.00289577 0.00278298
15 1 0.167299 0.166652 0.703801 0 0.0028691 0.00277364
16 1 0.119164 1.72772e-05 0.846652 0 -0.0104068 -0.00495704
21 1 0.412674 0.500016 0.346652 0 -0.00288202 -0.00277706
22 1 0.263601 0.166657 0.418082 0 0.00083451 -1.4041e-05
23 1 0.162674 0.666651 0.346652 0 0.00289364 -0.00278462
24 1 0.215447 1.5722e-05 0.560941 0 -0.0011305 -7.62951e-05
25 1 0.114526 0.500016 0.489511 0 -0.00112758 7.7599e-05
29 1 0.258858 0.666605 0.06094 0 -0.911235 0.934787
30 1 0.210811 0.500017 0.203801 0 -0.0103948 0.0049713
42 1 0.369163 0.16665 0.846652 0 0.0103914 -0.00496988
43 1 0.268226 0.666652 0.775227 0 0.00354664 -0.00434614
44 1 0.321116 6.17797e-05 0.989513 0 0.911242 -0.934789
45 1 0.220135 0.50003 0.918085 0 -0.0965602 -0.276571
48 1 0.364526 0.666651 0.489511 0 0.00113305 7.97121e-05
49 1 0.316372 0.500011 0.63237 0 -0.00083232 1.02516e-05
50 1 0.0663724 0.666656 0.63237 0 0.000850905 2.21819e-05
51 1 0.0182272 0.500015 0.775227 0 -0.00353045 -0.00433811
52 1 0.0711147 0.166605 0.989513 0 -0.911254 -0.93482
1 1 0.609838 3.09294e-05 0.132367 0 -0.0965755 0.276589
8 1 0.859839 0.166637 0.132367 0 0.0965622 0.276588
9 1 0.758859 0.666605 0.06094 0 -0.911239 0.934815
10 1 0.811748 1.49384e-05 0.275226 0 -0.00354076 0.0043493
11 1 0.7636 0.166657 0.418083 0 0.000831862 -1.87049e-05
12 1 0.715446 1.60347e-05 0.560942 0 -0.0011402 -9.29916e-05
13 1 0.465447 0.166652 0.560941 0 0.00112235 -7.94628e-05
17 1 0.71081 0.500017 0.203801 0 -0.0103946 0.00496723
18 1 0.561746 0.166653 0.275226 0 0.00351589 0.00434466
19 1 0.460811 0.66665 0.203801 0 0.0104102 0.00496956
20 1 0.513601 1.09165e-05 0.418082 0 -0.000847687 -1.22513e-05
26 1 0.965448 0.166652 0.560941 0 0.0011233 -6.26808e-05
27 1 0.864527 0.666651 0.489511 0 0.00113108 8.53217e-05
28 1 0.508857 0.500061 0.0609401 0 0.911257 0.934792
31 1 0.960811 0.66665 0.203801 0 0.0103914 0.00497239
32 1 0.912675 0.500016 0.346652 0 -0.00289325 -0.00278511
33 1 0.869162 0.16665 0.846652 0 0.010402 -0.00498479
34 1 0.821116 6.23935e-05 0.989513 0 0.911246 -0.93479
35 1 0.571116 0.166605 0.989513 0 -0.911248 -0.934802
36 1 0.917298 1.60929e-05 0.703801 0 -0.00289372 0.0027774
37 1 0.816371 0.50001 0.632371 0 -0.000833104 -5.86949e-06
38 1 0.667299 0.166651 0.703801 0 0.00288679 0.00278604
39 1 0.566372 0.666656 0.63237 0 0.000841146 8.89165e-06
40 1 0.619163 1.72431e-05 0.846652 0 -0.0104051 -0.00497194
41 1 0.518226 0.500015 0.775227 0 -0.00353178 -0.00434266
46 1 0.662673 0.666651 0.346652 0 0.00290246 -0.00277481
47 1 0.614526 0.500015 0.489511 0 -0.00110637 8.48525e-05
53 1 0.970134 0.666636 0.918086 0 0.0965673 -0.276613
54 1 0.768226 0.666653 0.775227 0 0.00352928 -0.00433584
55 1 0.720135 0.50003 0.918085 0 -0.0965573 -0.276597
56 1 0.470135 0.666636 0.918085 0 0.0965676 -0.276592
ITEM: TIMESTEP
10
ITEM: NUMBER OF ATOMS
56
ITEM: BOX BOUNDS xy xz yz pp pp pp
-5.4251596324952951e+00 1.2163911692441133e+01 1.5526132515564727e-08
-3.0061665652343075e-03 5.5294143007778995e+00 -5.4463478138803225e+00
7.7232233150646462e-04 1.9019187752468508e+01 2.1812666742635317e-08
ITEM: ATOMS id type xs ys zs fx fy fz
2 1 0.362443 0.156861 0.138173 0 0.000148876 0.000246338
3 1 0.313538 -0.00147082 0.27922 0 0.000169022 4.41235e-05
4 1 0.0635379 0.168138 0.27922 0 -0.000169327 4.41985e-05
5 1 0.0143743 -0.00168724 0.419806 0 2.4819e-05 -0.00016468
6 1 0.112442 0.00980683 0.138173 0 -0.000149275 0.000246597
7 1 0.0119472 0.532985 0.0678288 0 0.000647781 0.000541246
14 1 0.416029 -0.00178248 0.70097 0 4.95207e-06 -0.000224105
15 1 0.166029 0.168449 0.70097 0 -2.96321e-06 -0.000224824
16 1 0.116851 0.00048862 0.841496 0 0.000275713 0.000378182
21 1 0.413944 0.498218 0.349483 0 6.41841e-06 0.000227136
22 1 0.264374 0.168355 0.419806 0 -2.44661e-05 -0.000167222
23 1 0.163944 0.668449 0.349483 0 -5.64981e-06 0.000227131
24 1 0.2152 -0.00167902 0.56039 0 0.000140161 -7.79854e-05
25 1 0.114773 0.498321 0.490063 0 0.000140977 7.53435e-05
29 1 0.261948 0.633683 0.0678292 0 -0.000644956 0.000538589
30 1 0.213123 0.500488 0.208956 0 0.000274212 -0.000368835
42 1 0.36685 0.166178 0.841496 0 -0.000275072 0.00036633
43 1 0.266435 0.668137 0.771233 0 -0.000170256 -4.72685e-05
44 1 0.318026 0.0329846 0.982624 0 0.000645627 -0.000544593
45 1 0.217531 0.509807 0.91228 0 -0.000148513 -0.000241028
48 1 0.364773 0.668346 0.490063 0 -0.000140955 7.36288e-05
49 1 0.315599 0.498312 0.630647 0 2.49508e-05 0.000167712
50 1 0.0655995 0.668355 0.630647 0 -2.58285e-05 0.000169166
51 1 0.0164358 0.498529 0.771233 0 0.000167904 -4.84674e-05
52 1 0.0680247 0.133683 0.982624 0 -0.000649812 -0.000550691
1 1 0.612442 0.00980711 0.138173 0 -0.000150814 0.000245871
8 1 0.862443 0.15686 0.138173 0 0.000148955 0.000245781
9 1 0.761949 0.633683 0.0678293 0 -0.000646582 0.000543942
10 1 0.813539 -0.00147091 0.27922 0 0.000169881 4.4035e-05
11 1 0.764373 0.168355 0.419806 0 -2.59969e-05 -0.000167836
12 1 0.715199 -0.00167907 0.56039 0 0.000140422 -7.19366e-05
13 1 0.465199 0.168346 0.56039 0 -0.000139455 -7.30749e-05
17 1 0.713122 0.500488 0.208956 0 0.000276365 -0.000369079
18 1 0.563538 0.168137 0.27922 0 -0.000169336 4.49601e-05
19 1 0.463123 0.666178 0.208956 0 -0.000274044 -0.000368587
20 1 0.514374 -0.00168743 0.419806 0 2.4372e-05 -0.000168576
26 1 0.9652 0.168346 0.56039 0 -0.000141234 -7.67228e-05
27 1 0.864774 0.668346 0.490063 0 -0.000139484 7.40939e-05
28 1 0.511947 0.532985 0.0678286 0 0.000648635 0.0005469
31 1 0.963123 0.666178 0.208956 0 -0.000274684 -0.000367331
32 1 0.913945 0.498218 0.349483 0 6.16218e-06 0.000224924
33 1 0.86685 0.166178 0.841496 0 -0.000275802 0.000373756
34 1 0.818026 0.0329844 0.982624 0 0.000646614 -0.000546376
35 1 0.568026 0.133683 0.982624 0 -0.000647625 -0.000545097
36 1 0.916028 -0.0017826 0.700969 0 5.97074e-06 -0.000231413
37 1 0.815598 0.498312 0.630647 0 2.40793e-05 0.000167427
38 1 0.666029 0.168449 0.70097 0 -6.24036e-06 -0.000228781
39 1 0.565599 0.668355 0.630647 0 -2.64934e-05 0.000167273
40 1 0.61685 0.000488536 0.841496 0 0.000273701 0.000367546
41 1 0.516435 0.498529 0.771233 0 0.000170403 -4.39122e-05
46 1 0.663943 0.668449 0.349483 0 -6.22519e-06 0.000226283
47 1 0.614773 0.498321 0.490063 0 0.000141923 7.65179e-05
53 1 0.96753 0.65686 0.912279 0 0.000151714 -0.000241515
54 1 0.766435 0.668137 0.771233 0 -0.000169067 -4.44868e-05
55 1 0.717531 0.509807 0.91228 0 -0.00014951 -0.00024421
56 1 0.467531 0.656861 0.912279 0 0.000149065 -0.000246351
