ITEM: TIMESTEP
0
ITEM: NUMBER OF ATOMS
32
ITEM: BOX BOUNDS xy xz yz pp pp pp
0.0000000000000000e+00 6.3945490121841431e+00 0.0000000000000000e+00
0.0000000000000000e+00 2.2082877993583679e+01 0.0000000000000000e+00
0.0000000000000000e+00 5.1824659705162048e+00 0.0000000000000000e+00
ITEM: ATOMS id type xs ys zs fx fy fz
1 1 0.0192136 0.336543 0.593597 1.14441e-05 -0.000911713 3.8147e-06
2 1 0.519214 0.336543 0.593597 -5.72205e-06 -0.000911713 1.90735e-06
3 1 0.269214 0.295033 0.0935973 -3.8147e-06 0.000965118 -3.8147e-06
4 1 0.769214 0.295033 0.0935973 -3.8147e-06 0.000967026 -5.72205e-06
5 1 0.269214 0.461543 0.593597 -1.90735e-06 -0.000814438 1.90735e-06
6 1 0.769214 0.461543 0.593597 -1.90735e-06 -0.000818253 5.72205e-06
7 1 0.0192136 0.420037 0.0935973 9.53674e-06 0.000875473 -1.90735e-06
8 1 0.519214 0.420037 0.0935973 -1.90735e-06 0.000869751 0
9 1 0.0192136 0.586543 0.593597 5.72205e-06 -0.000917435 1.90735e-06
10 1 0.519214 0.586543 0.593597 -1.90735e-06 -0.000917435 3.8147e-06
11 1 0.269214 0.711539 0.593597 0 -0.000881195 0
12 1 0.769214 0.711539 0.593597 0 -0.000879288 0
13 1 0.0192136 0.670042 0.0935972 0 0.000656128 1.90735e-06
14 1 0.269214 0.545043 0.0935972 -1.90735e-06 0.000684738 -5.72205e-06
15 1 0.769214 0.545043 0.0935972 -1.90735e-06 0.000684738 -5.72205e-06
16 1 0.519214 0.670042 0.0935972 0 0.000654221 1.90735e-06
17 1 0.0192136 0.836533 0.593597 1.14441e-05 -0.000696182 -1.90735e-06
18 1 0.519214 0.836533 0.593597 -3.8147e-06 -0.000696182 -1.90735e-06
19 1 0.269214 0.961532 0.593597 -1.90735e-06 -0.000709534 0
20 1 0.769214 0.961532 0.593597 -3.8147e-06 -0.00069809 0
21 1 0.269214 0.795034 0.0935971 -1.90735e-06 0.000951767 0
22 1 0.769214 0.795034 0.0935971 -9.53674e-06 0.000946045 0
23 1 0.0192136 0.920032 0.0935971 7.62939e-06 0.0008564 0
24 1 0.519214 0.920032 0.0935971 3.8147e-06 0.000862122 0
25 1 0.0192136 0.0865378 0.593597 7.62939e-06 -0.000915527 0
26 1 0.519214 0.0865378 0.593597 -3.8147e-06 -0.00091362 0
27 1 0.269214 0.045031 0.093597 0 0.000865936 0
28 1 0.769214 0.045031 0.093597 -5.72205e-06 0.000862122 0
29 1 0.269214 0.211541 0.593597 -1.90735e-06 -0.000938416 3.8147e-06
30 1 0.769214 0.211541 0.593597 -3.8147e-06 -0.000946045 1.90735e-06
31 1 0.0192136 0.170031 0.093597 9.53674e-06 0.000928879 -1.90735e-06
32 1 0.519214 0.170031 0.093597 -5.72205e-06 0.000934601 0
ITEM: TIMESTEP
1
ITEM: NUMBER OF ATOMS
32
ITEM: BOX BOUNDS xy xz yz pp pp pp
-3.1971931457519531e-04 6.3948687314987183e+00 0.0000000000000000e+00
-1.1041164398193359e-03 2.2083982110023499e+01 0.0000000000000000e+00
-2.5910139083862305e-04 5.1827250719070435e+00 0.0000000000000000e+00
ITEM: ATOMS id type xs ys zs fx fy fz
1 1 0.0192136 0.336543 0.593597 7.62939e-06 -0.000907898 1.90735e-06
2 1 0.519214 0.336543 0.593597 -3.8147e-06 -0.000905991 3.8147e-06
3 1 0.269214 0.295033 0.0935973 -1.90735e-06 0.00094986 -3.8147e-06
4 1 0.769214 0.295033 0.0935973 -1.90735e-06 0.00094986 -7.62939e-06
5 1 0.269214 0.461543 0.593597 -1.90735e-06 -0.000799179 3.8147e-06
6 1 0.769214 0.461543 0.593597 -1.90735e-06 -0.000801086 5.72205e-06
7 1 0.0192136 0.420037 0.0935973 3.8147e-06 0.000871658 -3.8147e-06
8 1 0.519214 0.420037 0.0935973 1.90735e-06 0.000869751 -1.90735e-06
9 1 0.0192136 0.586543 0.593597 5.72205e-06 -0.000894547 7.62939e-06
10 1 0.519214 0.586543 0.593597 -3.8147e-06 -0.000894547 7.62939e-06
11 1 0.269214 0.711539 0.593597 -1.90735e-06 -0.000862122 0
12 1 0.769214 0.711539 0.593597 0 -0.000862122 0
13 1 0.0192136 0.670042 0.0935972 3.8147e-06 0.00063324 -3.8147e-06
14 1 0.269214 0.545043 0.0935972 0 0.000675201 -7.62939e-06
15 1 0.769214 0.545043 0.0935972 -1.90735e-06 0.000675201 -3.8147e-06
16 1 0.519214 0.670042 0.0935972 -3.8147e-06 0.000635147 -3.8147e-06
17 1 0.0192136 0.836533 0.593597 1.52588e-05 -0.000671387 3.8147e-06
18 1 0.519214 0.836533 0.593597 -1.90735e-06 -0.000677109 3.8147e-06
19 1 0.269214 0.961532 0.593597 -3.8147e-06 -0.000705719 0
20 1 0.769214 0.961532 0.593597 1.90735e-06 -0.000699997 1.90735e-06
21 1 0.269214 0.795034 0.0935971 -5.72205e-06 0.000930786 -3.8147e-06
22 1 0.769214 0.795034 0.0935971 -9.53674e-06 0.000923157 0
23 1 0.0192136 0.920032 0.0935971 1.33514e-05 0.000843048 -1.90735e-06
24 1 0.519214 0.920032 0.0935971 -7.62939e-06 0.000841141 -3.8147e-06
25 1 0.0192136 0.0865378 0.593597 5.72205e-06 -0.000902176 0
26 1 0.519214 0.0865378 0.593597 -3.8147e-06 -0.000894547 0
27 1 0.269214 0.045031 0.093597 0 0.000854492 0
28 1 0.769214 0.045031 0.093597 0 0.000852585 0
29 1 0.269214 0.211541 0.593597 -3.8147e-06 -0.000925064 3.8147e-06
30 1 0.769214 0.211541 0.593597 -1.90735e-06 -0.000923157 1.90735e-06
31 1 0.0192136 0.170031 0.093597 5.72205e-06 0.000911713 0
32 1 0.519214 0.170031 0.093597 -3.8147e-06 0.000909805 0
ITEM: TIMESTEP
2
ITEM: NUMBER OF ATOMS
32
ITEM: BOX BOUNDS xy xz yz pp pp pp
-6.3943862915039062e-04 6.3951884508132935e+00 0.0000000000000000e+00
-2.2082328796386719e-03 2.2085086226463318e+01 0.0000000000000000e+00
-5.1820278167724609e-04 5.1829841732978821e+00 0.0000000000000000e+00
ITEM: ATOMS id type xs ys zs fx fy fz
1 1 0.0192136 0.336543 0.593597 3.8147e-06 -0.000905991 5.72205e-06
2 1 0.519214 0.336543 0.593597 -5.72205e-06 -0.000907898 5.72205e-06
3 1 0.269214 0.295033 0.0935973 0 0.000967026 -1.90735e-06
4 1 0.769214 0.295033 0.0935973 0 0.000965118 -5.72205e-06
5 1 0.269214 0.461543 0.593597 0 -0.000795364 5.72205e-06
6 1 0.769214 0.461543 0.593597 0 -0.000795364 7.62939e-06
7 1 0.0192136 0.420037 0.0935973 3.8147e-06 0.000871658 -3.8147e-06
8 1 0.519214 0.420037 0.0935973 -3.8147e-06 0.000871658 -9.53674e-06
9 1 0.0192136 0.586543 0.593597 5.72205e-06 -0.000926971 7.62939e-06
10 1 0.519214 0.586543 0.593597 -3.8147e-06 -0.000930786 3.8147e-06
11 1 0.269214 0.711539 0.593597 0 -0.00087738 3.8147e-06
12 1 0.769214 0.711539 0.593597 0 -0.00087738 5.72205e-06
13 1 0.0192136 0.670042 0.0935972 3.8147e-06 0.000667572 -5.72205e-06
14 1 0.269214 0.545043 0.0935972 0 0.000688553 -3.8147e-06
15 1 0.769214 0.545043 0.0935972 -1.90735e-06 0.000684738 -7.62939e-06
16 1 0.519214 0.670042 0.0935972 -1.90735e-06 0.000673294 -5.72205e-06
17 1 0.0192136 0.836533 0.593597 3.8147e-06 -0.000696182 5.72205e-06
18 1 0.519214 0.836533 0.593597 -3.8147e-06 -0.000699997 3.8147e-06
19 1 0.269214 0.961532 0.593597 -1.90735e-06 -0.000709534 3.8147e-06
20 1 0.769214 0.961532 0.593597 0 -0.000707626 5.72205e-06
21 1 0.269214 0.795034 0.0935971 -5.72205e-06 0.000932693 -1.90735e-06
22 1 0.769214 0.795034 0.0935971 -3.8147e-06 0.000930786 -3.8147e-06
23 1 0.0192136 0.920032 0.0935971 1.33514e-05 0.000862122 -5.72205e-06
24 1 0.519214 0.920032 0.0935971 -1.90735e-06 0.000873566 -9.53674e-06
25 1 0.0192136 0.0865378 0.593597 7.62939e-06 -0.000904083 0
26 1 0.519214 0.0865378 0.593597 -5.72205e-06 -0.000900269 0
27 1 0.269214 0.045031 0.093597 0 0.000846863 0
28 1 0.769214 0.045031 0.093597 -1.90735e-06 0.000850677 0
29 1 0.269214 0.211541 0.593597 -5.72205e-06 -0.000957489 0
30 1 0.769214 0.211541 0.593597 3.8147e-06 -0.000938416 0
31 1 0.0192136 0.170031 0.093597 5.72205e-06 0.000915527 0
32 1 0.519214 0.170031 0.093597 -3.8147e-06 0.000928879 0
ITEM: TIMESTEP
3
ITEM: NUMBER OF ATOMS
32
ITEM: BOX BOUNDS xy xz yz pp pp pp
-9.5915794372558594e-04 6.3955081701278687e+00 0.0000000000000000e+00
-3.3123493194580078e-03 2.2086190342903137e+01 0.0000000000000000e+00
-7.7730417251586914e-04 5.1832432746887207e+00 0.0000000000000000e+00
ITEM: ATOMS id type xs ys zs fx fy fz
1 1 0.0192136 0.336543 0.593597 3.8147e-06 -0.000904083 5.72205e-06
2 1 0.519214 0.336543 0.593597 -1.90735e-06 -0.000907898 5.72205e-06
3 1 0.269214 0.295033 0.0935973 -1.90735e-06 0.000944138 -1.33514e-05
4 1 0.769214 0.295033 0.0935973 -1.90735e-06 0.000946045 -1.14441e-05
5 1 0.269214 0.461543 0.593597 0 -0.000804901 3.8147e-06
6 1 0.769214 0.461543 0.593597 0 -0.000802994 3.8147e-06
7 1 0.0192136 0.420037 0.0935973 1.90735e-06 0.000873566 -1.90735e-06
8 1 0.519214 0.420037 0.0935973 0 0.000865936 -5.72205e-06
9 1 0.0192136 0.586543 0.593597 1.90735e-06 -0.000904083 0
10 1 0.519214 0.586543 0.593597 -1.90735e-06 -0.000896454 3.8147e-06
11 1 0.269214 0.711539 0.593597 0 -0.000850677 5.72205e-06
12 1 0.769214 0.711539 0.593597 0 -0.000844955 7.62939e-06
13 1 0.0192136 0.670042 0.0935972 3.8147e-06 0.000637054 -1.90735e-06
14 1 0.269214 0.545043 0.0935972 0 0.000675201 -3.8147e-06
15 1 0.769214 0.545043 0.0935972 0 0.000677109 -3.8147e-06
16 1 0.519214 0.670042 0.0935972 -3.8147e-06 0.000635147 -7.62939e-06
17 1 0.0192136 0.836533 0.593597 3.8147e-06 -0.000671387 5.72205e-06
18 1 0.519214 0.836533 0.593597 0 -0.000673294 1.90735e-06
19 1 0.269214 0.961532 0.593597 -3.8147e-06 -0.000703812 3.8147e-06
20 1 0.769214 0.961532 0.593597 0 -0.000699997 1.90735e-06
21 1 0.269214 0.795034 0.0935971 -1.90735e-06 0.000909805 -3.8147e-06
22 1 0.769214 0.795034 0.0935971 -1.90735e-06 0.000905991 -3.8147e-06
23 1 0.0192136 0.920032 0.0935971 9.53674e-06 0.000844955 -3.8147e-06
24 1 0.519214 0.920032 0.0935971 -5.72205e-06 0.000844955 -5.72205e-06
25 1 0.0192136 0.0865378 0.593597 5.72205e-06 -0.000896454 0
26 1 0.519214 0.0865378 0.593597 -1.90735e-06 -0.000896454 0
27 1 0.269214 0.045031 0.093597 0 0.000854492 0
28 1 0.769214 0.045031 0.093597 -3.8147e-06 0.0008564 0
29 1 0.269214 0.211541 0.593597 0 -0.000923157 9.53674e-06
30 1 0.769214 0.211541 0.593597 0 -0.000921249 7.62939e-06
31 1 0.0192136 0.170031 0.093597 1.90735e-06 0.000915527 0
32 1 0.519214 0.170031 0.093597 -1.90735e-06 0.000915527 0
ITEM: TIMESTEP
4
ITEM: NUMBER OF ATOMS
32
ITEM: BOX BOUNDS xy xz yz pp pp pp
-1.2788772583007812e-03 6.3958278894424438e+00 0.0000000000000000e+00
-4.4164657592773438e-03 2.2087294459342957e+01 0.0000000000000000e+00
-1.0364055633544922e-03 5.1835023760795593e+00 0.0000000000000000e+00
ITEM: ATOMS id type xs ys zs fx fy fz
1 1 0.0192136 0.336543 0.593597 1.90735e-06 -0.00088501 5.72205e-06
2 1 0.519214 0.336543 0.593597 0 -0.000883102 3.8147e-06
3 1 0.269214 0.295033 0.0935973 -7.62939e-06 0.000946045 -3.8147e-06
4 1 0.769214 0.295033 0.0935973 0 0.000946045 -3.8147e-06
5 1 0.269214 0.461543 0.593597 0 -0.000795364 5.72205e-06
6 1 0.769214 0.461543 0.593597 -1.90735e-06 -0.000787735 7.62939e-06
7 1 0.0192136 0.420037 0.0935973 9.53674e-06 0.000864029 -7.62939e-06
8 1 0.519214 0.420037 0.0935973 -3.8147e-06 0.000864029 -9.53674e-06
9 1 0.0192136 0.586543 0.593597 1.33514e-05 -0.000894547 5.72205e-06
10 1 0.519214 0.586543 0.593597 -1.14441e-05 -0.000898361 3.8147e-06
11 1 0.269214 0.711539 0.593597 0 -0.00084877 1.90735e-06
12 1 0.769214 0.711539 0.593597 -5.72205e-06 -0.000841141 3.8147e-06
13 1 0.0192136 0.670042 0.0935972 7.62939e-06 0.00062561 -1.90735e-06
14 1 0.269214 0.545043 0.0935972 -1.90735e-06 0.000658035 -3.8147e-06
15 1 0.769214 0.545043 0.0935972 0 0.000665665 -7.62939e-06
16 1 0.519214 0.670042 0.0935972 -3.8147e-06 0.000616074 0
17 1 0.0192136 0.836533 0.593597 1.14441e-05 -0.000658035 7.62939e-06
18 1 0.519214 0.836533 0.593597 -5.72205e-06 -0.00066185 5.72205e-06
19 1 0.269214 0.961532 0.593597 -1.90735e-06 -0.000696182 0
20 1 0.769214 0.961532 0.593597 -1.90735e-06 -0.000692368 1.90735e-06
21 1 0.269214 0.795034 0.0935971 -3.8147e-06 0.000917435 -3.8147e-06
22 1 0.769214 0.795034 0.0935971 1.90735e-06 0.00091362 -9.53674e-06
23 1 0.0192136 0.920032 0.0935971 9.53674e-06 0.000843048 -3.8147e-06
24 1 0.519214 0.920032 0.0935971 -5.72205e-06 0.000841141 -3.8147e-06
25 1 0.0192136 0.0865378 0.593597 7.62939e-06 -0.000894547 0
26 1 0.519214 0.0865378 0.593597 -3.8147e-06 -0.000896454 0
27 1 0.269214 0.045031 0.093597 -1.90735e-06 0.000841141 0
28 1 0.769214 0.045031 0.093597 -5.72205e-06 0.000846863 0
29 1 0.269214 0.211541 0.593597 0 -0.000923157 3.8147e-06
30 1 0.769214 0.211541 0.593597 0 -0.000925064 1.90735e-06
31 1 0.0192136 0.170031 0.093597 3.8147e-06 0.000902176 0
32 1 0.519214 0.170031 0.093597 0 0.000890732 0
ITEM: TIMESTEP
5
ITEM: NUMBER OF ATOMS
32
ITEM: BOX BOUNDS xy xz yz pp pp pp
-1.5985965728759766e-03 6.3961476087570190e+00 0.0000000000000000e+00
-5.5205821990966797e-03 2.2088398575782776e+01 0.0000000000000000e+00
-1.2955069541931152e-03 5.1837614774703979e+00 0.0000000000000000e+00
ITEM: ATOMS id type xs ys zs fx fy fz
1 1 0.0192136 0.336543 0.593597 5.72205e-06 -0.000890732 7.62939e-06
2 1 0.519214 0.336543 0.593597 -5.72205e-06 -0.000892639 3.8147e-06
3 1 0.269214 0.295033 0.0935973 -1.90735e-06 0.000957489 -9.53674e-06
4 1 0.769214 0.295033 0.0935973 0 0.000951767 -7.62939e-06
5 1 0.269214 0.461543 0.593597 -1.90735e-06 -0.000787735 5.72205e-06
6 1 0.769214 0.461543 0.593597 0 -0.000785828 3.8147e-06
7 1 0.0192136 0.420037 0.0935973 5.72205e-06 0.000860214 -5.72205e-06
8 1 0.519214 0.420037 0.0935973 -3.8147e-06 0.0008564 -3.8147e-06
9 1 0.0192136 0.586543 0.593597 3.8147e-06 -0.000900269 7.62939e-06
10 1 0.519214 0.586543 0.593597 -1.90735e-06 -0.000900269 7.62939e-06
11 1 0.269214 0.711539 0.593597 -1.90735e-06 -0.00084877 1.90735e-06
12 1 0.769214 0.711539 0.593597 -1.90735e-06 -0.000844955 5.72205e-06
13 1 0.0192136 0.670042 0.0935972 3.8147e-06 0.000638962 -5.72205e-06
14 1 0.269214 0.545043 0.0935972 0 0.000659943 -7.62939e-06
15 1 0.769214 0.545043 0.0935972 0 0.000667572 -7.62939e-06
16 1 0.519214 0.670042 0.0935972 -3.8147e-06 0.000637054 -3.8147e-06
17 1 0.0192136 0.836533 0.593597 5.72205e-06 -0.000669479 0
18 1 0.519214 0.836533 0.593597 -1.90735e-06 -0.000669479 0
19 1 0.269214 0.961532 0.593597 -1.90735e-06 -0.000677109 0
20 1 0.769214 0.961532 0.593597 -3.8147e-06 -0.000677109 0
21 1 0.269214 0.795034 0.0935971 3.8147e-06 0.000898361 0
22 1 0.769214 0.795034 0.0935971 -3.8147e-06 0.000896454 0
23 1 0.0192136 0.920032 0.0935971 9.53674e-06 0.000846863 0
24 1 0.519214 0.920032 0.0935971 -3.8147e-06 0.00084877 0
25 1 0.0192136 0.0865378 0.593597 1.52588e-05 -0.000898361 0
26 1 0.519214 0.0865378 0.593597 -5.72205e-06 -0.000902176 0
27 1 0.269214 0.045031 0.093597 -5.72205e-06 0.000841141 0
28 1 0.769214 0.045031 0.093597 -5.72205e-06 0.000835419 0
29 1 0.269214 0.211541 0.593597 0 -0.000936508 3.8147e-06
30 1 0.769214 0.211541 0.593597 0 -0.000938416 3.8147e-06
31 1 0.0192136 0.170031 0.093597 5.72205e-06 0.00091362 0
32 1 0.519214 0.170031 0.093597 -3.8147e-06 0.000909805 0
ITEM: TIMESTEP
6
ITEM: NUMBER OF ATOMS
32
ITEM: BOX BOUNDS xy xz yz pp pp pp
-1.9183158874511719e-03 6.3964673280715942e+00 0.0000000000000000e+00
-6.6246986389160156e-03 2.2089502692222595e+01 0.0000000000000000e+00
-1.5546083450317383e-03 5.1840205788612366e+00 0.0000000000000000e+00
ITEM: ATOMS id type xs ys zs fx fy fz
1 1 0.0192136 0.336543 0.593597 7.62939e-06 -0.000896454 7.62939e-06
2 1 0.519214 0.336543 0.593597 -5.72205e-06 -0.000898361 3.8147e-06
3 1 0.269214 0.295033 0.0935973 0 0.000928879 -1.90735e-06
4 1 0.769214 0.295033 0.0935973 0 0.000946045 -5.72205e-06
5 1 0.269214 0.461543 0.593597 -1.90735e-06 -0.000799179 5.72205e-06
6 1 0.769214 0.461543 0.593597 -3.8147e-06 -0.000793457 9.53674e-06
7 1 0.0192136 0.420037 0.0935973 9.53674e-06 0.000865936 -5.72205e-06
8 1 0.519214 0.420037 0.0935973 -1.90735e-06 0.000862122 -9.53674e-06
9 1 0.0192136 0.586543 0.593597 7.62939e-06 -0.000881195 3.8147e-06
10 1 0.519214 0.586543 0.593597 -3.8147e-06 -0.000886917 1.90735e-06
11 1 0.269214 0.711539 0.593597 -3.8147e-06 -0.000864029 0
12 1 0.769214 0.711539 0.593597 -1.90735e-06 -0.000862122 0
13 1 0.0192136 0.670042 0.0935972 7.62939e-06 0.000623703 0
14 1 0.269214 0.545043 0.0935972 0 0.000675201 -3.8147e-06
15 1 0.769214 0.545043 0.0935972 -9.53674e-06 0.000671387 -5.72205e-06
16 1 0.519214 0.670042 0.0935972 0 0.000627518 -1.90735e-06
17 1 0.0192136 0.836533 0.593597 7.62939e-06 -0.000679016 0
18 1 0.519214 0.836533 0.593597 -1.90735e-06 -0.000680923 0
19 1 0.269214 0.961532 0.593597 0 -0.000696182 0
20 1 0.769214 0.961532 0.593597 -1.90735e-06 -0.000696182 0
21 1 0.269214 0.795034 0.0935971 -3.8147e-06 0.000930786 0
22 1 0.769214 0.795034 0.0935971 0 0.000932693 0
23 1 0.0192136 0.920032 0.0935971 5.72205e-06 0.000841141 0
24 1 0.519214 0.920032 0.0935971 -1.90735e-06 0.000837326 0
25 1 0.0192136 0.0865378 0.593597 5.72205e-06 -0.000904083 0
26 1 0.519214 0.0865378 0.593597 -1.90735e-06 -0.000902176 0
27 1 0.269214 0.045031 0.093597 -3.8147e-06 0.00084877 0
28 1 0.769214 0.045031 0.093597 -1.90735e-06 0.000846863 0
29 1 0.269214 0.211541 0.593597 -5.72205e-06 -0.00091362 1.90735e-06
30 1 0.769214 0.211541 0.593597 -5.72205e-06 -0.000917435 0
31 1 0.0192136 0.170031 0.093597 1.33514e-05 0.000917435 0
32 1 0.519214 0.170031 0.093597 -3.8147e-06 0.000915527 0
ITEM: TIMESTEP
7
ITEM: NUMBER OF ATOMS
32
ITEM: BOX BOUNDS xy xz yz pp pp pp
-2.2380352020263672e-03 6.3967870473861694e+00 0.0000000000000000e+00
-7.7288150787353516e-03 2.2090606808662415e+01 0.0000000000000000e+00
-1.8137097358703613e-03 5.1842796802520752e+00 0.0000000000000000e+00
ITEM: ATOMS id type xs ys zs fx fy fz
1 1 0.0192136 0.336543 0.593597 7.62939e-06 -0.000888824 9.53674e-06
2 1 0.519214 0.336543 0.593597 -3.8147e-06 -0.000890732 9.53674e-06
3 1 0.269214 0.295033 0.0935973 0 0.000947952 -3.8147e-06
4 1 0.769214 0.295033 0.0935973 -3.8147e-06 0.00094986 -5.72205e-06
5 1 0.269214 0.461543 0.593597 -1.90735e-06 -0.00079155 5.72205e-06
6 1 0.769214 0.461543 0.593597 -3.8147e-06 -0.000793457 5.72205e-06
7 1 0.0192136 0.420037 0.0935973 5.72205e-06 0.000864029 -7.62939e-06
8 1 0.519214 0.420037 0.0935973 -3.8147e-06 0.000871658 -7.62939e-06
9 1 0.0192136 0.586543 0.593597 1.14441e-05 -0.000904083 1.90735e-06
10 1 0.519214 0.586543 0.593597 -3.8147e-06 -0.000902176 1.90735e-06
11 1 0.269214 0.711539 0.593597 0 -0.000871658 3.8147e-06
12 1 0.769214 0.711539 0.593597 -1.90735e-06 -0.000862122 1.90735e-06
13 1 0.0192136 0.670042 0.0935972 5.72205e-06 0.000646591 -1.90735e-06
14 1 0.269214 0.545043 0.0935972 -1.90735e-06 0.000663757 -1.90735e-06
15 1 0.769214 0.545043 0.0935972 -1.90735e-06 0.00066185 -1.90735e-06
16 1 0.519214 0.670042 0.0935972 -3.8147e-06 0.000648499 -7.62939e-06
17 1 0.0192136 0.836533 0.593597 3.8147e-06 -0.000686646 0
18 1 0.519214 0.836533 0.593597 -5.72205e-06 -0.000682831 0
19 1 0.269214 0.961532 0.593597 -1.90735e-06 -0.000688553 0
20 1 0.769214 0.961532 0.593597 -3.8147e-06 -0.000682831 0
21 1 0.269214 0.795034 0.0935971 0 0.000919342 0
22 1 0.769214 0.795034 0.0935971 0 0.000919342 0
23 1 0.0192136 0.920032 0.0935971 9.53674e-06 0.0008564 0
24 1 0.519214 0.920032 0.0935971 -1.90735e-06 0.000860214 0
25 1 0.0192136 0.0865378 0.593597 1.90735e-06 -0.000909805 0
26 1 0.519214 0.0865378 0.593597 0 -0.000905991 0
27 1 0.269214 0.045031 0.093597 0 0.000841141 0
28 1 0.769214 0.045031 0.093597 0 0.000843048 0
29 1 0.269214 0.211541 0.593597 -1.90735e-06 -0.000928879 0
30 1 0.769214 0.211541 0.593597 0 -0.000921249 0
31 1 0.0192136 0.170031 0.093597 3.8147e-06 0.000907898 -1.90735e-06
32 1 0.519214 0.170031 0.093597 -3.8147e-06 0.000909805 0
ITEM: TIMESTEP
8
ITEM: NUMBER OF ATOMS
32
ITEM: BOX BOUNDS xy xz yz pp pp pp
-2.5577545166015625e-03 6.3971067667007446e+00 0.0000000000000000e+00
-8.8329315185546875e-03 2.2091710925102234e+01 0.0000000000000000e+00
-2.0728111267089844e-03 5.1845387816429138e+00 0.0000000000000000e+00
ITEM: ATOMS id type xs ys zs fx fy fz
1 1 0.0192136 0.336543 0.593597 5.72205e-06 -0.000904083 7.62939e-06
2 1 0.519214 0.336543 0.593597 -1.90735e-06 -0.000902176 5.72205e-06
3 1 0.269214 0.295033 0.0935973 -1.90735e-06 0.000965118 -3.8147e-06
4 1 0.769214 0.295033 0.0935973 0 0.000959396 -3.8147e-06
5 1 0.269214 0.461543 0.593597 -1.90735e-06 -0.000804901 1.90735e-06
6 1 0.769214 0.461543 0.593597 0 -0.000806808 1.90735e-06
7 1 0.0192136 0.420037 0.0935973 3.8147e-06 0.000879288 -3.8147e-06
8 1 0.519214 0.420037 0.0935973 -5.72205e-06 0.000873566 -3.8147e-06
9 1 0.0192136 0.586543 0.593597 7.62939e-06 -0.000888824 1.90735e-06
10 1 0.519214 0.586543 0.593597 -3.8147e-06 -0.000888824 3.8147e-06
11 1 0.269214 0.711539 0.593597 -1.90735e-06 -0.0008564 5.72205e-06
12 1 0.769214 0.711539 0.593597 0 -0.0008564 5.72205e-06
13 1 0.0192136 0.670042 0.0935972 3.8147e-06 0.00063324 0
14 1 0.269214 0.545043 0.0935972 0 0.000665665 -5.72205e-06
15 1 0.769214 0.545043 0.0935972 -1.90735e-06 0.000663757 -1.90735e-06
16 1 0.519214 0.670042 0.0935972 -3.8147e-06 0.000631332 -7.62939e-06
17 1 0.0192136 0.836533 0.593597 9.53674e-06 -0.00066185 1.90735e-06
18 1 0.519214 0.836533 0.593597 -5.72205e-06 -0.000658035 1.90735e-06
19 1 0.269214 0.961532 0.593597 -1.90735e-06 -0.000688553 1.90735e-06
20 1 0.769214 0.961532 0.593597 -1.90735e-06 -0.000696182 3.8147e-06
21 1 0.269214 0.795034 0.0935971 -3.8147e-06 0.000911713 -1.90735e-06
22 1 0.769214 0.795034 0.0935971 -1.90735e-06 0.00091362 -3.8147e-06
23 1 0.0192136 0.920032 0.0935971 9.53674e-06 0.000837326 0
24 1 0.519214 0.920032 0.0935971 -3.8147e-06 0.000835419 -7.62939e-06
25 1 0.0192136 0.0865378 0.593597 7.62939e-06 -0.000915527 0
26 1 0.519214 0.0865378 0.593597 -1.90735e-06 -0.000919342 0
27 1 0.269214 0.045031 0.093597 0 0.000860214 0
28 1 0.769214 0.045031 0.093597 -5.72205e-06 0.000858307 0
29 1 0.269214 0.211541 0.593597 -3.8147e-06 -0.000938416 0
30 1 0.769214 0.211541 0.593597 0 -0.00094986 0
31 1 0.0192136 0.170031 0.093597 9.53674e-06 0.000925064 0
32 1 0.519214 0.170031 0.093597 -3.8147e-06 0.000923157 0
ITEM: TIMESTEP
9
ITEM: NUMBER OF ATOMS
32
ITEM: BOX BOUNDS xy xz yz pp pp pp
-2.8774738311767578e-03 6.3974264860153198e+00 0.0000000000000000e+00
-9.9370479583740234e-03 2.2092815041542053e+01 0.0000000000000000e+00
-2.3319125175476074e-03 5.1847978830337524e+00 0.0000000000000000e+00
ITEM: ATOMS id type xs ys zs fx fy fz
1 1 0.0192136 0.336543 0.593597 1.52588e-05 -0.000900269 5.72205e-06
2 1 0.519214 0.336543 0.593597 -5.72205e-06 -0.000902176 3.8147e-06
3 1 0.269214 0.295033 0.0935973 -3.8147e-06 0.000955582 -3.8147e-06
4 1 0.769214 0.295033 0.0935973 -1.90735e-06 0.000959396 -1.90735e-06
5 1 0.269214 0.461543 0.593597 -5.72205e-06 -0.000787735 5.72205e-06
6 1 0.769214 0.461543 0.593597 -1.90735e-06 -0.000780106 7.62939e-06
7 1 0.0192136 0.420037 0.0935973 5.72205e-06 0.000854492 -7.62939e-06
8 1 0.519214 0.420037 0.0935973 -5.72205e-06 0.000850677 -9.53674e-06
9 1 0.0192136 0.586543 0.593597 1.14441e-05 -0.000898361 3.8147e-06
10 1 0.519214 0.586543 0.593597 -5.72205e-06 -0.000898361 9.53674e-06
11 1 0.269214 0.711539 0.593597 -1.90735e-06 -0.000854492 1.90735e-06
12 1 0.769214 0.711539 0.593597 -3.8147e-06 -0.000852585 5.72205e-06
13 1 0.0192136 0.670042 0.0935972 9.53674e-06 0.000631332 -5.72205e-06
14 1 0.269214 0.545043 0.0935972 -1.90735e-06 0.00066185 -5.72205e-06
15 1 0.769214 0.545043 0.0935972 -1.90735e-06 0.000656128 -3.8147e-06
16 1 0.519214 0.670042 0.0935972 -1.90735e-06 0.000627518 -5.72205e-06
17 1 0.0192136 0.836533 0.593597 1.90735e-06 -0.000667572 1.90735e-06
18 1 0.519214 0.836533 0.593597 3.8147e-06 -0.000675201 3.8147e-06
19 1 0.269214 0.961532 0.593597 0 -0.000679016 3.8147e-06
20 1 0.769214 0.961532 0.593597 -1.90735e-06 -0.000679016 5.72205e-06
21 1 0.269214 0.795034 0.0935971 0 0.000928879 0
22 1 0.769214 0.795034 0.0935971 0 0.000923157 0
23 1 0.0192136 0.920032 0.0935971 -1.90735e-06 0.000833511 -5.72205e-06
24 1 0.519214 0.920032 0.0935971 -1.90735e-06 0.000829697 -9.53674e-06
25 1 0.0192136 0.0865378 0.593597 5.72205e-06 -0.000900269 0
26 1 0.519214 0.0865378 0.593597 -7.62939e-06 -0.000900269 0
27 1 0.269214 0.045031 0.093597 0 0.000843048 0
28 1 0.769214 0.045031 0.093597 3.8147e-06 0.000850677 0
29 1 0.269214 0.211541 0.593597 0 -0.000936508 0
30 1 0.769214 0.211541 0.593597 -5.72205e-06 -0.000936508 0
31 1 0.0192136 0.170031 0.093597 7.62939e-06 0.000921249 0
32 1 0.519214 0.170031 0.093597 -3.8147e-06 0.000921249 0
ITEM: TIMESTEP
10
ITEM: NUMBER OF ATOMS
32
ITEM: BOX BOUNDS xy xz yz pp pp pp
-3.1971931457519531e-03 6.3977462053298950e+00 0.0000000000000000e+00
-1.1041164398193359e-02 2.2093919157981873e+01 0.0000000000000000e+00
-2.5910139083862305e-03 5.1850569844245911e+00 0.0000000000000000e+00
ITEM: ATOMS id type xs ys zs fx fy fz
1 1 0.0192136 0.336542 0.593597 7.62939e-06 -0.000900269 3.8147e-06
2 1 0.519214 0.336542 0.593597 -3.8147e-06 -0.000900269 7.62939e-06
3 1 0.269214 0.295033 0.0935973 -1.90735e-06 0.000955582 -3.8147e-06
4 1 0.769214 0.295033 0.0935973 -1.90735e-06 0.000953674 -5.72205e-06
5 1 0.269214 0.461543 0.593597 0 -0.000799179 5.72205e-06
6 1 0.769214 0.461543 0.593597 0 -0.000795364 5.72205e-06
7 1 0.0192136 0.420037 0.0935973 3.8147e-06 0.000865936 -5.72205e-06
8 1 0.519214 0.420037 0.0935973 -3.8147e-06 0.000871658 -7.62939e-06
9 1 0.0192136 0.586543 0.593597 3.8147e-06 -0.000894547 5.72205e-06
10 1 0.519214 0.586543 0.593597 -5.72205e-06 -0.000902176 3.8147e-06
11 1 0.269214 0.711539 0.593597 0 -0.000839233 0
12 1 0.769214 0.711539 0.593597 0 -0.000835419 1.90735e-06
13 1 0.0192136 0.670042 0.0935972 1.90735e-06 0.000616074 -3.8147e-06
14 1 0.269214 0.545043 0.0935972 1.90735e-06 0.000675201 -1.90735e-06
15 1 0.769214 0.545043 0.0935972 1.90735e-06 0.000675201 -7.62939e-06
16 1 0.519214 0.670042 0.0935972 -3.8147e-06 0.000610352 -1.90735e-06
17 1 0.0192136 0.836533 0.593597 3.8147e-06 -0.000665665 0
18 1 0.519214 0.836533 0.593597 -1.90735e-06 -0.000663757 5.72205e-06
19 1 0.269214 0.961532 0.593597 -3.8147e-06 -0.00069046 0
20 1 0.769214 0.961532 0.593597 1.90735e-06 -0.000696182 0
21 1 0.269214 0.795034 0.0935971 -1.90735e-06 0.000898361 -3.8147e-06
22 1 0.769214 0.795034 0.0935971 0 0.000900269 -1.90735e-06
23 1 0.0192136 0.920032 0.0935971 3.8147e-06 0.000850677 0
24 1 0.519214 0.920032 0.0935971 -1.90735e-06 0.000852585 0
25 1 0.0192136 0.0865377 0.593597 3.8147e-06 -0.000909805 0
26 1 0.519214 0.0865377 0.593597 -3.8147e-06 -0.000905991 0
27 1 0.269214 0.045031 0.093597 0 0.000846863 0
28 1 0.769214 0.045031 0.093597 0 0.00084877 0
29 1 0.269214 0.211541 0.593597 -1.90735e-06 -0.000936508 1.90735e-06
30 1 0.769214 0.211541 0.593597 0 -0.000934601 1.90735e-06
31 1 0.0192136 0.170031 0.093597 5.72205e-06 0.000925064 0
32 1 0.519214 0.170031 0.093597 -3.8147e-06 0.000923157 0
ITEM: TIMESTEP
11
ITEM: NUMBER OF ATOMS
32
ITEM: BOX BOUNDS xy xz yz pp pp pp
-3.5169124603271484e-03 6.3980659246444702e+00 0.0000000000000000e+00
-1.2145280838012695e-02 2.2095023274421692e+01 0.0000000000000000e+00
-2.8501152992248535e-03 5.1853160858154297e+00 0.0000000000000000e+00
ITEM: ATOMS id type xs ys zs fx fy fz
1 1 0.0192136 0.336542 0.593597 9.53674e-06 -0.000896454 7.62939e-06
2 1 0.519214 0.336542 0.593597 -3.8147e-06 -0.000896454 7.62939e-06
3 1 0.269214 0.295033 0.0935973 0 0.000963211 -1.90735e-06
4 1 0.769214 0.295033 0.0935973 -3.8147e-06 0.000959396 -7.62939e-06
5 1 0.269214 0.461543 0.593597 0 -0.000799179 5.72205e-06
6 1 0.769214 0.461543 0.593597 -7.62939e-06 -0.000795364 3.8147e-06
7 1 0.0192136 0.420037 0.0935973 7.62939e-06 0.000869751 -7.62939e-06
8 1 0.519214 0.420037 0.0935973 -3.8147e-06 0.000869751 -7.62939e-06
9 1 0.0192136 0.586543 0.593597 5.72205e-06 -0.000907898 5.72205e-06
10 1 0.519214 0.586543 0.593597 -3.8147e-06 -0.000905991 3.8147e-06
11 1 0.269214 0.711539 0.593597 0 -0.000871658 0
12 1 0.769214 0.711539 0.593597 -7.62939e-06 -0.000864029 1.90735e-06
13 1 0.0192136 0.670042 0.0935972 1.33514e-05 0.000638962 -1.90735e-06
14 1 0.269214 0.545043 0.0935972 0 0.000675201 -3.8147e-06
15 1 0.769214 0.545043 0.0935972 -1.90735e-06 0.000675201 -7.62939e-06
16 1 0.519214 0.670042 0.0935972 -3.8147e-06 0.000644684 0
17 1 0.0192136 0.836533 0.593597 3.8147e-06 -0.000675201 0
18 1 0.519214 0.836533 0.593597 0 -0.000680923 0
19 1 0.269214 0.961532 0.593597 0 -0.000688553 0
20 1 0.769214 0.961532 0.593597 0 -0.000686646 0
21 1 0.269214 0.795034 0.0935971 -3.8147e-06 0.000928879 0
22 1 0.769214 0.795034 0.0935971 0 0.000928879 0
23 1 0.0192136 0.920032 0.0935971 5.72205e-06 0.000846863 0
24 1 0.519214 0.920032 0.0935971 -3.8147e-06 0.00084877 0
25 1 0.0192136 0.0865377 0.593597 5.72205e-06 -0.000907898 0
26 1 0.519214 0.0865377 0.593597 -1.90735e-06 -0.000905991 0
27 1 0.269214 0.045031 0.093597 0 0.000841141 0
28 1 0.769214 0.045031 0.093597 -1.90735e-06 0.000843048 0
29 1 0.269214 0.211541 0.593597 -5.72205e-06 -0.000946045 0
30 1 0.769214 0.211541 0.593597 -1.90735e-06 -0.000940323 1.90735e-06
31 1 0.0192136 0.170031 0.093597 7.62939e-06 0.000915527 0
32 1 0.519214 0.170031 0.093597 -3.8147e-06 0.000919342 0
ITEM: TIMESTEP
12
ITEM: NUMBER OF ATOMS
32
ITEM: BOX BOUNDS xy xz yz pp pp pp
-3.8366317749023438e-03 6.3983856439590454e+00 0.0000000000000000e+00
-1.3249397277832031e-02 2.2096127390861511e+01 0.0000000000000000e+00
-3.1092166900634766e-03 5.1855751872062683e+00 0.0000000000000000e+00
ITEM: ATOMS id type xs ys zs fx fy fz
1 1 0.0192136 0.336542 0.593597 3.8147e-06 -0.000898361 9.53674e-06
2 1 0.519214 0.336542 0.593597 0 -0.000902176 9.53674e-06
3 1 0.269214 0.295033 0.0935973 0 0.000957489 -5.72205e-06
4 1 0.769214 0.295033 0.0935973 -3.8147e-06 0.000951767 -7.62939e-06
5 1 0.269214 0.461543 0.593597 -3.8147e-06 -0.000799179 3.8147e-06
6 1 0.769214 0.461543 0.593597 0 -0.000799179 5.72205e-06
7 1 0.0192136 0.420037 0.0935973 7.62939e-06 0.0008564 -7.62939e-06
8 1 0.519214 0.420037 0.0935973 -3.8147e-06 0.000854492 -1.14441e-05
9 1 0.0192136 0.586543 0.593597 7.62939e-06 -0.000902176 7.62939e-06
10 1 0.519214 0.586543 0.593597 -3.8147e-06 -0.000905991 9.53674e-06
11 1 0.269214 0.711539 0.593597 0 -0.0008564 0
12 1 0.769214 0.711539 0.593597 -1.90735e-06 -0.000865936 1.90735e-06
13 1 0.0192136 0.670042 0.0935972 1.90735e-06 0.000646591 -5.72205e-06
14 1 0.269214 0.545043 0.0935972 0 0.000679016 -7.62939e-06
15 1 0.769214 0.545043 0.0935972 -3.8147e-06 0.000671387 -3.8147e-06
16 1 0.519214 0.670042 0.0935972 -1.90735e-06 0.000644684 -1.90735e-06
17 1 0.0192136 0.836533 0.593597 5.72205e-06 -0.000679016 0
18 1 0.519214 0.836533 0.593597 -3.8147e-06 -0.000679016 0
19 1 0.269214 0.961532 0.593597 -3.8147e-06 -0.000686646 0
20 1 0.769214 0.961532 0.593597 -1.90735e-06 -0.000686646 0
21 1 0.269214 0.795034 0.0935971 1.90735e-06 0.000911713 0
22 1 0.769214 0.795034 0.0935971 -1.90735e-06 0.000907898 0
23 1 0.0192136 0.920032 0.0935971 9.53674e-06 0.000844955 0