ITEM: TIMESTEP
0
ITEM: NUMBER OF ATOMS
56
ITEM: BOX BOUNDS xy xz yz pp pp pp
-4.0754606576829544e-01 1.2163911692441133e+01 1.5526132515564727e-08
-3.0061665652343075e-03 5.5294143007778995e+00 -4.2873424715332287e-01
7.7232233150646462e-04 1.9019187752468508e+01 2.1812666742635317e-08
ITEM: ATOMS id type xs ys zs fx fy fz
1 1 0.555141 3.09294e-05 0.132367 0 -0.000962493 0.000106467
2 1 0.305142 0.166637 0.132367 0 0.000941768 0.000103721
3 1 0.198018 1.50434e-05 0.275226 0 -0.00109182 -2.49845e-05
4 1 0.948018 0.166653 0.275226 0 0.00108183 -2.36436e-05
5 1 0.840841 1.01858e-05 0.418082 0 -0.0010309 2.90865e-05
6 1 0.0551414 3.06084e-05 0.132367 0 -0.000953819 0.000102503
7 1 0.983676 0.500062 0.06094 0 -0.00139579 8.55436e-05
8 1 0.805142 0.166637 0.132367 0 0.000951074 9.74658e-05
9 1 0.733677 0.666605 0.06094 0 0.00140173 8.94822e-05
10 1 0.698019 1.49384e-05 0.275226 0 -0.00108785 -1.9711e-05
11 1 0.59084 0.166657 0.418083 0 0.00103561 2.7975e-05
12 1 0.483654 1.60347e-05 0.560942 0 -0.00115523 -3.05445e-05
13 1 0.233655 0.166652 0.560941 0 0.00113742 -1.70269e-05
14 1 0.126475 1.61665e-05 0.703801 0 -0.00116293 -0.000152243
15 1 0.876475 0.166652 0.703801 0 0.0011363 -0.000162384
16 1 0.76931 1.72772e-05 0.846652 0 -0.00101029 0.000227161
17 1 0.626595 0.500017 0.203801 0 -0.000998178 -0.000216994
18 1 0.448018 0.166653 0.275226 0 0.00106323 -2.4502e-05
19 1 0.376596 0.66665 0.203801 0 0.00101357 -0.00021493
20 1 0.340841 1.09165e-05 0.418082 0 -0.00105153 3.43514e-05
21 1 0.269431 0.500016 0.346652 0 -0.00114919 0.000158359
22 1 0.0908413 0.166657 0.418082 0 0.00103842 3.24212e-05
23 1 0.0194305 0.666651 0.346652 0 0.00116082 0.000150454
24 1 0.983655 1.5722e-05 0.560941 0 -0.00114565 -1.39243e-05
25 1 0.91225 0.500016 0.489511 0 -0.00114259 1.49636e-05
26 1 0.733656 0.166652 0.560941 0 0.00113828 -2.51341e-07
27 1 0.662251 0.666651 0.489511 0 0.00114616 2.29081e-05
28 1 0.483676 0.500061 0.0609401 0 -0.00137748 8.61011e-05
29 1 0.233676 0.666605 0.06094 0 0.0014037 8.60491e-05
30 1 0.126596 0.500017 0.203801 0 -0.00099838 -0.00021327
31 1 0.876596 0.66665 0.203801 0 0.000994807 -0.000212619
32 1 0.769431 0.500016 0.346652 0 -0.0011607 0.000150834
33 1 0.519309 0.16665 0.846652 0 0.0010053 0.000200231
34 1 0.41223 6.23935e-05 0.989513 0 -0.00140493 -7.90429e-05
35 1 0.162229 0.166605 0.989513 0 0.0013923 -8.63221e-05
36 1 0.626474 1.60929e-05 0.703801 0 -0.00116109 -0.000157917
37 1 0.555063 0.50001 0.632371 0 -0.00103681 -5.23095e-05
38 1 0.376475 0.166651 0.703801 0 0.00115395 -0.00014933
39 1 0.305064 0.666656 0.63237 0 0.00104496 -3.76971e-05
40 1 0.269309 1.72431e-05 0.846652 0 -0.0010086 0.000212944
41 1 0.197887 0.500015 0.775227 0 -0.00107913 2.67663e-05
42 1 0.0193092 0.16665 0.846652 0 0.000994887 0.000214673
43 1 0.947887 0.666652 0.775227 0 0.00109402 2.27952e-05
44 1 0.91223 6.17797e-05 0.989513 0 -0.00138695 -8.9075e-05
45 1 0.840764 0.50003 0.918085 0 -0.00094977 -9.12639e-05
46 1 0.51943 0.666651 0.346652 0 0.00116965 0.00016075
47 1 0.41225 0.500015 0.489511 0 -0.00112142 2.25533e-05
48 1 0.16225 0.666651 0.489511 0 0.001148 1.73233e-05
49 1 0.0550639 0.500011 0.63237 0 -0.00103621 -3.62727e-05
50 1 0.805064 0.666656 0.63237 0 0.00105476 -2.45237e-05
51 1 0.697888 0.500015 0.775227 0 -0.00107748 3.07552e-05
52 1 0.662228 0.166605 0.989513 0 0.00139197 -8.88514e-05
53 1 0.590763 0.666636 0.918086 0 0.000953664 -0.000117205
54 1 0.447887 0.666653 0.775227 0 0.00107664 3.35356e-05
55 1 0.340764 0.50003 0.918085 0 -0.00094292 -0.000103786
56 1 0.0907638 0.666636 0.918085 0 0.000954945 -0.000107589
ITEM: TIMESTEP
3
ITEM: NUMBER OF ATOMS
56
ITEM: BOX BOUNDS xy xz yz pp pp pp
-4.0754606576829544e-01 1.2163911692441133e+01 1.5526132515564727e-08
-3.0061665652343075e-03 5.5294143007778995e+00 -4.2873424715332287e-01
7.7232233150646462e-04 1.9019187752468508e+01 2.1812666742635317e-08
ITEM: ATOMS id type xs ys zs fx fy fz
1 1 0.555141 -0.000100752 0.132369 0 -6.31193e-05 2.70589e-05
2 1 0.305142 0.166768 0.132369 0 5.32251e-05 2.60643e-05
3 1 0.198018 -0.000127444 0.275226 0 3.06917e-05 -1.51077e-05
4 1 0.948018 0.166794 0.275226 0 -3.68988e-05 -1.29198e-05
5 1 0.840841 -0.000127596 0.418083 0 -2.48557e-05 -1.13556e-05
6 1 0.0551415 -0.000100994 0.132369 0 -5.99318e-05 2.64797e-05
7 1 0.983676 0.499889 0.0609401 0 6.44459e-05 2.98112e-05
8 1 0.805142 0.166768 0.132369 0 5.91312e-05 2.66943e-05
9 1 0.733677 0.666779 0.0609402 0 -6.32039e-05 2.91034e-05
10 1 0.698019 -0.000127654 0.275226 0 3.31964e-05 -1.35357e-05
11 1 0.59084 0.166796 0.418083 0 1.98646e-05 -1.08726e-05
12 1 0.483654 -0.000130742 0.56094 0 3.33029e-06 3.20406e-05
13 1 0.233655 0.166798 0.56094 0 -7.7514e-06 2.95092e-05
14 1 0.126475 -0.000128706 0.703798 0 -4.41087e-06 -1.17291e-05
15 1 0.876475 0.166796 0.703798 0 -3.44077e-06 -9.07696e-06
16 1 0.76931 -0.000111489 0.846656 0 -4.99651e-05 9.41705e-06
17 1 0.626595 0.499888 0.203797 0 -4.51339e-05 -9.02477e-06
18 1 0.448018 0.166794 0.275226 0 -3.95758e-05 -1.37186e-05
19 1 0.376596 0.666778 0.203797 0 5.3495e-05 -7.08963e-06
20 1 0.340842 -0.000127705 0.418083 0 -2.8867e-05 -1.13803e-05
21 1 0.269431 0.499871 0.346655 0 5.26058e-06 8.76124e-06
22 1 0.0908413 0.166795 0.418083 0 2.31462e-05 -1.14455e-05
23 1 0.0194306 0.666796 0.346655 0 1.10666e-06 1.0178e-05
24 1 0.983655 -0.000130853 0.56094 0 5.51347e-06 3.21835e-05
25 1 0.91225 0.499869 0.489513 0 8.39308e-06 -2.80463e-05
26 1 0.733656 0.166798 0.56094 0 -1.0676e-05 2.8291e-05
27 1 0.662251 0.666798 0.489513 0 -9.8662e-07 -2.80679e-05
28 1 0.483676 0.499889 0.0609401 0 6.73894e-05 2.93921e-05
29 1 0.233676 0.666778 0.0609402 0 -5.80948e-05 2.92709e-05
30 1 0.126596 0.499888 0.203797 0 -4.6337e-05 -7.21071e-06
31 1 0.876596 0.666778 0.203797 0 4.98941e-05 -8.26659e-06
32 1 0.769431 0.499871 0.346655 0 6.36501e-07 9.34215e-06
33 1 0.519309 0.166779 0.846655 0 4.50527e-05 1.146e-05
34 1 0.41223 -0.000111027 0.989513 0 6.17718e-05 -3.13262e-05
35 1 0.162229 0.166779 0.989513 0 -6.60336e-05 -2.71561e-05
36 1 0.626474 -0.000128825 0.703798 0 -4.78012e-06 -1.40913e-05
37 1 0.555063 0.499872 0.632369 0 -2.04963e-05 1.31884e-05
38 1 0.376475 0.166796 0.703798 0 -1.84098e-06 -1.02044e-05
39 1 0.305064 0.666795 0.632369 0 2.63143e-05 8.75116e-06
40 1 0.269309 -0.000111386 0.846656 0 -5.24071e-05 9.76429e-06
41 1 0.197887 0.499872 0.775227 0 3.70567e-05 1.48597e-05
42 1 0.0193094 0.166779 0.846656 0 4.39683e-05 9.95351e-06
43 1 0.947887 0.666794 0.775227 0 -3.1941e-05 1.68315e-05
44 1 0.91223 -0.000110832 0.989513 0 6.22381e-05 -3.15138e-05
45 1 0.840764 0.499899 0.918084 0 -5.68128e-05 -2.88957e-05
46 1 0.51943 0.666796 0.346655 0 5.70295e-06 7.76614e-06
47 1 0.41225 0.499869 0.489513 0 1.03362e-05 -2.96495e-05
48 1 0.16225 0.666798 0.489513 0 -4.15521e-06 -3.07388e-05
49 1 0.0550639 0.499872 0.632369 0 -2.20062e-05 1.10911e-05
50 1 0.805064 0.666795 0.63237 0 2.61161e-05 7.09479e-06
51 1 0.697888 0.499872 0.775227 0 3.66464e-05 1.68235e-05
52 1 0.662228 0.166779 0.989513 0 -6.35984e-05 -2.89875e-05
53 1 0.590763 0.666768 0.918084 0 6.03249e-05 -2.75229e-05
54 1 0.447887 0.666794 0.775227 0 -3.37741e-05 1.36818e-05
55 1 0.340764 0.499899 0.918084 0 -5.57643e-05 -2.83604e-05
56 1 0.0907637 0.666768 0.918084 0 6.26976e-05 -2.7399e-05
