ITEM: TIMESTEP
0
ITEM: NUMBER OF ATOMS
32
ITEM: BOX BOUNDS xy xz yz pp pp pp
-4.0532350540161133e-03 6.4008854031562805e+00 0.0000000000000000e+00
-9.1640949249267578e-03 8.5708726644515991e+00 0.0000000000000000e+00
-4.7960281372070312e-02 2.0773346722126007e+01 3.0412774085998535e+00
ITEM: ATOMS id type xs ys zs fx fy fz
1 1 0.999986 0.63335 0.0597509 0 0 0.231794
2 1 0.499986 0.63335 0.0597509 0 0 0.231794
3 1 0.249986 0.13335 0.0597519 0 0 0.231705
4 1 0.749986 0.13335 0.0597519 0 0 0.231705
5 1 0.999986 0.49609 0.309753 0 0 0.000312805
6 1 0.249986 0.399068 0.184753 0 0 -0.000349045
7 1 0.749986 0.399068 0.184753 0 0 -0.000349045
8 1 0.499986 0.49609 0.309753 0 0 0.000312805
9 1 0.999986 0.899067 0.184753 0 0 -0.000326157
10 1 0.249986 0.99609 0.309753 0 0 0.000267029
11 1 0.499986 0.899067 0.184753 0 0 -0.000326157
12 1 0.749986 0.99609 0.309753 0 0 0.000267029
13 1 0.999986 0.358806 0.559749 0 0 5.72205e-05
14 1 0.499986 0.358806 0.559749 0 0 5.72205e-05
15 1 0.249986 0.858804 0.55975 0 0 4.57764e-05
16 1 0.749986 0.858804 0.55975 0 0 4.57764e-05
17 1 0.249986 0.261797 0.434752 0 0 -5.91278e-05
18 1 0.749986 0.261797 0.434752 0 0 -5.91278e-05
19 1 0.999986 0.761796 0.434752 0 0 -3.43323e-05
20 1 0.499986 0.761796 0.434752 0 0 -3.43323e-05
21 1 0.999986 0.221525 0.809748 0 0 0.000333786
22 1 0.249986 0.124508 0.684748 0 0 -0.000297546
23 1 0.499986 0.221525 0.809748 0 0 0.000333786
24 1 0.749986 0.124508 0.684748 0 0 -0.000297546
25 1 0.999986 0.624507 0.684749 0 0 -0.000312805
26 1 0.249986 0.721525 0.809748 0 0 0.000349045
27 1 0.749986 0.721525 0.809748 0 0 0.000349045
28 1 0.499986 0.624507 0.684749 0 0 -0.000312805
29 1 0.249986 0.98724 0.934749 0 0 -0.231695
30 1 0.749986 0.98724 0.934749 0 0 -0.231695
31 1 0.999986 0.48724 0.93475 0 0 -0.231791
32 1 0.499986 0.48724 0.93475 0 0 -0.231791
ITEM: TIMESTEP
1
ITEM: NUMBER OF ATOMS
32
ITEM: BOX BOUNDS xy xz yz pp pp pp
-4.0532350540161133e-03 6.4008854031562805e+00 0.0000000000000000e+00
-9.1640949249267578e-03 8.5708726644515991e+00 0.0000000000000000e+00
-4.7960281372070312e-02 2.0773346722126007e+01 3.0412774085998535e+00
ITEM: ATOMS id type xs ys zs fx fy fz
1 1 0.999986 0.632033 0.0621494 0 0 -0.0133419
2 1 0.499986 0.632033 0.0621494 0 0 -0.0133419
3 1 0.249986 0.132034 0.0621495 0 0 -0.0133381
4 1 0.749986 0.132034 0.0621495 0 0 -0.0133381
5 1 0.999986 0.496088 0.309756 0 0 0.00393867
6 1 0.249986 0.39907 0.18475 0 0 0.0662594
7 1 0.749986 0.39907 0.18475 0 0 0.0662594
8 1 0.499986 0.496088 0.309756 0 0 0.00393867
9 1 0.999986 0.899069 0.18475 0 0 0.066267
10 1 0.249986 0.996088 0.309756 0 0 0.00393105
11 1 0.499986 0.899069 0.18475 0 0 0.066267
12 1 0.749986 0.996088 0.309756 0 0 0.00393105
13 1 0.999986 0.358805 0.55975 0 0 0.000181198
14 1 0.499986 0.358805 0.55975 0 0 0.000181198
15 1 0.249986 0.858804 0.55975 0 0 0.000177383
16 1 0.749986 0.858804 0.55975 0 0 0.000177383
17 1 0.249986 0.261797 0.434752 0 0 -0.000185013
18 1 0.749986 0.261797 0.434752 0 0 -0.000185013
19 1 0.999986 0.761797 0.434751 0 0 -0.000181198
20 1 0.499986 0.761797 0.434751 0 0 -0.000181198
21 1 0.999986 0.221523 0.809752 0 0 -0.0662594
22 1 0.249986 0.124509 0.684745 0 0 -0.00392342
23 1 0.499986 0.221523 0.809752 0 0 -0.0662594
24 1 0.749986 0.124509 0.684745 0 0 -0.00392342
25 1 0.999986 0.624509 0.684746 0 0 -0.00394058
26 1 0.249986 0.721523 0.809752 0 0 -0.0662727
27 1 0.749986 0.721523 0.809752 0 0 -0.0662727
28 1 0.499986 0.624509 0.684746 0 0 -0.00394058
29 1 0.249986 0.988556 0.932352 0 0 0.01334
30 1 0.749986 0.988556 0.932352 0 0 0.01334
31 1 0.999986 0.488557 0.932352 0 0 0.0133476
32 1 0.499986 0.488557 0.932352 0 0 0.0133476
ITEM: TIMESTEP
2
ITEM: NUMBER OF ATOMS
32
ITEM: BOX BOUNDS xy xz yz pp pp pp
-4.0532350540161133e-03 6.4008854031562805e+00 0.0000000000000000e+00
-9.1640949249267578e-03 8.5708726644515991e+00 0.0000000000000000e+00
-4.7960281372070312e-02 2.0773346722126007e+01 3.0412774085998535e+00
ITEM: ATOMS id type xs ys zs fx fy fz
1 1 0.999986 0.631803 0.0625683 0 0 -0.0124874
2 1 0.499986 0.631803 0.0625683 0 0 -0.0124874
3 1 0.249986 0.131804 0.0625683 0 0 -0.0124798
4 1 0.749986 0.131804 0.0625683 0 0 -0.0124798
5 1 0.999986 0.496042 0.30984 0 0 0.0346336
6 1 0.249986 0.398304 0.186145 0 0 0.0028801
7 1 0.749986 0.398304 0.186145 0 0 0.0028801
8 1 0.499986 0.496042 0.30984 0 0 0.0346336
9 1 0.999986 0.898302 0.186145 0 0 0.00286674
10 1 0.249986 0.996042 0.30984 0 0 0.0346241
11 1 0.499986 0.898302 0.186145 0 0 0.00286674
12 1 0.749986 0.996042 0.30984 0 0 0.0346241
13 1 0.999986 0.358803 0.559754 0 0 -0.00422859
14 1 0.499986 0.358803 0.559754 0 0 -0.00422859
15 1 0.249986 0.858802 0.559754 0 0 -0.00424194
16 1 0.749986 0.858802 0.559754 0 0 -0.00424194
17 1 0.249986 0.261799 0.434748 0 0 0.00422859
18 1 0.749986 0.261799 0.434748 0 0 0.00422859
19 1 0.999986 0.761799 0.434747 0 0 0.00423241
20 1 0.499986 0.761799 0.434747 0 0 0.00423241
21 1 0.999986 0.222289 0.808356 0 0 -0.00287819
22 1 0.249986 0.124555 0.684662 0 0 -0.034626
23 1 0.499986 0.222289 0.808356 0 0 -0.00287819
24 1 0.749986 0.124555 0.684662 0 0 -0.034626
25 1 0.999986 0.624555 0.684662 0 0 -0.0346222
26 1 0.249986 0.72229 0.808356 0 0 -0.00286484
27 1 0.749986 0.72229 0.808356 0 0 -0.00286484
28 1 0.499986 0.624555 0.684662 0 0 -0.0346222
29 1 0.249986 0.988786 0.931933 0 0 0.0124722
30 1 0.749986 0.988786 0.931933 0 0 0.0124722
31 1 0.999986 0.488787 0.931933 0 0 0.0124912
32 1 0.499986 0.488787 0.931933 0 0 0.0124912
ITEM: TIMESTEP
3
ITEM: NUMBER OF ATOMS
32
ITEM: BOX BOUNDS xy xz yz pp pp pp
-4.0532350540161133e-03 6.4008854031562805e+00 0.0000000000000000e+00
-9.1640949249267578e-03 8.5708726644515991e+00 0.0000000000000000e+00
-4.7960281372070312e-02 2.0773346722126007e+01 3.0412774085998535e+00
ITEM: ATOMS id type xs ys zs fx fy fz
1 1 0.999986 0.631912 0.0623708 0 0 0.0163765
2 1 0.499986 0.631912 0.0623708 0 0 0.0163765
3 1 0.249986 0.131912 0.0623708 0 0 0.0163746
4 1 0.749986 0.131912 0.0623708 0 0 0.0163746
5 1 0.999986 0.495597 0.31065 0 0 0.00290108
6 1 0.249986 0.398107 0.186504 0 0 -0.00165176
7 1 0.749986 0.398107 0.186504 0 0 -0.00165176
8 1 0.499986 0.495597 0.31065 0 0 0.00290108
9 1 0.999986 0.898105 0.186505 0 0 -0.00164986
10 1 0.249986 0.995598 0.31065 0 0 0.00291824
11 1 0.499986 0.898105 0.186505 0 0 -0.00164986
12 1 0.749986 0.995598 0.31065 0 0 0.00291824
13 1 0.999986 0.358856 0.559658 0 0 -0.0160465
14 1 0.499986 0.358856 0.559658 0 0 -0.0160465
15 1 0.249986 0.858854 0.559658 0 0 -0.016037
16 1 0.749986 0.858854 0.559658 0 0 -0.016037
17 1 0.249986 0.261747 0.434843 0 0 0.0160542
18 1 0.749986 0.261747 0.434843 0 0 0.0160542
19 1 0.999986 0.761746 0.434844 0 0 0.0160446
20 1 0.499986 0.761746 0.434844 0 0 0.0160446
21 1 0.999986 0.222487 0.807997 0 0 0.00164795
22 1 0.249986 0.125 0.683852 0 0 -0.00291824
23 1 0.499986 0.222487 0.807997 0 0 0.00164795
24 1 0.749986 0.125 0.683852 0 0 -0.00291824
25 1 0.999986 0.625 0.683852 0 0 -0.00291634
26 1 0.249986 0.722487 0.807997 0 0 0.00165176
27 1 0.749986 0.722487 0.807997 0 0 0.00165176
28 1 0.499986 0.625 0.683852 0 0 -0.00291634
29 1 0.249986 0.988678 0.93213 0 0 -0.0163689
30 1 0.749986 0.988678 0.93213 0 0 -0.0163689
31 1 0.999986 0.488678 0.932131 0 0 -0.0163803
32 1 0.499986 0.488678 0.932131 0 0 -0.0163803
ITEM: TIMESTEP
4
ITEM: NUMBER OF ATOMS
32
ITEM: BOX BOUNDS xy xz yz pp pp pp
-4.0532350540161133e-03 6.4008854031562805e+00 0.0000000000000000e+00
-9.1640949249267578e-03 8.5708726644515991e+00 0.0000000000000000e+00
-4.7960281372070312e-02 2.0773346722126007e+01 3.0412774085998535e+00
ITEM: ATOMS id type xs ys zs fx fy fz
1 1 0.999986 0.6318 0.0625739 0 0 0.000556946
2 1 0.499986 0.6318 0.0625739 0 0 0.000556946
3 1 0.249986 0.1318 0.0625739 0 0 0.00056076
4 1 0.749986 0.1318 0.0625739 0 0 0.00056076
5 1 0.999986 0.495442 0.310932 0 0 -0.00310707
6 1 0.249986 0.398064 0.186583 0 0 0.00689125
7 1 0.749986 0.398064 0.186583 0 0 0.00689125
8 1 0.499986 0.495442 0.310932 0 0 -0.00310707
9 1 0.999986 0.898062 0.186583 0 0 0.00688362
10 1 0.249986 0.995443 0.310932 0 0 -0.00309372
11 1 0.499986 0.898062 0.186583 0 0 0.00688362
12 1 0.749986 0.995443 0.310932 0 0 -0.00309372
13 1 0.999986 0.359011 0.559375 0 0 -0.00100136
14 1 0.499986 0.359011 0.559375 0 0 -0.00100136
15 1 0.249986 0.85901 0.559375 0 0 -0.00100517
16 1 0.749986 0.85901 0.559375 0 0 -0.00100517
17 1 0.249986 0.261591 0.435127 0 0 0.0010128
18 1 0.749986 0.261591 0.435127 0 0 0.0010128
19 1 0.999986 0.76159 0.435127 0 0 0.000991821
20 1 0.499986 0.76159 0.435127 0 0 0.000991821
21 1 0.999986 0.22253 0.807919 0 0 -0.00688171
22 1 0.249986 0.125155 0.68357 0 0 0.00309753
23 1 0.499986 0.22253 0.807919 0 0 -0.00688171
24 1 0.749986 0.125155 0.68357 0 0 0.00309753
25 1 0.999986 0.625155 0.68357 0 0 0.00309753
26 1 0.249986 0.72253 0.807919 0 0 -0.00688553
27 1 0.749986 0.72253 0.807919 0 0 -0.00688553
28 1 0.499986 0.625155 0.68357 0 0 0.00309753
29 1 0.249986 0.988789 0.931927 0 0 -0.000555038
30 1 0.749986 0.988789 0.931927 0 0 -0.000555038
31 1 0.999986 0.48879 0.931927 0 0 -0.000562668
32 1 0.499986 0.48879 0.931927 0 0 -0.000562668
ITEM: TIMESTEP
5
ITEM: NUMBER OF ATOMS
32
ITEM: BOX BOUNDS xy xz yz pp pp pp
-4.0532350540161133e-03 6.4008854031562805e+00 0.0000000000000000e+00
-9.1640949249267578e-03 8.5708726644515991e+00 0.0000000000000000e+00
-4.7960281372070312e-02 2.0773346722126007e+01 3.0412774085998535e+00
ITEM: ATOMS id type xs ys zs fx fy fz
1 1 0.999986 0.631785 0.0626019 0 0 0.00100708
2 1 0.499986 0.631785 0.0626019 0 0 0.00100708
3 1 0.249986 0.131785 0.062602 0 0 0.00100136
4 1 0.749986 0.131785 0.062602 0 0 0.00100136
5 1 0.999986 0.495454 0.310911 0 0 0.00182343
6 1 0.249986 0.398002 0.186696 0 0 0.00105858
7 1 0.749986 0.398002 0.186696 0 0 0.00105858
8 1 0.499986 0.495454 0.310911 0 0 0.00182343
9 1 0.999986 0.898 0.186696 0 0 0.00106812
10 1 0.249986 0.995454 0.310911 0 0 0.00180244
11 1 0.499986 0.898 0.186696 0 0 0.00106812
12 1 0.749986 0.995454 0.310911 0 0 0.00180244
13 1 0.999986 0.359035 0.559332 0 0 0.00260353
14 1 0.499986 0.359035 0.559332 0 0 0.00260353
15 1 0.249986 0.859033 0.559332 0 0 0.00260925
16 1 0.749986 0.859033 0.559332 0 0 0.00260925
17 1 0.249986 0.261568 0.435169 0 0 -0.00260925
18 1 0.749986 0.261568 0.435169 0 0 -0.00260925
19 1 0.999986 0.761567 0.435169 0 0 -0.00260544
20 1 0.499986 0.761567 0.435169 0 0 -0.00260544
21 1 0.999986 0.222592 0.807806 0 0 -0.00106049
22 1 0.249986 0.125143 0.68359 0 0 -0.0018158
23 1 0.499986 0.222592 0.807806 0 0 -0.00106049
24 1 0.749986 0.125143 0.68359 0 0 -0.0018158
25 1 0.999986 0.625143 0.68359 0 0 -0.00180626
26 1 0.249986 0.722592 0.807806 0 0 -0.00107384
27 1 0.749986 0.722592 0.807806 0 0 -0.00107384
28 1 0.499986 0.625143 0.68359 0 0 -0.00180626
29 1 0.249986 0.988804 0.931899 0 0 -0.000999451
30 1 0.749986 0.988804 0.931899 0 0 -0.000999451
31 1 0.999986 0.488805 0.931899 0 0 -0.00100327
32 1 0.499986 0.488805 0.931899 0 0 -0.00100327
ITEM: TIMESTEP
6
ITEM: NUMBER OF ATOMS
32
ITEM: BOX BOUNDS xy xz yz pp pp pp
-4.0532350540161133e-03 6.4008854031562805e+00 0.0000000000000000e+00
-9.1640949249267578e-03 8.5708726644515991e+00 0.0000000000000000e+00
-4.7960281372070312e-02 2.0773346722126007e+01 3.0412774085998535e+00
ITEM: ATOMS id type xs ys zs fx fy fz
1 1 0.999986 0.631772 0.0626246 0 0 0.000148773
2 1 0.499986 0.631772 0.0626246 0 0 0.000148773
3 1 0.249986 0.131773 0.0626246 0 0 0.000150681
4 1 0.749986 0.131773 0.0626246 0 0 0.000150681
5 1 0.999986 0.49544 0.310936 0 0 0.000843048
6 1 0.249986 0.397978 0.186739 0 0 -0.000116348
7 1 0.749986 0.397978 0.186739 0 0 -0.000116348
8 1 0.499986 0.49544 0.310936 0 0 0.000843048
9 1 0.999986 0.897976 0.186739 0 0 -0.000120163
10 1 0.249986 0.995441 0.310936 0 0 0.000850677
11 1 0.499986 0.897976 0.186739 0 0 -0.000120163
12 1 0.749986 0.995441 0.310936 0 0 0.000850677
13 1 0.999986 0.359017 0.559365 0 0 -0.000595093
14 1 0.499986 0.359017 0.559365 0 0 -0.000595093
15 1 0.249986 0.859015 0.559365 0 0 -0.000585556
16 1 0.749986 0.859015 0.559365 0 0 -0.000585556
17 1 0.249986 0.261585 0.435137 0 0 0.000581741
18 1 0.749986 0.261585 0.435137 0 0 0.000581741
19 1 0.999986 0.761585 0.435137 0 0 0.000593185
20 1 0.499986 0.761585 0.435137 0 0 0.000593185
21 1 0.999986 0.222615 0.807763 0 0 0.000114441
22 1 0.249986 0.125157 0.683566 0 0 -0.000843048
23 1 0.499986 0.222615 0.807763 0 0 0.000114441
24 1 0.749986 0.125157 0.683566 0 0 -0.000843048
25 1 0.999986 0.625157 0.683566 0 0 -0.000854492
26 1 0.249986 0.722615 0.807763 0 0 0.00012207
27 1 0.749986 0.722615 0.807763 0 0 0.00012207
28 1 0.499986 0.625157 0.683566 0 0 -0.000854492
29 1 0.249986 0.988817 0.931877 0 0 -0.000144958
30 1 0.749986 0.988817 0.931877 0 0 -0.000144958
31 1 0.999986 0.488818 0.931877 0 0 -0.000144958
32 1 0.499986 0.488818 0.931877 0 0 -0.000144958
ITEM: TIMESTEP
7
ITEM: NUMBER OF ATOMS
32
ITEM: BOX BOUNDS xy xz yz pp pp pp
-4.0532350540161133e-03 6.4008854031562805e+00 0.0000000000000000e+00
-9.1640949249267578e-03 8.5708726644515991e+00 0.0000000000000000e+00
-4.7960281372070312e-02 2.0773346722126007e+01 3.0412774085998535e+00
ITEM: ATOMS id type xs ys zs fx fy fz
1 1 0.999986 0.631769 0.0626313 0 0 -0.000333786
2 1 0.499986 0.631769 0.0626313 0 0 -0.000333786
3 1 0.249986 0.131769 0.0626314 0 0 -0.000341415
4 1 0.749986 0.131769 0.0626314 0 0 -0.000341415
5 1 0.999986 0.495427 0.31096 0 0 -0.000120163
6 1 0.249986 0.397977 0.186741 0 0 0.000516891
7 1 0.749986 0.397977 0.186741 0 0 0.000516891
8 1 0.499986 0.495427 0.31096 0 0 -0.000120163
9 1 0.999986 0.897975 0.186741 0 0 0.000522614
10 1 0.249986 0.995427 0.31096 0 0 -0.000120163
11 1 0.499986 0.897975 0.186741 0 0 0.000522614
12 1 0.749986 0.995427 0.31096 0 0 -0.000120163
13 1 0.999986 0.359023 0.559354 0 0 -0.000360489
14 1 0.499986 0.359023 0.559354 0 0 -0.000360489
15 1 0.249986 0.859021 0.559355 0 0 -0.000362396
16 1 0.749986 0.859021 0.559355 0 0 -0.000362396
17 1 0.249986 0.26158 0.435147 0 0 0.000360489
18 1 0.749986 0.26158 0.435147 0 0 0.000360489
19 1 0.999986 0.761579 0.435147 0 0 0.000362396
20 1 0.499986 0.761579 0.435147 0 0 0.000362396
21 1 0.999986 0.222617 0.80776 0 0 -0.000513077
22 1 0.249986 0.12517 0.683541 0 0 0.000118256
23 1 0.499986 0.222617 0.80776 0 0 -0.000513077
24 1 0.749986 0.12517 0.683541 0 0 0.000118256
25 1 0.999986 0.62517 0.683541 0 0 0.000123978
26 1 0.249986 0.722617 0.80776 0 0 -0.000520706
27 1 0.749986 0.722617 0.80776 0 0 -0.000520706
28 1 0.499986 0.62517 0.683541 0 0 0.000123978
29 1 0.249986 0.98882 0.93187 0 0 0.000329971
30 1 0.749986 0.98882 0.93187 0 0 0.000329971
31 1 0.999986 0.488821 0.93187 0 0 0.000337601
32 1 0.499986 0.488821 0.93187 0 0 0.000337601
ITEM: TIMESTEP
8
ITEM: NUMBER OF ATOMS
32
ITEM: BOX BOUNDS xy xz yz pp pp pp
-4.0532350540161133e-03 6.4008854031562805e+00 0.0000000000000000e+00
-9.1640949249267578e-03 8.5708726644515991e+00 0.0000000000000000e+00
-4.7960281372070312e-02 2.0773346722126007e+01 3.0412774085998535e+00
ITEM: ATOMS id type xs ys zs fx fy fz
1 1 0.999986 0.63177 0.0626286 0 0 0.000125885
2 1 0.499986 0.63177 0.0626286 0 0 0.000125885
3 1 0.249986 0.13177 0.0626286 0 0 0.0001297
4 1 0.749986 0.13177 0.0626286 0 0 0.0001297
5 1 0.999986 0.495424 0.310965 0 0 1.90735e-06
6 1 0.249986 0.397972 0.186749 0 0 0.000152588
7 1 0.749986 0.397972 0.186749 0 0 0.000152588
8 1 0.499986 0.495424 0.310965 0 0 1.90735e-06
9 1 0.999986 0.897971 0.186749 0 0 0.000154495
10 1 0.249986 0.995425 0.310965 0 0 3.8147e-06
11 1 0.499986 0.897971 0.186749 0 0 0.000154495
12 1 0.749986 0.995425 0.310965 0 0 3.8147e-06
13 1 0.999986 0.359027 0.559347 0 0 0.000112534
14 1 0.499986 0.359027 0.559347 0 0 0.000112534
15 1 0.249986 0.859025 0.559347 0 0 8.96454e-05
16 1 0.749986 0.859025 0.559347 0 0 8.96454e-05
17 1 0.249986 0.261576 0.435154 0 0 -0.000101089
18 1 0.749986 0.261576 0.435154 0 0 -0.000101089
19 1 0.999986 0.761575 0.435154 0 0 -0.000101089
20 1 0.499986 0.761575 0.435154 0 0 -0.000101089
21 1 0.999986 0.222621 0.807752 0 0 -0.000143051
22 1 0.249986 0.125173 0.683537 0 0 -1.71661e-05
23 1 0.499986 0.222621 0.807752 0 0 -0.000143051
24 1 0.749986 0.125173 0.683537 0 0 -1.71661e-05
25 1 0.999986 0.625173 0.683537 0 0 -5.72205e-06
26 1 0.249986 0.722621 0.807752 0 0 -0.000144958
27 1 0.749986 0.722621 0.807752 0 0 -0.000144958
28 1 0.499986 0.625173 0.683537 0 0 -5.72205e-06
29 1 0.249986 0.988819 0.931873 0 0 -0.000131607
30 1 0.749986 0.988819 0.931873 0 0 -0.000131607
31 1 0.999986 0.48882 0.931873 0 0 -0.000125885
32 1 0.499986 0.48882 0.931873 0 0 -0.000125885
ITEM: TIMESTEP
9
ITEM: NUMBER OF ATOMS
32
ITEM: BOX BOUNDS xy xz yz pp pp pp
-4.0532350540161133e-03 6.4008854031562805e+00 0.0000000000000000e+00
-9.1640949249267578e-03 8.5708726644515991e+00 0.0000000000000000e+00
-4.7960281372070312e-02 2.0773346722126007e+01 3.0412774085998535e+00
ITEM: ATOMS id type xs ys zs fx fy fz
1 1 0.999986 0.631769 0.0626311 0 0 0
2 1 0.499986 0.631769 0.0626311 0 0 0
3 1 0.249986 0.131769 0.0626311 0 0 -1.90735e-06
4 1 0.749986 0.131769 0.0626311 0 0 -1.90735e-06
5 1 0.999986 0.495424 0.310966 0 0 5.14984e-05
6 1 0.249986 0.39797 0.186754 0 0 -1.90735e-05
7 1 0.749986 0.39797 0.186754 0 0 -1.90735e-05
8 1 0.499986 0.495424 0.310966 0 0 5.14984e-05
9 1 0.999986 0.897968 0.186754 0 0 -1.90735e-05
10 1 0.249986 0.995424 0.310966 0 0 4.57764e-05
11 1 0.499986 0.897968 0.186754 0 0 -1.90735e-05
12 1 0.749986 0.995424 0.310966 0 0 4.57764e-05
13 1 0.999986 0.359026 0.559348 0 0 -4.00543e-05
14 1 0.499986 0.359026 0.559348 0 0 -4.00543e-05
15 1 0.249986 0.859025 0.559348 0 0 -1.90735e-05
16 1 0.749986 0.859025 0.559348 0 0 -1.90735e-05
17 1 0.249986 0.261577 0.435153 0 0 2.86102e-05
18 1 0.749986 0.261577 0.435153 0 0 2.86102e-05
19 1 0.999986 0.761576 0.435153 0 0 2.67029e-05
20 1 0.499986 0.761576 0.435153 0 0 2.67029e-05
21 1 0.999986 0.222624 0.807748 0 0 3.8147e-06
22 1 0.249986 0.125173 0.683536 0 0 -3.05176e-05
23 1 0.499986 0.222624 0.807748 0 0 3.8147e-06
24 1 0.749986 0.125173 0.683536 0 0 -3.05176e-05
25 1 0.999986 0.625173 0.683536 0 0 -4.57764e-05
26 1 0.249986 0.722624 0.807747 0 0 1.14441e-05
27 1 0.749986 0.722624 0.807747 0 0 1.14441e-05
28 1 0.499986 0.625173 0.683536 0 0 -4.57764e-05
29 1 0.249986 0.98882 0.93187 0 0 1.14441e-05
30 1 0.749986 0.98882 0.93187 0 0 1.14441e-05
31 1 0.999986 0.488821 0.93187 0 0 -3.8147e-06
32 1 0.499986 0.488821 0.93187 0 0 -3.8147e-06
ITEM: TIMESTEP
10
ITEM: NUMBER OF ATOMS
32
ITEM: BOX BOUNDS xy xz yz pp pp pp
-4.0532350540161133e-03 6.4008854031562805e+00 0.0000000000000000e+00
-9.1640949249267578e-03 8.5708726644515991e+00 0.0000000000000000e+00
-4.7960281372070312e-02 2.0773346722126007e+01 3.0412774085998535e+00
ITEM: ATOMS id type xs ys zs fx fy fz
1 1 0.999986 0.631769 0.0626311 0 0 0
2 1 0.499986 0.631769 0.0626311 0 0 0
3 1 0.249986 0.131769 0.0626311 0 0 -1.90735e-06
4 1 0.749986 0.131769 0.0626311 0 0 -1.90735e-06
5 1 0.999986 0.495424 0.310966 0 0 5.14984e-05
6 1 0.249986 0.39797 0.186754 0 0 -1.90735e-05
7 1 0.749986 0.39797 0.186754 0 0 -1.90735e-05
8 1 0.499986 0.495424 0.310966 0 0 5.14984e-05
9 1 0.999986 0.897968 0.186754 0 0 -1.90735e-05
10 1 0.249986 0.995424 0.310966 0 0 4.57764e-05
11 1 0.499986 0.897968 0.186754 0 0 -1.90735e-05
12 1 0.749986 0.995424 0.310966 0 0 4.57764e-05
13 1 0.999986 0.359026 0.559348 0 0 -4.00543e-05
14 1 0.499986 0.359026 0.559348 0 0 -4.00543e-05
15 1 0.249986 0.859025 0.559348 0 0 -1.90735e-05
16 1 0.749986 0.859025 0.559348 0 0 -1.90735e-05
17 1 0.249986 0.261577 0.435153 0 0 2.86102e-05
18 1 0.749986 0.261577 0.435153 0 0 2.86102e-05
19 1 0.999986 0.761576 0.435153 0 0 2.67029e-05
20 1 0.499986 0.761576 0.435153 0 0 2.67029e-05
21 1 0.999986 0.222624 0.807748 0 0 3.8147e-06
22 1 0.249986 0.125173 0.683536 0 0 -3.05176e-05
23 1 0.499986 0.222624 0.807748 0 0 3.8147e-06
24 1 0.749986 0.125173 0.683536 0 0 -3.05176e-05
25 1 0.999986 0.625173 0.683536 0 0 -4.57764e-05
26 1 0.249986 0.722624 0.807747 0 0 1.14441e-05
27 1 0.749986 0.722624 0.807747 0 0 1.14441e-05
28 1 0.499986 0.625173 0.683536 0 0 -4.57764e-05
29 1 0.249986 0.98882 0.93187 0 0 1.14441e-05
30 1 0.749986 0.98882 0.93187 0 0 1.14441e-05
31 1 0.999986 0.488821 0.93187 0 0 -3.8147e-06
32 1 0.499986 0.488821 0.93187 0 0 -3.8147e-06
