ITEM: TIMESTEP
0
ITEM: NUMBER OF ATOMS
56
ITEM: BOX BOUNDS xy xz yz pp pp pp
-5.6154391765594482e+00 1.2156271994113922e+01 8.9406967163085938e-07
-8.2894563674926758e-03 5.5346975326538086e+00 -5.6442679166793823e+00
-4.5665502548217773e-03 1.9024526596069336e+01 -5.9604644775390625e-08
ITEM: ATOMS id type xs ys zs fx fy fz
4 1 0.0687218 0.166667 0.275226 0 0.00234413 -7.82013e-05
5 1 0.0241865 1 0.418084 0 -0.000394821 -0.000207901
6 1 0.113229 0.999993 0.132369 0 -0.0785141 0.180885
7 1 0.0104688 0.500035 0.0609392 0 0.483694 0.515614
15 1 0.185109 0.166667 0.703795 0 0.00224304 0.00138474
16 1 0.140588 0.999999 0.846658 0 -0.00789452 0.00353813
22 1 0.274187 0.166667 0.418084 0 0.000396729 -0.000209808
23 1 0.17146 0.666667 0.346658 0 0.00224304 -0.0013752
24 1 0.229653 3.50169e-07 0.560938 0 -0.000379562 0.000238419
25 1 0.126917 0.5 0.489515 0 -0.000389099 -0.000240326
29 1 0.26047 0.666632 0.0609392 0 -0.483738 0.515654
30 1 0.215982 0.499999 0.203795 0 -0.00789642 -0.00354385
43 1 0.287848 0.666667 0.775226 0 0.00233459 8.2016e-05
45 1 0.243341 0.499993 0.918084 0 -0.0785179 -0.18092
50 1 0.0823827 0.666667 0.632369 0 0.000392914 0.000204086
51 1 0.0378473 0.5 0.775226 0 -0.00234222 7.43866e-05
52 1 0.0961026 0.166632 0.989514 0 -0.483688 -0.515593
1 1 0.61323 0.999993 0.132369 0 -0.0785122 0.180908
2 1 0.36323 0.166674 0.132369 0 0.0785236 0.180914
3 1 0.318723 1 0.275226 0 -0.00233269 -7.62939e-05
8 1 0.863229 0.166674 0.132369 0 0.0785141 0.180885
9 1 0.760468 0.666632 0.0609392 0 -0.483694 0.515594
10 1 0.818721 1 0.275226 0 -0.00233841 -7.82013e-05
11 1 0.774188 0.166667 0.418084 0 0.000406265 -0.000202179
12 1 0.729654 3.67832e-07 0.560938 0 -0.000385284 0.000240326
13 1 0.479654 0.166667 0.560938 0 0.000391006 0.000236511
14 1 0.43511 1 0.703795 0 -0.00224304 0.00139046
17 1 0.715983 0.499999 0.203795 0 -0.00789642 -0.00354195
18 1 0.568723 0.166667 0.275226 0 0.00234222 -7.62939e-05
19 1 0.465983 0.666668 0.203795 0 0.0078907 -0.00354195
20 1 0.524188 1 0.418084 0 -0.000394821 -0.000209808
21 1 0.421461 0.5 0.346658 0 -0.00225258 -0.00139046
26 1 0.979652 0.166667 0.560938 0 0.000392914 0.000238419
27 1 0.876916 0.666667 0.489515 0 0.000389099 -0.000246048
28 1 0.51047 0.500035 0.0609392 0 0.483719 0.515656
31 1 0.965981 0.666668 0.203795 0 0.00788879 -0.00354767
32 1 0.92146 0.5 0.346658 0 -0.00225067 -0.00138092
33 1 0.89059 0.166668 0.846658 0 0.00788307 0.00355148
34 1 0.846102 3.5121e-05 0.989514 0 0.483698 -0.515615
35 1 0.596101 0.166632 0.989514 0 -0.48373 -0.515657
36 1 0.935111 1 0.703795 0 -0.00224686 0.00138664
37 1 0.832384 0.5 0.632369 0 -0.00041008 0.000211716
38 1 0.685111 0.166667 0.703795 0 0.00225067 0.00138283
39 1 0.582384 0.666668 0.632369 0 0.000394821 0.000204086
40 1 0.640589 0.999999 0.846658 0 -0.0078907 0.00354576
41 1 0.537849 0.5 0.775226 0 -0.00234222 8.2016e-05
42 1 0.390588 0.166668 0.846658 0 0.00790405 0.00354195
44 1 0.346101 3.50854e-05 0.989514 0 0.483734 -0.515656
46 1 0.671461 0.666667 0.346658 0 0.00223541 -0.00137711
47 1 0.626918 0.5 0.489515 0 -0.000392914 -0.000242233
48 1 0.376918 0.666667 0.489515 0 0.000391006 -0.000238419
49 1 0.332383 0.5 0.632369 0 -0.000394821 0.000211716
53 1 0.993342 0.666674 0.918084 0 0.078516 -0.180882
54 1 0.787849 0.666667 0.775226 0 0.00234413 8.01086e-05
55 1 0.743342 0.499993 0.918084 0 -0.078516 -0.180889
56 1 0.493341 0.666674 0.918084 0 0.0785217 -0.18092
ITEM: TIMESTEP
1
ITEM: NUMBER OF ATOMS
56
ITEM: BOX BOUNDS xy xz yz pp pp pp
-5.6154391765594482e+00 1.2156271994113922e+01 8.9406967163085938e-07
-8.2894563674926758e-03 5.5346975326538086e+00 -5.6442679166793823e+00
-4.5665502548217773e-03 1.9024526596069336e+01 -5.9604644775390625e-08
ITEM: ATOMS id type xs ys zs fx fy fz
4 1 0.0687214 0.166743 0.275226 0 0.00939369 0.0340824
5 1 0.0241856 0.999987 0.418082 0 -0.000488281 0.000465393
6 1 0.114024 0.997447 0.134077 0 0.0883236 0.0278053
7 1 0.012735 0.515717 0.0658085 0 0.0320168 -0.0354176
15 1 0.185116 0.16674 0.703808 0 0.00215721 6.48499e-05
16 1 0.140603 0.999743 0.846691 0 -0.0351353 -0.135511
22 1 0.274186 0.16668 0.418082 0 0.000480652 0.000465393
23 1 0.171454 0.66674 0.346645 0 0.00214767 -6.86646e-05
24 1 0.229654 -1.19553e-05 0.560941 0 -0.000167847 0.000667572
25 1 0.126916 0.499988 0.489512 0 -0.000160217 -0.00066185
29 1 0.262736 0.650949 0.0658088 0 -0.0320015 -0.0354309
30 1 0.215966 0.499743 0.203762 0 -0.0351429 0.135506
43 1 0.287848 0.666743 0.775227 0 0.00939178 -0.0341015
45 1 0.242545 0.497447 0.916376 0 0.088335 -0.0278072
50 1 0.0823836 0.66668 0.632371 0 0.000480652 -0.000476837
51 1 0.0378476 0.499924 0.775227 0 -0.00939178 -0.03409
52 1 0.0938364 0.150951 0.984645 0 -0.0320206 0.0354233
1 1 0.614025 0.997447 0.134077 0 0.088335 0.0277996
2 1 0.364025 0.16922 0.134077 0 -0.0883389 0.0278015
3 1 0.318722 0.999924 0.275226 0 -0.00939178 0.0340919
8 1 0.864024 0.16922 0.134077 0 -0.0883236 0.0277977
9 1 0.762735 0.650951 0.0658083 0 -0.0320206 -0.0354404
10 1 0.818721 0.999924 0.275226 0 -0.00939751 0.0340824
11 1 0.774187 0.166681 0.418082 0 0.000480652 0.000469208
12 1 0.729655 -1.21231e-05 0.560941 0 -0.000160217 0.000667572
13 1 0.479655 0.166679 0.560941 0 0.000164032 0.000663757
14 1 0.435116 0.999927 0.703808 0 -0.00214386 5.91278e-05
17 1 0.715968 0.499743 0.203762 0 -0.0351315 0.135515
18 1 0.568723 0.166743 0.275226 0 0.00939751 0.0340881
19 1 0.465967 0.666924 0.203762 0 0.0351353 0.135521
20 1 0.524187 0.999987 0.418082 0 -0.000484467 0.00047493
21 1 0.421455 0.499927 0.346645 0 -0.00214386 -6.67572e-05
26 1 0.979653 0.166679 0.560941 0 0.000160217 0.000663757
27 1 0.876915 0.666679 0.489512 0 0.000160217 -0.000671387
28 1 0.512736 0.515717 0.0658088 0 0.0320148 -0.0354252
31 1 0.965966 0.666924 0.203762 0 0.035141 0.135502
32 1 0.921454 0.499927 0.346645 0 -0.00215149 -5.72205e-05
33 1 0.890605 0.166923 0.846691 0 0.0351429 -0.135496
34 1 0.843836 0.0157167 0.984644 0 0.0320263 0.0354271
35 1 0.593835 0.150949 0.984644 0 -0.0320034 0.0354271
36 1 0.935117 0.999927 0.703808 0 -0.00214386 6.86646e-05
37 1 0.832385 0.499986 0.632371 0 -0.000482559 -0.000459671
38 1 0.685117 0.16674 0.703808 0 0.00214577 6.29425e-05
39 1 0.582385 0.66668 0.632371 0 0.000476837 -0.000463486
40 1 0.640605 0.999743 0.846691 0 -0.0351372 -0.135509
41 1 0.537849 0.499924 0.775227 0 -0.00939178 -0.03409
42 1 0.390604 0.166924 0.846691 0 0.0351353 -0.135519
44 1 0.343834 0.0157178 0.984644 0 0.032011 0.035429
46 1 0.671455 0.66674 0.346645 0 0.0021534 -7.24792e-05
47 1 0.626917 0.499988 0.489512 0 -0.000167847 -0.000656128
48 1 0.376916 0.666679 0.489512 0 0.000164032 -0.000658035
49 1 0.332384 0.499987 0.632371 0 -0.000482559 -0.00047493
53 1 0.992547 0.66922 0.916376 0 -0.0883274 -0.0277882
54 1 0.787849 0.666743 0.775227 0 0.00938606 -0.0340805
55 1 0.742547 0.497447 0.916376 0 0.0883141 -0.0277977
56 1 0.492546 0.66922 0.916376 0 -0.0883389 -0.0277996
ITEM: TIMESTEP
2
ITEM: NUMBER OF ATOMS
56
ITEM: BOX BOUNDS xy xz yz pp pp pp
-5.6154391765594482e+00 1.2156271994113922e+01 8.9406967163085938e-07
-8.2894563674926758e-03 5.5346975326538086e+00 -5.6442679166793823e+00
-4.5665502548217773e-03 1.9024526596069336e+01 -5.9604644775390625e-08
ITEM: ATOMS id type xs ys zs fx fy fz
4 1 0.06904 0.167402 0.27591 0 0.00704002 0.0385818
5 1 0.0241898 0.999951 0.418091 0 -0.00362396 0.0144253
6 1 0.114399 1.00317 0.134882 0 0.00145721 0.02108
7 1 0.0127311 0.520189 0.0658001 0 0.0061245 0.00946045
15 1 0.185117 0.166899 0.703811 0 0.00991631 -0.0588436
16 1 0.139339 0.997283 0.843974 0 0.0249825 0.0196114
22 1 0.27419 0.166715 0.418091 0 0.00362968 0.0144329
23 1 0.171453 0.666899 0.346642 0 0.00992584 0.0588303
24 1 0.22966 -2.53071e-05 0.560954 0 -0.000282288 -0.000202179
25 1 0.126909 0.499975 0.489499 0 -0.000293732 0.000183105
29 1 0.262732 0.646478 0.0658002 0 -0.00613785 0.00946236
30 1 0.217231 0.497283 0.206479 0 0.0249958 -0.0196056
43 1 0.287529 0.667402 0.774542 0 0.00705338 -0.0386009
45 1 0.242171 0.503172 0.91557 0 0.00143814 -0.0210609
50 1 0.0823792 0.666715 0.632361 0 0.00363159 -0.0144215
51 1 0.037529 0.499265 0.774542 0 -0.00704193 -0.0385818
52 1 0.0938404 0.146478 0.984653 0 -0.00612068 -0.00946236
1 1 0.6144 1.00317 0.134882 0 0.00144005 0.0210629
2 1 0.3644 0.163495 0.134882 0 -0.00144577 0.0210705
3 1 0.319041 0.999266 0.27591 0 -0.00705147 0.0385895
8 1 0.864398 0.163496 0.134882 0 -0.00144386 0.0210705
9 1 0.76273 0.646478 0.0657994 0 -0.00613022 0.00948906
10 1 0.81904 0.999265 0.27591 0 -0.00703812 0.0385914
11 1 0.774192 0.166716 0.418091 0 0.00362206 0.0144291
12 1 0.729662 -2.49756e-05 0.560954 0 -0.000293732 -0.000190735
13 1 0.479661 0.166692 0.560954 0 0.000276566 -0.000188828
14 1 0.435117 0.999769 0.703811 0 -0.00992966 -0.0588322
17 1 0.717232 0.497284 0.206479 0 0.0249748 -0.0196247
18 1 0.569041 0.167402 0.27591 0 0.00704002 0.0386066
19 1 0.467232 0.669384 0.206479 0 -0.0249805 -0.0196266
20 1 0.524191 0.999951 0.418091 0 -0.00361824 0.0144157
21 1 0.421453 0.499769 0.346642 0 -0.00992203 0.0588474
26 1 0.97966 0.166692 0.560954 0 0.00028038 -0.000196457
27 1 0.876909 0.666692 0.489498 0 0.00028038 0.000209808
28 1 0.512733 0.52019 0.0658003 0 0.0061245 0.00946426
31 1 0.96723 0.669384 0.206479 0 -0.0249748 -0.0196056
32 1 0.921452 0.499768 0.346642 0 -0.00991631 0.0588207
33 1 0.889341 0.169384 0.843974 0 -0.0249844 0.019598
34 1 0.84384 0.0201895 0.984653 0 0.00611496 -0.00946236
35 1 0.593839 0.146478 0.984652 0 -0.00613403 -0.00945854
36 1 0.935119 0.999769 0.703811 0 -0.00992584 -0.0588245
37 1 0.832381 0.499951 0.632362 0 -0.0036087 -0.0144291
38 1 0.685118 0.166899 0.703811 0 0.00991631 -0.0588264
39 1 0.582381 0.666715 0.632361 0 0.00363159 -0.0144176
40 1 0.63934 0.997283 0.843974 0 0.0249691 0.0196095
41 1 0.53753 0.499265 0.774542 0 -0.00704575 -0.0385933
42 1 0.389339 0.169384 0.843974 0 -0.0249863 0.0196152
44 1 0.343838 0.0201898 0.984653 0 0.00612831 -0.0094738
46 1 0.671454 0.666899 0.346642 0 0.00991821 0.0588398
47 1 0.626911 0.499974 0.489499 0 -0.000276566 0.000190735
48 1 0.37691 0.666693 0.489499 0 0.000278473 0.000185013
49 1 0.33238 0.499952 0.632361 0 -0.00362015 -0.0144291
53 1 0.992173 0.663496 0.915571 0 -0.0014534 -0.02108
54 1 0.787531 0.667402 0.774543 0 0.00705528 -0.0385838
55 1 0.742172 0.50317 0.915571 0 0.00147247 -0.0210857
56 1 0.492171 0.663496 0.915571 0 -0.00143814 -0.0210648
ITEM: TIMESTEP
3
ITEM: NUMBER OF ATOMS
56
ITEM: BOX BOUNDS xy xz yz pp pp pp
-5.6154391765594482e+00 1.2156271994113922e+01 8.9406967163085938e-07
-8.2894563674926758e-03 5.5346975326538086e+00 -5.6442679166793823e+00
-4.5665502548217773e-03 1.9024526596069336e+01 -5.9604644775390625e-08
ITEM: ATOMS id type xs ys zs fx fy fz
4 1 0.0696239 0.168268 0.277165 0 -0.0033741 0.00550461
5 1 0.024368 0.999611 0.418474 0 -0.00224495 0.0284653
6 1 0.114788 1.0053 0.135718 0 -0.0104294 0.00559807
7 1 0.0128456 0.522304 0.0660461 0 -0.0118256 -0.0178185
15 1 0.184397 0.167851 0.702264 0 -0.00108528 0.00740433
16 1 0.139137 0.998681 0.843541 0 0.0115547 -0.0076313
22 1 0.274368 0.167055 0.418474 0 0.00224686 0.02845
23 1 0.172173 0.667851 0.348189 0 -0.00110054 -0.0073967
24 1 0.22966 -5.54748e-05 0.560954 0 -0.00757027 -0.0256805
25 1 0.126909 0.499944 0.489499 0 -0.00756645 0.0256863
29 1 0.262847 0.644361 0.0660462 0 0.0118427 -0.0178356
30 1 0.217433 0.498682 0.206912 0 0.0115452 0.00763512
43 1 0.286945 0.668269 0.773287 0 -0.00340462 -0.0054512
45 1 0.241782 0.505301 0.914735 0 -0.0104084 -0.00562859
50 1 0.0822011 0.667056 0.631978 0 0.00223351 -0.0284672
51 1 0.0369451 0.498399 0.773288 0 0.00338745 -0.00549316
52 1 0.0937259 0.144363 0.984407 0 0.0118256 0.017828
1 1 0.614789 1.0053 0.135718 0 -0.0104122 0.00562668
2 1 0.364789 0.161365 0.135718 0 0.0104141 0.00561333
3 1 0.319625 0.998398 0.277165 0 0.00340462 0.00547981
8 1 0.864787 0.161366 0.135718 0 0.0104103 0.00561523
9 1 0.762845 0.644362 0.0660461 0 0.0118465 -0.0178471
10 1 0.819624 0.998399 0.277165 0 0.00339317 0.00548744
11 1 0.77437 0.167055 0.418474 0 0.00224113 0.0284691
12 1 0.729661 -5.60028e-05 0.560954 0 -0.00755501 -0.0256805
13 1 0.479661 0.166722 0.560954 0 0.00756645 -0.0256729
14 1 0.434397 0.998816 0.702264 0 0.00111008 0.00740242
17 1 0.717434 0.498681 0.206912 0 0.0115643 0.00765419
18 1 0.569626 0.168268 0.277166 0 -0.00338364 0.0054493
19 1 0.467433 0.667986 0.206912 0 -0.0115681 0.007658
20 1 0.524369 0.999612 0.418474 0 -0.00224304 0.0284843
21 1 0.422174 0.498817 0.348189 0 0.00110245 -0.00741386
26 1 0.97966 0.166722 0.560954 0 0.00757408 -0.0256786
27 1 0.876909 0.666722 0.489499 0 0.00756836 0.0256767
28 1 0.512847 0.522305 0.0660464 0 -0.0118351 -0.0178452
31 1 0.967432 0.667987 0.206912 0 -0.0115757 0.00764656
32 1 0.922172 0.498817 0.348189 0 0.00109863 -0.00741005
33 1 0.889139 0.167986 0.843541 0 -0.0115662 -0.00763321
34 1 0.843725 0.0223045 0.984407 0 -0.0118294 0.0178204
35 1 0.593724 0.144362 0.984407 0 0.0118408 0.0178165
36 1 0.934399 0.998817 0.702264 0 0.00110817 0.0073967
37 1 0.832203 0.499613 0.631979 0 -0.00226212 -0.0284595
38 1 0.684398 0.16785 0.702264 0 -0.00108719 0.00740242
39 1 0.582203 0.667055 0.631979 0 0.00223732 -0.028471
40 1 0.639138 0.99868 0.843541 0 0.0115814 -0.00764465
41 1 0.536946 0.498399 0.773288 0 0.00338554 -0.00547409
42 1 0.389137 0.167986 0.843541 0 -0.0115471 -0.00764465
44 1 0.343724 0.0223056 0.984406 0 -0.0118389 0.0178604
46 1 0.672174 0.66785 0.348189 0 -0.00109863 -0.00741386
47 1 0.626911 0.499945 0.489499 0 -0.0075798 0.0256863
48 1 0.37691 0.666722 0.489499 0 0.00756836 0.0256786
49 1 0.332201 0.499613 0.631978 0 -0.00225067 -0.0284653
53 1 0.991784 0.661365 0.914735 0 0.0104351 -0.00560379
54 1 0.786947 0.668269 0.773288 0 -0.00340462 -0.00550842
55 1 0.741783 0.505302 0.914735 0 -0.0104427 -0.00559998
56 1 0.491782 0.661366 0.914735 0 0.0104027 -0.00562668
ITEM: TIMESTEP
4
ITEM: NUMBER OF ATOMS
56
ITEM: BOX BOUNDS xy xz yz pp pp pp
-5.6154391765594482e+00 1.2156271994113922e+01 8.9406967163085938e-07
-8.2894563674926758e-03 5.5346975326538086e+00 -5.6442679166793823e+00
-4.5665502548217773e-03 1.9024526596069336e+01 -5.9604644775390625e-08
ITEM: ATOMS id type xs ys zs fx fy fz
4 1 0.0697862 0.168254 0.277513 0 -0.00791359 0.0041275
5 1 0.0246239 0.999414 0.419024 0 -0.00483894 1.14441e-05
6 1 0.114911 1.00515 0.135982 0 -0.00736809 0.00349426
7 1 0.0127318 0.522067 0.0658016 0 -0.000869751 -0.000854492
15 1 0.184306 0.167984 0.702069 0 -0.00224876 -0.00162315
16 1 0.139037 0.999625 0.843325 0 -0.00193405 0.00245476
22 1 0.274624 0.167253 0.419024 0 0.00483131 2.47955e-05
23 1 0.172263 0.667984 0.348384 0 -0.00223923 0.00163651
24 1 0.229462 -0.000491983 0.560528 0 -0.00307083 0.0045929
25 1 0.127107 0.499507 0.489924 0 -0.00306511 -0.00458527
29 1 0.262733 0.6446 0.0658014 0 0.000846863 -0.000839233
30 1 0.217533 0.499625 0.207128 0 -0.0019474 -0.0024662
43 1 0.286783 0.668254 0.772939 0 -0.00789452 -0.0041275
45 1 0.241659 0.505147 0.91447 0 -0.00737762 -0.00348854
50 1 0.0819451 0.667252 0.631429 0 0.00484657 -1.71661e-05
51 1 0.0367829 0.498414 0.772939 0 0.00789261 -0.00412178
52 1 0.0938398 0.144601 0.984652 0 0.00087738 0.000854492
1 1 0.614912 1.00515 0.135982 0 -0.0073719 0.00349236
2 1 0.364912 0.16152 0.135983 0 0.00737572 0.00349426
3 1 0.319787 0.998414 0.277514 0 0.00789642 0.00411224
8 1 0.86491 0.161521 0.135982 0 0.00736618 0.00349617
9 1 0.762731 0.644601 0.0658012 0 0.000865936 -0.000852585
10 1 0.819786 0.998414 0.277513 0 0.00790024 0.00411415
11 1 0.774626 0.167252 0.419024 0 0.00484276 1.14441e-05
12 1 0.729464 -0.00049182 0.560529 0 -0.00306892 0.00459862
13 1 0.479463 0.167158 0.560529 0 0.00308228 0.00458527
14 1 0.434307 0.998684 0.702069 0 0.00223732 -0.00162697
17 1 0.717534 0.499625 0.207128 0 -0.00194168 -0.00247002
18 1 0.569787 0.168254 0.277513 0 -0.00790787 0.00412941
19 1 0.467534 0.667042 0.207128 0 0.00195503 -0.00247002
20 1 0.524625 0.999415 0.419024 0 -0.00484085 9.53674e-06
21 1 0.422264 0.498684 0.348384 0 0.00223541 0.00163651
26 1 0.979462 0.167159 0.560529 0 0.00306702 0.00458908
27 1 0.877107 0.667158 0.489924 0 0.00307083 -0.00460434
28 1 0.512733 0.522067 0.0658015 0 -0.0008564 -0.000846863
31 1 0.967532 0.667042 0.207128 0 0.00195503 -0.00247192
32 1 0.922263 0.498684 0.348384 0 0.00222969 0.00165176
33 1 0.889039 0.167042 0.843325 0 0.00195122 0.00247002
34 1 0.843839 0.0220663 0.984651 0 -0.0008564 0.000852585
35 1 0.593838 0.1446 0.984651 0 0.000858307 0.000854492
36 1 0.934308 0.998684 0.702069 0 0.00222969 -0.0016346
37 1 0.831947 0.499415 0.631429 0 -0.00484276 -1.71661e-05
38 1 0.684308 0.167983 0.702069 0 -0.00224304 -0.00164795
39 1 0.581947 0.667252 0.631429 0 0.00484085 -2.47955e-05
40 1 0.639038 0.999625 0.843325 0 -0.0019455 0.00247192
41 1 0.536784 0.498413 0.772939 0 0.00790977 -0.0041256
42 1 0.389037 0.167043 0.843325 0 0.00193787 0.0024662
44 1 0.343838 0.0220671 0.984651 0 -0.000858307 0.000825882
46 1 0.672265 0.667983 0.348384 0 -0.00223541 0.00164413
47 1 0.627109 0.499508 0.489924 0 -0.00306702 -0.0045929
48 1 0.377108 0.667159 0.489924 0 0.00307655 -0.00458527
49 1 0.331946 0.499415 0.631428 0 -0.00484085 -1.14441e-05
53 1 0.991661 0.661521 0.914471 0 0.00736618 -0.00349236
54 1 0.786785 0.668254 0.772939 0 -0.00789833 -0.00411224
55 1 0.74166 0.505147 0.91447 0 -0.00737381 -0.00349426
56 1 0.491659 0.66152 0.91447 0 0.0073719 -0.00349808
ITEM: TIMESTEP
5
ITEM: NUMBER OF ATOMS
56
ITEM: BOX BOUNDS xy xz yz pp pp pp
-5.6154391765594482e+00 1.2156271994113922e+01 8.9406967163085938e-07
-8.2894563674926758e-03 5.5346975326538086e+00 -5.6442679166793823e+00
-4.5665502548217773e-03 1.9024526596069336e+01 -5.9604644775390625e-08
ITEM: ATOMS id type xs ys zs fx fy fz
4 1 0.069841 0.167692 0.277631 0 0.000930786 0.000518799
5 1 0.024648 0.999053 0.419076 0 0.000476837 0.00111198
6 1 0.114956 1.00461 0.136079 0 4.76837e-05 0.000190735
7 1 0.0127129 0.521983 0.065761 0 -0.000440598 -0.00135231
15 1 0.184282 0.167838 0.702017 0 -0.000873566 0.00253868
16 1 0.139051 0.999576 0.843356 0 -0.000642776 -0.00142288
22 1 0.274649 0.167614 0.419076 0 -0.000469208 0.00110245
23 1 0.172288 0.667838 0.348436 0 -0.00088501 -0.0025425
24 1 0.229488 -0.000750542 0.560583 0 -0.00178528 0.000125885
25 1 0.127082 0.499249 0.489869 0 -0.001791 -0.000114441
29 1 0.262714 0.644682 0.0657611 0 0.000450134 -0.00137329
30 1 0.217518 0.499576 0.207097 0 -0.000629425 0.00143814
43 1 0.286728 0.667693 0.772821 0 0.000919342 -0.000520706
45 1 0.241614 0.50461 0.914373 0 7.24792e-05 -0.00019455
50 1 0.0819209 0.667614 0.631377 0 -0.000484467 -0.00109482
51 1 0.036728 0.498974 0.772822 0 -0.000907898 -0.000513077
52 1 0.0938587 0.144685 0.984692 0 0.000434875 0.00135612
1 1 0.614957 1.00461 0.136079 0 5.34058e-05 0.00019455
2 1 0.364957 0.162057 0.13608 0 -6.29425e-05 0.000173569
3 1 0.319842 0.998975 0.277631 0 -0.000917435 0.000526428
8 1 0.864956 0.162057 0.136079 0 -4.3869e-05 0.000181198
9 1 0.762712 0.644685 0.0657606 0 0.000444412 -0.00136375
10 1 0.819841 0.998975 0.277631 0 -0.000923157 0.000526428
11 1 0.77465 0.167614 0.419076 0 -0.000476837 0.00110435
12 1 0.729489 -0.000750179 0.560584 0 -0.001791 0.000114441
13 1 0.479489 0.167418 0.560584 0 0.00178719 0.000114441
14 1 0.434282 0.99883 0.702017 0 0.000873566 0.00253105
17 1 0.71752 0.499576 0.207097 0 -0.000635147 0.00143433
18 1 0.569842 0.167692 0.277631 0 0.000928879 0.000509262
19 1 0.467519 0.667092 0.207097 0 0.00062561 0.00143814
20 1 0.524649 0.999054 0.419076 0 0.000471115 0.00110626
21 1 0.422289 0.49883 0.348436 0 0.00087738 -0.00255013
26 1 0.979487 0.167417 0.560583 0 0.00178909 0.000120163
27 1 0.877081 0.667417 0.489869 0 0.00178337 -0.000114441
28 1 0.512714 0.521984 0.065761 0 -0.00044632 -0.00135231
31 1 0.967518 0.667092 0.207097 0 0.000619888 0.00143433
32 1 0.922287 0.498829 0.348436 0 0.000888824 -0.00255394
33 1 0.889053 0.167091 0.843356 0 0.000629425 -0.00143623
34 1 0.843858 0.0219833 0.984692 0 -0.000450134 0.00136375
35 1 0.593857 0.144683 0.984692 0 0.000442505 0.00135231
36 1 0.934284 0.99883 0.702017 0 0.000881195 0.00253296
37 1 0.831923 0.499053 0.631377 0 0.000471115 -0.00111008
38 1 0.684283 0.167837 0.702017 0 -0.000873566 0.00256157
39 1 0.581922 0.667614 0.631377 0 -0.000471115 -0.00110054
40 1 0.639052 0.999576 0.843356 0 -0.000631332 -0.00143814
41 1 0.536729 0.498975 0.772822 0 -0.000919342 -0.000528336
42 1 0.389051 0.167091 0.843356 0 0.000629425 -0.0014286
44 1 0.343857 0.0219839 0.984691 0 -0.000455856 0.00137711
46 1 0.672289 0.667837 0.348436 0 -0.000881195 -0.0025425
47 1 0.627083 0.499249 0.489869 0 -0.00178146 -0.000131607
48 1 0.377083 0.667418 0.489869 0 0.00178146 -0.000118256
49 1 0.331921 0.499053 0.631377 0 0.00047493 -0.00110435
53 1 0.991616 0.662058 0.914374 0 -4.57764e-05 -0.00019455
54 1 0.78673 0.667692 0.772822 0 0.000923157 -0.000514984
55 1 0.741615 0.50461 0.914373 0 5.91278e-05 -0.00018692
56 1 0.491614 0.662057 0.914373 0 -5.14984e-05 -0.000181198
ITEM: TIMESTEP
6
ITEM: NUMBER OF ATOMS
56
ITEM: BOX BOUNDS xy xz yz pp pp pp
-5.6154391765594482e+00 1.2156271994113922e+01 8.9406967163085938e-07
-8.2894563674926758e-03 5.5346975326538086e+00 -5.6442679166793823e+00
-4.5665502548217773e-03 1.9024526596069336e+01 -5.9604644775390625e-08
ITEM: ATOMS id type xs ys zs fx fy fz
4 1 0.0698483 0.167699 0.277647 0 0.000509262 0.000131607
5 1 0.0246572 0.999051 0.419096 0 0.000200272 0.000164032
6 1 0.11496 1.00458 0.136089 0 0.000108719 0.000331879
7 1 0.0127025 0.521955 0.0657386 0 0.000459671 0.000516891
15 1 0.184297 0.167784 0.70205 0 6.29425e-05 5.91278e-05
16 1 0.139042 0.999541 0.843337 0 -0.00028801 0.000757217
22 1 0.274658 0.167616 0.419096 0 -0.000207901 0.000160217
23 1 0.172272 0.667783 0.348403 0 6.29425e-05 -5.72205e-05
24 1 0.22949 -0.000857358 0.560589 0 -0.000419617 0.000728607
25 1 0.127079 0.499142 0.489864 0 -0.000431061 -0.000753403
29 1 0.262703 0.64471 0.0657384 0 -0.000455856 0.000530243
30 1 0.217527 0.499541 0.207116 0 -0.000289917 -0.000762939
43 1 0.286721 0.667699 0.772806 0 0.000513077 -0.000141144
45 1 0.241609 0.504576 0.914364 0 9.15527e-05 -0.000328064
50 1 0.0819119 0.667615 0.631357 0 -0.000209808 -0.000167847
51 1 0.0367208 0.498968 0.772806 0 -0.000518799 -0.000137329
52 1 0.0938691 0.144713 0.984715 0 -0.000453949 -0.000520706
1 1 0.614962 1.00458 0.136089 0 0.000110626 0.000326157
2 1 0.364961 0.162091 0.136089 0 -0.000104904 0.000341415
3 1 0.319849 0.998968 0.277647 0 -0.000514984 0.000146866
8 1 0.86496 0.162092 0.136089 0 -0.000104904 0.000328064
9 1 0.762702 0.644712 0.065738 0 -0.000457764 0.000534058
10 1 0.819848 0.998968 0.277647 0 -0.000518799 0.000139236
11 1 0.774659 0.167615 0.419096 0 -0.00021553 0.000156403
12 1 0.729492 -0.000857266 0.560589 0 -0.000429153 0.000732422
13 1 0.479491 0.167524 0.560589 0 0.000436783 0.000741959
14 1 0.434298 0.998884 0.70205 0 -5.53131e-05 6.29425e-05
17 1 0.717528 0.499541 0.207115 0 -0.000295639 -0.000741959
18 1 0.56985 0.167699 0.277647 0 0.000516891 0.000148773
19 1 0.467528 0.667126 0.207116 0 0.000289917 -0.000764847
20 1 0.524659 0.999052 0.419096 0 0.000202179 0.000148773
21 1 0.422273 0.498884 0.348403 0 -6.10352e-05 -6.29425e-05
26 1 0.97949 0.167524 0.560589 0 0.000431061 0.000753403
27 1 0.877079 0.667524 0.489864 0 0.000432968 -0.000743866
28 1 0.512704 0.521956 0.0657386 0 0.00044632 0.000509262
31 1 0.967527 0.667127 0.207115 0 0.000291824 -0.000753403
32 1 0.922272 0.498884 0.348403 0 -5.34058e-05 -5.53131e-05
33 1 0.889044 0.167126 0.843338 0 0.000297546 0.000751495
34 1 0.843869 0.0219551 0.984715 0 0.000461578 -0.00053215
35 1 0.593868 0.144711 0.984714 0 -0.000455856 -0.000514984
36 1 0.934299 0.998884 0.70205 0 -4.95911e-05 5.72205e-05
37 1 0.831914 0.499051 0.631357 0 0.000213623 -0.000144958
38 1 0.684299 0.167783 0.70205 0 5.91278e-05 5.14984e-05
39 1 0.581913 0.667615 0.631357 0 -0.000209808 -0.000165939
40 1 0.639044 0.999541 0.843337 0 -0.000291824 0.000747681
41 1 0.536722 0.498968 0.772806 0 -0.000518799 -0.000127792
42 1 0.389043 0.167126 0.843337 0 0.000303268 0.000749588
44 1 0.343867 0.0219554 0.984714 0 0.000452042 -0.000526428
46 1 0.672273 0.667783 0.348403 0 4.95911e-05 -5.91278e-05
47 1 0.627081 0.499143 0.489864 0 -0.000434875 -0.000728607
48 1 0.37708 0.667524 0.489864 0 0.00043869 -0.000741959
49 1 0.331912 0.499052 0.631357 0 0.000202179 -0.000156403
53 1 0.991611 0.662093 0.914364 0 -0.000110626 -0.000320435
54 1 0.786723 0.667699 0.772806 0 0.000514984 -0.000150681
55 1 0.741611 0.504575 0.914364 0 9.91821e-05 -0.000318527
56 1 0.49161 0.662091 0.914364 0 -0.000101089 -0.000328064
ITEM: TIMESTEP
7
ITEM: NUMBER OF ATOMS
56
ITEM: BOX BOUNDS xy xz yz pp pp pp
-5.6154391765594482e+00 1.2156271994113922e+01 8.9406967163085938e-07
-8.2894563674926758e-03 5.5346975326538086e+00 -5.6442679166793823e+00
-4.5665502548217773e-03 1.9024526596069336e+01 -5.9604644775390625e-08
ITEM: ATOMS id type xs ys zs fx fy fz
4 1 0.0698507 0.167732 0.277652 0 9.53674e-05 2.67029e-05
5 1 0.0246601 0.999063 0.419102 0 -4.3869e-05 2.67029e-05
6 1 0.114964 1.00458 0.136096 0 0.000196457 -8.01086e-05
7 1 0.0127051 0.521979 0.0657443 0 2.47955e-05 -0.000324249
15 1 0.1843 0.167779 0.702056 0 0.000213623 5.34058e-05
16 1 0.139047 0.999517 0.843348 0 -8.58307e-05 4.95911e-05
22 1 0.274661 0.167603 0.419102 0 4.95911e-05 3.05176e-05
23 1 0.172269 0.667778 0.348396 0 0.00022316 -5.34058e-05
24 1 0.229497 -0.00090114 0.560603 0 9.72748e-05 0.000114441
25 1 0.127072 0.499098 0.489849 0 0.000127792 -9.15527e-05
29 1 0.262706 0.644687 0.0657443 0 -2.67029e-05 -0.000337601
30 1 0.217522 0.499517 0.207105 0 -8.01086e-05 -4.3869e-05
43 1 0.286719 0.667733 0.7728 0 9.72748e-05 -1.71661e-05
45 1 0.241606 0.504576 0.914356 0 0.000202179 8.96454e-05
50 1 0.081909 0.667602 0.631351 0 6.48499e-05 -4.3869e-05
51 1 0.0367184 0.498935 0.772801 0 -7.82013e-05 -2.28882e-05
52 1 0.0938665 0.144689 0.984709 0 -3.05176e-05 0.000328064
1 1 0.614965 1.00458 0.136096 0 0.000181198 -8.39233e-05
2 1 0.364965 0.16209 0.136097 0 -0.000192642 -8.2016e-05
3 1 0.319852 0.998935 0.277652 0 -9.72748e-05 1.90735e-05
8 1 0.864963 0.162091 0.136096 0 -0.000204086 -7.62939e-05
9 1 0.762705 0.644689 0.065744 0 -2.09808e-05 -0.000333786
10 1 0.81985 0.998935 0.277652 0 -8.58307e-05 1.90735e-05
11 1 0.774662 0.167602 0.419102 0 5.53131e-05 3.24249e-05
12 1 0.729498 -0.000901687 0.560604 0 0.000120163 9.72748e-05
13 1 0.479498 0.167569 0.560603 0 -0.000131607 9.91821e-05
14 1 0.434301 0.998889 0.702057 0 -0.000226974 3.8147e-05
17 1 0.717524 0.499517 0.207105 0 -8.01086e-05 -6.48499e-05
18 1 0.569852 0.167733 0.277652 0 8.39233e-05 2.28882e-05
19 1 0.467523 0.66715 0.207105 0 8.39233e-05 -5.53131e-05
20 1 0.524661 0.999064 0.419102 0 -4.00543e-05 4.57764e-05
21 1 0.42227 0.498889 0.348396 0 -0.000230789 -4.95911e-05
26 1 0.979497 0.167569 0.560604 0 -0.000114441 8.01086e-05
27 1 0.877072 0.667568 0.489849 0 -0.000114441 -8.96454e-05
28 1 0.512706 0.521979 0.0657442 0 3.24249e-05 -0.000324249
31 1 0.967522 0.667151 0.207105 0 8.7738e-05 -4.57764e-05
32 1 0.922269 0.498889 0.348396 0 -0.000230789 -4.19617e-05
33 1 0.889049 0.16715 0.843348 0 7.62939e-05 5.53131e-05
34 1 0.843866 0.0219792 0.984709 0 1.52588e-05 0.000335693
35 1 0.593865 0.144687 0.984708 0 -2.67029e-05 0.000333786
36 1 0.934302 0.998889 0.702057 0 -0.000226974 4.76837e-05
37 1 0.831911 0.499065 0.631351 0 -4.95911e-05 -5.14984e-05
38 1 0.684302 0.167778 0.702057 0 0.000221252 4.57764e-05
39 1 0.58191 0.667603 0.631351 0 6.86646e-05 -2.86102e-05
40 1 0.639049 0.999517 0.843348 0 -8.2016e-05 6.10352e-05
41 1 0.53672 0.498935 0.772801 0 -9.72748e-05 -2.67029e-05
42 1 0.389048 0.167151 0.843348 0 7.05719e-05 6.29425e-05
44 1 0.343864 0.0219789 0.984708 0 3.05176e-05 0.000337601
46 1 0.67227 0.667778 0.348396 0 0.000236511 -4.57764e-05
47 1 0.627074 0.499098 0.48985 0 0.000104904 -0.000101089
48 1 0.377073 0.667569 0.489849 0 -0.000125885 -9.53674e-05
49 1 0.331909 0.499064 0.631351 0 -4.00543e-05 -4.00543e-05
53 1 0.991608 0.662091 0.914357 0 -0.000198364 7.24792e-05
54 1 0.78672 0.667733 0.772801 0 9.34601e-05 -1.52588e-05
55 1 0.741607 0.504576 0.914357 0 0.000205994 6.86646e-05
56 1 0.491606 0.662091 0.914356 0 -0.000198364 7.24792e-05
ITEM: TIMESTEP
8
ITEM: NUMBER OF ATOMS
56
ITEM: BOX BOUNDS xy xz yz pp pp pp
-5.6154391765594482e+00 1.2156271994113922e+01 8.9406967163085938e-07
-8.2894563674926758e-03 5.5346975326538086e+00 -5.6442679166793823e+00
-4.5665502548217773e-03 1.9024526596069336e+01 -5.9604644775390625e-08
ITEM: ATOMS id type xs ys zs fx fy fz
4 1 0.0698512 0.167742 0.277653 0 4.00543e-05 -3.05176e-05
5 1 0.0246607 0.999062 0.419103 0 -5.34058e-05 1.14441e-05
6 1 0.114964 1.00459 0.136096 0 -4.76837e-05 5.72205e-05
7 1 0.0127027 0.521983 0.065739 0 0.000131607 1.90735e-05
15 1 0.184301 0.167792 0.702058 0 5.53131e-05 6.48499e-05
16 1 0.139048 0.999509 0.84335 0 8.39233e-05 6.29425e-05
22 1 0.274661 0.167604 0.419103 0 4.3869e-05 1.14441e-05
23 1 0.172268 0.667792 0.348395 0 4.00543e-05 -7.24792e-05
24 1 0.229499 -0.000900214 0.560607 0 0.000106812 -6.48499e-05
25 1 0.127071 0.4991 0.489846 0 8.2016e-05 5.34058e-05
29 1 0.262703 0.644682 0.0657388 0 -0.000133514 2.86102e-05
30 1 0.217521 0.499509 0.207103 0 6.67572e-05 -7.05719e-05
43 1 0.286718 0.667743 0.7728 0 2.86102e-05 2.09808e-05
45 1 0.241606 0.504589 0.914357 0 -5.53131e-05 -5.72205e-05
50 1 0.0819082 0.667605 0.631349 0 4.3869e-05 0
51 1 0.0367179 0.498926 0.7728 0 -5.72205e-05 1.71661e-05
52 1 0.093869 0.144684 0.984714 0 -0.000133514 -2.47955e-05
1 1 0.614965 1.00459 0.136096 0 -4.3869e-05 6.10352e-05
2 1 0.364965 0.162078 0.136096 0 5.14984e-05 5.14984e-05
3 1 0.319852 0.998925 0.277653 0 -3.43323e-05 -2.09808e-05
8 1 0.864963 0.162079 0.136096 0 5.34058e-05 5.53131e-05
9 1 0.762702 0.644684 0.0657386 0 -0.000141144 1.90735e-05
10 1 0.819851 0.998925 0.277653 0 -4.19617e-05 -2.09808e-05
11 1 0.774662 0.167604 0.419103 0 6.48499e-05 1.90735e-05
12 1 0.7295 -0.000899391 0.560607 0 9.15527e-05 -5.53131e-05
13 1 0.479499 0.167566 0.560607 0 -8.39233e-05 -4.95911e-05