ITEM: TIMESTEP
0
ITEM: NUMBER OF ATOMS
32
ITEM: BOX BOUNDS xy xz yz pp pp pp
-4.7826766967773438e-03 6.7992899417877197e+00 3.9995825290679932e-01
-3.7661075592041016e-02 2.2120539069175720e+01 0.0000000000000000e+00
-1.1393904685974121e-02 5.1938598752021790e+00 0.0000000000000000e+00
ITEM: ATOMS id type xs ys zs fx fy fz
1 1 0.998195 0.336542 0.593597 0 0.000761032 5.72205e-06
2 1 0.498196 0.336542 0.593597 0 0.000759125 5.72205e-06
3 1 0.250788 0.295033 0.0935973 0 -0.00125504 -3.8147e-06
4 1 0.750788 0.295033 0.0935973 0 -0.00125504 -1.90735e-06
5 1 0.240389 0.461543 0.593597 0 0.000984192 0
6 1 0.740389 0.461543 0.593597 0 0.000988007 5.72205e-06
7 1 0.992981 0.420037 0.0935973 0 -0.00103378 -7.62939e-06
8 1 0.492981 0.420037 0.0935973 0 -0.00103188 -3.8147e-06
9 1 0.982582 0.586543 0.593597 0 0.000967026 0
10 1 0.482582 0.586543 0.593597 0 0.000965118 0
11 1 0.224776 0.711539 0.593597 0 0.00133896 7.62939e-06
12 1 0.724776 0.711539 0.593597 0 0.00133705 3.8147e-06
13 1 0.977367 0.670042 0.0935972 0 -0.00100136 -3.8147e-06
14 1 0.235174 0.545043 0.0935972 0 -0.001091 0
15 1 0.735174 0.545043 0.0935972 0 -0.00108719 0
16 1 0.477368 0.670042 0.0935972 0 -0.00100517 -7.62939e-06
17 1 0.966969 0.836533 0.593597 0 0.00619698 1.90735e-06
18 1 0.46697 0.836533 0.593597 0 0.00619698 0
19 1 0.209163 0.961533 0.593597 0 -0.0417252 1.90735e-06
20 1 0.709163 0.961533 0.593597 0 -0.0417213 0
21 1 0.219561 0.795035 0.0935971 0 -0.000133514 0
22 1 0.719561 0.795035 0.0935971 0 -0.000137329 -1.90735e-06
23 1 0.961755 0.920032 0.0935971 0 -0.0797462 0
24 1 0.461755 0.920032 0.0935971 0 -0.0797482 -1.90735e-06
25 1 0.013809 0.0865377 0.593597 0 0.07967 0
26 1 0.513809 0.0865377 0.593597 0 0.0796719 0
27 1 0.266402 0.045031 0.093597 0 0.0419064 0
28 1 0.766402 0.045031 0.093597 0 0.0419064 0
29 1 0.256003 0.211541 0.593597 0 0.000144958 0
30 1 0.756003 0.211541 0.593597 0 0.000144958 0
31 1 0.0085946 0.170031 0.093597 0 -0.00598335 0
32 1 0.508595 0.170031 0.093597 0 -0.00598335 0
ITEM: TIMESTEP
1
ITEM: NUMBER OF ATOMS
32
ITEM: BOX BOUNDS xy xz yz pp pp pp
-4.7826766967773438e-03 6.7992899417877197e+00 3.9995825290679932e-01
-3.7661075592041016e-02 2.2120539069175720e+01 0.0000000000000000e+00
-1.1393904685974121e-02 5.1938598752021790e+00 0.0000000000000000e+00
ITEM: ATOMS id type xs ys zs fx fy fz
1 1 0.998195 0.336553 0.593597 0 0.000562668 -5.72205e-06
2 1 0.498195 0.336553 0.593597 0 0.00056076 -1.90735e-06
3 1 0.250789 0.295016 0.0935971 0 -0.000610352 -1.90735e-06
4 1 0.750789 0.295016 0.0935972 0 -0.000612259 1.90735e-06
5 1 0.240388 0.461556 0.593597 0 0.000720978 0
6 1 0.740388 0.461556 0.593597 0 0.000734329 -3.8147e-06
7 1 0.992982 0.420024 0.0935969 0 -0.00103188 7.62939e-06
8 1 0.492982 0.420024 0.0935971 0 -0.0010376 1.90735e-06
9 1 0.982581 0.586556 0.593597 0 0.000995636 0
10 1 0.482582 0.586556 0.593597 0 0.00100136 1.90735e-06
11 1 0.224775 0.711557 0.593597 0 0.000684738 -3.8147e-06
12 1 0.724775 0.711557 0.593597 0 0.00069046 -1.90735e-06
13 1 0.977368 0.670029 0.093597 0 -0.000684738 3.8147e-06
14 1 0.235175 0.545028 0.0935972 0 -0.000873566 -1.90735e-06
15 1 0.735175 0.545028 0.0935972 0 -0.000883102 -3.8147e-06
16 1 0.477368 0.670029 0.0935968 0 -0.000677109 1.90735e-06
17 1 0.966964 0.836615 0.593597 0 -0.0167828 -1.90735e-06
18 1 0.466965 0.836615 0.593597 0 -0.0167866 0
19 1 0.209198 0.96098 0.593597 0 0.0171776 -1.90735e-06
20 1 0.709198 0.96098 0.593597 0 0.0171776 0
21 1 0.219562 0.795033 0.0935971 0 -0.0209064 3.8147e-06
22 1 0.719562 0.795033 0.093597 0 -0.0209007 0
23 1 0.961821 0.918975 0.0935971 0 -0.00634003 1.90735e-06
24 1 0.461821 0.918975 0.093597 0 -0.00634384 1.90735e-06
25 1 0.0137431 0.087593 0.593597 0 0.00639343 0
26 1 0.513744 0.0875931 0.593597 0 0.00639343 0
27 1 0.266367 0.0455861 0.093597 0 -0.0170822 1.90735e-06
28 1 0.766367 0.0455861 0.093597 0 -0.0170746 0
29 1 0.256002 0.211543 0.593597 0 0.0208302 1.90735e-06
30 1 0.756002 0.211543 0.593597 0 0.0208302 0
31 1 0.00859955 0.169952 0.093597 0 0.0169353 -1.90735e-06
32 1 0.5086 0.169952 0.093597 0 0.0169392 0
ITEM: TIMESTEP
2
ITEM: NUMBER OF ATOMS
32
ITEM: BOX BOUNDS xy xz yz pp pp pp
-4.7826766967773438e-03 6.7992899417877197e+00 3.9995825290679932e-01
-3.7661075592041016e-02 2.2120539069175720e+01 0.0000000000000000e+00
-1.1393904685974121e-02 5.1938598752021790e+00 0.0000000000000000e+00
ITEM: ATOMS id type xs ys zs fx fy fz
1 1 0.998194 0.33657 0.593597 0 0.0101376 5.72205e-06
2 1 0.498194 0.33657 0.593597 0 0.0101242 -1.90735e-06
3 1 0.250791 0.294995 0.0935968 0 0.0122948 3.8147e-06
4 1 0.750791 0.294995 0.0935974 0 0.0122948 -1.90735e-06
5 1 0.240387 0.461578 0.593597 0 0.000268936 0
6 1 0.740387 0.461579 0.593597 0 0.00025177 3.8147e-06
7 1 0.992984 0.419993 0.0935976 0 0.000347137 -7.62939e-06
8 1 0.492984 0.419993 0.0935972 0 0.000349045 -1.90735e-06
9 1 0.982579 0.586586 0.593597 0 -0.000411987 3.8147e-06
10 1 0.48258 0.586586 0.593597 0 -0.000415802 -3.8147e-06
11 1 0.224773 0.71158 0.593597 0 -0.0123024 1.90735e-06
12 1 0.724773 0.71158 0.593597 0 -0.0123043 1.90735e-06
13 1 0.977369 0.670007 0.0935973 0 -0.0101566 -7.62939e-06
14 1 0.235177 0.545001 0.093597 0 -0.000335693 0
15 1 0.735177 0.545001 0.0935968 0 -0.000324249 3.8147e-06
16 1 0.47737 0.670007 0.0935968 0 -0.0101566 3.8147e-06
17 1 0.96699 0.83621 0.593597 0 0.00378609 5.72205e-06
18 1 0.46699 0.83621 0.593597 0 0.00379181 1.90735e-06
19 1 0.209181 0.961242 0.593597 0 0.00326157 1.90735e-06
20 1 0.709181 0.961242 0.593597 0 0.00326347 3.8147e-06
21 1 0.219595 0.794494 0.0935975 0 -0.00405312 -7.62939e-06
22 1 0.719595 0.794494 0.093597 0 -0.00405693 0
23 1 0.961852 0.918469 0.0935973 0 0.00284958 -5.72205e-06
24 1 0.461853 0.918469 0.0935972 0 0.0028553 0
25 1 0.0137115 0.0881002 0.593597 0 -0.00273895 1.90735e-06
26 1 0.513712 0.0881003 0.593597 0 -0.00273895 0
27 1 0.266383 0.0453268 0.0935972 0 -0.00319672 -5.72205e-06
28 1 0.766383 0.045327 0.093597 0 -0.00320244 1.90735e-06
29 1 0.255969 0.212079 0.593597 0 0.00403786 -7.62939e-06
30 1 0.755969 0.212079 0.593597 0 0.00403595 -3.8147e-06
31 1 0.00857394 0.170362 0.0935968 0 -0.00377274 5.72205e-06
32 1 0.508574 0.170362 0.093597 0 -0.00378227 3.8147e-06
ITEM: TIMESTEP
3
ITEM: NUMBER OF ATOMS
32
ITEM: BOX BOUNDS xy xz yz pp pp pp
-4.7826766967773438e-03 6.7992899417877197e+00 3.9995825290679932e-01
-3.7661075592041016e-02 2.2120539069175720e+01 0.0000000000000000e+00
-1.1393904685974121e-02 5.1938598752021790e+00 0.0000000000000000e+00
ITEM: ATOMS id type xs ys zs fx fy fz
1 1 0.998177 0.33683 0.593597 0 0.00211143 -1.90735e-06
2 1 0.498178 0.33683 0.593597 0 0.00213814 3.8147e-06
3 1 0.250771 0.295301 0.0935971 0 -0.000680923 -5.72205e-06
4 1 0.750771 0.295301 0.0935972 0 -0.000673294 -5.72205e-06
5 1 0.240386 0.46159 0.593597 0 0.00406837 0
6 1 0.740386 0.461591 0.593597 0 0.00406647 -5.72205e-06
7 1 0.992984 0.419994 0.0935969 0 0.00812149 3.8147e-06
8 1 0.492984 0.419994 0.093597 0 0.00811577 1.90735e-06
9 1 0.98258 0.586582 0.593597 0 -0.0081501 -5.72205e-06
10 1 0.48258 0.586582 0.593597 0 -0.0081501 1.90735e-06
11 1 0.224793 0.711275 0.593597 0 0.000627518 -5.72205e-06
12 1 0.724793 0.711275 0.593597 0 0.000627518 -3.8147e-06
13 1 0.977386 0.669746 0.0935966 0 -0.00214958 9.53674e-06
14 1 0.235178 0.544986 0.0935969 0 -0.00409698 3.8147e-06
15 1 0.735178 0.544986 0.0935971 0 -0.0041008 1.90735e-06
16 1 0.477386 0.669746 0.0935973 0 -0.00215912 -3.8147e-06
17 1 0.966989 0.836212 0.593598 0 -0.000371933 -1.14441e-05
18 1 0.46699 0.836212 0.593597 0 -0.000375748 -5.72205e-06
19 1 0.209172 0.961385 0.593597 0 -0.00480843 -5.72205e-06
20 1 0.709172 0.961385 0.593597 0 -0.00480843 -3.8147e-06
21 1 0.219609 0.794268 0.0935968 0 -0.000694275 9.53674e-06
22 1 0.719609 0.794268 0.0935969 0 -0.000694275 7.62939e-06
23 1 0.961855 0.918425 0.0935967 0 -0.00215149 1.33514e-05
24 1 0.461855 0.918425 0.0935972 0 -0.0021534 -5.72205e-06
25 1 0.0137085 0.0881475 0.593597 0 0.00214005 -3.8147e-06
26 1 0.513709 0.0881475 0.593597 0 0.00214195 -1.90735e-06
27 1 0.266392 0.0451866 0.0935966 0 0.00487518 1.14441e-05
28 1 0.766392 0.0451867 0.0935972 0 0.00486183 0
29 1 0.255955 0.212305 0.593596 0 0.000761032 1.14441e-05
30 1 0.755955 0.212305 0.593597 0 0.000766754 1.14441e-05
31 1 0.00857401 0.170361 0.0935974 0 0.000396729 -7.62939e-06
32 1 0.508574 0.170361 0.0935974 0 0.000398636 -7.62939e-06
ITEM: TIMESTEP
4
ITEM: NUMBER OF ATOMS
32
ITEM: BOX BOUNDS xy xz yz pp pp pp
-4.7826766967773438e-03 6.7992899417877197e+00 3.9995825290679932e-01
-3.7661075592041016e-02 2.2120539069175720e+01 0.0000000000000000e+00
-1.1393904685974121e-02 5.1938598752021790e+00 0.0000000000000000e+00
ITEM: ATOMS id type xs ys zs fx fy fz
1 1 0.998169 0.336963 0.593597 0 0.000371933 0
2 1 0.49817 0.336963 0.593597 0 0.000370026 -5.72205e-06
3 1 0.250766 0.295388 0.0935967 0 -0.000392914 3.8147e-06
4 1 0.750766 0.295388 0.0935966 0 -0.000400543 5.72205e-06
5 1 0.24038 0.461682 0.593597 0 -0.0018959 1.90735e-06
6 1 0.74038 0.461682 0.593597 0 -0.00188065 5.72205e-06
7 1 0.992973 0.42017 0.093597 0 0.000499725 -1.90735e-06
8 1 0.492973 0.42017 0.0935972 0 0.000514984 0
9 1 0.982591 0.586406 0.593597 0 -0.00053215 1.90735e-06
10 1 0.482591 0.586406 0.593597 0 -0.000535965 5.72205e-06
11 1 0.224798 0.711186 0.593597 0 0.000398636 1.90735e-06
12 1 0.724798 0.711187 0.593597 0 0.000392914 3.8147e-06
13 1 0.977394 0.669612 0.0935972 0 -0.000364304 -3.8147e-06
14 1 0.235184 0.544893 0.0935973 0 0.00188255 0
15 1 0.735184 0.544893 0.0935974 0 0.00187111 -5.72205e-06
16 1 0.477395 0.669612 0.093597 0 -0.000360489 -3.8147e-06
17 1 0.96699 0.836205 0.593597 0 -0.00341606 1.33514e-05
18 1 0.46699 0.836205 0.593597 0 -0.00341225 5.72205e-06
19 1 0.209176 0.961329 0.593597 0 -0.000240326 3.8147e-06
20 1 0.709176 0.961329 0.593597 0 -0.000240326 0
21 1 0.219615 0.794178 0.0935974 0 -0.000602722 -3.8147e-06
22 1 0.719615 0.794178 0.0935976 0 -0.000597 -9.53674e-06
23 1 0.961859 0.918364 0.0935978 0 0.000415802 -1.33514e-05
24 1 0.461859 0.918364 0.0935967 0 0.000413895 1.90735e-06
25 1 0.0137046 0.0882094 0.593597 0 -0.000383377 0
26 1 0.513705 0.0882095 0.593597 0 -0.000385284 5.72205e-06
27 1 0.266388 0.0452448 0.0935975 0 0.000234604 -1.90735e-06
28 1 0.766388 0.0452446 0.0935973 0 0.000244141 -5.72205e-06
29 1 0.255949 0.212396 0.593597 0 0.000610352 -1.90735e-06
30 1 0.755949 0.212396 0.593598 0 0.00060463 -1.14441e-05
31 1 0.0085735 0.170369 0.0935968 0 0.00340271 5.72205e-06
32 1 0.508574 0.170369 0.0935968 0 0.00341225 1.90735e-06
ITEM: TIMESTEP
5
ITEM: NUMBER OF ATOMS
32
ITEM: BOX BOUNDS xy xz yz pp pp pp
-4.7826766967773438e-03 6.7992899417877197e+00 3.9995825290679932e-01
-3.7661075592041016e-02 2.2120539069175720e+01 0.0000000000000000e+00
-1.1393904685974121e-02 5.1938598752021790e+00 0.0000000000000000e+00
ITEM: ATOMS id type xs ys zs fx fy fz
1 1 0.998168 0.336989 0.593597 0 -0.000623703 -3.8147e-06
2 1 0.498168 0.336989 0.593597 0 -0.000629425 3.8147e-06
3 1 0.250766 0.295392 0.093597 0 0.00168228 0
4 1 0.750766 0.295392 0.093597 0 0.0016861 -7.62939e-06
5 1 0.240382 0.461655 0.593597 0 -0.000440598 -5.72205e-06
6 1 0.740382 0.461655 0.593597 0 -0.000453949 -7.62939e-06
7 1 0.99297 0.420205 0.0935969 0 -0.000486374 9.53674e-06
8 1 0.492971 0.420205 0.0935972 0 -0.000490189 3.8147e-06
9 1 0.982593 0.58637 0.593597 0 0.000480652 -1.90735e-06
10 1 0.482593 0.58637 0.593597 0 0.000480652 -9.53674e-06
11 1 0.224798 0.711183 0.593597 0 -0.001688 -1.90735e-06
12 1 0.724798 0.711183 0.593597 0 -0.001688 -5.72205e-06
13 1 0.977396 0.669586 0.093597 0 0.000627518 0
14 1 0.235182 0.54492 0.0935973 0 0.000436783 1.90735e-06
15 1 0.735182 0.544919 0.0935969 0 0.000452042 1.14441e-05
16 1 0.477396 0.669586 0.0935967 0 0.000623703 5.72205e-06
17 1 0.966994 0.836133 0.593598 0 -0.000110626 -9.53674e-06
18 1 0.466995 0.836133 0.593597 0 -0.000106812 -3.8147e-06
19 1 0.209177 0.961316 0.593597 0 -0.000679016 0
20 1 0.709177 0.961316 0.593597 0 -0.00069046 -7.62939e-06
21 1 0.219617 0.794153 0.0935972 0 4.00543e-05 7.62939e-06
22 1 0.719617 0.794153 0.0935969 0 3.62396e-05 1.90735e-06
23 1 0.961859 0.918364 0.0935967 0 -0.000492096 7.62939e-06
24 1 0.461859 0.918364 0.0935968 0 -0.000480652 9.53674e-06
25 1 0.0137046 0.08821 0.593597 0 0.000486374 5.72205e-06
26 1 0.513705 0.08821 0.593597 0 0.000484467 -3.8147e-06
27 1 0.266387 0.0452578 0.0935975 0 0.000684738 -7.62939e-06
28 1 0.766387 0.0452578 0.0935968 0 0.000694275 5.72205e-06
29 1 0.255948 0.212422 0.593597 0 -3.43323e-05 1.90735e-06
30 1 0.755948 0.212422 0.593597 0 -3.43323e-05 5.72205e-06
31 1 0.00856898 0.170441 0.0935973 0 0.000112534 -5.72205e-06
32 1 0.508569 0.170441 0.0935969 0 0.000120163 0
ITEM: TIMESTEP
6
ITEM: NUMBER OF ATOMS
32
ITEM: BOX BOUNDS xy xz yz pp pp pp
-4.7826766967773438e-03 6.7992899417877197e+00 3.9995825290679932e-01
-3.7661075592041016e-02 2.2120539069175720e+01 0.0000000000000000e+00
-1.1393904685974121e-02 5.1938598752021790e+00 0.0000000000000000e+00
ITEM: ATOMS id type xs ys zs fx fy fz
1 1 0.998168 0.336983 0.593597 0 -0.000423431 0
2 1 0.498168 0.336983 0.593597 0 -0.000411987 -3.8147e-06
3 1 0.250763 0.29543 0.0935971 0 0.000232697 0
4 1 0.750763 0.29543 0.0935964 0 0.000226974 7.62939e-06
5 1 0.240383 0.461638 0.593597 0 0.000488281 9.53674e-06
6 1 0.740383 0.461638 0.593597 0 0.000495911 1.14441e-05
7 1 0.99297 0.420204 0.0935977 0 0.000492096 -3.8147e-06
8 1 0.492971 0.420204 0.0935975 0 0.000490189 -5.72205e-06
9 1 0.982593 0.58637 0.593597 0 -0.000484467 3.8147e-06
10 1 0.482593 0.58637 0.593597 0 -0.000486374 9.53674e-06
11 1 0.224801 0.711144 0.593597 0 -0.000226974 7.62939e-06
12 1 0.724801 0.711144 0.593597 0 -0.00022316 5.72205e-06
13 1 0.977395 0.669592 0.0935969 0 0.000406265 -1.90735e-06
14 1 0.235181 0.544937 0.0935975 0 -0.000494003 -7.62939e-06
15 1 0.735181 0.544937 0.0935978 0 -0.000499725 -1.33514e-05
16 1 0.477396 0.669592 0.0935971 0 0.00041008 -9.53674e-06
17 1 0.966996 0.83611 0.593597 0 -7.24792e-05 3.8147e-06
18 1 0.466996 0.83611 0.593597 0 -8.58307e-05 7.62939e-06
19 1 0.209178 0.961298 0.593597 0 0.000240326 3.8147e-06
20 1 0.709178 0.961298 0.593596 0 0.000242233 1.14441e-05
21 1 0.219617 0.794146 0.0935978 0 -0.000116348 -1.14441e-05
22 1 0.719617 0.794146 0.0935969 0 -0.000116348 -1.90735e-06
23 1 0.961859 0.918353 0.0935971 0 0.000118256 -1.90735e-06
24 1 0.46186 0.918354 0.0935977 0 0.000120163 -1.33514e-05
25 1 0.0137039 0.0882208 0.593597 0 -0.000116348 -7.62939e-06
26 1 0.513704 0.0882208 0.593597 0 -0.000116348 -1.90735e-06
27 1 0.266386 0.0452765 0.0935967 0 -0.000226974 3.8147e-06
28 1 0.766386 0.0452767 0.0935972 0 -0.000244141 -3.8147e-06
29 1 0.255947 0.212428 0.593597 0 0.000102997 -5.72205e-06
30 1 0.755947 0.212428 0.593597 0 0.000110626 0
31 1 0.00856756 0.170464 0.0935969 0 9.15527e-05 3.8147e-06
32 1 0.508568 0.170464 0.093597 0 7.62939e-05 3.8147e-06
ITEM: TIMESTEP
7
ITEM: NUMBER OF ATOMS
32
ITEM: BOX BOUNDS xy xz yz pp pp pp
-4.7826766967773438e-03 6.7992899417877197e+00 3.9995825290679932e-01
-3.7661075592041016e-02 2.2120539069175720e+01 0.0000000000000000e+00
-1.1393904685974121e-02 5.1938598752021790e+00 0.0000000000000000e+00
ITEM: ATOMS id type xs ys zs fx fy fz
1 1 0.998168 0.336976 0.593597 0 0.00015831 1.90735e-06
2 1 0.498169 0.336976 0.593597 0 0.000152588 1.90735e-06
3 1 0.250763 0.295438 0.0935971 0 3.24249e-05 -5.72205e-06
4 1 0.750763 0.295438 0.0935968 0 3.05176e-05 1.90735e-06
5 1 0.240383 0.461643 0.593597 0 -4.76837e-05 1.90735e-06
6 1 0.740383 0.461643 0.593597 0 -4.95911e-05 3.8147e-06
7 1 0.99297 0.420211 0.0935976 0 0.000154495 0
8 1 0.49297 0.420211 0.0935972 0 0.000150681 0
9 1 0.982593 0.586363 0.593597 0 -0.000150681 -1.90735e-06
10 1 0.482594 0.586363 0.593597 0 -0.000148773 -3.8147e-06
11 1 0.224801 0.711136 0.593597 0 -4.19617e-05 -7.62939e-06
12 1 0.724801 0.711136 0.593597 0 -3.62396e-05 -9.53674e-06
13 1 0.977395 0.669599 0.0935968 0 -0.000160217 3.8147e-06
14 1 0.235181 0.544931 0.0935971 0 4.95911e-05 1.90735e-06
15 1 0.735181 0.544932 0.0935971 0 4.57764e-05 -1.90735e-06
16 1 0.477395 0.669599 0.0935966 0 -0.00015831 9.53674e-06
17 1 0.966996 0.836106 0.593597 0 1.90735e-05 -5.72205e-06
18 1 0.466996 0.836106 0.593597 0 1.52588e-05 -5.72205e-06
19 1 0.209178 0.961299 0.593597 0 5.72205e-05 -3.8147e-06
20 1 0.709178 0.961299 0.593597 0 6.48499e-05 -3.8147e-06
21 1 0.219617 0.794144 0.0935972 0 5.53131e-05 3.8147e-06
22 1 0.719617 0.794144 0.0935967 0 4.95911e-05 1.14441e-05
23 1 0.961859 0.918354 0.0935971 0 3.8147e-06 0
24 1 0.46186 0.918354 0.093597 0 -7.62939e-06 7.62939e-06
25 1 0.013704 0.0882205 0.593597 0 5.72205e-06 -1.90735e-06
26 1 0.513704 0.0882204 0.593597 0 1.90735e-06 1.90735e-06
27 1 0.266386 0.0452755 0.0935969 0 -5.34058e-05 3.8147e-06
28 1 0.766386 0.0452755 0.093597 0 -6.48499e-05 1.90735e-06
29 1 0.255947 0.21243 0.593597 0 -4.95911e-05 3.8147e-06
30 1 0.755947 0.21243 0.593597 0 -4.95911e-05 0
31 1 0.0085673 0.170468 0.0935971 0 -1.52588e-05 -5.72205e-06
32 1 0.508568 0.170468 0.0935972 0 -1.33514e-05 -3.8147e-06
ITEM: TIMESTEP
8
ITEM: NUMBER OF ATOMS
32
ITEM: BOX BOUNDS xy xz yz pp pp pp
-4.7826766967773438e-03 6.7992899417877197e+00 3.9995825290679932e-01
-3.7661075592041016e-02 2.2120539069175720e+01 0.0000000000000000e+00
-1.1393904685974121e-02 5.1938598752021790e+00 0.0000000000000000e+00
ITEM: ATOMS id type xs ys zs fx fy fz
1 1 0.998168 0.336976 0.593597 0 0.00015831 1.90735e-06
2 1 0.498169 0.336976 0.593597 0 0.000152588 1.90735e-06
3 1 0.250763 0.295438 0.0935971 0 3.24249e-05 -5.72205e-06
4 1 0.750763 0.295438 0.0935968 0 3.05176e-05 1.90735e-06
5 1 0.240383 0.461643 0.593597 0 -4.76837e-05 1.90735e-06
6 1 0.740383 0.461643 0.593597 0 -4.95911e-05 3.8147e-06
7 1 0.99297 0.420211 0.0935976 0 0.000154495 0
8 1 0.49297 0.420211 0.0935972 0 0.000150681 0
9 1 0.982593 0.586363 0.593597 0 -0.000150681 -1.90735e-06
10 1 0.482594 0.586363 0.593597 0 -0.000148773 -3.8147e-06
11 1 0.224801 0.711136 0.593597 0 -4.19617e-05 -7.62939e-06
12 1 0.724801 0.711136 0.593597 0 -3.62396e-05 -9.53674e-06
13 1 0.977395 0.669599 0.0935968 0 -0.000160217 3.8147e-06
14 1 0.235181 0.544931 0.0935971 0 4.95911e-05 1.90735e-06
15 1 0.735181 0.544932 0.0935971 0 4.57764e-05 -1.90735e-06
16 1 0.477395 0.669599 0.0935966 0 -0.00015831 9.53674e-06
17 1 0.966996 0.836106 0.593597 0 1.90735e-05 -5.72205e-06
18 1 0.466996 0.836106 0.593597 0 1.52588e-05 -5.72205e-06
19 1 0.209178 0.961299 0.593597 0 5.72205e-05 -3.8147e-06
20 1 0.709178 0.961299 0.593597 0 6.48499e-05 -3.8147e-06
21 1 0.219617 0.794144 0.0935972 0 5.53131e-05 3.8147e-06
22 1 0.719617 0.794144 0.0935967 0 4.95911e-05 1.14441e-05
23 1 0.961859 0.918354 0.0935971 0 3.8147e-06 0
24 1 0.46186 0.918354 0.093597 0 -7.62939e-06 7.62939e-06
25 1 0.013704 0.0882205 0.593597 0 5.72205e-06 -1.90735e-06
26 1 0.513704 0.0882204 0.593597 0 1.90735e-06 1.90735e-06
27 1 0.266386 0.0452755 0.0935969 0 -5.34058e-05 3.8147e-06
28 1 0.766386 0.0452755 0.093597 0 -6.48499e-05 1.90735e-06
29 1 0.255947 0.21243 0.593597 0 -4.95911e-05 3.8147e-06
30 1 0.755947 0.21243 0.593597 0 -4.95911e-05 0
31 1 0.0085673 0.170468 0.0935971 0 -1.52588e-05 -5.72205e-06
32 1 0.508568 0.170468 0.0935972 0 -1.33514e-05 -3.8147e-06
