LAMMPS (4 May 2022)
## variable
variable        temp            equal 800
variable        eql_step        equal 500000
variable        rd_seed         equal 1

variable        temp_damp       equal 0.2 # tau_NVT = timestep * 100
variable        t_step          equal 0.002
variable        rlx_step        equal 20000

variable        thermo_freq     equal 100
variable        dump_freq       equal 100

## units
dimension       3
boundary        p p p
units           metal
atom_style      atomic
neighbor        1.0 bin
neigh_modify    every 10 delay 0 check no

## data.lmp, potential
read_data       data.lmp
Reading data file ...
  orthogonal box = (0 0 0) to (26.50221 26.50221 25.4788)
  1 by 1 by 1 MPI processor grid
  reading atoms ...
  900 atoms
  read_data CPU = 0.005 seconds
pair_style      nvnmd model.pb
pair_coeff * *

## velocity, timestep
velocity        all create ${temp} ${rd_seed} loop geom
velocity        all create 800 ${rd_seed} loop geom
velocity        all create 800 1 loop geom
timestep        ${t_step}
timestep        0.002

## nvt-relax
fix             equil all nvt temp ${temp} ${temp} ${temp_damp}
fix             equil all nvt temp 800 ${temp} ${temp_damp}
fix             equil all nvt temp 800 800 ${temp_damp}
fix             equil all nvt temp 800 800 0.2
run             ${rlx_step}
run             20000
Generated 0 of 6 mixed pair_coeff terms from geometric mixing rule
Neighbor list info ...
  update every 10 steps, delay 0 steps, check no
  max neighbors/atom: 2000, page size: 100000
  master list distance cutoff = 8
  ghost atom cutoff = 8
  binsize = 4, bins = 7 7 7
  1 neighbor lists, perpetual/occasional/extra = 1 0 0
  (1) pair nvnmd, perpetual
      attributes: full, newton on
      pair build: full/bin/atomonly
      stencil: full/bin/3d
      bin: standard
Per MPI rank memory allocation (min/avg/max) = 2.675 | 2.675 | 2.675 Mbytes
   Step          Temp          E_pair         E_mol          TotEng         Press     
         0   800            198.65691      0              291.62081      7043.6154    
     20000   784.10589      295.96229      0              387.07922      10415.543    
Loop time of 12.2573 on 1 procs for 20000 steps with 900 atoms

Performance: 281.954 ns/day, 0.085 hours/ns, 1631.676 timesteps/s
54.5% CPU use with 1 MPI tasks x no OpenMP threads

MPI task timing breakdown:
Section |  min time  |  avg time  |  max time  |%varavg| %total
---------------------------------------------------------------
Pair    | 7.7956     | 7.7956     | 7.7956     |   0.0 | 63.60
Neigh   | 4.1649     | 4.1649     | 4.1649     |   0.0 | 33.98
Comm    | 0.14229    | 0.14229    | 0.14229    |   0.0 |  1.16
Output  | 1.568e-05  | 1.568e-05  | 1.568e-05  |   0.0 |  0.00
Modify  | 0.12989    | 0.12989    | 0.12989    |   0.0 |  1.06
Other   |            | 0.02462    |            |       |  0.20

Nlocal:            900 ave         900 max         900 min
Histogram: 1 0 0 0 0 0 0 0 0 0
Nghost:           2782 ave        2782 max        2782 min
Histogram: 1 0 0 0 0 0 0 0 0 0
Neighs:              0 ave           0 max           0 min
Histogram: 1 0 0 0 0 0 0 0 0 0
FullNghs:        96604 ave       96604 max       96604 min
Histogram: 1 0 0 0 0 0 0 0 0 0

Total # of neighbors = 96604
Ave neighs/atom = 107.33778
Neighbor list builds = 2000
Dangerous builds not checked
unfix           equil

## nvt-equal
reset_timestep  0
fix             equil all nvt temp ${temp} ${temp} ${temp_damp}
fix             equil all nvt temp 800 ${temp} ${temp_damp}
fix             equil all nvt temp 800 800 ${temp_damp}
fix             equil all nvt temp 800 800 0.2
fix             com all recenter INIT INIT INIT

## thermo_style
thermo_style    custom step time temp ke etotal press
thermo          ${thermo_freq}
thermo          100
thermo_modify   flush yes
dump            1 all custom ${dump_freq} dump.lammpstraj id type x y z
dump            1 all custom 100 dump.lammpstraj id type x y z
run             500000
Generated 0 of 6 mixed pair_coeff terms from geometric mixing rule
Per MPI rank memory allocation (min/avg/max) = 3.96 | 3.96 | 3.96 Mbytes
   Step          Time           Temp          KinEng         TotEng         Press     
         0   0              784.10589      91.116923      387.07922      10415.543    
       100   0.2            846.64543      98.384322      385.41701      12354.609    
       200   0.4            760.11311      88.328845      380.0996       14595.986    
       300   0.6            728.89333      84.700954      377.86782      10398.021    
       400   0.8            794.21695      92.291877      385.75912      12897.303    
       500   1              837.59871      97.33305       388.26871      12596.211    
       600   1.2            798.4796       92.787219      385.57718      13771.562    
       700   1.4            784.63294      91.17817       381.98166      16889.964    
       800   1.6            781.27485      90.787943      380.80161      12152.332    
       900   1.8            795.65496      92.458982      383.35671      13124.832    
      1000   2              797.29314      92.649346      389.28291      13281.749    
      1100   2.2            811.67332      94.320393      390.56793      15737.101    
      1200   2.4            800.91997      93.070801      386.36094      15079.271    
      1300   2.6            757.95313      88.077846      382.5475       13134.217    
      1400   2.8            806.89696      93.765357      382.32048      14008.041    
      1500   3              802.03813      93.200737      382.69139      14311.605    
      1600   3.2            783.97441      91.101644      383.96614      15596.918    
      1700   3.4            801.63581      93.153986      389.03658      13382.747    
      1800   3.6            838.72829      97.464312      391.66422      13941.942    
      1900   3.8            820.44255      95.339421      386.65924      14053.407    
      2000   4              817.72092      95.023153      382.75916      12594.745    
      2100   4.2            771.56812      89.659974      382.10511      13918.115    
      2200   4.4            790.40384      91.848776      384.52514      10783.155    
      2300   4.6            823.97363      95.749749      388.90569      16133.855    
      2400   4.8            789.20825      91.709842      387.67825      12680.388    
      2500   5              779.71134      90.606256      380.27386      13737.591    
      2600   5.2            785.5086       91.279925      378.79564      13588.342    
      2700   5.4            789.92407      91.793024      381.93324      14235.605    
      2800   5.6            803.86925      93.413522      386.25901      13512.178    
      2900   5.8            820.34652      95.32826       388.42492      14375.876    
      3000   6              799.1895       92.869713      386.40804      13698.261    
      3100   6.2            765.55579      88.961312      379.87265      14625.474    
      3200   6.4            786.22753      91.363468      379.71872      16637.132    
      3300   6.6            801.25862      93.110154      383.26609      13780.179    
      3400   6.8            789.89904      91.790116      386.46142      13545.273    
      3500   7              811.65661      94.318451      386.50094      14269.375    
      3600   7.2            798.8275       92.827646      384.17938      12749.971    
      3700   7.4            816.41987      94.871966      378.38176      15406.656    
      3800   7.6            778.74339      90.493774      378.56257      14410.684    
      3900   7.8            772.12277      89.724426      383.63037      12306.557    
      4000   8              792.56983      92.100475      386.3183       12236.68     
      4100   8.2            815.3172       94.74383       386.3147       15394.011    
      4200   8.4            809.26175      94.040157      383.61958      13595.507    
      4300   8.6            774.97867      90.056295      380.95821      11745.242    
      4400   8.8            779.16937      90.543275      380.79877      12809.339    
      4500   9              791.64656      91.993186      386.14022      14852.83     
      4600   9.2            822.25028      95.549487      389.31554      13207.798    
      4700   9.4            807.41331      93.825358      387.9056       14932.827    
      4800   9.6            785.39307      91.2665        382.87581      14398.677    
      4900   9.8            797.20345      92.638924      380.78468      12182.059    
      5000   10             777.19685      90.314059      381.82236      13000.5      
      5100   10.2           809.50059      94.067912      383.48632      16545.942    
      5200   10.4           805.00795      93.545845      383.49035      15444.53     
      5300   10.6           788.56141      91.634676      383.83573      12498.449    
      5400   10.8           804.5184       93.488957      384.83878      14041.379    
      5500   11             834.02832      96.918152      389.87441      14603.917    
      5600   11.2           830.11856      96.46382       390.5621       15894.157    
      5700   11.4           795.32868      92.421066      385.07391      12486.038    
      5800   11.6           788.17207      91.589433      382.14148      14724.87     
      5900   11.8           803.77453      93.402515      382.12186      13821.108    
      6000   12             783.10261      91.000337      383.59222      13772.342    
      6100   12.2           826.0124       95.986664      390.84589      13552.966    
      6200   12.4           837.52515      97.324501      391.76284      15930.27     
      6300   12.6           839.56172      97.561161      388.08987      13680.622    
      6400   12.8           801.50945      93.139302      384.42091      13985.178    
      6500   13             771.51939      89.654311      382.09657      15758.798    
      6600   13.2           790.95648      91.912996      381.31856      13027.352    
      6700   13.4           796.26632      92.530024      381.46538      13644.677    
      6800   13.6           791.668        91.995677      386.79913      14827.342    
      6900   13.8           839.38868      97.541053      390.93152      12503.444    
      7000   14             784.45817      91.15786       386.94163      13609.189    
      7100   14.2           760.65095      88.391345      382.22341      12750.59     
      7200   14.4           767.97053      89.241915      381.27277      15665.755    
      7300   14.6           816.46927      94.877706      383.29214      14624.82     
      7400   14.8           815.76724      94.796127      389.3452       14168.126    
      7500   15             800.71951      93.047507      391.57476      16068.887    
      7600   15.2           802.77509      93.286375      388.63479      15742.46     
      7700   15.4           793.05895      92.157312      385.18091      12065.29     
      7800   15.6           786.03827      91.341475      381.91232      14159.395    
      7900   15.8           768.38844      89.290479      381.75945      14140.118    
      8000   16             805.64278      93.619615      386.51106      13960.696    
      8100   16.2           798.08032      92.740821      390.96196      14429.442    
      8200   16.4           790.02698      91.804983      388.7487       14305.23     
      8300   16.6           818.7806       95.146294      385.99173      14854.136    
      8400   16.8           811.86289      94.342422      384.55639      14308.811    
      8500   17             806.09465      93.672124      383.66971      14146.577    
      8600   17.2           790.00769      91.802741      382.23296      14381.243    
      8700   17.4           789.8947       91.789611      381.41978      15436.509    
      8800   17.6           763.93329      88.772769      382.22577      12472.568    
      8900   17.8           834.18019      96.935801      386.96652      12844.929    
      9000   18             850.11791      98.787842      389.07447      16510.682    
      9100   18.2           798.37376      92.774919      385.93151      16364.388    
      9200   18.4           766.74098      89.099036      380.15935      12621.595    
      9300   18.6           766.93522      89.121608      381.38316      12262.567    
      9400   18.8           821.51913      95.464525      385.00702      15599.375    
      9500   19             799.43034      92.897699      386.02914      12022.736    
      9600   19.2           816.50104      94.881397      387.66735      14271.915    
      9700   19.4           843.5777       98.027838      391.64878      15082.556    
      9800   19.6           815.3461       94.747187      394.22032      15614.881    
      9900   19.8           795.23575      92.410267      388.69991      16276.887    
     10000   20             781.85903      90.855828      384.50639      16424.258    
     10100   20.2           789.12452      91.700113      383.08561      14572.806    
     10200   20.4           789.49931      91.743665      380.96913      14041.024    
     10300   20.6           774.27345      89.974346      377.6513       14089.515    
     10400   20.8           797.78779      92.706827      377.15528      14929.463    
     10500   21             809.96491      94.121867      383.13186      14738.866    
     10600   21.2           814.36279      94.632922      386.48834      14628.637    
     10700   21.4           808.23465      93.920803      386.45877      13854.735    
     10800   21.6           796.99966      92.615242      383.10585      14053.3      
     10900   21.8           742.99476      86.339609      377.45558      14370.091    
     11000   22             759.94656      88.309492      378.80381      13077.517    
     11100   22.2           786.01512      91.338785      382.14991      12999.026    
     11200   22.4           787.78779      91.544778      384.1127       14331.285    
     11300   22.6           804.95067      93.539188      384.55773      15279.356    
     11400   22.8           810.40407      94.1729        384.48084      12372.045    
     11500   23             773.80905      89.920381      384.87498      14972.042    
     11600   23.2           787.46709      91.507511      385.75278      15599.793    
     11700   23.4           817.96505      95.051522      386.7777       13165.057    
     11800   23.6           800.7096       93.046356      384.86685      13138.958    
     11900   23.8           778.71699      90.490707      381.09464      12434.827    
     12000   24             765.88393      88.999443      378.7575       12597.388    
     12100   24.2           782.84398      90.970283      382.838        14541.609    
     12200   24.4           830.57777      96.517182      388.25182      12813.674    
     12300   24.6           827.71992      96.185086      387.45415      13229.505    
     12400   24.8           783.30877      91.024294      384.05051      13114.091    
     12500   25             799.95667      92.958861      380.42846      13392.93     
     12600   25.2           800.09474      92.974906      378.02498      13751.551    
     12700   25.4           782.46196      90.925891      377.82096      12087.245    
     12800   25.6           787.00677      91.454019      382.9444       15738.137    
     12900   25.8           799.38938      92.89294       386.46146      15868.094    
     13000   26             791.59136      91.986771      386.26331      12705.035    
     13100   26.2           784.07217      91.113005      382.57506      14476.779    
     13200   26.4           785.61561      91.29236       377.94412      14116.106    
     13300   26.6           753.62547      87.57495       378.19752      13315.842    
     13400   26.8           821.21848      95.429587      386.34265      15884.46     
     13500   27             829.85921      96.433682      387.21457      14999.128    
     13600   27.2           830.05652      96.456611      386.0697       12326.171    
     13700   27.4           770.32348      89.51534       381.39319      13664.575    
     13800   27.6           781.80057      90.849033      379.64911      15969.871    
     13900   27.8           797.37179      92.658485      383.79321      13238.148    
     14000   28             798.69591      92.812355      387.87211      11841.518    
     14100   28.2           820.85617      95.387484      387.33574      14135.484    
     14200   28.4           798.937        92.84037       385.01491      14868.379    
     14300   28.6           796.74415      92.585551      382.31204      12482.678    
     14400   28.8           766.98359      89.127229      376.95747      13517.064    
     14500   29             740.28244      86.024425      374.54421      11744.254    
     14600   29.2           779.4981       90.581475      381.68939      11854.988    
     14700   29.4           849.67439      98.736303      384.5212       12127.692    
     14800   29.6           804.93779      93.537692      385.23764      14964.498    
     14900   29.8           805.71057      93.627492      384.92147      14615.326    
     15000   30             773.71814      89.909816      381.71919      11384.248    
     15100   30.2           751.81322      87.364358      378.36399      15037.085    
     15200   30.4           789.30971      91.721633      380.54339      11994.81     
     15300   30.6           848.45208      98.594264      387.44284      13828.651    
     15400   30.8           795.21121      92.407415      387.22554      15568.965    
     15500   31             811.19189      94.264448      383.76541      13955.712    
     15600   31.2           782.12667      90.886929      380.05698      13695.07     
     15700   31.4           780.82886      90.736117      380.77252      13828.029    
     15800   31.6           804.96926      93.541348      382.97561      16959.684    
     15900   31.8           806.39258      93.706745      383.72783      12621.166    
     16000   32             795.78461      92.474047      384.35029      15995.234    
     16100   32.2           776.82777      90.27117       384.85717      14672.84     
     16200   32.4           802.73263      93.281442      386.62526      15792.965    
     16300   32.6           841.98507      97.842766      389.67008      15946.437    
     16400   32.8           807.54697      93.840891      386.72997      14734.316    
     16500   33             792.02856      92.037576      380.89839      13405.799    
     16600   33.2           799.76593      92.936696      379.98774      14469.708    
     16700   33.4           796.55222      92.563248      382.36667      15273.325    
     16800   33.6           835.11362      97.04427       385.57455      13205.766    
     16900   33.8           859.85469      99.919303      391.54677      14981.728    
     17000   34             859.61858      99.891865      395.20212      14483.26     
     17100   34.2           835.79992      97.124022      389.93456      11044.901    
     17200   34.4           802.42664      93.245884      385.943        14595.177    
     17300   34.6           776.38734      90.21999       382.59529      14634.526    
     17400   34.8           774.31695      89.9794        381.24894      11962.308    
     17500   35             793.90446      92.255565      383.73419      12450.551    
     17600   35.2           821.19535      95.426899      389.88498      15064.638    
     17700   35.4           827.46595      96.155574      389.51515      15183.696    
     17800   35.6           810.33315      94.164659      384.8667       13973.401    
     17900   35.8           781.32074      90.793275      382.54068      14736.724    
     18000   36             795.56779      92.448852      382.55357      13061.813    
     18100   36.2           804.05932      93.43561       383.72812      15894.16     
     18200   36.4           818.25062      95.084707      387.92488      15843.013    
     18300   36.6           814.88382      94.693469      391.82719      13379.836    
     18400   36.8           822.35826      95.562035      389.17651      13582.392    
     18500   37             796.33813      92.538369      383.03655      15178.125    
     18600   37.2           802.09632      93.207498      382.24332      13540.022    
     18700   37.4           776.95276      90.285694      382.67518      14055.112    
     18800   37.6           812.42691      94.407963      385.91047      14640.372    
     18900   37.8           812.48778      94.415037      390.80752      14290.211    
     19000   38             802.63564      93.270171      391.71184      14472.772    
     19100   38.2           818.39389      95.101356      383.852        13211.542    
     19200   38.4           787.35067      91.493982      380.72522      13734.312    
     19300   38.6           784.94842      91.214829      382.00303      13949.589    
     19400   38.8           822.35966      95.562197      386.98551      14467.25     
     19500   39             814.35295      94.631779      388.0021       13526.24     
     19600   39.2           822.69736      95.60144       386.77269      15188.612    
     19700   39.4           778.22607      90.433659      379.77141      11771.942    
     19800   39.6           764.53552      88.842751      378.9939       12122.31     
     19900   39.8           788.16133      91.588185      382.73669      10927.729    
     20000   40             786.46191      91.390704      385.16052      13634.153    
     20100   40.2           827.57535      96.168286      386.82208      13185.881    
     20200   40.4           783.42033      91.037257      386.10528      14062.657    
     20300   40.6           775.96715      90.171163      383.90568      14071.469    
     20400   40.8           772.09845      89.7216        379.97944      14220.211    
     20500   41             767.5147       89.188946      379.61772      13991.357    
     20600   41.2           804.07729      93.437697      384.83113      14557.551    
     20700   41.4           853.58522      99.190759      387.78244      15052.511    
     20800   41.6           786.85171      91.436001      386.23174      14514.692    
     20900   41.8           803.71516      93.395616      383.726        12587.923    
     21000   42             791.36709      91.960711      382.08031      17393.994    
     21100   42.2           778.83791      90.504758      381.75358      13184.396    
     21200   42.4           768.84986      89.344099      382.55968      12171.136    
     21300   42.6           815.95387      94.817813      382.98487      13993.355    
     21400   42.8           784.37117      91.14775       384.52579      16495.671    
     21500   43             820.98083      95.401971      388.46787      13477.231    
     21600   43.2           851.82072      98.985716      391.05764      14398.168    
     21700   43.4           811.80469      94.335658      386.94838      14656.408    
     21800   43.6           792.18429      92.055673      381.98204      13782.75     
     21900   43.8           785.75225      91.308238      381.86557      14232.944    
     22000   44             810.10033      94.137604      384.36451      15633.623    
     22100   44.2           796.17113      92.518963      387.88517      15943.025    
     22200   44.4           854.86041      99.338943      393.25689      14372.075    
     22300   44.6           804.95089      93.539214      389.70924      14578.771    
     22400   44.8           782.53564      90.934452      383.56059      15919.182    
     22500   45             799.7192       92.931266      382.41352      14169.141    
     22600   45.2           816.06335      94.830535      382.52964      13807.918    
     22700   45.4           804.949        93.538994      383.71134      14630.061    
     22800   45.6           819.64743      95.247023      387.59698      13946.758    
     22900   45.8           815.16728      94.726408      391.33918      15398.585    
     23000   46             796.60794      92.569722      388.13752      16413.987    
     23100   46.2           817.7768       95.029647      382.30506      13937.216    
     23200   46.4           780.66412      90.716973      381.83692      12571.879    
     23300   46.6           819.197        95.194682      383.7068       14223.273    
     23400   46.8           817.68931      95.01948       386.41474      13789.567    
     23500   47             827.21679      96.12662       391.4577       13183.217    
     23600   47.2           803.2198       93.338053      390.97421      14431.429    
     23700   47.4           800.51648      93.023913      383.36438      13721.526    
     23800   47.6           807.06284      93.784632      381.27264      12651.43     
     23900   47.8           811.94663      94.352153      381.95332      15255.382    
     24000   48             858.50391      99.762336      386.32166      14411.181    
     24100   48.2           824.23142      95.779705      388.89619      14199.152    
     24200   48.4           834.55103      96.978894      388.88335      14736.345    
     24300   48.6           804.77239      93.518471      382.95451      14913.224    
     24400   48.8           782.36541      90.914671      380.22525      12425.328    
     24500   49             795.7882       92.474465      382.67573      14021        
     24600   49.2           827.91718      96.208009      387.2996       11583.868    
     24700   49.4           821.85534      95.503593      389.18146      14852.63     
     24800   49.6           782.07308      90.880701      386.54516      14011.176    
     24900   49.8           827.10364      96.113471      384.50488      12249.668    
     25000   50             804.4674       93.48303       382.68479      14621.678    
     25100   50.2           762.77798      88.638516      382.12064      11493.29     
     25200   50.4           815.84779      94.805487      385.57804      15468.276    
     25300   50.6           827.22681      96.127785      390.12531      15248.981    
     25400   50.8           813.68146      94.553749      392.1012       14471.126    
     25500   51             776.99905      90.291074      385.60057      14906.038    
     25600   51.2           826.35394      96.026353      381.70667      13627.192    
     25700   51.4           782.77896      90.962728      380.84945      13090.535    
     25800   51.6           782.4035       90.919098      383.53993      12860.328    
     25900   51.8           829.77291      96.423653      389.24242      12563.043    
     26000   52             808.37576      93.9372        389.80179      14536.212    
     26100   52.2           801.33645      93.119198      387.99221      14781.327    
     26200   52.4           830.44976      96.502306      386.2413       10424.531    
     26300   52.6           791.7082       92.000349      384.90538      14637.443    
     26400   52.8           806.44952      93.713362      384.40348      12202.781    
     26500   53             797.99219      92.730579      384.493        10768.919    
     26600   53.2           814.67509      94.669213      385.09588      13888.079    
     26700   53.4           832.22904      96.709067      386.09765      11327.423    
     26800   53.6           779.32522      90.561386      385.61561      15446.089    
     26900   53.8           790.5272       91.86311       384.1474       13207.382    
     27000   54             779.31037      90.559661      381.06345      17220.441    
     27100   54.2           768.15295      89.263114      380.24044      12956.296    
     27200   54.4           822.62303      95.592803      384.60859      14111.093    
     27300   54.6           765.15337      88.914549      387.28699      16608.516    
     27400   54.8           820.90121      95.392719      388.04498      13280.488    
     27500   55             757.22909      87.993708      382.06092      15508.067    
     27600   55.2           762.91977      88.654993      378.5578       14160.752    
     27700   55.4           773.89263      89.930093      380.70538      11726.515    
     27800   55.6           811.10972      94.254899      385.46282      14475.557    
     27900   55.8           834.54374      96.978047      386.50986      14277.941    
     28000   56             829.5494       96.397681      385.43493      12009.488    
     28100   56.2           784.72257      91.188584      383.04983      15781.113    
     28200   56.4           781.95639      90.867141      381.24329      14297.414    
     28300   56.6           828.39584      96.263631      382.5171       11140.107    
     28400   56.8           797.6291       92.688386      386.55028      16352.509    
     28500   57             795.24074      92.410847      390.30058      14804.773    
     28600   57.2           796.62905      92.572176      388.33699      14606.626    
     28700   57.4           764.81925      88.875722      383.39125      13294.309    
     28800   57.6           786.90926      91.442688      382.15863      13567.839    
     28900   57.8           801.33586      93.11913       383.1723       13134.756    
     29000   58             821.02713      95.407352      384.12565      14031.06     
     29100   58.2           796.99433      92.614623      383.76266      14043.866    
     29200   58.4           814.22976      94.617464      383.68546      14476.876    
     29300   58.6           807.33982      93.816819      384.77277      11990.312    
     29400   58.8           783.19317      91.010861      387.31547      16544.933    
     29500   59             826.0013       95.985374      389.89926      15063.355    
     29600   59.2           807.24347      93.805622      387.24042      13864.063    
     29700   59.4           785.256        91.250571      382.23257      13255.61     
     29800   59.6           781.65847      90.832521      380.34396      13567.191    
     29900   59.8           818.97292      95.168642      382.90985      14045.849    
     30000   60             815.4263       94.756508      388.99711      11214.697    
     30100   60.2           832.26712      96.713493      389.15848      14116.269    
     30200   60.4           795.35738      92.424401      386.73457      12599.191    
     30300   60.6           815.17127      94.726872      384.46066      12281.012    
     30400   60.8           797.48988      92.672208      382.64661      12382.215    
     30500   61             798.94313      92.841083      382.32684      12411.886    
     30600   61.2           779.83123      90.620186      384.16394      14962.046    
     30700   61.4           796.44266      92.550516      387.81802      14140.498    
     30800   61.6           818.10784      95.068115      387.91996      13161.599    
     30900   61.8           786.17193      91.357007      383.41133      14637.071    
     31000   62             788.88806      91.672634      379.12466      16467.258    
     31100   62.2           756.77549      87.940998      380.04787      15534.652    
     31200   62.4           785.12929      91.235848      382.09191      12154.395    
     31300   62.6           794.60877      92.33741       384.2769       13527.6      
     31400   62.8           801.01427      93.081759      385.45651      13747.997    
     31500   63             811.33536      94.281121      385.78298      14221.402    
     31600   63.2           818.65928      95.132196      383.79875      13217.401    
     31700   63.4           763.80508      88.75787       376.97859      14549.983    
     31800   63.6           777.06495      90.298732      377.70246      14312.128    
     31900   63.8           800.70289      93.045575      383.1619       13508.034    
     32000   64             854.83939      99.336501      385.46737      14904.258    
     32100   64.2           824.69762      95.83388       384.9554       14406.464    
     32200   64.4           779.90352      90.628588      382.20706      11534.933    
     32300   64.6           818.49125      95.11267       377.03259      13075.144    
     32400   64.8           774.9379       90.051558      376.92283      14844.728    
     32500   65             772.32479      89.747902      383.62449      13013.45     
     32600   65.2           800.18703      92.98563       386.41883      14521.175    
     32700   65.4           802.5626       93.261683      387.00296      14709.342    
     32800   65.6           796.47741      92.554554      386.2406       12293.78     
     32900   65.8           794.75862      92.354823      384.28267      12447.376    
     33000   66             786.55389      91.401392      380.88425      13112.659    
     33100   66.2           770.62791      89.550716      380.32237      13910.595    
     33200   66.4           823.36141      95.678605      386.8511       15137.787    
     33300   66.6           793.15485      92.168456      388.93833      15554.315    
     33400   66.8           827.09758      96.112767      387.07268      12945.892    
     33500   67             788.11685      91.583016      382.66093      14338.91     
     33600   67.2           774.71652      90.025833      380.39799      12439.602    
     33700   67.4           806.40935      93.708694      381.56151      12566.828    
     33800   67.6           768.6989       89.326556      382.61249      16091.587    
     33900   67.8           806.46895      93.71562       384.87141      11189.644    
     34000   68             818.35673      95.097037      386.32692      14734.287    
     34100   68.2           838.95447      97.490596      389.43676      16525.625    
     34200   68.4           818.26108      95.085923      391.27409      14036.681    
     34300   68.6           815.0762       94.715824      388.02389      12042.779    
     34400   68.8           787.7423       91.539492      382.83813      14279.851    
     34500   69             776.00388      90.17543       382.8675       14051.775    
     34600   69.2           764.99195      88.895791      385.96885      15522.685    
     34700   69.4           823.61043      95.707543      390.40545      15215.384    
     34800   69.6           835.07253      97.039495      394.97075      12738.264    
     34900   69.8           879.87715      102.24601      399.2536       14965.129    
     35000   70             824.06939      95.760876      391.94109      15892.687    
     35100   70.2           793.55809      92.215315      387.42804      13325.018    
     35200   70.4           815.67326      94.785206      383.82256      13569.954    
     35300   70.6           766.89865      89.117358      382.66844      15684.603    
     35400   70.8           810.72302      94.209964      384.96073      12653.198    
     35500   71             833.30463      96.834056      390.53096      15534.705    
     35600   71.2           821.47107      95.45894       390.67206      14770.968    
     35700   71.4           797.16867      92.634881      386.48162      17121.667    
     35800   71.6           790.60038      91.871615      382.83969      12497.728    
     35900   71.8           786.92605      91.44464       383.35242      12343.565    
     36000   72             808.16448      93.912649      385.07684      16071.184    
     36100   72.2           820.53537      95.350207      387.37714      15850.772    
     36200   72.4           811.61472      94.313583      389.02734      12663.218    
     36300   72.6           812.16564      94.377603      388.13058      11871.397    
     36400   72.8           786.68424      91.41654       382.7104       13404.2      
     36500   73             781.1462       90.772993      380.59142      12335.836    
     36600   73.2           817.8997       95.043928      383.15379      13786.203    
     36700   73.4           835.41531      97.079328      389.21386      15070.936    
     36800   73.6           789.01749      91.687675      389.70859      14494.546    
     36900   73.8           820.31995      95.325174      386.94286      13724.559    
     37000   74             788.54762      91.633074      384.08027      15260.413    
     37100   74.2           787.65144      91.528934      380.77044      12793.787    
     37200   74.4           790.92027      91.908788      380.26729      15051.824    
     37300   74.6           803.61265      93.383704      384.5807       12920.884    
     37400   74.8           805.31376      93.581381      388.35898      13957.859    
     37500   75             796.87932      92.601258      388.29315      15550.756    
     37600   75.2           803.55744      93.377289      383.79722      13576.682    
     37700   75.4           753.7513       87.589572      380.39359      14440.934    
     37800   75.6           798.1727       92.751556      381.61064      13825        
     37900   75.8           817.6195       95.011368      385.97767      15269.255    
     38000   76             843.65798      98.037166      393.22039      16378.912    
     38100   76.2           818.06451      95.063081      390.91217      14592.233    
     38200   76.4           809.91552      94.116128      386.00898      10992.404    
     38300   76.6           768.36719      89.28801       383.67054      14766.832    
     38400   76.8           816.13928      94.839359      384.81757      12553.071    
     38500   77             805.13137      93.560186      388.3453       14314.428    
     38600   77.2           837.29914      97.298238      393.88889      15323.6      
     38700   77.4           830.3906       96.495433      391.91944      13760.987    
     38800   77.6           819.36494      95.214197      385.4055       13546.322    
     38900   77.8           803.39094      93.35794       383.97732      14849.29     
     39000   78             776.14756      90.192126      384.18462      13314.622    
     39100   78.2           793.06879      92.158456      386.02717      14695.797    
     39200   78.4           820.76066      95.376386      390.40452      13605.2      
     39300   78.6           813.80213      94.567771      391.92749      12437.204    
     39400   78.8           806.52719      93.722388      385.21208      14730.622    
     39500   79             786.20357      91.360684      382.06466      13192.752    
     39600   79.2           786.68234      91.416319      382.41316      13898.657    
     39700   79.4           796.76972      92.588522      386.00311      16288.027    
     39800   79.6           809.34508      94.04984       389.01634      14206.09     
     39900   79.8           795.75342      92.470422      386.76911      15836.221    
     40000   80             745.87795      86.674651      380.10915      14616.058    
     40100   80.2           785.75292      91.308316      380.21529      14097.042    
     40200   80.4           797.81221      92.709665      384.33027      14203.29     
     40300   80.6           785.92764      91.328619      386.63966      13970.531    
     40400   80.8           795.7219       92.46676       386.75177      16199.439    
     40500   81             785.49602      91.278463      383.06767      12956.364    
     40600   81.2           776.55416      90.239376      379.29138      13775.369    
     40700   81.4           792.2299       92.060972      380.82887      13210.86     
     40800   81.6           824.05507      95.759212      385.77145      16079.663    
     40900   81.8           816.91978      94.930058      387.1212       13808.717    
     41000   82             770.4693       89.532285      386.0296       15100.702    
     41100   82.2           745.41871      86.621285      381.75536      16176.964    
     41200   82.4           766.66593      89.090315      376.7819       12536.1      
     41300   82.6           767.83054      89.225649      379.55844      13326.205    
     41400   82.8           807.58867      93.845737      384.49051      13577.202    
     41500   83             801.15211      93.097777      386.05763      12314.667    
     41600   83.2           794.68814      92.346632      385.38567      14567.993    
     41700   83.4           818.9273       95.163341      382.85147      12633.597    
     41800   83.6           776.19391      90.197512      378.41249      10707.605    
     41900   83.8           783.92226      91.095584      379.3489       14007.974    
     42000   84             824.96382      95.864813      386.55432      15049.409    
     42100   84.2           807.166        93.79662       386.94052      14340.404    
     42200   84.4           817.11506      94.952749      385.24892      13347.582    
     42300   84.6           822.71701      95.603724      381.80271      12902.835    
     42400   84.8           755.80715      87.828471      377.44003      15081.47     
     42500   85             735.72456      85.494777      375.72316      12182.717    
     42600   85.2           776.82529      90.270882      383.11318      13065.107    
     42700   85.4           821.09775      95.415557      386.67954      16676.39     
     42800   85.6           822.72748      95.60494       385.82974      14154.713    
     42900   85.8           807.48415      93.833591      383.71977      12795.523    
     43000   86             810.9247       94.233399      379.49048      13454.226    
     43100   86.2           784.30021      91.139504      378.02484      14666.141    
     43200   86.4           827.44579      96.153231      384.08385      13866.566    
     43300   86.6           800.15733      92.982178      388.42719      13408.787    
     43400   86.8           800.08094      92.973302      386.71568      13538.869    
     43500   87             761.05364      88.438139      382.44732      14883.446    
     43600   87.2           794.56442      92.332255      380.46528      13882.331    
     43700   87.4           786.70672      91.419153      382.87051      11261.637    
     43800   87.6           848.24587      98.570301      390.66467      12549.09     
     43900   87.8           842.85799      97.944203      390.69253      17742.164    
     44000   88             809.2578       94.039698      386.90064      13769.699    
     44100   88.2           796.94072      92.608393      382.53942      12977.27     
     44200   88.4           792.54433      92.097511      381.40501      14100.558    
     44300   88.6           797.06323      92.62263       382.55394      13105.97     
     44400   88.8           842.18526      97.866029      388.9456       15949.915    
     44500   89             860.37067      99.979262      391.51738      15057.664    
     44600   89.2           797.4934       92.672617      387.10382      14594.294    
     44700   89.4           821.68194      95.483443      384.30087      13596.701    
     44800   89.6           784.21257      91.12932       383.3472       14881.762    
     44900   89.8           800.74558      93.050536      382.70128      13713.141    
     45000   90             790.54359      91.865015      385.62168      13561.453    
     45100   90.2           848.91385      98.647924      390.22797      14473.996    
     45200   90.4           784.02443      91.107458      388.17893      16468.323    
     45300   90.6           795.76428      92.471685      382.23214      13806.161    
     45400   90.8           785.21955      91.246336      381.15916      16505.499    
     45500   91             808.20089      93.91688       383.54427      12281.037    
     45600   91.2           817.57252      95.005909      386.83243      13892.585    
     45700   91.4           811.11225      94.255193      387.82852      15606.632    
     45800   91.6           783.71033      91.070957      384.51364      13794.335    
     45900   91.8           765.96936      89.00937       378.38121      13553.95     
     46000   92             793.02223      92.153045      379.40067      12717.826    
     46100   92.2           780.51902      90.700111      383.76071      13548.258    
     46200   92.4           816.98358      94.937471      386.78018      16119.474    
     46300   92.6           807.13603      93.793138      387.27382      16411.257    
     46400   92.8           827.42692      96.151038      385.42186      12778.783    
     46500   93             782.37436      90.915712      377.7379       12587.665    
     46600   93.2           796.62662      92.571893      378.63386      13563.861    
     46700   93.4           783.26572      91.019291      383.50987      13102.834    
     46800   93.6           809.48887      94.066549      387.18374      14983.208    
     46900   93.8           803.51616      93.372491      386.79717      16625.623    
     47000   94             783.60171      91.058336      384.73694      15409.942    
     47100   94.2           768.28726      89.278721      378.38553      13699.178    
     47200   94.4           765.03108      88.900338      377.07483      14543.505    
     47300   94.6           780.03017      90.643305      379.96839      14852.712    
     47400   94.8           778.34899      90.447943      383.00735      15312.582    
     47500   95             794.26759      92.297762      384.66691      14580.305    
     47600   95.2           800.70155      93.045419      385.21045      14773.769    
     47700   95.4           836.79357      97.239488      385.98037      13188.37     
     47800   95.6           781.816        90.850827      385.70615      12408.136    
     47900   95.8           805.73827      93.630711      385.14659      14017.01     
     48000   96             810.96435      94.238007      384.52665      15646.83     
     48100   96.2           777.61452      90.362594      383.07089      11116.961    
     48200   96.4           785.49068      91.277842      383.66913      15254.818    
     48300   96.6           802.41987      93.245097      386.83749      13954.922    
     48400   96.8           827.35945      96.143197      390.83952      15436.185    
     48500   97             845.8562       98.292611      388.86291      13921.7      
     48600   97.2           769.38814      89.406649      381.93176      15889.546    
     48700   97.4           785.99461      91.336402      381.56853      13423.814    
     48800   97.6           786.69654      91.41797       382.89328      13260.57     
     48900   97.8           815.7718       94.796656      386.56526      15320.689    
     49000   98             796.69771      92.580154      389.40074      13770.296    
     49100   98.2           827.012        96.102822      390.63995      13694.371    
     49200   98.4           817.48346      94.995559      385.5111       14070.009    
     49300   98.6           767.69575      89.209985      381.12159      15715.009    
     49400   98.8           768.35322      89.286386      381.03633      13127.817    
     49500   99             821.14813      95.421412      384.1961       15025.582    
     49600   99.2           832.3002       96.717337      389.71339      14844.286    
     49700   99.4           826.66376      96.062355      392.27549      16085.799    
     49800   99.6           773.27108      89.857866      386.27445      12282.571    
     49900   99.8           773.30737      89.862083      382.83213      14220.334    
     50000   100            795.21212      92.407522      382.51507      11269.144    
     50100   100.2          792.35039      92.074975      382.64754      15477.207    
     50200   100.4          827.99255      96.216767      384.46696      14962.418    
     50300   100.6          807.52862      93.838758      388.28506      15364.186    
     50400   100.8          820.47571      95.343273      390.06041      14103.279    
     50500   101            802.72319      93.280344      385.47255      15004.518    
     50600   101.2          787.81762      91.548244      380.83712      13870.804    
     50700   101.4          790.00406      91.802319      381.65993      12806.823    
     50800   101.6          838.08143      97.389144      385.54858      12755.771    
     50900   101.8          811.19581      94.264903      386.70999      14166.073    
     51000   102            792.3824       92.078694      386.31598      14479.205    
     51100   102.2          792.76499      92.123153      384.81784      15286.32     
     51200   102.4          765.19124      88.918949      383.09953      12501.601    
     51300   102.6          791.04209      91.922943      380.91788      13683.513    
     51400   102.8          772.81318      89.804656      376.54459      11099.131    
     51500   103            775.85872      90.158562      376.37161      12103.07     
     51600   103.2          767.88351      89.231803      382.71879      15581.899    
     51700   103.4          799.76124      92.936151      385.53365      12910.495    
     51800   103.6          809.87521      94.111444      385.955        16907.33     
     51900   103.8          767.54793      89.192808      385.08758      14604.578    
     52000   104            810.00494      94.126519      381.739        12857.817    
     52100   104.2          755.52567      87.795762      377.79147      12434.144    
     52200   104.4          765.61375      88.968047      379.43095      13138.656    
     52300   104.6          809.464        94.063659      385.823        14741.084    
     52400   104.8          817.65132      95.015066      386.64795      15371.042    
     52500   105            793.47916      92.206143      385.32035      13032.577    
     52600   105.2          794.74657      92.353422      381.66704      14786.27     
     52700   105.4          781.53855      90.818586      379.05209      14913.817    
     52800   105.6          761.33506      88.470842      377.96055      11982.56     
     52900   105.8          789.15563      91.703728      382.08222      15578.067    
     53000   106            812.26432      94.38907       386.77698      15480.478    
     53100   106.2          813.08112      94.483986      388.83601      12867.616    
     53200   106.4          832.02902      96.685824      387.91725      14451.718    
     53300   106.6          786.34431      91.377038      381.73524      15502.827    
     53400   106.8          795.93683      92.491736      380.76982      13454.527    
     53500   107            808.42143      93.942508      382.77053      14030.727    
     53600   107.2          815.99053      94.822074      385.14079      16862.566    
     53700   107.4          817.98252      95.053553      385.72867      9971.8622    
     53800   107.6          782.68472      90.951777      385.25072      13527.837    
     53900   107.8          800.86976      93.064967      384.46257      14228.829    
     54000   108            802.99778      93.312253      381.71164      13537.779    
     54100   108.2          783.78416      91.079536      376.90748      13601.072    
     54200   108.4          777.89845      90.395588      378.27149      12504.851    
     54300   108.6          768.26243      89.275836      383.91342      12773.114    
     54400   108.8          797.09128      92.625888      386.08894      12325.455    
     54500   109            813.33512      94.513502      385.38405      13890.431    
     54600   109.2          764.07263      88.78896       380.83895      14707.603    
     54700   109.4          757.59363      88.03607       377.30491      13344.304    
     54800   109.6          778.26378      90.438042      380.94698      11996.576    
     54900   109.8          804.60756      93.499317      383.59214      11780.023    
     55000   110            801.18671      93.101798      385.59328      14440.918    
     55100   110.2          802.57711      93.263369      388.15324      13693.637    
     55200   110.4          799.65064      92.923299      389.14953      15180.008    
     55300   110.6          798.59647      92.800799      384.78245      15101.092    
     55400   110.8          797.5757       92.682181      379.66996      13001.614    
     55500   111            783.61948      91.0604        380.1553       11765.364    
     55600   111.2          821.07329      95.412715      383.57779      14728.295    
     55700   111.4          785.22796      91.247313      386.41085      13427.778    
     55800   111.6          807.51784      93.837505      387.30516      13076.031    
     55900   111.8          802.81404      93.290901      386.53373      14885.1      
     56000   112            784.14529      91.121502      384.00944      15319.096    
     56100   112.2          780.10543      90.65205       378.69434      11853.29     
     56200   112.4          745.53033      86.634255      376.5523       12912.637    
     56300   112.6          792.01066      92.035496      382.39355      13444.886    
     56400   112.8          788.51055      91.628767      383.9298       13030.755    
     56500   113            827.06553      96.109042      384.72777      13487.119    
     56600   113.2          806.21734      93.686381      384.04035      11217.93     
     56700   113.4          787.26771      91.484342      383.99791      12703.54     
     56800   113.6          808.25328      93.922967      386.24694      12245.05     
     56900   113.8          825.80364      95.962405      388.65983      13096.68     
     57000   114            788.84428      91.667547      389.46338      13715.175    
     57100   114.2          811.08714      94.252276      384.25383      13749.953    
     57200   114.4          818.85905      95.15541       381.24014      12940.298    
     57300   114.6          786.65631      91.413295      381.002        13183.109    
     57400   114.8          772.71703      89.793483      386.08967      15378.646    
     57500   115            863.88067      100.38714      390.50433      14240.475    
     57600   115.2          835.09292      97.041865      388.01126      16228.872    
     57700   115.4          810.89344      94.229767      383.64949      14133.813    
     57800   115.6          788.42486      91.618809      380.90696      14510.531    
     57900   115.8          799.88985      92.951096      382.88533      13116.394    
     58000   116            847.19312      98.447966      385.50821      13427.915    
     58100   116.2          828.82484      96.313484      385.26929      13483.163    
     58200   116.4          816.14142      94.839608      385.25593      14059.182    
     58300   116.6          786.53134      91.398772      384.11952      12367.059    
     58400   116.8          820.02457      95.290849      382.76464      11470.476    
     58500   117            782.24305      90.900452      380.63909      14972.156    
     58600   117.2          786.11112      91.349941      382.01128      11390.831    
     58700   117.4          823.39267      95.682239      387.24216      15675.681    
     58800   117.6          830.52036      96.510511      388.37219      13467.41     
     58900   117.8          782.51384      90.93192       385.39148      16137.734    
     59000   118            772.22628      89.736455      378.95015      11303.87     
     59100   118.2          771.31608      89.630685      377.81896      15181.87     
     59200   118.4          804.71076      93.51131       380.91381      14304.217    
     59300   118.6          786.22199      91.362825      384.90332      15364.927    
     59400   118.8          800.16233      92.98276       387.53696      11689.719    
     59500   119            781.9193       90.862831      387.77734      14864.739    
     59600   119.2          768.83323      89.342166      382.95228      14497.738    
     59700   119.4          764.36388      88.822805      378.43611      13130.097    
     59800   119.6          804.04991      93.434516      381.20774      14544.866    
     59900   119.8          829.81694      96.42877       384.99911      14231.114    
     60000   120            825.81562      95.963797      385.77877      14408.848    
     60100   120.2          781.48859      90.81278       385.03577      12589.497    
     60200   120.4          786.07844      91.346143      382.57616      13685.808    
     60300   120.6          787.15195      91.47089       377.00982      10246.648    
     60400   120.8          737.80804      85.736888      377.37956      11498.639    
     60500   121            803.00727      93.313356      382.84947      15181.789    
     60600   121.2          809.76435      94.098562      384.56965      13862.335    
     60700   121.4          780.39793      90.68604       386.22787      16113.866    
     60800   121.6          825.96175      95.980778      386.18914      13723.691    
     60900   121.8          769.91448      89.467813      381.16332      11529.699    
     61000   122            758.48219      88.139324      377.54304      14716.929    
     61100   122.2          765.50112      88.954958      380.16662      12961.641    
     61200   122.4          839.68285      97.575237      384.83228      12356.973    
     61300   122.6          825.51751      95.929155      385.63557      14770.865    
     61400   122.8          801.96157      93.191841      385.78144      15803.825    
     61500   123            801.61125      93.151132      384.59154      13733.014    
     61600   123.2          795.26038      92.413129      381.7976       10546.706    
     61700   123.4          771.47736      89.649427      378.95284      14908.202    
     61800   123.6          812.32748      94.39641       382.45593      12603.318    
     61900   123.8          848.4775       98.597217      387.22377      11303.943    
     62000   124            816.77474      94.913203      387.121        14497.403    
     62100   124.2          790.41647      91.850244      384.92961      14718.702    
     62200   124.4          753.7471       87.589084      379.28884      15366.224    
     62300   124.6          765.54545      88.96011       378.84766      15742.396    
     62400   124.8          806.60112      93.730978      381.59685      12897.961    
     62500   125            772.13467      89.725809      383.66585      13643.036    
     62600   125.2          815.13154      94.722254      386.6555       13735.714    
     62700   125.4          821.82351      95.499894      388.10271      14811.284    
     62800   125.6          789.19313      91.708085      384.83647      14920.743    
     62900   125.8          775.41017      90.106439      380.26539      14745.19     
     63000   126            790.25388      91.831349      380.04827      10736.84     
     63100   126.2          799.70701      92.92985       386.10428      13180.942    
     63200   126.4          801.9516       93.190681      390.49982      13352.385    
     63300   126.6          835.06675      97.038824      387.66325      14216.245    
     63400   126.8          807.88153      93.879769      383.01507      10763.644    
     63500   127            790.23066      91.828652      381.10711      13878.071    
     63600   127.2          765.34972      88.937365      382.24101      12369.399    
     63700   127.4          836.25838      97.177296      389.25159      14210.855    
     63800   127.6          801.05767      93.086803      390.27176      13743.627    
     63900   127.8          867.48626      100.80613      387.86972      13827.936    
     64000   128            810.64949      94.201419      384.80347      15466.073    
     64100   128.2          792.44141      92.085551      383.41434      11855.085    
     64200   128.4          776.06885      90.18298       383.19954      13568.008    
     64300   128.6          792.28164      92.066985      384.52409      13821.974    
     64400   128.8          794.79277      92.358791      385.31099      12749.486    
     64500   129            839.2768       97.528052      385.50038      14688.589    
     64600   129.2          792.80269      92.127534      380.4754       15112.194    
     64700   129.4          770.9248       89.585217      377.57667      11598.748    
     64800   129.6          789.022        91.688199      380.63423      13412.316    
     64900   129.8          812.08879      94.368672      385.40473      16491.317    
     65000   130            785.1178       91.234513      386.33605      13677.653    
     65100   130.2          770.39456      89.5236        385.36087      16376.577    
     65200   130.4          785.04306      91.225828      380.14525      14054.762    
     65300   130.6          755.0079       87.735595      374.5659       12202.375    
     65400   130.8          751.98628      87.384468      377.85489      14593.218    
     65500   131            785.70066      91.302243      383.0574       13554.425    
     65600   131.2          812.04712      94.363831      385.49523      12119.677    
     65700   131.4          810.98055      94.239889      386.5104       14748.321    
     65800   131.6          814.71261      94.673574      385.16307      14843.835    
     65900   131.8          773.55491      89.890848      380.21982      15754.842    
     66000   132            771.87707      89.695875      379.13127      13468.729    
     66100   132.2          818.14786      95.072766      383.73171      15629.983    
     66200   132.4          834.23142      96.941754      387.94729      15371.229    
     66300   132.6          817.14709      94.956471      387.65673      14566.896    
     66400   132.8          815.86239      94.807183      385.40639      11716.502    
     66500   133            799.11142      92.860639      383.45721      12045.578    
     66600   133.2          828.07074      96.225853      384.42083      14941.456    
     66700   133.4          849.61985      98.729965      390.3937       12722.81     
     66800   133.6          813.06703      94.482349      393.35023      12471.792    
     66900   133.8          809.10161      94.021548      389.09508      17628.302    
     67000   134            785.05934      91.227719      384.04755      13387.072    
     67100   134.2          770.57948      89.545089      382.69174      13081.717    
     67200   134.4          783.08355      90.998123      383.99591      13338.409    
     67300   134.6          791.92039      92.025007      389.74734      14597.267    
     67400   134.8          817.47712      94.994823      391.92564      15029.924    
     67500   135            810.37269      94.169254      389.4317       16286.975    
     67600   135.2          827.17203      96.121418      386.73125      14627.794    
     67700   135.4          752.92309      87.49333       383.74742      14997.32     
     67800   135.6          838.59784      97.449154      383.46379      14597.126    
     67900   135.8          766.43161      89.063086      381.57534      14007.886    
     68000   136            804.22239      93.454558      377.54456      13263.563    
     68100   136.2          769.494        89.41895       376.3672       14255.798    
     68200   136.4          799.52766      92.909008      381.9731       17611.32     
     68300   136.6          806.58607      93.72923       385.07681      14915.682    
     68400   136.8          802.95425      93.307195      385.17191      14902.685    
     68500   137            790.20807      91.826026      382.17722      13031.012    
     68600   137.2          767.39632      89.17519       376.35444      14044.581    
     68700   137.4          778.05968      90.414325      375.82922      13725.838    
     68800   137.6          818.35183      95.096469      379.83346      11558.674    
     68900   137.8          796.77459      92.589088      381.82046      11897.689    
     69000   138            810.44776      94.177977      383.23076      15453.047    
     69100   138.2          770.9159       89.584182      385.09115      11582.992    
     69200   138.4          806.82732      93.757264      387.74603      16548.175    
     69300   138.6          843.47804      98.016256      390.1293       16134.607    
     69400   138.8          795.72018      92.46656       386.3754       13174.095    
     69500   139            772.00801      89.711091      380.67171      15752.243    
     69600   139.2          798.13439      92.747103      380.82819      13783.066    
     69700   139.4          773.07434      89.835003      383.40668      13073.786    
     69800   139.6          805.59838      93.614456      388.15714      14696.461    
     69900   139.8          846.66799      98.386944      389.6047       15794.045    
     70000   140            809.60345      94.079864      387.48823      14046.806    
     70100   140.2          813.23188      94.501505      384.75836      14602.296    
     70200   140.4          753.3164       87.539034      381.72354      14027.044    
     70300   140.6          799.30258      92.882853      381.83012      16432.09     
     70400   140.8          820.17263      95.308054      387.89625      13900.868    
     70500   141            854.65297      99.314838      390.88312      14791.708    
     70600   141.2          809.72504      94.093994      387.61911      14328.357    
     70700   141.4          780.57249      90.706325      384.55388      13867.833    
     70800   141.6          814.12976      94.605844      383.23053      12941.303    
     70900   141.8          816.2793       94.85563       382.89316      12986.201    
     71000   142            770.48365      89.533953      382.38674      16760.705    
     71100   142.2          810.94858      94.236175      385.68305      10826.244    
     71200   142.4          831.50214      96.624598      390.98246      15150.186    
     71300   142.6          849.39219      98.703509      391.26281      15194.549    
     71400   142.8          826.59719      96.054619      385.43895      12059.187    
     71500   143            798.53017      92.793095      382.69475      12754.09     
     71600   143.2          796.10262      92.511002      382.04315      13489.813    
     71700   143.4          782.42976      90.922149      382.64116      13541.921    
     71800   143.6          809.71288      94.09258       386.93904      17134.451    
     71900   143.8          833.24596      96.827238      391.05007      15956.774    
     72000   144            810.36761      94.168663      387.3909       12646.58     
     72100   144.2          829.74134      96.419984      384.16746      14750.15     
     72200   144.4          834.69771      96.99594       383.54806      15372.102    
     72300   144.6          773.8315       89.922989      383.10764      14170.433    
     72400   144.8          824.64437      95.827692      384.78774      14239.461    
     72500   145            810.65016      94.201496      388.37923      14580.818    
     72600   145.2          826.81105      96.079471      390.28208      16983.454    
     72700   145.4          809.25785      94.039703      386.11637      16152.8      
     72800   145.6          798.37075      92.774569      380.8507       12679.418    
     72900   145.8          766.68141      89.092114      381.54751      16021.899    
     73000   146            803.88631      93.415504      385.16845      16038.771    
     73100   146.2          833.23013      96.8254        388.27629      13479.069    
     73200   146.4          812.95708      94.469572      386.96944      15461.023    
     73300   146.6          787.90074      91.557904      385.1616       14432.796    
     73400   146.8          814.00085      94.590863      384.15105      13588.411    
     73500   147            813.71306      94.557421      384.33841      14418.48     
     73600   147.2          816.18917      94.845157      388.3415       14954.088    
     73700   147.4          818.5761       95.12253       392.23391      13622.562    
     73800   147.6          822.42941      95.570303      390.07238      15162.107    
     73900   147.8          805.60258      93.614944      383.91584      14424.822    
     74000   148            762.44775      88.600142      381.82765      14672.02     
     74100   148.2          787.89117      91.556792      382.96025      13485.176    
     74200   148.4          843.71805      98.044146      387.27213      14818.464    
     74300   148.6          822.3243       95.558088      390.06025      13790.915    
     74400   148.8          809.1315       94.025022      393.47018      15549.167    
     74500   149            822.93982      95.629615      393.28525      14920.282    
     74600   149.2          790.32801      91.839964      386.2845       14624.619    
     74700   149.4          784.6355       91.178467      383.12315      15597.913    
     74800   149.6          783.05337      90.994615      382.12309      15731.182    
     74900   149.8          793.65643      92.226743      383.92648      11261.47     
     75000   150            811.84884      94.340789      389.05838      14793.352    
     75100   150.2          833.97872      96.912389      390.83858      16949.329    
     75200   150.4          788.11968      91.583345      385.30624      16016.191    
     75300   150.6          785.62679      91.293659      380.47678      12767.292    
     75400   150.8          789.25836      91.715665      382.69131      16535.685    
     75500   151            804.21646      93.45387       386.20792      13984.974    
     75600   151.2          847.03933      98.430096      388.75426      13842.301    
     75700   151.4          805.82926      93.641285      389.15185      14048.739    
     75800   151.6          779.04917      90.529308      384.4172       15218.575    
     75900   151.8          767.8748       89.230791      380.31939      13833.893    
     76000   152            789.56691      91.751521      380.26542      10146.247    
     76100   152.2          802.51231      93.255839      385.08851      14520.253    
     76200   152.4          824.11546      95.76623       389.34008      16211.037    
     76300   152.6          778.45212      90.459927      387.49328      12367.031    
     76400   152.8          795.8581       92.482587      385.49222      13814.949    
     76500   153            798.19282      92.753894      382.67331      13386.066    
     76600   153.2          780.98376      90.754117      381.30268      13977.756    
     76700   153.4          780.71112      90.722434      379.77608      11419.988    
     76800   153.6          814.89824      94.695144      380.44001      13599.53     
     76900   153.8          818.54867      95.119342      384.45861      16030.183    
     77000   154            793.87114      92.251692      388.03131      12608.743    
     77100   154.2          833.95519      96.909655      387.68689      15301.79     
     77200   154.4          816.16002      94.841769      381.55951      15403.21     
     77300   154.6          773.77539      89.916469      379.97771      13580.498    
     77400   154.8          804.25664      93.458538      381.60962      16074.534    
     77500   155            785.83789      91.31819       384.78365      9924.3443    
     77600   155.2          790.86826      91.902743      387.72744      15326.906    
     77700   155.4          807.25916      93.807446      386.34622      14960.124    
     77800   155.6          762.57933      88.615432      380.31126      12545.072    
     77900   155.8          773.74405      89.912828      379.47437      13740.058    
     78000   156            805.62825      93.617926      383.34548      13796.608    
     78100   156.2          790.3588       91.843542      387.35839      13719.707    
     78200   156.4          835.94861      97.1413        387.88471      11638.135    
     78300   156.6          783.714        91.071383      386.33188      13557.533    
     78400   156.8          796.48327      92.555235      385.48137      14404.709    
     78500   157            833.91299      96.904751      384.35736      12328.888    
     78600   157.2          804.22177      93.454486      382.70632      11243.73     
     78700   157.4          788.64103      91.643929      382.28194      15459.013    
     78800   157.6          777.72719      90.375688      382.75361      12199.956    
     78900   157.8          809.76454      94.098583      385.05037      14077.466    
     79000   158            806.24478      93.68957       388.26164      16422.042    
     79100   158.2          828.97395      96.33081       388.54571      12685.037    
     79200   158.4          780.71695      90.723112      382.48924      15966.081    
     79300   158.6          781.77533      90.846101      380.51092      11491.82     
     79400   158.8          803.86119      93.412586      383.46611      12522.163    
     79500   159            791.9887       92.032944      386.16761      12966.982    
     79600   159.2          800.32677      93.001869      387.7729       12236.261    
     79700   159.4          813.69066      94.554818      386.97171      12892.945    
     79800   159.6          812.92825      94.466222      384.83659      13381.2      
     79900   159.8          785.64469      91.295739      382.95132      16276.678    
     80000   160            796.8596       92.598966      378.563        12568.287    
     80100   160.2          779.36429      90.565927      377.72367      13950.749    
     80200   160.4          776.53328      90.236949      383.59342      15157.126    
     80300   160.6          804.87652      93.530571      387.55169      14808.107    
     80400   160.8          835.19428      97.053643      388.47802      14967.429    
     80500   161            788.51427      91.629199      384.41565      13617.222    
     80600   161.2          772.02527      89.713096      380.00829      15114.688    
     80700   161.4          771.90939      89.699631      381.05878      13237.401    
     80800   161.6          794.00778      92.267571      382.86336      12932.629    
     80900   161.8          837.94368      97.373136      383.97046      13326.602    
     81000   162            791.92199      92.025192      385.50417      12925.118    
     81100   162.2          804.27387      93.460541      387.66351      15325.231    
     81200   162.4          816.6598       94.899846      389.44555      13798.827    
     81300   162.6          817.97973      95.053228      387.50895      14071.22     
     81400   162.8          801.94087      93.189435      382.62621      13972.569    
     81500   163            764.62274      88.852887      381.66029      14982.225    
     81600   163.2          811.03356      94.24605       386.07509      11282.731    
     81700   163.4          811.98517      94.356631      388.95569      14056.608    
     81800   163.6          801.78454      93.171269      388.46626      16278.021    
     81900   163.8          778.58574      90.475455      386.59765      12090.441    
     82000   164            791.1662       91.937365      382.94844      14014.885    
     82100   164.2          767.99894      89.245218      379.81014      15052.965    
     82200   164.4          758.33075      88.121727      380.04131      12990.07     
     82300   164.6          808.98711      94.008242      386.38895      12625.211    
     82400   164.8          823.95454      95.747531      388.70407      15340.606    
     82500   165            799.72061      92.93143       387.05741      13252.56     
     82600   165.2          800.73226      93.048989      382.36101      14955.793    
     82700   165.4          764.10137      88.792301      379.6919       14626.314    
     82800   165.6          778.68978      90.487545      381.43133      15674.336    
     82900   165.8          817.35066      94.980127      383.39018      14019.007    
     83000   166            782.82172      90.967696      384.10574      15216.782    
     83100   166.2          797.03596      92.61946       384.42159      15471.391    
     83200   166.4          773.7269       89.910835      385.07309      14070.947    
     83300   166.6          807.32104      93.814637      386.42882      12495.893    
     83400   166.8          829.60531      96.404178      388.14344      15351.64     
     83500   167            799.43263      92.897965      388.90105      15320.923    
     83600   167.2          786.6031       91.407112      383.55602      12496.606    
     83700   167.4          799.99571      92.963397      380.80901      15664.089    
     83800   167.6          798.28366      92.76445       381.88662      13960.915    
     83900   167.8          796.80234      92.592313      387.15361      13897.109    
     84000   168            816.82869      94.919472      388.75135      11577.758    
     84100   168.2          802.21178      93.220916      386.8063       12652.192    
     84200   168.4          795.91172      92.488818      384.22602      12955.159    
     84300   168.6          788.60808      91.640099      381.21502      13400.24     
     84400   168.8          794.41933      92.315395      379.3906       14312.016    
     84500   169            792.82031      92.129581      377.17031      14991.891    
     84600   169.2          785.15272      91.238571      380.14331      11742.518    
     84700   169.4          814.36298      94.632944      385.3312       14555.847    
     84800   169.6          814.9745       94.704007      386.91665      16622.286    
     84900   169.8          828.76092      96.306056      385.84133      14144.8      
     85000   170            779.86336      90.623921      379.62548      13194.153    
     85100   170.2          797.84983      92.714036      377.94073      13643.432    
     85200   170.4          788.51862      91.629704      380.36587      12385.385    
     85300   170.6          785.46154      91.274456      382.77279      14587.326    
     85400   170.8          813.64503      94.549515      384.26256      14369.928    
     85500   171            786.94332      91.446647      383.96243      11358.067    
     85600   171.2          804.97764      93.542323      384.79722      14223.434    
     85700   171.4          834.31133      96.951039      389.7593       14115.923    
     85800   171.6          841.74184      97.814501      393.54425      13582.634    
     85900   171.8          812.2039       94.382049      389.50353      13371.658    
     86000   172            852.92749      99.114328      385.66416      13931.698    
     86100   172.2          781.61203      90.827124      383.93274      14067.076    
     86200   172.4          812.22389      94.384371      384.3133       14690.476    
     86300   172.6          804.32423      93.466393      387.98593      14521.799    
     86400   172.8          860.59089      100.00485      393.18989      13809.94     
     86500   173            818.19436      95.07817       391.71548      13644.115    
     86600   173.2          802.91498      93.302631      386.13363      13701.705    
     86700   173.4          799.40966      92.895296      384.95699      15069.393    
     86800   173.6          823.0371       95.640919      385.57453      14624.454    
     86900   173.8          836.09136      97.157888      387.338        16096.061    
     87000   174            813.66231      94.551524      387.83822      15084.203    
[...]
    478600   957.2          822.92563      95.627966      387.49307      14897.568    
    478700   957.4          825.62049      95.941122      386.18134      12458.566    
    478800   957.6          787.84532      91.551463      382.84239      12828.618    
    478900   957.8          783.85503      91.087772      381.43648      15395.268    
    479000   958            768.34299      89.285198      382.37368      13559.075    
    479100   958.2          792.10763      92.046764      385.69989      15375.468    
    479200   958.4          809.29309      94.043799      387.82787      13279.052    
    479300   958.6          825.19992      95.89225       384.22815      15280.331    
    479400   958.8          778.03296      90.411219      379.15956      15482.208    
    479500   959            782.58227      90.939871      379.22893      13450.363    
    479600   959.2          789.05185      91.691668      382.39829      12316.034    
    479700   959.4          805.60632      93.615378      384.83801      13607.512    
    479800   959.6          813.73265      94.559697      386.13172      16342.231    
    479900   959.8          808.26908      93.924804      385.26671      11582.635    
    480000   960            790.17759      91.822484      384.18079      13882.093    
    480100   960.2          789.75801      91.773727      382.81006      13743.527    
    480200   960.4          789.44214      91.737022      377.8889       12773.822    
    480300   960.6          758.67092      88.161256      375.28301      10371.637    
    480400   960.8          792.90473      92.139391      380.35105      13527.876    
    480500   961            798.1484       92.748731      384.36101      15391.062    
    480600   961.2          791.38388      91.962661      386.26149      12585.427    
    480700   961.4          810.11335      94.139117      386.62081      13646.24     
    480800   961.6          784.79784      91.197331      384.41731      12416.68     
    480900   961.8          763.82673      88.760386      380.01925      12871.939    
    481000   962            792.76791      92.123492      379.3508       15547.682    
    481100   962.2          784.38904      91.149826      385.22063      14191.763    
    481200   962.4          810.60774      94.196568      387.88662      13128.976    
    481300   962.6          813.39302      94.52023       387.19996      14740.39     
    481400   962.8          792.77754      92.124612      383.69101      14419.294    
    481500   963            808.43165      93.943695      380.70879      12030.966    
    481600   963.2          785.15727      91.239098      382.12212      14322.369    
    481700   963.4          822.81331      95.614914      389.91778      17703.935    
    481800   963.6          831.79243      96.658331      388.5541       16638.67     
    481900   963.8          791.44039      91.969228      385.04267      13187.61     
    482000   964            770.90404      89.582804      382.48931      12103.797    
    482100   964.2          776.60437      90.24521       382.81783      14555.58     
    482200   964.4          825.54117      95.931905      388.72428      11904.578    
    482300   964.6          857.46452      99.641553      391.03276      14746.8      
    482400   964.8          837.31111      97.299629      386.62054      13537.392    
    482500   965            784.67582      91.183152      383.03982      17227.47     
    482600   965.2          806.8286       93.757412      383.66474      12081.89     
    482700   965.4          823.79797      95.729337      385.07082      11327.122    
    482800   965.6          820.84773      95.386504      384.99311      13874.656    
    482900   965.8          792.6507       92.109872      382.54366      12537.727    
    483000   966            784.75613      91.192484      380.32812      12760.527    
    483100   966.2          793.56063      92.21561       381.12642      15046.984    
    483200   966.4          801.66687      93.157595      386.46377      15389.21     
    483300   966.6          794.19965      92.289867      388.99763      14350.966    
    483400   966.8          805.29448      93.579141      387.37334      14403.004    
    483500   967            803.75216      93.399915      383.94215      15679.148    
    483600   967.2          784.70027      91.185993      381.57147      13657.541    
    483700   967.4          742.90687      86.329396      374.71284      15677.661    
    483800   967.6          788.16576      91.5887        373.04499      13960.649    
    483900   967.8          745.90032      86.67725       379.03946      14061.489    
    484000   968            779.41125      90.571383      383.44719      15490.723    
    484100   968.2          807.09767      93.78868       387.16525      12964.211    
    484200   968.4          823.52957      95.698147      388.91914      16692.507    
    484300   968.6          792.60114      92.104112      385.17696      14158.576    
    484400   968.8          785.51169      91.280284      379.62139      13344.369    
    484500   969            796.6072       92.569637      379.98085      15484.341    
    484600   969.2          812.77183      94.448045      383.30515      14453.577    
    484700   969.4          825.03693      95.873309      386.32807      14839.498    
    484800   969.6          806.24174      93.689216      386.38485      14384.817    
    484900   969.8          791.54607      91.981508      384.0449       14627.277    
    485000   970            795.96075      92.494515      379.86884      14056.009    
    485100   970.2          735.89339      85.514396      373.93902      13792.176    
    485200   970.4          760.6964       88.396627      378.12171      14644.547    
    485300   970.6          803.29458      93.346742      382.94719      12335.012    
    485400   970.8          811.30864      94.278015      385.78375      15043.795    
    485500   971            813.31113      94.510715      385.47047      13292.181    
    485600   971.2          785.27782      91.253107      382.21019      14343.119    
    485700   971.4          750.90286      87.25857       377.36696      12781.345    
    485800   971.6          753.89917      87.606755      379.28772      11610.364    
    485900   971.8          800.85859      93.063668      384.18374      13812.148    
    486000   972            827.68556      96.181093      384.90642      13274.815    
    486100   972.2          806.22494      93.687264      383.69616      13412.678    
    486200   972.4          787.52647      91.514412      381.0572       14190.413    
    486300   972.6          778.594        90.476414      378.38774      14559.455    
    486400   972.8          817.00707      94.940201      382.69185      14887.84     
    486500   973            800.90238      93.068757      387.97154      13800.524    
    486600   973.2          808.79699      93.986149      388.78405      12488.462    
    486700   973.4          751.91913      87.376665      385.73734      14517.843    
    486800   973.6          788.37446      91.612951      381.33582      13777.347    
    486900   973.8          782.4484       90.924315      380.99183      11750.029    
    487000   974            803.99723      93.428394      387.80467      14041.653    
    487100   974.2          816.00082      94.823269      390.86466      15194.191    
    487200   974.4          785.97116      91.333677      386.70048      13585.142    
    487300   974.6          786.4365       91.387752      382.47596      14234.526    
    487400   974.8          781.77989      90.846631      381.84456      15329.656    
    487500   975            775.46288      90.112564      384.31298      14492.887    
    487600   975.2          857.4787       99.643202      391.03814      15393.429    
    487700   975.4          836.65228      97.22307       392.27585      15311.043    
    487800   975.6          810.17686      94.146497      388.5727       12244.159    
    487900   975.8          794.97383      92.37983       385.54499      16124.445    
    488000   976            788.56662      91.635281      383.76365      14640.089    
    488100   976.2          776.81626      90.269833      382.39714      11494.693    
    488200   976.4          773.21592      89.851455      382.59874      13248.343    
    488300   976.6          782.23947      90.900036      386.53617      15472.498    
    488400   976.8          827.76314      96.190108      389.0793       13836.831    
    488500   977            822.78148      95.611215      389.24071      13171.53     
    488600   977.2          803.8926       93.416235      382.6988       15224.511    
    488700   977.4          765.98767      89.011498      380.7639       13106.201    
    488800   977.6          783.24347      91.016706      383.65661      14535.262    
    488900   977.8          783.54279      91.051488      387.15956      13814.888    
    489000   978            823.79713      95.729238      388.29598      13503.649    
    489100   978.2          795.16201      92.401699      384.90878      12293.576    
    489200   978.4          755.27247      87.76634       377.26251      13331.612    
    489300   978.6          791.87541      92.01978       379.12886      13797.557    
    489400   978.8          809.43469      94.060254      383.7795       12262.264    
    489500   979            830.63913      96.524312      387.28109      11152.574    
    489600   979.2          826.10616      95.997559      386.39512      14090.911    
    489700   979.4          772.84365      89.808196      383.04702      12072.669    
    489800   979.6          787.195        91.475893      380.92812      15063.697    
    489900   979.8          800.432        93.014097      381.52394      14231.03     
    490000   980            779.92253      90.630797      386.08029      14016.027    
    490100   980.2          830.50467      96.508687      390.19518      12993.593    
    490200   980.4          825.48631      95.92553       389.93877      14777.953    
    490300   980.6          799.14081      92.864054      384.11372      15780.06     
    490400   980.8          773.06636      89.834076      381.9474       12834.411    
    490500   981            792.97059      92.147045      384.58917      15232.952    
    490600   981.2          822.25722      95.550294      387.11494      16476.94     
    490700   981.4          805.98192      93.659025      386.61363      11944.285    
    490800   981.6          779.2883       90.557096      379.27174      15077.802    
    490900   981.8          781.14312      90.772635      377.67696      12656.066    
    491000   982            791.40759      91.965416      382.04543      14245.618    
    491100   982.2          840.11962      97.625991      386.41392      12994.676    
    491200   982.4          788.35627      91.610838      387.25256      11813.817    
    491300   982.6          796.15493      92.51708       384.78758      14761.99     
    491400   982.8          783.50028      91.046549      378.89398      12027.13     
    491500   983            767.41883      89.177805      376.58213      12594.641    
    491600   983.2          788.36325      91.611649      378.76589      15197.995    
    491700   983.4          812.44543      94.410116      381.65431      13100.527    
    491800   983.6          828.81979      96.312896      385.01285      15733.48     
    491900   983.8          827.57679      96.168454      385.72532      13977.599    
    492000   984            798.71874      92.815008      385.35364      13159.073    
    492100   984.2          788.17091      91.589299      381.04286      13878.519    
    492200   984.4          804.88646      93.531726      379.5305       12245.213    
    492300   984.6          810.06057      94.132983      381.89494      13544.661    
    492400   984.8          814.04503      94.595997      386.9972       16035.242    
    492500   985            793.67895      92.22936       388.96874      14945.496    
    492600   985.2          809.65395      94.085732      387.43951      14150.092    
    492700   985.4          810.52007      94.18638       384.70157      14346.803    
    492800   985.6          814.61438      94.662158      384.20081      14111.888    
    492900   985.8          813.65719      94.550928      384.53966      11568.409    
    493000   986            843.28714      97.994072      387.92262      13551.051    
    493100   986.2          832.23913      96.71024       391.55936      15568.559    
    493200   986.4          802.446        93.248134      389.25732      16811.836    
    493300   986.6          820.5464       95.351488      381.93952      13001.475    
    493400   986.8          762.42302      88.597268      381.34937      13978.923    
    493500   987            793.96006      92.262026      384.54175      15146.328    
    493600   987.2          808.61525      93.96503       388.06813      14510.809    
    493700   987.4          823.52724      95.697876      390.55887      15462.914    
    493800   987.6          785.80275      91.314106      385.00983      14785.526    
    493900   987.8          801.89306      93.183879      380.76529      15415.036    
    494000   988            815.01134      94.708287      381.86811      16120.364    
    494100   988.2          816.30336      94.858426      385.88614      12326.436    
    494200   988.4          822.68936      95.600511      389.25755      15349.57     
    494300   988.6          804.36412      93.471028      387.70774      12648.942    
    494400   988.8          784.61297      91.175848      381.91742      11468.052    
    494500   989            767.27065      89.160587      376.9427       13604.393    
    494600   989.2          787.95114      91.56376       379.45152      13707.681    
    494700   989.4          815.14279      94.723563      383.9359       14776.822    
    494800   989.6          807.6946       93.858046      385.92018      15142.721    
    494900   989.8          804.34141      93.468389      385.51549      12459.161    
    495000   990            754.13781      87.634486      381.82086      13406.456    
    495100   990.2          754.61443      87.689872      377.46467      14047.343    
    495200   990.4          777.36182      90.333229      380.0268       13981.103    
    495300   990.6          807.39225      93.822912      385.10077      12638.026    
    495400   990.8          823.61037      95.707536      386.38413      12862.146    
    495500   991            795.37609      92.426575      386.57819      13681.962    
    495600   991.2          805.15894      93.56339       387.59419      15861.749    
    495700   991.4          819.84537      95.270025      389.48547      13776.999    
    495800   991.6          820.19571      95.310737      389.42175      12236.865    
    495900   991.8          803.71267      93.395326      384.48477      14382.004    
    496000   992            770.8893       89.581091      381.42451      15664.918    
    496100   992.2          781.24553      90.784535      382.32187      13173.564    
    496200   992.4          799.74872      92.934696      386.03203      13008.732    
    496300   992.6          805.8614       93.645019      392.68921      12356.49     
    496400   992.8          823.38795      95.68169       390.56805      15158.485    
    496500   993            820.88046      95.390308      385.5108       14249.56     
    496600   993.2          820.96241      95.39983       383.50353      14211.379    
    496700   993.4          778.03676      90.41166       382.50665      15311.444    
    496800   993.6          786.41036      91.384714      383.64903      14568.547    
    496900   993.8          830.95778      96.561341      389.5016       15212.82     
    497000   994            840.84439      97.710214      392.12136      17585.441    
    497100   994.2          845.08159      98.202597      388.48907      13887.275    
    497200   994.4          804.64586      93.503768      384.40837      12431.931    
    497300   994.6          820.22821      95.314512      383.21021      14362.874    
    497400   994.8          794.07972      92.275931      383.277        15145.314    
    497500   995            802.34372      93.236248      384.89696      16433.116    
    497600   995.2          844.68342      98.156327      390.2899       14203.495    
    497700   995.4          822.49815      95.578291      392.23625      14156.203    
    497800   995.6          814.99673      94.70659       386.85386      15998.969    
    497900   995.8          815.62058      94.779084      384.17297      13727.63     
    498000   996            786.66422      91.414213      384.43029      15074.844    
    498100   996.2          820.74337      95.374377      386.70028      15375.566    
    498200   996.4          794.21781      92.291978      388.12684      14086.102    
    498300   996.6          781.74762      90.84288       384.34925      14583.414    
    498400   996.8          809.78843      94.10136       380.26366      11917.004    
    498500   997            801.40252      93.126876      380.13981      14963.834    
    498600   997.2          834.96409      97.026893      386.15115      12263.061    
    498700   997.4          828.32068      96.254897      389.46266      14049.993    
    498800   997.6          798.35585      92.772838      386.972        15869.07     
    498900   997.8          800.58373      93.031728      383.82431      13569.001    
    499000   998            785.43347      91.271195      382.24685      13413.535    
    499100   998.2          795.87712      92.484797      382.8807       15982.018    
    499200   998.4          829.36603      96.376372      389.69531      12217.679    
    499300   998.6          868.29789      100.90044      390.89226      15752.179    
    499400   998.8          813.36021      94.516417      386.2712       14173.152    
    499500   999            787.75907      91.541441      382.7109       15756.065    
    499600   999.2          786.74802      91.423951      382.43931      14192.334    
    499700   999.4          831.03216      96.569984      383.20442      14402.295    
    499800   999.6          825.56199      95.934324      384.73097      14256.089    
    499900   999.8          822.17868      95.541167      391.08469      12551.181    
    500000   1000           833.47747      96.854142      390.46808      12990.346    
Loop time of 326.923 on 1 procs for 500000 steps with 900 atoms

Performance: 264.283 ns/day, 0.091 hours/ns, 1529.413 timesteps/s
54.1% CPU use with 1 MPI tasks x no OpenMP threads

MPI task timing breakdown:
Section |  min time  |  avg time  |  max time  |%varavg| %total
---------------------------------------------------------------
Pair    | 209.32     | 209.32     | 209.32     |   0.0 | 64.03
Neigh   | 105.4      | 105.4      | 105.4      |   0.0 | 32.24
Comm    | 3.9055     | 3.9055     | 3.9055     |   0.0 |  1.19
Output  | 2.1433     | 2.1433     | 2.1433     |   0.0 |  0.66
Modify  | 5.4718     | 5.4718     | 5.4718     |   0.0 |  1.67
Other   |            | 0.6789     |            |       |  0.21

Nlocal:            900 ave         900 max         900 min
Histogram: 1 0 0 0 0 0 0 0 0 0
Nghost:           2791 ave        2791 max        2791 min
Histogram: 1 0 0 0 0 0 0 0 0 0
Neighs:              0 ave           0 max           0 min
Histogram: 1 0 0 0 0 0 0 0 0 0
FullNghs:        96436 ave       96436 max       96436 min
Histogram: 1 0 0 0 0 0 0 0 0 0

Total # of neighbors = 96436
Ave neighs/atom = 107.15111
Neighbor list builds = 50000
Dangerous builds not checked

Total wall time: 0:05:46
