ITEM: TIMESTEP
0
ITEM: NUMBER OF ATOMS
56
ITEM: BOX BOUNDS xy xz yz pp pp pp
-2.3633135557174683e+00 1.2206987559795380e+01 -4.7683715820312500e-07
-7.5370073318481445e-03 5.5339480042457581e+00 -2.3414253592491150e+00
-3.2569408416748047e-02 1.9052529454231262e+01 2.8610229492187500e-06
ITEM: ATOMS id type xs ys zs fx fy fz
1 1 0.574914 1 0.132369 0 0.0216621 0.725354
2 1 0.324914 0.166667 0.132369 0 -0.0216627 0.725354
3 1 0.239161 1 0.275226 0 0.00134301 -0.00542128
4 1 0.989161 0.166667 0.275226 0 -0.00134325 -0.00542092
5 1 0.903409 5.00995e-07 0.418084 0 -0.000262856 0.000774384
6 1 0.0749144 1 0.132369 0 0.0216622 0.725354
7 1 0.992791 0.5 0.0609408 0 0.0733199 0.747319
8 1 0.824914 0.166667 0.132369 0 -0.0216627 0.725355
9 1 0.742791 0.666667 0.0609408 0 -0.0733194 0.747319
10 1 0.739161 1 0.275226 0 0.00134313 -0.0054214
11 1 0.653409 0.166667 0.418084 0 0.000263333 0.000774741
12 1 0.567658 5.53965e-07 0.560941 0 -2.11e-05 -0.000125647
13 1 0.317658 0.166667 0.560941 0 2.12193e-05 -0.000125766
14 1 0.231906 1.60387e-07 0.703798 0 -0.000639439 -0.00144327
15 1 0.981906 0.166667 0.703798 0 0.000639915 -0.00144291
16 1 0.896153 1 0.846655 0 0.00686455 -0.000494838
17 1 0.657038 0.5 0.203798 0 0.00686538 0.000495076
18 1 0.489161 0.166667 0.275226 0 -0.00134313 -0.0054208
19 1 0.407038 0.666667 0.203798 0 -0.00686419 0.000495195
20 1 0.403409 5.02326e-07 0.418084 0 -0.000262976 0.000774145
21 1 0.321285 0.5 0.346655 0 -0.000639796 0.00144303
22 1 0.153409 0.166667 0.418084 0 0.000263333 0.000774503
23 1 0.0712851 0.666667 0.346655 0 0.000639439 0.00144279
24 1 0.0676577 5.42012e-07 0.560941 0 -2.06232e-05 -0.000125885
25 1 0.985533 0.500001 0.489512 0 -2.13385e-05 0.000126243
26 1 0.817658 0.166667 0.560941 0 2.13385e-05 -0.000126719
27 1 0.735533 0.666667 0.489512 0 2.08616e-05 0.000126004
28 1 0.492791 0.5 0.0609408 0 0.0733199 0.747319
29 1 0.242791 0.666667 0.0609408 0 -0.07332 0.747319
30 1 0.157038 0.5 0.203798 0 0.00686514 0.000494957
31 1 0.907038 0.666667 0.203798 0 -0.00686443 0.000495315
32 1 0.821285 0.5 0.346655 0 -0.000639558 0.00144291
33 1 0.646153 0.166667 0.846655 0 -0.0068655 -0.000494957
34 1 0.5604 1 0.989512 0 0.0733196 -0.747319
35 1 0.3104 0.166667 0.989512 0 -0.0733203 -0.747319
36 1 0.731906 1.92026e-07 0.703798 0 -0.000639319 -0.00144303
37 1 0.649782 0.500001 0.632369 0 -0.000263572 -0.000774384
38 1 0.481906 0.166667 0.703798 0 0.000640035 -0.00144327
39 1 0.399782 0.666667 0.632369 0 0.000262856 -0.000774384
40 1 0.396153 1 0.846655 0 0.00686479 -0.000494838
41 1 0.31403 0.5 0.775226 0 0.00134349 0.00542092
42 1 0.146153 0.166667 0.846655 0 -0.00686467 -0.000495434
43 1 0.0640299 0.666667 0.775226 0 -0.00134301 0.00542116
44 1 0.0603999 1 0.989512 0 0.0733198 -0.747319
45 1 0.978277 0.5 0.918083 0 0.0216622 -0.725354
46 1 0.571285 0.666667 0.346655 0 0.0006392 0.00144279
47 1 0.485533 0.500001 0.489512 0 -2.11e-05 0.000125885
48 1 0.235533 0.666667 0.489512 0 2.07424e-05 0.000125885
49 1 0.149782 0.5 0.632369 0 -0.000263453 -0.000774264
50 1 0.899782 0.666667 0.632369 0 0.000262856 -0.000774384
51 1 0.81403 0.5 0.775226 0 0.00134325 0.00542092
52 1 0.8104 0.166667 0.989512 0 -0.07332 -0.74732
53 1 0.728277 0.666667 0.918083 0 -0.021662 -0.725353
54 1 0.56403 0.666667 0.775226 0 -0.00134301 0.00542104
55 1 0.478277 0.5 0.918083 0 0.0216622 -0.725354
56 1 0.228277 0.666667 0.918083 0 -0.0216624 -0.725354
ITEM: TIMESTEP
1
ITEM: NUMBER OF ATOMS
56
ITEM: BOX BOUNDS xy xz yz pp pp pp
-2.3633135557174683e+00 1.2206987559795380e+01 -4.7683715820312500e-07
-7.5370073318481445e-03 5.5339480042457581e+00 -2.3414253592491150e+00
-3.2569408416748047e-02 1.9052529454231262e+01 2.8610229492187500e-06
ITEM: ATOMS id type xs ys zs fx fy fz
1 1 0.575888 1.00052 0.137455 0 0.0121827 0.113475
2 1 0.325888 0.166144 0.137455 0 -0.0121824 0.113475
3 1 0.239154 1.00003 0.275188 0 -0.0177232 0.103745
4 1 0.989154 0.166635 0.275188 0 0.0177227 0.103745
5 1 0.90341 -5.84627e-06 0.418089 0 -0.00152373 0.00134695
6 1 0.0758881 1.00052 0.137455 0 0.012183 0.113475
7 1 0.993794 0.50177 0.0661805 0 -0.008075 0.0943789
8 1 0.825888 0.166144 0.137455 0 -0.0121822 0.113475
9 1 0.743794 0.664897 0.0661805 0 0.00807452 0.0943786
10 1 0.739154 1.00003 0.275188 0 -0.017723 0.103745
11 1 0.65341 0.166673 0.418089 0 0.00152385 0.00134754
12 1 0.567658 4.44577e-08 0.56094 0 0.000327349 0.00236297
13 1 0.317658 0.166667 0.56094 0 -0.00032711 0.00236273
14 1 0.231904 -1.52803e-05 0.703788 0 -0.00476098 -0.0122169
15 1 0.981904 0.166682 0.703788 0 0.0047611 -0.012217
16 1 0.896153 1.00017 0.846651 0 -0.000248909 -0.127064
17 1 0.657038 0.500166 0.203801 0 -0.000248909 0.127064
18 1 0.489154 0.166635 0.275188 0 0.0177227 0.103745
19 1 0.407038 0.666502 0.203801 0 0.000249028 0.127065
20 1 0.40341 -5.84782e-06 0.418089 0 -0.00152349 0.00134706
21 1 0.321287 0.499985 0.346665 0 -0.0047611 0.0122168
22 1 0.15341 0.166673 0.418089 0 0.00152361 0.00134742
23 1 0.071287 0.666682 0.346665 0 0.00476134 0.0122172
24 1 0.0676575 4.40183e-08 0.56094 0 0.000326753 0.00236237
25 1 0.985534 0.5 0.489513 0 0.000327229 -0.00236237
26 1 0.817658 0.166667 0.56094 0 -0.00032711 0.00236225
27 1 0.735534 0.666667 0.489513 0 -0.000327468 -0.00236285
28 1 0.493794 0.50177 0.0661805 0 -0.008075 0.0943788
29 1 0.243794 0.664897 0.0661805 0 0.00807464 0.0943788
30 1 0.157038 0.500165 0.203801 0 -0.00024879 0.127064
31 1 0.907038 0.666502 0.203801 0 0.000249028 0.127065
32 1 0.821287 0.499985 0.346665 0 -0.00476098 0.0122169
33 1 0.646153 0.166502 0.846651 0 0.000249028 -0.127064
34 1 0.559397 1.00177 0.984272 0 -0.00807476 -0.0943784
35 1 0.309397 0.164897 0.984272 0 0.00807488 -0.0943785
36 1 0.731904 -1.52458e-05 0.703788 0 -0.00476146 -0.0122173
37 1 0.649781 0.499994 0.632364 0 -0.00152373 -0.00134706
38 1 0.481904 0.166682 0.703788 0 0.00476074 -0.0122173
39 1 0.399781 0.666673 0.632364 0 0.00152361 -0.00134718
40 1 0.396153 1.00017 0.846651 0 -0.000249028 -0.127065
41 1 0.314037 0.500032 0.775264 0 -0.017723 -0.103745
42 1 0.146153 0.166502 0.846651 0 0.000249147 -0.127065
43 1 0.0640372 0.666635 0.775264 0 0.0177231 -0.103745
44 1 0.0593967 1.00177 0.984272 0 -0.00807464 -0.0943785
45 1 0.977303 0.500523 0.912998 0 0.0121821 -0.113475
46 1 0.571287 0.666682 0.346665 0 0.00476122 0.012217
47 1 0.485534 0.5 0.489513 0 0.000327468 -0.00236285
48 1 0.235534 0.666667 0.489513 0 -0.000326753 -0.00236249
49 1 0.149781 0.499994 0.632364 0 -0.00152385 -0.00134706
50 1 0.899781 0.666673 0.632364 0 0.00152397 -0.00134706
51 1 0.814037 0.500032 0.775264 0 -0.0177231 -0.103745
52 1 0.809397 0.164897 0.984272 0 0.008075 -0.0943788
53 1 0.727303 0.666144 0.912998 0 -0.0121828 -0.113475
54 1 0.564037 0.666635 0.775264 0 0.0177231 -0.103745
55 1 0.477303 0.500523 0.912998 0 0.0121826 -0.113475
56 1 0.227303 0.666144 0.912998 0 -0.0121831 -0.113475
ITEM: TIMESTEP
2
ITEM: NUMBER OF ATOMS
56
ITEM: BOX BOUNDS xy xz yz pp pp pp
-2.3633135557174683e+00 1.2206987559795380e+01 -4.7683715820312500e-07
-7.5370073318481445e-03 5.5339480042457581e+00 -2.3414253592491150e+00
-3.2569408416748047e-02 1.9052529454231262e+01 2.8610229492187500e-06
ITEM: ATOMS id type xs ys zs fx fy fz
1 1 0.576472 1.00165 0.140507 0 -0.0114733 -0.0539529
2 1 0.326472 0.165016 0.140507 0 0.0114734 -0.0539523
3 1 0.239688 0.998391 0.277978 0 -0.000521302 0.0481117
4 1 0.989688 0.168276 0.277978 0 0.000522494 0.0481118
5 1 0.903417 -0.000146971 0.418125 0 -0.00967836 0.0536697
6 1 0.0764724 1.00165 0.140507 0 -0.0114738 -0.0539527
7 1 0.99428 0.501022 0.0687186 0 -0.0131177 -0.0756574
8 1 0.826472 0.165016 0.140507 0 0.0114726 -0.0539526
9 1 0.74428 0.665645 0.0687185 0 0.0131191 -0.075657
10 1 0.739688 0.998391 0.277978 0 -0.000521779 0.0481114
11 1 0.653417 0.166814 0.418125 0 0.00967729 0.0536691
12 1 0.56767 3.03628e-05 0.561003 0 -0.00463665 -0.00896442
13 1 0.31767 0.166637 0.561003 0 0.00463712 -0.00896442
14 1 0.231841 -0.000456232 0.703459 0 -0.0106562 -0.0746179
15 1 0.981841 0.167123 0.703459 0 0.0106566 -0.0746173
16 1 0.895498 1.00014 0.843234 0 -0.00800145 -0.0332303
17 1 0.657693 0.500142 0.207218 0 -0.00800145 0.0332309
18 1 0.489688 0.168276 0.277978 0 0.000522256 0.0481117
19 1 0.407693 0.666525 0.207218 0 0.00800157 0.0332299
20 1 0.403417 -0.000146951 0.418125 0 -0.00967836 0.0536697
21 1 0.32135 0.499544 0.346994 0 -0.0106566 0.0746177
22 1 0.153417 0.166814 0.418125 0 0.00967789 0.0536692
23 1 0.0713499 0.667123 0.346994 0 0.0106559 0.0746173
24 1 0.0676697 3.03071e-05 0.561003 0 -0.00463641 -0.00896394
25 1 0.985521 0.50003 0.489449 0 -0.00463736 0.00896418
26 1 0.81767 0.166637 0.561003 0 0.00463712 -0.00896418
27 1 0.735521 0.666637 0.489449 0 0.00463748 0.00896466
28 1 0.49428 0.501022 0.0687186 0 -0.0131178 -0.0756571
29 1 0.24428 0.665645 0.0687185 0 0.0131187 -0.0756575
30 1 0.157693 0.500142 0.207218 0 -0.00800157 0.0332307
31 1 0.907693 0.666525 0.207218 0 0.00800133 0.0332303
32 1 0.82135 0.499544 0.346994 0 -0.0106567 0.0746174
33 1 0.645498 0.166525 0.843234 0 0.00800121 -0.033231
34 1 0.558911 1.00102 0.981734 0 -0.013119 0.0756563
35 1 0.308911 0.165645 0.981734 0 0.0131177 0.0756567
36 1 0.731841 -0.000456242 0.703459 0 -0.010656 -0.0746171
37 1 0.649774 0.499853 0.632328 0 -0.00967741 -0.0536695
38 1 0.481841 0.167123 0.703459 0 0.0106564 -0.0746176
39 1 0.399774 0.666814 0.632328 0 0.00967777 -0.0536695
40 1 0.395498 1.00014 0.843234 0 -0.00800073 -0.0332296
41 1 0.313503 0.498391 0.772474 0 -0.000521898 -0.0481116
42 1 0.145498 0.166525 0.843234 0 0.00800085 -0.0332305
43 1 0.063503 0.668276 0.772474 0 0.000521898 -0.0481119
44 1 0.0589107 1.00102 0.981734 0 -0.013119 0.0756568
45 1 0.976719 0.501651 0.909946 0 -0.0114731 0.0539531
46 1 0.57135 0.667123 0.346994 0 0.0106562 0.074617
47 1 0.485521 0.50003 0.489449 0 -0.00463712 0.00896478
48 1 0.235521 0.666637 0.489449 0 0.00463653 0.0089643
49 1 0.149774 0.499853 0.632328 0 -0.00967765 -0.0536695
50 1 0.899774 0.666814 0.632328 0 0.00967753 -0.0536695
51 1 0.813503 0.498391 0.772474 0 -0.000522017 -0.0481119
52 1 0.808911 0.165645 0.981734 0 0.0131177 0.0756571
53 1 0.726719 0.665016 0.909946 0 0.0114738 0.0539532
54 1 0.563503 0.668276 0.772474 0 0.000521541 -0.0481122
55 1 0.476719 0.501651 0.909946 0 -0.0114734 0.0539535
56 1 0.226719 0.665016 0.909946 0 0.0114741 0.0539532
ITEM: TIMESTEP
3
ITEM: NUMBER OF ATOMS
56
ITEM: BOX BOUNDS xy xz yz pp pp pp
-2.3633135557174683e+00 1.2206987559795380e+01 -4.7683715820312500e-07
-7.5370073318481445e-03 5.5339480042457581e+00 -2.3414253592491150e+00
-3.2569408416748047e-02 1.9052529454231262e+01 2.8610229492187500e-06
ITEM: ATOMS id type xs ys zs fx fy fz
1 1 0.57648 1.00122 0.140545 0 -0.0103108 0.018839
2 1 0.32648 0.165443 0.140545 0 0.0103106 0.0188389
3 1 0.240115 0.997676 0.28021 0 0.00982916 -0.0264231
4 1 0.990115 0.168991 0.28021 0 -0.00982904 -0.0264238
5 1 0.903652 -0.000956378 0.41935 0 -0.00854754 0.0433694
6 1 0.0764797 1.00122 0.140545 0 -0.010311 0.018839
7 1 0.994154 0.499696 0.0680563 0 0.0113848 0.0124668
8 1 0.82648 0.165443 0.140545 0 0.0103112 0.0188389
9 1 0.744154 0.666971 0.0680563 0 -0.0113853 0.0124676
10 1 0.740115 0.997676 0.28021 0 0.00982928 -0.0264238
11 1 0.653652 0.167623 0.41935 0 0.0085485 0.0433692
12 1 0.567636 -0.000317151 0.560827 0 -0.0119636 -0.0177187
13 1 0.317636 0.166984 0.560827 0 0.0119627 -0.0177183
14 1 0.231493 -0.0014648 0.701642 0 -0.00529742 -0.044937
15 1 0.981493 0.168132 0.701642 0 0.00529754 -0.0449376
16 1 0.895086 0.999512 0.841081 0 0.000162482 0.0431664
17 1 0.658105 0.499512 0.209372 0 0.000162721 -0.0431665
18 1 0.490115 0.168991 0.28021 0 -0.00982893 -0.0264239
19 1 0.408105 0.667155 0.209372 0 -0.000163078 -0.0431662
20 1 0.403652 -0.000956349 0.41935 0 -0.00854743 0.0433693
21 1 0.321698 0.498535 0.348811 0 -0.00529754 0.0449373
22 1 0.153652 0.167623 0.41935 0 0.0085479 0.0433691
23 1 0.0716978 0.668132 0.348811 0 0.00529778 0.0449375
24 1 0.067636 -0.00031721 0.560827 0 -0.011963 -0.0177182
25 1 0.985555 0.499683 0.489625 0 -0.0119627 0.0177178
26 1 0.817636 0.166984 0.560827 0 0.0119629 -0.017718
27 1 0.735555 0.666984 0.489625 0 0.0119629 0.0177182
28 1 0.494154 0.499697 0.0680563 0 0.0113848 0.0124668
29 1 0.244154 0.666971 0.0680563 0 -0.0113851 0.0124674
30 1 0.158105 0.499512 0.209372 0 0.000163198 -0.0431666
31 1 0.908105 0.667155 0.209372 0 -0.000163078 -0.0431666
32 1 0.821698 0.498535 0.348811 0 -0.00529778 0.0449375
33 1 0.645086 0.167155 0.841081 0 -0.000163317 0.0431672
34 1 0.559037 0.999696 0.982397 0 0.0113853 -0.012467
35 1 0.309037 0.166971 0.982397 0 -0.0113847 -0.0124669
36 1 0.731493 -0.00146481 0.701642 0 -0.00529754 -0.0449371
37 1 0.649539 0.499044 0.631103 0 -0.00854814 -0.0433691
38 1 0.481493 0.168132 0.701642 0 0.00529802 -0.044937
39 1 0.399539 0.667623 0.631103 0 0.0085479 -0.0433692
40 1 0.395086 0.999512 0.841081 0 0.000162244 0.0431658
41 1 0.313076 0.497676 0.770243 0 0.00982964 0.0264239
42 1 0.145086 0.167155 0.841081 0 -0.000162721 0.043167
43 1 0.0630758 0.668991 0.770243 0 -0.00982928 0.0264241
44 1 0.0590375 0.999696 0.982397 0 0.0113848 -0.0124673
45 1 0.976711 0.501224 0.909908 0 -0.0103106 -0.0188394
46 1 0.571698 0.668132 0.348811 0 0.00529742 0.0449375
47 1 0.485555 0.499683 0.489625 0 -0.0119631 0.0177177
48 1 0.235555 0.666984 0.489625 0 0.0119624 0.0177178
49 1 0.149539 0.499044 0.631103 0 -0.00854802 -0.0433689
50 1 0.899539 0.667623 0.631103 0 0.00854802 -0.0433697
51 1 0.813076 0.497676 0.770243 0 0.00982928 0.0264239
52 1 0.809037 0.166971 0.982397 0 -0.0113845 -0.0124668
53 1 0.726711 0.665443 0.909908 0 0.0103108 -0.0188397
54 1 0.563076 0.668991 0.770243 0 -0.00982904 0.0264241
55 1 0.476711 0.501224 0.909908 0 -0.0103109 -0.0188391
56 1 0.226711 0.665443 0.909908 0 0.0103108 -0.0188395
ITEM: TIMESTEP
4
ITEM: NUMBER OF ATOMS
56
ITEM: BOX BOUNDS xy xz yz pp pp pp
-2.3633135557174683e+00 1.2206987559795380e+01 -4.7683715820312500e-07
-7.5370073318481445e-03 5.5339480042457581e+00 -2.3414253592491150e+00
-3.2569408416748047e-02 1.9052529454231262e+01 2.8610229492187500e-06
ITEM: ATOMS id type xs ys zs fx fy fz
1 1 0.57654 1.00055 0.140861 0 0.00021112 0.000632048
2 1 0.32654 0.166117 0.140861 0 -0.000211239 0.000631928
3 1 0.240128 0.998068 0.280277 0 0.0011816 0.000619292
4 1 0.990128 0.168599 0.280277 0 -0.00118232 0.00061965
5 1 0.903839 -0.00161723 0.420331 0 -0.00355434 -0.00360727
6 1 0.0765402 1.00055 0.140861 0 0.000211716 0.000631094
7 1 0.994164 0.50004 0.0681119 0 0.00408936 -0.000589728
8 1 0.82654 0.166117 0.140861 0 -0.000210762 0.000631809
9 1 0.744164 0.666627 0.0681119 0 -0.00408971 -0.000590086
10 1 0.740128 0.998068 0.280277 0 0.0011816 0.000619292
11 1 0.653839 0.168284 0.420331 0 0.00355482 -0.00360727
12 1 0.567573 -0.00106685 0.560499 0 -0.0100527 -0.00685751
13 1 0.317573 0.167734 0.560499 0 0.0100523 -0.00685751
14 1 0.231275 -0.0019875 0.700503 0 0.000550389 0.00523913
15 1 0.981275 0.168655 0.700503 0 -0.000550866 0.00523925
16 1 0.895129 0.99938 0.841304 0 0.00546646 0.00515819
17 1 0.658062 0.49938 0.209148 0 0.00546646 -0.00515866
18 1 0.490128 0.168599 0.280277 0 -0.00118208 0.000619173
19 1 0.408062 0.667287 0.209148 0 -0.0054661 -0.00515831
20 1 0.403839 -0.0016172 0.420331 0 -0.00355482 -0.00360703
21 1 0.321916 0.498012 0.349949 0 0.000550866 -0.00523937
22 1 0.153839 0.168284 0.420331 0 0.00355458 -0.00360727
23 1 0.0719158 0.668655 0.349949 0 -0.000550747 -0.00523937
24 1 0.0675731 -0.00106687 0.560499 0 -0.0100523 -0.00685799
25 1 0.985618 0.498933 0.489954 0 -0.0100524 0.00685763
26 1 0.817573 0.167734 0.560499 0 0.0100523 -0.00685763
27 1 0.735618 0.667734 0.489954 0 0.0100524 0.00685751
28 1 0.494164 0.50004 0.0681119 0 0.00408947 -0.000589728
29 1 0.244164 0.666627 0.0681119 0 -0.00408959 -0.000590324
30 1 0.158062 0.49938 0.209148 0 0.00546598 -0.00515842
31 1 0.908062 0.667287 0.209148 0 -0.0054661 -0.00515783
32 1 0.821916 0.498012 0.349949 0 0.000550985 -0.00523889
33 1 0.645129 0.167287 0.841304 0 -0.00546587 0.00515819
34 1 0.559027 1.00004 0.982341 0 0.00408959 0.000589848
35 1 0.309027 0.166627 0.982341 0 -0.00408936 0.000590205
36 1 0.731275 -0.00198751 0.700503 0 0.000550508 0.00523901
37 1 0.649352 0.498383 0.630122 0 -0.00355518 0.00360692
38 1 0.481275 0.168655 0.700503 0 -0.00055027 0.00523961
39 1 0.399352 0.668284 0.630122 0 0.00355458 0.0036068
40 1 0.395129 0.99938 0.841304 0 0.00546622 0.00515831
41 1 0.313063 0.498068 0.770176 0 0.00118172 -0.000619769
42 1 0.145129 0.167287 0.841304 0 -0.0054661 0.00515831
43 1 0.0630629 0.668599 0.770176 0 -0.0011816 -0.000619411
44 1 0.0590269 1.00004 0.982341 0 0.00408971 0.000590086
45 1 0.976651 0.50055 0.909592 0 0.000210881 -0.000631809
46 1 0.571916 0.668655 0.349949 0 -0.000550389 -0.00523889
47 1 0.485618 0.498933 0.489954 0 -0.0100526 0.00685751
48 1 0.235618 0.667734 0.489954 0 0.0100526 0.00685787
49 1 0.149352 0.498383 0.630122 0 -0.00355458 0.00360715
50 1 0.899352 0.668284 0.630122 0 0.0035547 0.00360775
51 1 0.813063 0.498068 0.770176 0 0.00118196 -0.00061965
52 1 0.809027 0.166627 0.982341 0 -0.00408936 0.000589728
53 1 0.726651 0.666117 0.909592 0 -0.000211477 -0.000631332
54 1 0.563063 0.668599 0.770176 0 -0.0011816 -0.000619054
55 1 0.476651 0.50055 0.909592 0 0.000211 -0.000631928
56 1 0.226651 0.666117 0.909592 0 -0.000211477 -0.000631213
ITEM: TIMESTEP
5
ITEM: NUMBER OF ATOMS
56
ITEM: BOX BOUNDS xy xz yz pp pp pp
-2.3633135557174683e+00 1.2206987559795380e+01 -4.7683715820312500e-07
-7.5370073318481445e-03 5.5339480042457581e+00 -2.3414253592491150e+00
-3.2569408416748047e-02 1.9052529454231262e+01 2.8610229492187500e-06
ITEM: ATOMS id type xs ys zs fx fy fz
1 1 0.576545 1.00055 0.140883 0 0.003407 -0.00110865
2 1 0.326544 0.166117 0.140883 0 -0.003407 -0.00110912
3 1 0.240131 0.998174 0.280293 0 0.00108767 -0.00175226
4 1 0.990131 0.168493 0.280293 0 -0.00108683 -0.00175273
5 1 0.903828 -0.00192156 0.42027 0 -0.00294316 -0.00255442
6 1 0.0765445 1.00055 0.140883 0 0.00340664 -0.00110793
7 1 0.994162 0.50038 0.0680993 0 0.000515461 -0.0036267
8 1 0.826544 0.166117 0.140883 0 -0.00340748 -0.00110948
9 1 0.744162 0.666287 0.0680993 0 -0.000514746 -0.00362611
10 1 0.740131 0.998174 0.280293 0 0.00108778 -0.00175214
11 1 0.653828 0.168589 0.42027 0 0.00294232 -0.0025543
12 1 0.567541 -0.00190041 0.56033 0 -0.00126278 0.00365102
13 1 0.317541 0.168568 0.56033 0 0.00126243 0.00365102
14 1 0.231294 -0.00195554 0.700599 0 0.000434995 -0.00102842
15 1 0.981294 0.168623 0.700599 0 -0.000435233 -0.00102878
16 1 0.895153 0.99982 0.841431 0 -0.000821948 0.000139832
17 1 0.658038 0.49982 0.209022 0 -0.000821948 -0.000138998
18 1 0.490131 0.168493 0.280293 0 -0.00108671 -0.00175178
19 1 0.408038 0.666847 0.209022 0 0.00082159 -0.000139952
20 1 0.403828 -0.00192156 0.42027 0 -0.00294256 -0.00255466
21 1 0.321897 0.498044 0.349854 0 0.000435114 0.00102925
22 1 0.153828 0.168589 0.42027 0 0.00294268 -0.0025543
23 1 0.0718975 0.668623 0.349854 0 -0.000435233 0.00102901
24 1 0.0675407 -0.00190041 0.56033 0 -0.0012629 0.00365138
25 1 0.98565 0.4981 0.490123 0 -0.00126207 -0.00365102
26 1 0.817541 0.168568 0.56033 0 0.00126231 0.00365126
27 1 0.73565 0.668568 0.490123 0 0.00126302 -0.00365102
28 1 0.494162 0.50038 0.0680993 0 0.000514865 -0.00362659
29 1 0.244162 0.666287 0.0680993 0 -0.000515342 -0.00362563
30 1 0.158038 0.49982 0.209022 0 -0.000821829 -0.000139594
31 1 0.908038 0.666847 0.209022 0 0.00082159 -0.000140309
32 1 0.821897 0.498044 0.349854 0 0.000435233 0.0010289
33 1 0.645153 0.166847 0.841431 0 0.00082171 0.000139952
34 1 0.559029 1.00038 0.982354 0 0.000515223 0.00362659
35 1 0.309029 0.166287 0.982354 0 -0.000515103 0.00362635
36 1 0.731294 -0.00195555 0.700599 0 0.000435352 -0.00102866
37 1 0.649363 0.498078 0.630183 0 -0.00294244 0.00255454
38 1 0.481294 0.168623 0.700599 0 -0.000435591 -0.00102878
39 1 0.399363 0.668589 0.630183 0 0.00294316 0.00255489
40 1 0.395153 0.99982 0.841431 0 -0.000822186 0.000139594
41 1 0.31306 0.498174 0.77016 0 0.00108743 0.00175226
42 1 0.145153 0.166847 0.841431 0 0.000821948 0.000139594
43 1 0.0630598 0.668493 0.77016 0 -0.00108731 0.00175226
44 1 0.0590293 1.00038 0.982354 0 0.000515103 0.00362563
45 1 0.976647 0.500551 0.90957 0 0.00340736 0.00110912
46 1 0.571898 0.668623 0.349854 0 -0.000435591 0.00102818
47 1 0.48565 0.4981 0.490123 0 -0.00126266 -0.00365114
48 1 0.23565 0.668568 0.490123 0 0.00126266 -0.00365126
49 1 0.149363 0.498078 0.630183 0 -0.00294256 0.00255394
50 1 0.899363 0.668589 0.630183 0 0.00294268 0.0025537
51 1 0.81306 0.498174 0.77016 0 0.00108719 0.00175226
52 1 0.809029 0.166287 0.982354 0 -0.000515223 0.00362706
53 1 0.726647 0.666117 0.90957 0 -0.00340688 0.00110829
54 1 0.56306 0.668493 0.77016 0 -0.00108719 0.00175202
55 1 0.476647 0.500551 0.90957 0 0.00340736 0.00110865
56 1 0.226647 0.666117 0.90957 0 -0.00340736 0.00110817
ITEM: TIMESTEP
6
ITEM: NUMBER OF ATOMS
56
ITEM: BOX BOUNDS xy xz yz pp pp pp
-2.3633135557174683e+00 1.2206987559795380e+01 -4.7683715820312500e-07
-7.5370073318481445e-03 5.5339480042457581e+00 -2.3414253592491150e+00
-3.2569408416748047e-02 1.9052529454231262e+01 2.8610229492187500e-06
ITEM: ATOMS id type xs ys zs fx fy fz
1 1 0.576541 1.00077 0.140866 0 0.000555634 -5.00679e-05
2 1 0.326541 0.165893 0.140866 0 -0.00055635 -4.94719e-05
3 1 0.240125 0.998263 0.280262 0 -0.000158191 -0.00134289
4 1 0.990125 0.168404 0.280262 0 0.000157475 -0.00134301
5 1 0.903816 -0.00216721 0.42021 0 0.000275731 0.000607491
6 1 0.0765412 1.00077 0.140866 0 0.000556111 -4.98295e-05
7 1 0.994148 0.500473 0.0680282 0 0.000998974 0.000586271
8 1 0.826541 0.165893 0.140866 0 -0.000556111 -4.8995e-05
9 1 0.744148 0.666194 0.0680282 0 -0.000999212 0.000585914
10 1 0.740125 0.998263 0.280262 0 -0.000157833 -0.00134254
11 1 0.653816 0.168834 0.42021 0 -0.000275135 0.000607014
12 1 0.567548 -0.00212799 0.56037 0 0.000363231 0.000357151
13 1 0.317548 0.168795 0.56037 0 -0.000362277 0.000357032
14 1 0.231293 -0.0019215 0.700596 0 -0.000462294 0.000689626
15 1 0.981293 0.168589 0.700596 0 0.000463128 0.000689745
16 1 0.895158 0.999843 0.841456 0 0.000242591 0.000460386
17 1 0.658033 0.499843 0.208997 0 0.000242829 -0.000461102
18 1 0.490125 0.168404 0.280262 0 0.000157595 -0.00134301
19 1 0.408033 0.666824 0.208997 0 -0.000242472 -0.000459909
20 1 0.403816 -0.00216718 0.42021 0 0.000275016 0.00060761
21 1 0.321898 0.498079 0.349857 0 -0.000462532 -0.000690103
22 1 0.153816 0.168834 0.42021 0 -0.000275135 0.000607133
23 1 0.0718981 0.668589 0.349857 0 0.00046277 -0.000689745
24 1 0.0675483 -0.00212799 0.56037 0 0.000362992 0.000356913
25 1 0.985643 0.497872 0.490083 0 0.000362158 -0.000356913
26 1 0.817548 0.168795 0.56037 0 -0.000362158 0.000356913
27 1 0.735643 0.668795 0.490083 0 -0.000363111 -0.000357032
28 1 0.494148 0.500473 0.0680282 0 0.000998974 0.000586152
29 1 0.244148 0.666194 0.0680282 0 -0.000999212 0.000585437
30 1 0.158033 0.499843 0.208997 0 0.000243306 -0.000460029
31 1 0.908033 0.666824 0.208997 0 -0.000242472 -0.000460029
32 1 0.821898 0.498079 0.349857 0 -0.000463247 -0.000690222
33 1 0.645158 0.166824 0.841456 0 -0.00024271 0.000460625
34 1 0.559043 1.00047 0.982425 0 0.000999212 -0.000585794
35 1 0.309043 0.166194 0.982425 0 -0.000999093 -0.000586271
36 1 0.731293 -0.00192148 0.700596 0 -0.00046289 0.000689864
37 1 0.649375 0.497833 0.630242 0 0.000275254 -0.000606894
38 1 0.481293 0.168589 0.700596 0 0.000462532 0.000689268
39 1 0.399375 0.668834 0.630242 0 -0.000275493 -0.00060761
40 1 0.395158 0.999843 0.841456 0 0.000242829 0.000460625
41 1 0.313066 0.498263 0.770191 0 -0.000157952 0.00134301
42 1 0.145158 0.166824 0.841456 0 -0.000242949 0.000460386
43 1 0.0630657 0.668404 0.770191 0 0.000157595 0.00134289
44 1 0.0590429 1.00047 0.982425 0 0.000999331 -0.000585556
45 1 0.97665 0.500774 0.909587 0 0.000556111 4.93526e-05
46 1 0.571898 0.668589 0.349857 0 0.000463009 -0.000689507
47 1 0.485643 0.497872 0.490083 0 0.000362277 -0.000357151
48 1 0.235643 0.668795 0.490083 0 -0.000362873 -0.000356913
49 1 0.149375 0.497833 0.630242 0 0.000275016 -0.000606775
50 1 0.899375 0.668834 0.630242 0 -0.000275612 -0.000607729
51 1 0.813066 0.498263 0.770191 0 -0.000157595 0.00134289
52 1 0.809043 0.166194 0.982425 0 -0.000999331 -0.000586987
53 1 0.72665 0.665893 0.909587 0 -0.000555754 5.01871e-05
54 1 0.563066 0.668404 0.770191 0 0.000157714 0.00134289
55 1 0.47665 0.500774 0.909587 0 0.000555992 4.95911e-05
56 1 0.22665 0.665893 0.909587 0 -0.000555396 4.97103e-05
ITEM: TIMESTEP
7
ITEM: NUMBER OF ATOMS
56
ITEM: BOX BOUNDS xy xz yz pp pp pp
-2.3633135557174683e+00 1.2206987559795380e+01 -4.7683715820312500e-07
-7.5370073318481445e-03 5.5339480042457581e+00 -2.3414253592491150e+00
-3.2569408416748047e-02 1.9052529454231262e+01 2.8610229492187500e-06
ITEM: ATOMS id type xs ys zs fx fy fz
1 1 0.576541 1.00084 0.140863 0 -4.3273e-05 -0.000917315
2 1 0.326541 0.165824 0.140863 0 4.42266e-05 -0.00091815
3 1 0.240119 0.99826 0.280227 0 -0.000141025 0.000485539
4 1 0.990119 0.168408 0.280227 0 0.000141382 0.000485182
5 1 0.903818 -0.00217011 0.420219 0 0.000362992 -0.000395536
6 1 0.0765406 1.00084 0.140863 0 -4.41074e-05 -0.000917912
7 1 0.994149 0.500565 0.0680348 0 0.000291109 -0.000259161
8 1 0.826541 0.165824 0.140863 0 4.44651e-05 -0.000918627
9 1 0.744149 0.666102 0.0680348 0 -0.000291348 -0.000258684
10 1 0.740119 0.99826 0.280227 0 -0.000141382 0.000484705
11 1 0.653818 0.168837 0.420219 0 -0.000363231 -0.00039506
12 1 0.567551 -0.00212183 0.560382 0 0.000347137 7.30753e-05
13 1 0.317551 0.168789 0.560382 0 -0.000348449 7.34329e-05
14 1 0.231296 -0.00195595 0.700612 0 -7.98702e-05 0.000464916
15 1 0.981296 0.168623 0.700612 0 7.84397e-05 0.000464082
16 1 0.89516 0.999865 0.84147 0 0.000175118 0.000124693
17 1 0.658031 0.499865 0.208983 0 0.000174999 -0.00012362
18 1 0.490119 0.168408 0.280227 0 0.000141025 0.000484943
19 1 0.408031 0.666802 0.208983 0 -0.000175714 -0.000125051
20 1 0.403818 -0.00217014 0.420219 0 0.000363708 -0.000396013
21 1 0.321895 0.498044 0.34984 0 -7.93934e-05 -0.000463963
22 1 0.153818 0.168837 0.420219 0 -0.00036335 -0.000394821
23 1 0.071895 0.668623 0.34984 0 7.95126e-05 -0.000464082
24 1 0.0675508 -0.00212185 0.560382 0 0.000347972 7.34329e-05
25 1 0.98564 0.497878 0.490071 0 0.000348568 -7.36713e-05
26 1 0.817551 0.168789 0.560382 0 -0.000348449 7.33137e-05
27 1 0.73564 0.668789 0.490071 0 -0.000348091 -7.33137e-05
28 1 0.494149 0.500565 0.0680348 0 0.000290871 -0.000259399
29 1 0.244149 0.666102 0.0680347 0 -0.00029099 -0.000258088
30 1 0.158031 0.499865 0.208983 0 0.000174642 -0.000125051
31 1 0.908031 0.666802 0.208983 0 -0.000175238 -0.000125051
32 1 0.821895 0.498044 0.34984 0 -7.85589e-05 -0.000463963
33 1 0.64516 0.166802 0.84147 0 -0.000174999 0.000123978
34 1 0.559042 1.00056 0.982418 0 0.00029099 0.000258684
35 1 0.309042 0.166102 0.982418 0 -0.00029099 0.000258923
36 1 0.731296 -0.00195597 0.700612 0 -7.9155e-05 0.000464082
37 1 0.649373 0.49783 0.630234 0 0.000363708 0.000394583
38 1 0.481296 0.168623 0.700612 0 7.92742e-05 0.000464797
39 1 0.399373 0.668837 0.630234 0 -0.000363469 0.000395656
40 1 0.39516 0.999865 0.84147 0 0.000174999 0.000124097
41 1 0.313072 0.49826 0.770226 0 -0.000141144 -0.000484943
42 1 0.145161 0.166802 0.84147 0 -0.000174642 0.000124454
43 1 0.0630724 0.668408 0.770226 0 0.000141382 -0.00048542
44 1 0.0590416 1.00056 0.982418 0 0.000291109 0.000258803
45 1 0.97665 0.500843 0.90959 0 -4.39882e-05 0.000918269
46 1 0.571895 0.668623 0.34984 0 7.89165e-05 -0.000464082
47 1 0.48564 0.497878 0.490071 0 0.000348806 -7.29561e-05
48 1 0.23564 0.668789 0.490071 0 -0.000347972 -7.34329e-05
49 1 0.149373 0.49783 0.630234 0 0.000363827 0.000394702
50 1 0.899373 0.668837 0.630234 0 -0.000362992 0.000395775
51 1 0.813072 0.49826 0.770226 0 -0.000141263 -0.000484586
52 1 0.809042 0.166102 0.982418 0 -0.000290632 0.000259995
53 1 0.72665 0.665824 0.90959 0 4.35114e-05 0.000917077
54 1 0.563072 0.668408 0.770226 0 0.000141025 -0.000485301
55 1 0.47665 0.500843 0.90959 0 -4.36306e-05 0.000918508
56 1 0.22665 0.665824 0.90959 0 4.36306e-05 0.000917554
ITEM: TIMESTEP
8
ITEM: NUMBER OF ATOMS
56
ITEM: BOX BOUNDS xy xz yz pp pp pp
-2.3633135557174683e+00 1.2206987559795380e+01 -4.7683715820312500e-07
-7.5370073318481445e-03 5.5339480042457581e+00 -2.3414253592491150e+00
-3.2569408416748047e-02 1.9052529454231262e+01 2.8610229492187500e-06
ITEM: ATOMS id type xs ys zs fx fy fz
1 1 0.576537 1.00086 0.140844 0 1.81198e-05 0.000105262
2 1 0.326537 0.165806 0.140844 0 -1.83582e-05 0.000105739
3 1 0.240118 0.998249 0.280226 0 7.47442e-05 -6.36578e-05
4 1 0.990118 0.168418 0.280226 0 -7.45058e-05 -6.28233e-05
5 1 0.903817 -0.00214665 0.420214 0 7.27177e-05 -0.000173569
6 1 0.076537 1.00086 0.140844 0 1.83582e-05 0.000105619
7 1 0.994149 0.500613 0.0680317 0 -3.19481e-05 1.88351e-05
8 1 0.826537 0.165806 0.140844 0 -1.87159e-05 0.000105977
9 1 0.744149 0.666055 0.0680317 0 3.24249e-05 1.78814e-05
10 1 0.740118 0.998249 0.280226 0 7.4625e-05 -6.30617e-05
11 1 0.653817 0.168814 0.420214 0 -7.33137e-05 -0.000173569
12 1 0.567552 -0.00209664 0.560388 0 0.000198007 -1.46627e-05
13 1 0.317552 0.168764 0.560388 0 -0.000198007 -1.50204e-05
14 1 0.231299 -0.00197188 0.700626 0 0.000216246 1.14441e-05
15 1 0.981299 0.168639 0.700626 0 -0.00021565 1.20401e-05
16 1 0.895162 0.999884 0.841476 0 -0.000134945 0.000201702
17 1 0.658029 0.499884 0.208977 0 -0.000135183 -0.000202298
18 1 0.490118 0.168418 0.280226 0 -7.43866e-05 -6.25849e-05
19 1 0.408029 0.666783 0.208977 0 0.00013566 -0.00020206
20 1 0.403817 -0.00214664 0.420214 0 7.27177e-05 -0.000173092
21 1 0.321892 0.498028 0.349826 0 0.000215769 -1.18017e-05
22 1 0.153817 0.168814 0.420214 0 -7.30753e-05 -0.000173807
23 1 0.0718923 0.668639 0.349826 0 -0.000216603 -1.20401e-05
24 1 0.0675518 -0.00209661 0.560388 0 0.000197649 -1.45435e-05
25 1 0.985639 0.497903 0.490065 0 0.000197768 1.49012e-05
26 1 0.817552 0.168764 0.560388 0 -0.000197887 -1.50204e-05
27 1 0.735639 0.668764 0.490065 0 -0.000197172 1.4782e-05
28 1 0.494149 0.500613 0.0680317 0 -3.15905e-05 1.89543e-05