ITEM: TIMESTEP
0
ITEM: NUMBER OF ATOMS
48
ITEM: BOX BOUNDS xy xz yz pp pp pp
-2.8315650820732117e+00 8.6067802309989929e+00 2.5094206929206848e+00
-9.4973444938659668e-03 9.3236122131347656e+00 -2.8195279836654663e+00
-2.8691649436950684e-02 1.9545819282531738e+01 7.1304261684417725e-02
ITEM: ATOMS id type xs ys zs fx fy fz
1 1 0.936378 0.16703 0.0320218 0 0 0.613182
2 1 0.482612 0.0738739 0.0528103 0 0 0.680319
3 1 0.326918 0.125314 0.657023 0 0 0.000911713
4 1 0.42921 0.948847 0.927808 0 0 -0.613176
5 1 0.151222 0.157156 0.802805 0 0 0.00489807
6 1 0.882976 0.0420026 0.90702 0 0 -0.680309
7 1 0.604983 0.250315 0.78202 0 0 -0.00979233
8 1 0.770577 0.208712 0.407029 0 0 0.000665665
9 1 0.87316 0.0321465 0.677802 0 0 0.00182343
10 1 0.595011 0.240498 0.552801 0 0 -0.000658035
11 1 0.760605 0.198895 0.17781 0 0 0.00978088
12 1 0.492429 0.0837297 0.282028 0 0 -0.00182724
13 1 0.214366 0.292053 0.157025 0 0 -0.00490379
14 1 0.316821 0.115534 0.427803 0 0 -0.00056839
15 1 0.936378 0.500363 0.0320219 0 0 0.613169
16 1 0.482612 0.407207 0.0528103 0 0 0.680311
17 1 0.326918 0.458648 0.657023 0 0 0.00091362
18 1 0.42921 0.28218 0.927808 0 0 -0.61318
19 1 0.151222 0.49049 0.802805 0 0 0.00489998
20 1 0.882976 0.375336 0.90702 0 0 -0.680302
21 1 0.604983 0.583648 0.78202 0 0 -0.00979233
22 1 0.0487678 0.333676 0.532027 0 0 0.000564575
23 1 0.770578 0.542046 0.407029 0 0 0.000659943
24 1 0.87316 0.36548 0.677802 0 0 0.00182724
25 1 0.595011 0.573831 0.552801 0 0 -0.00066185
26 1 0.0386703 0.323895 0.302807 0 0 -0.000909805
27 1 0.760605 0.532228 0.17781 0 0 0.00979042
28 1 0.492429 0.417063 0.282028 0 0 -0.00182152
29 1 0.214366 0.625387 0.157025 0 0 -0.00490189
30 1 0.316821 0.448867 0.427803 0 0 -0.00056839
31 1 0.936378 0.833696 0.0320219 0 0 0.613178
32 1 0.482612 0.740541 0.0528104 0 0 0.680311
33 1 0.326918 0.791981 0.657023 0 0 0.000911713
34 1 0.42921 0.615514 0.927808 0 0 -0.613173
35 1 0.151222 0.823823 0.802805 0 0 0.00490379
36 1 0.882976 0.708669 0.90702 0 0 -0.680305
37 1 0.604983 0.916981 0.78202 0 0 -0.00979042
38 1 0.0487676 0.667009 0.532027 0 0 0.000562668
39 1 0.770578 0.875379 0.407029 0 0 0.000659943
40 1 0.873159 0.698813 0.677802 0 0 0.00182152
41 1 0.59501 0.907164 0.552801 0 0 -0.000656128
42 1 0.0386702 0.657228 0.302807 0 0 -0.00091362
43 1 0.760605 0.865562 0.17781 0 0 0.00978851
44 1 0.492429 0.750396 0.282028 0 0 -0.00182533
45 1 0.214367 0.95872 0.157026 0 0 -0.0049057
46 1 0.316821 0.782201 0.427803 0 0 -0.000562668
47 1 0.0487673 0.000342385 0.532027 0 0 0.000562668
48 1 0.0386704 0.990562 0.302807 0 0 -0.000911713
ITEM: TIMESTEP
1
ITEM: NUMBER OF ATOMS
48
ITEM: BOX BOUNDS xy xz yz pp pp pp
-2.8315650820732117e+00 8.6067802309989929e+00 2.5094206929206848e+00
-9.4973444938659668e-03 9.3236122131347656e+00 -2.8195279836654663e+00
-2.8691649436950684e-02 1.9545819282531738e+01 7.1304261684417725e-02
ITEM: ATOMS id type xs ys zs fx fy fz
1 1 0.938518 0.166994 0.0366264 0 0 0.0222721
2 1 0.484986 0.0738346 0.057919 0 0 0.103405
3 1 0.326921 0.125314 0.65703 0 0 -0.00511551
4 1 0.427071 0.948882 0.923204 0 0 -0.0222702
5 1 0.151239 0.157156 0.802842 0 0 -0.114231
6 1 0.880602 0.0420419 0.901911 0 0 -0.103405
7 1 0.604949 0.250315 0.781947 0 0 -0.133867
8 1 0.77058 0.208712 0.407034 0 0 -0.00233269
9 1 0.873166 0.0321464 0.677816 0 0 -0.00146103
10 1 0.595009 0.240498 0.552796 0 0 0.00234032
11 1 0.760639 0.198894 0.177883 0 0 0.133869
12 1 0.492422 0.0837298 0.282015 0 0 0.00146103
13 1 0.214349 0.292054 0.156989 0 0 0.114231
14 1 0.316819 0.115534 0.427799 0 0 -0.00214958
15 1 0.938518 0.500327 0.0366264 0 0 0.022274
16 1 0.484986 0.407168 0.057919 0 0 0.103399
17 1 0.326921 0.458648 0.65703 0 0 -0.00510788
18 1 0.42707 0.282216 0.923204 0 0 -0.0222721
19 1 0.151239 0.49049 0.802841 0 0 -0.114229
20 1 0.880602 0.375375 0.901911 0 0 -0.103405
21 1 0.604949 0.583649 0.781947 0 0 -0.133863
22 1 0.0487698 0.333676 0.532031 0 0 0.00215149
23 1 0.77058 0.542045 0.407034 0 0 -0.00234032
24 1 0.873166 0.36548 0.677816 0 0 -0.00146294
25 1 0.595008 0.573831 0.552796 0 0 0.00233841
26 1 0.0386671 0.323895 0.3028 0 0 0.00510406
27 1 0.760639 0.532228 0.177884 0 0 0.133869
28 1 0.492422 0.417063 0.282015 0 0 0.00146484
29 1 0.214349 0.625387 0.156989 0 0 0.114225
30 1 0.316819 0.448867 0.427799 0 0 -0.00215149
31 1 0.938518 0.833661 0.0366265 0 0 0.0222645
32 1 0.484986 0.740501 0.057919 0 0 0.103403
33 1 0.326921 0.791981 0.65703 0 0 -0.0051136
34 1 0.42707 0.615549 0.923204 0 0 -0.0222759
35 1 0.151239 0.823823 0.802841 0 0 -0.114222
36 1 0.880602 0.708709 0.901911 0 0 -0.103403
37 1 0.604949 0.916982 0.781947 0 0 -0.133863
38 1 0.0487696 0.667009 0.532031 0 0 0.0021553
39 1 0.77058 0.875379 0.407034 0 0 -0.00234222
40 1 0.873166 0.698813 0.677815 0 0 -0.00145912
41 1 0.595008 0.907164 0.552796 0 0 0.00234032
42 1 0.038667 0.657229 0.3028 0 0 0.00511742
43 1 0.760639 0.865561 0.177884 0 0 0.133865
44 1 0.492422 0.750397 0.282015 0 0 0.00145912
45 1 0.214349 0.95872 0.156989 0 0 0.114225
46 1 0.316819 0.782201 0.427799 0 0 -0.00215721
47 1 0.0487693 0.000342353 0.532031 0 0 0.00215149
48 1 0.0386672 0.990562 0.3028 0 0 0.0051136
ITEM: TIMESTEP
2
ITEM: NUMBER OF ATOMS
48
ITEM: BOX BOUNDS xy xz yz pp pp pp
-2.8315650820732117e+00 8.6067802309989929e+00 2.5094206929206848e+00
-9.4973444938659668e-03 9.3236122131347656e+00 -2.8195279836654663e+00
-2.8691649436950684e-02 1.9545819282531738e+01 7.1304261684417725e-02
ITEM: ATOMS id type xs ys zs fx fy fz
1 1 0.938798 0.166989 0.0372295 0 0 -0.0253601
2 1 0.486287 0.073813 0.0607193 0 0 0.00855827
3 1 0.326857 0.125315 0.656891 0 0 -0.0792465
4 1 0.42679 0.948887 0.922601 0 0 0.0253563
5 1 0.149802 0.15718 0.799748 0 0 0.00826836
6 1 0.8793 0.0420635 0.899111 0 0 -0.00855637
7 1 0.603264 0.250343 0.778321 0 0 0.000720978
8 1 0.77055 0.208713 0.406971 0 0 0.00372314
9 1 0.873148 0.0321467 0.677776 0 0 -0.0718021
10 1 0.595038 0.240497 0.552859 0 0 -0.00372505
11 1 0.762324 0.198866 0.181509 0 0 -0.000722885
12 1 0.492441 0.0837295 0.282054 0 0 0.0718002
13 1 0.215787 0.29203 0.160082 0 0 -0.00827026
14 1 0.316792 0.115534 0.427741 0 0 0.00693703
15 1 0.938798 0.500323 0.0372296 0 0 -0.0253601
16 1 0.486287 0.407146 0.0607192 0 0 0.00856781
17 1 0.326857 0.458649 0.656891 0 0 -0.0792542
18 1 0.42679 0.28222 0.922601 0 0 0.0253563
19 1 0.149801 0.490514 0.799748 0 0 0.00827217
20 1 0.879301 0.375397 0.899111 0 0 -0.00855827
21 1 0.603265 0.583677 0.778321 0 0 0.000709534
22 1 0.0487969 0.333675 0.53209 0 0 -0.00694656
23 1 0.770551 0.542046 0.406971 0 0 0.00372887
24 1 0.873148 0.36548 0.677776 0 0 -0.0717907
25 1 0.595038 0.57383 0.552859 0 0 -0.00372505
26 1 0.0387314 0.323894 0.302939 0 0 0.0792675
27 1 0.762324 0.5322 0.181509 0 0 -0.000724792
28 1 0.492441 0.417063 0.282054 0 0 0.0717964
29 1 0.215787 0.625363 0.160082 0 0 -0.00826836
30 1 0.316792 0.448868 0.427741 0 0 0.00694084
31 1 0.938798 0.833656 0.0372294 0 0 -0.0253468
32 1 0.486287 0.74048 0.0607193 0 0 0.00855637
33 1 0.326857 0.791982 0.656891 0 0 -0.0792465
34 1 0.42679 0.615554 0.922601 0 0 0.0253658
35 1 0.149802 0.823847 0.799748 0 0 0.00826454
36 1 0.879301 0.70873 0.899111 0 0 -0.00856972
37 1 0.603265 0.91701 0.778321 0 0 0.000715256
38 1 0.0487967 0.667009 0.53209 0 0 -0.00695419
39 1 0.77055 0.875379 0.406971 0 0 0.00373268
40 1 0.873147 0.698813 0.677776 0 0 -0.0717907
41 1 0.595038 0.907164 0.552859 0 0 -0.00373077
42 1 0.0387314 0.657227 0.302939 0 0 0.0792408
43 1 0.762324 0.865533 0.181509 0 0 -0.00071907
44 1 0.492441 0.750396 0.282054 0 0 0.0717983
45 1 0.215787 0.958696 0.160082 0 0 -0.00827026
46 1 0.316792 0.782201 0.427741 0 0 0.00695229
47 1 0.0487964 0.000341904 0.532089 0 0 -0.00694847
48 1 0.0387316 0.990561 0.302939 0 0 0.079258
ITEM: TIMESTEP
3
ITEM: NUMBER OF ATOMS
48
ITEM: BOX BOUNDS xy xz yz pp pp pp
-2.8315650820732117e+00 8.6067802309989929e+00 2.5094206929206848e+00
-9.4973444938659668e-03 9.3236122131347656e+00 -2.8195279836654663e+00
-2.8691649436950684e-02 1.9545819282531738e+01 7.1304261684417725e-02
ITEM: ATOMS id type xs ys zs fx fy fz
1 1 0.938547 0.166994 0.0366895 0 0 -0.00564766
2 1 0.486812 0.0738043 0.0618492 0 0 -0.0108185
3 1 0.325776 0.125333 0.654565 0 0 0.00435829
4 1 0.427041 0.948883 0.923141 0 0 0.00564766
5 1 0.149459 0.157186 0.79901 0 0 -0.0113888
6 1 0.878776 0.0420722 0.897981 0 0 0.0108185
7 1 0.602743 0.250352 0.777198 0 0 -0.00880051
8 1 0.770591 0.208712 0.407058 0 0 0.0423565
9 1 0.872181 0.0321627 0.675696 0 0 0.00348282
10 1 0.594997 0.240498 0.552772 0 0 -0.0423584
11 1 0.762845 0.198858 0.182632 0 0 0.00880814
12 1 0.493407 0.0837135 0.284134 0 0 -0.00349617
13 1 0.21613 0.292024 0.16082 0 0 0.0113945
14 1 0.316876 0.115533 0.427922 0 0 0.0467396
15 1 0.938547 0.500327 0.0366895 0 0 -0.00564766
16 1 0.486813 0.407138 0.0618492 0 0 -0.0108204
17 1 0.325776 0.458667 0.654565 0 0 0.0043602
18 1 0.427041 0.282216 0.923141 0 0 0.00564957
19 1 0.149459 0.490519 0.79901 0 0 -0.0113983
20 1 0.878776 0.375406 0.897981 0 0 0.0108147
21 1 0.602743 0.583685 0.777198 0 0 -0.00879097
22 1 0.0487125 0.333677 0.531908 0 0 -0.04673
23 1 0.770591 0.542045 0.407058 0 0 0.0423508
24 1 0.872181 0.365496 0.675696 0 0 0.003479
25 1 0.594997 0.573831 0.552772 0 0 -0.0423565
26 1 0.0398123 0.323876 0.305265 0 0 -0.00437546
27 1 0.762845 0.532191 0.182632 0 0 0.00880623
28 1 0.493407 0.417047 0.284134 0 0 -0.00349045
29 1 0.216129 0.625357 0.16082 0 0 0.0113983
30 1 0.316876 0.448867 0.427922 0 0 0.0467396
31 1 0.938547 0.83366 0.0366897 0 0 -0.00566101
32 1 0.486812 0.740471 0.0618491 0 0 -0.010807
33 1 0.325776 0.792 0.654565 0 0 0.0043602
34 1 0.427041 0.61555 0.923141 0 0 0.00563812
35 1 0.149459 0.823852 0.79901 0 0 -0.0114002
36 1 0.878775 0.708739 0.897981 0 0 0.0108356
37 1 0.602743 0.917019 0.777198 0 0 -0.00880051
38 1 0.0487122 0.66701 0.531908 0 0 -0.0467224
39 1 0.770591 0.875379 0.407058 0 0 0.0423527
40 1 0.872181 0.698829 0.675696 0 0 0.00347328
41 1 0.594997 0.907164 0.552772 0 0 -0.042347
42 1 0.0398121 0.65721 0.305265 0 0 -0.00436211
43 1 0.762846 0.865524 0.182632 0 0 0.00880051
44 1 0.493407 0.75038 0.284134 0 0 -0.00348091
45 1 0.21613 0.958691 0.16082 0 0 0.0114079
46 1 0.316876 0.7822 0.427922 0 0 0.0467319
47 1 0.0487119 0.000343303 0.531908 0 0 -0.0467262
48 1 0.0398124 0.990543 0.305265 0 0 -0.00437737
ITEM: TIMESTEP
4
ITEM: NUMBER OF ATOMS
48
ITEM: BOX BOUNDS xy xz yz pp pp pp
-2.8315650820732117e+00 8.6067802309989929e+00 2.5094206929206848e+00
-9.4973444938659668e-03 9.3236122131347656e+00 -2.8195279836654663e+00
-2.8691649436950684e-02 1.9545819282531738e+01 7.1304261684417725e-02
ITEM: ATOMS id type xs ys zs fx fy fz
1 1 0.938452 0.166995 0.0364848 0 0 0.0123672
2 1 0.48684 0.0738039 0.0619086 0 0 0.00191116
3 1 0.325584 0.125337 0.654151 0 0 -0.00219154
4 1 0.427136 0.948881 0.923345 0 0 -0.0123596
5 1 0.149301 0.157188 0.798671 0 0 -0.00201607
6 1 0.878748 0.0420726 0.897922 0 0 -0.00191307
7 1 0.602567 0.250355 0.776821 0 0 0.001194
8 1 0.77092 0.208707 0.407767 0 0 0.00194931
9 1 0.872006 0.0321656 0.675318 0 0 -0.00375175
10 1 0.594668 0.240503 0.552063 0 0 -0.00195885
11 1 0.763021 0.198855 0.183009 0 0 -0.00119209
12 1 0.493582 0.0837106 0.284511 0 0 0.0037632
13 1 0.216287 0.292021 0.161159 0 0 0.00201225
14 1 0.317248 0.115527 0.428722 0 0 0.00358009
15 1 0.938452 0.500329 0.0364848 0 0 0.0123615
16 1 0.48684 0.407137 0.0619087 0 0 0.00190735
17 1 0.325584 0.45867 0.654151 0 0 -0.00218964
18 1 0.427136 0.282215 0.923345 0 0 -0.0123615
19 1 0.149301 0.490522 0.798671 0 0 -0.00201607
20 1 0.878748 0.375406 0.897922 0 0 -0.00190353
21 1 0.602567 0.583688 0.776821 0 0 0.001194
22 1 0.048341 0.333683 0.531108 0 0 -0.00357437
23 1 0.77092 0.54204 0.407767 0 0 0.00195122
24 1 0.872006 0.365499 0.675319 0 0 -0.00375748
25 1 0.594668 0.573836 0.552063 0 0 -0.00195122
26 1 0.0400048 0.323873 0.305679 0 0 0.00218582
27 1 0.763021 0.532188 0.183009 0 0 -0.00119209
28 1 0.493582 0.417044 0.284511 0 0 0.00376129
29 1 0.216287 0.625355 0.161159 0 0 0.00201225
30 1 0.317247 0.44886 0.428722 0 0 0.00357628
31 1 0.938452 0.833662 0.0364848 0 0 0.0123634
32 1 0.48684 0.740471 0.0619087 0 0 0.00190353
33 1 0.325583 0.792003 0.654151 0 0 -0.00219154
34 1 0.427136 0.615548 0.923345 0 0 -0.0123634
35 1 0.149301 0.823855 0.798671 0 0 -0.00201035
36 1 0.878748 0.708739 0.897922 0 0 -0.00190926
37 1 0.602567 0.917021 0.776821 0 0 0.00119209
38 1 0.0483407 0.667016 0.531108 0 0 -0.00357628
39 1 0.77092 0.875373 0.407767 0 0 0.00195312
40 1 0.872006 0.698832 0.675319 0 0 -0.0037632
41 1 0.594668 0.90717 0.552063 0 0 -0.00195312
42 1 0.0400045 0.657206 0.305679 0 0 0.00219917
43 1 0.763021 0.865521 0.183009 0 0 -0.001194
44 1 0.493583 0.750377 0.284512 0 0 0.00375748
45 1 0.216288 0.958688 0.16116 0 0 0.00201035
46 1 0.317248 0.782194 0.428722 0 0 0.00357056
47 1 0.0483405 0.000349458 0.531108 0 0 -0.00357628
48 1 0.0400048 0.99054 0.305679 0 0 0.00218964
ITEM: TIMESTEP
5
ITEM: NUMBER OF ATOMS
48
ITEM: BOX BOUNDS xy xz yz pp pp pp
-2.8315650820732117e+00 8.6067802309989929e+00 2.5094206929206848e+00
-9.4973444938659668e-03 9.3236122131347656e+00 -2.8195279836654663e+00
-2.8691649436950684e-02 1.9545819282531738e+01 7.1304261684417725e-02
ITEM: ATOMS id type xs ys zs fx fy fz
1 1 0.938554 0.166993 0.0367059 0 0 -0.00071907
2 1 0.486856 0.0738036 0.0619439 0 0 -0.00677109
3 1 0.325563 0.125337 0.654106 0 0 -0.00186539
4 1 0.427034 0.948883 0.923124 0 0 0.00071907
5 1 0.149282 0.157189 0.79863 0 0 -0.0047245
6 1 0.878732 0.0420729 0.897886 0 0 0.00676537
7 1 0.602575 0.250355 0.776838 0 0 -0.00351715
8 1 0.770941 0.208706 0.407811 0 0 -0.000146866
9 1 0.871972 0.0321662 0.675246 0 0 -0.00226402
10 1 0.594648 0.240504 0.552019 0 0 0.00015831
11 1 0.763013 0.198855 0.182993 0 0 0.00351715
12 1 0.493616 0.08371 0.284584 0 0 0.00226784
13 1 0.216306 0.292021 0.1612 0 0 0.00473022
14 1 0.317282 0.115526 0.428796 0 0 0.000108719
15 1 0.938555 0.500327 0.0367059 0 0 -0.00071907
16 1 0.486857 0.407137 0.0619439 0 0 -0.00677109
17 1 0.325563 0.45867 0.654106 0 0 -0.00186539
18 1 0.427033 0.282216 0.923124 0 0 0.000720978
19 1 0.149282 0.490522 0.79863 0 0 -0.0047245
20 1 0.878732 0.375406 0.897886 0 0 0.00676155
21 1 0.602575 0.583688 0.776838 0 0 -0.00351334
22 1 0.0483064 0.333683 0.531034 0 0 -0.000112534
23 1 0.770941 0.542039 0.407811 0 0 -0.000148773
24 1 0.871972 0.365499 0.675246 0 0 -0.00226593
25 1 0.594648 0.573837 0.552019 0 0 0.000146866
26 1 0.0400255 0.323873 0.305724 0 0 0.0018692
27 1 0.763013 0.532188 0.182993 0 0 0.00351334
28 1 0.493616 0.417043 0.284584 0 0 0.00226402
29 1 0.216306 0.625354 0.1612 0 0 0.00473404
30 1 0.317282 0.44886 0.428796 0 0 0.000112534
31 1 0.938555 0.83366 0.0367059 0 0 -0.000717163
32 1 0.486856 0.74047 0.0619438 0 0 -0.00675964
33 1 0.325563 0.792004 0.654106 0 0 -0.00186729
34 1 0.427033 0.61555 0.923124 0 0 0.000717163
35 1 0.149282 0.823855 0.79863 0 0 -0.00473213
36 1 0.878732 0.70874 0.897886 0 0 0.00675964
37 1 0.602575 0.917021 0.776838 0 0 -0.00351143
38 1 0.0483061 0.667017 0.531034 0 0 -0.000114441
39 1 0.770941 0.875373 0.407811 0 0 -0.000156403
40 1 0.871972 0.698833 0.675246 0 0 -0.00226021
41 1 0.594647 0.90717 0.552019 0 0 0.000148773
42 1 0.0400254 0.657206 0.305724 0 0 0.00186348
43 1 0.763013 0.865522 0.182992 0 0 0.00351334
44 1 0.493616 0.750377 0.284584 0 0 0.00226212
45 1 0.216306 0.958688 0.1612 0 0 0.00472641
46 1 0.317282 0.782193 0.428796 0 0 0.000116348
47 1 0.0483058 0.000350032 0.531034 0 0 -0.000114441
48 1 0.0400256 0.990539 0.305724 0 0 0.00186539
ITEM: TIMESTEP
6
ITEM: NUMBER OF ATOMS
48
ITEM: BOX BOUNDS xy xz yz pp pp pp
-2.8315650820732117e+00 8.6067802309989929e+00 2.5094206929206848e+00
-9.4973444938659668e-03 9.3236122131347656e+00 -2.8195279836654663e+00
-2.8691649436950684e-02 1.9545819282531738e+01 7.1304261684417725e-02
ITEM: ATOMS id type xs ys zs fx fy fz
1 1 0.938616 0.166992 0.036838 0 0 -0.000621796
2 1 0.486785 0.0738048 0.0617913 0 0 0.000621796
3 1 0.325526 0.125338 0.654027 0 0 -0.00167847
4 1 0.426972 0.948884 0.922992 0 0 0.000610352
5 1 0.149212 0.15719 0.798479 0 0 0.000364304
6 1 0.878802 0.0420717 0.898039 0 0 -0.000610352
7 1 0.602538 0.250355 0.776757 0 0 -0.000312805
8 1 0.770953 0.208706 0.407837 0 0 -7.82013e-05
9 1 0.871922 0.032167 0.675137 0 0 -0.00107574
10 1 0.594636 0.240504 0.551993 0 0 7.43866e-05
11 1 0.76305 0.198854 0.183073 0 0 0.000307083
12 1 0.493667 0.0837092 0.284693 0 0 0.00107193
13 1 0.216376 0.29202 0.161351 0 0 -0.000366211
14 1 0.317307 0.115526 0.42885 0 0 -0.00102425
15 1 0.938616 0.500326 0.0368379 0 0 -0.000614166
16 1 0.486786 0.407138 0.0617912 0 0 0.000623703
17 1 0.325526 0.458671 0.654027 0 0 -0.00167465
18 1 0.426972 0.282217 0.922992 0 0 0.000616074
19 1 0.149212 0.490523 0.798479 0 0 0.000364304
20 1 0.878803 0.375405 0.898039 0 0 -0.000617981
21 1 0.602538 0.583689 0.776758 0 0 -0.00031662
22 1 0.0482814 0.333684 0.53098 0 0 0.00103188
23 1 0.770953 0.542039 0.407837 0 0 -8.2016e-05
24 1 0.871922 0.3655 0.675138 0 0 -0.00107765
25 1 0.594636 0.573837 0.551993 0 0 8.01086e-05
26 1 0.0400623 0.323872 0.305803 0 0 0.00167465
27 1 0.76305 0.532188 0.183073 0 0 0.000314713
28 1 0.493667 0.417043 0.284693 0 0 0.00107765
29 1 0.216376 0.625353 0.161351 0 0 -0.000370026
30 1 0.317307 0.448859 0.42885 0 0 -0.00102806
31 1 0.938616 0.833659 0.036838 0 0 -0.00062561
32 1 0.486786 0.740471 0.0617914 0 0 0.000608444
33 1 0.325526 0.792004 0.654027 0 0 -0.00167847
34 1 0.426972 0.615551 0.922992 0 0 0.000621796
35 1 0.149212 0.823856 0.798479 0 0 0.000368118
36 1 0.878802 0.708738 0.898039 0 0 -0.00060463
37 1 0.602538 0.917022 0.776758 0 0 -0.000314713
38 1 0.0482811 0.667017 0.53098 0 0 0.00103188
39 1 0.770953 0.875373 0.407837 0 0 -8.01086e-05
40 1 0.871921 0.698834 0.675137 0 0 -0.00107765
41 1 0.594635 0.90717 0.551993 0 0 7.82013e-05
42 1 0.0400622 0.657205 0.305803 0 0 0.00167656
43 1 0.76305 0.865521 0.183073 0 0 0.000318527
44 1 0.493667 0.750376 0.284693 0 0 0.00107765
45 1 0.216377 0.958687 0.161351 0 0 -0.000362396
46 1 0.317307 0.782193 0.42885 0 0 -0.00102997
47 1 0.0482808 0.000350446 0.53098 0 0 0.00103188
48 1 0.0400624 0.990539 0.305803 0 0 0.00167656
ITEM: TIMESTEP
7
ITEM: NUMBER OF ATOMS
48
ITEM: BOX BOUNDS xy xz yz pp pp pp
-2.8315650820732117e+00 8.6067802309989929e+00 2.5094206929206848e+00
-9.4973444938659668e-03 9.3236122131347656e+00 -2.8195279836654663e+00
-2.8691649436950684e-02 1.9545819282531738e+01 7.1304261684417725e-02
ITEM: ATOMS id type xs ys zs fx fy fz
1 1 0.938613 0.166993 0.036832 0 0 -0.000337601
2 1 0.486788 0.0738047 0.0617966 0 0 0.000656128
3 1 0.325511 0.125338 0.653995 0 0 -4.3869e-05
4 1 0.426975 0.948884 0.922998 0 0 0.000343323
5 1 0.149212 0.15719 0.79848 0 0 -0.000267029
6 1 0.8788 0.0420718 0.898034 0 0 -0.000663757
7 1 0.602534 0.250355 0.776749 0 0 -0.000579834
8 1 0.770953 0.208706 0.407837 0 0 0.000734329
9 1 0.871911 0.0321672 0.675115 0 0 7.62939e-05
10 1 0.594636 0.240504 0.551994 0 0 -0.000732422
11 1 0.763054 0.198854 0.183081 0 0 0.000576019
12 1 0.493677 0.083709 0.284716 0 0 -7.24792e-05
13 1 0.216376 0.29202 0.16135 0 0 0.000268936
14 1 0.3173 0.115526 0.428834 0 0 0.000574112
15 1 0.938613 0.500326 0.036832 0 0 -0.000333786
16 1 0.486788 0.407138 0.0617965 0 0 0.000659943
17 1 0.325511 0.458671 0.653995 0 0 -4.3869e-05
18 1 0.426975 0.282217 0.922998 0 0 0.000339508
19 1 0.149212 0.490523 0.79848 0 0 -0.000265121
20 1 0.8788 0.375405 0.898034 0 0 -0.000659943
21 1 0.602534 0.583689 0.776749 0 0 -0.000574112
22 1 0.0482889 0.333684 0.530996 0 0 -0.000574112
23 1 0.770953 0.542039 0.407836 0 0 0.000741959
24 1 0.871911 0.3655 0.675115 0 0 7.43866e-05
25 1 0.594636 0.573837 0.551994 0 0 -0.000740051
26 1 0.0400773 0.323872 0.305835 0 0 4.57764e-05
27 1 0.763054 0.532188 0.183081 0 0 0.000577927
28 1 0.493677 0.417042 0.284716 0 0 -8.58307e-05
29 1 0.216376 0.625353 0.16135 0 0 0.000267029
30 1 0.3173 0.44886 0.428834 0 0 0.000572205
31 1 0.938613 0.833659 0.0368319 0 0 -0.000339508
32 1 0.486788 0.740471 0.0617965 0 0 0.000659943
33 1 0.325511 0.792004 0.653995 0 0 -4.00543e-05
34 1 0.426975 0.615551 0.922998 0 0 0.000339508
35 1 0.149212 0.823856 0.79848 0 0 -0.000267029
36 1 0.8788 0.708738 0.898034 0 0 -0.000665665
37 1 0.602534 0.917022 0.776749 0 0 -0.000577927
38 1 0.0482886 0.667017 0.530996 0 0 -0.000574112
39 1 0.770953 0.875373 0.407836 0 0 0.000738144
40 1 0.871911 0.698834 0.675115 0 0 7.62939e-05
41 1 0.594635 0.90717 0.551994 0 0 -0.000738144
42 1 0.0400772 0.657205 0.305835 0 0 4.19617e-05
43 1 0.763054 0.865521 0.183081 0 0 0.000574112
44 1 0.493677 0.750376 0.284716 0 0 -8.01086e-05
45 1 0.216376 0.958687 0.16135 0 0 0.000268936
46 1 0.3173 0.782193 0.428834 0 0 0.000581741
47 1 0.0482883 0.000350322 0.530996 0 0 -0.000576019
48 1 0.0400774 0.990538 0.305835 0 0 4.3869e-05
ITEM: TIMESTEP
8
ITEM: NUMBER OF ATOMS
48
ITEM: BOX BOUNDS xy xz yz pp pp pp
-2.8315650820732117e+00 8.6067802309989929e+00 2.5094206929206848e+00
-9.4973444938659668e-03 9.3236122131347656e+00 -2.8195279836654663e+00
-2.8691649436950684e-02 1.9545819282531738e+01 7.1304261684417725e-02
ITEM: ATOMS id type xs ys zs fx fy fz
1 1 0.938607 0.166993 0.0368181 0 0 4.76837e-05
2 1 0.486799 0.0738046 0.06182 0 0 0.000234604
3 1 0.325502 0.125338 0.653976 0 0 0.000112534
4 1 0.426981 0.948884 0.923012 0 0 -5.14984e-05
5 1 0.149209 0.15719 0.798472 0 0 -0.000286102
6 1 0.878789 0.0420719 0.89801 0 0 -0.000226974
7 1 0.602523 0.250356 0.776726 0 0 -5.72205e-05
8 1 0.770963 0.208706 0.407859 0 0 -0.000398636
9 1 0.871907 0.0321673 0.675105 0 0 -0.000162125
10 1 0.594625 0.240504 0.551971 0 0 0.000400543
11 1 0.763065 0.198854 0.183104 0 0 6.48499e-05
12 1 0.493682 0.0837089 0.284726 0 0 0.000154495
13 1 0.21638 0.29202 0.161358 0 0 0.000284195
14 1 0.317304 0.115526 0.428844 0 0 0.000118256
15 1 0.938607 0.500326 0.0368183 0 0 3.24249e-05
16 1 0.486799 0.407138 0.0618202 0 0 0.000221252
17 1 0.325502 0.458671 0.653976 0 0 0.000110626
18 1 0.426981 0.282217 0.923012 0 0 -4.57764e-05
19 1 0.149209 0.490523 0.798472 0 0 -0.000286102
20 1 0.878789 0.375405 0.89801 0 0 -0.00022316
21 1 0.602523 0.583689 0.776726 0 0 -6.48499e-05
22 1 0.0482845 0.333684 0.530987 0 0 -0.000125885
23 1 0.770963 0.542039 0.40786 0 0 -0.000408173
24 1 0.871907 0.365501 0.675105 0 0 -0.000152588
25 1 0.594625 0.573837 0.551971 0 0 0.000411987
26 1 0.040086 0.323872 0.305854 0 0 -0.000112534
27 1 0.763065 0.532187 0.183104 0 0 5.72205e-05
28 1 0.493682 0.417042 0.284725 0 0 0.000169754
29 1 0.21638 0.625353 0.161358 0 0 0.000284195
30 1 0.317304 0.448859 0.428843 0 0 0.000120163
31 1 0.938607 0.833659 0.0368179 0 0 5.72205e-05
32 1 0.486799 0.740471 0.06182 0 0 0.000238419
33 1 0.325502 0.792005 0.653976 0 0 0.000108719
34 1 0.426981 0.615551 0.923012 0 0 -4.76837e-05
35 1 0.149209 0.823857 0.798472 0 0 -0.00028038
36 1 0.878789 0.708739 0.89801 0 0 -0.000230789
37 1 0.602523 0.917022 0.776726 0 0 -6.29425e-05
38 1 0.0482842 0.667017 0.530987 0 0 -0.000114441
39 1 0.770963 0.875372 0.407859 0 0 -0.000398636
40 1 0.871906 0.698834 0.675105 0 0 -0.000162125
41 1 0.594625 0.90717 0.551971 0 0 0.00041008
42 1 0.0400859 0.657205 0.305854 0 0 -0.000110626
43 1 0.763065 0.865521 0.183104 0 0 5.72205e-05
44 1 0.493682 0.750376 0.284725 0 0 0.000165939
45 1 0.21638 0.958687 0.161358 0 0 0.000272751
46 1 0.317304 0.782193 0.428844 0 0 0.000101089
47 1 0.0482839 0.000350395 0.530987 0 0 -0.000116348
48 1 0.0400861 0.990538 0.305854 0 0 -0.000110626
ITEM: TIMESTEP
9
ITEM: NUMBER OF ATOMS
48
ITEM: BOX BOUNDS xy xz yz pp pp pp
-2.8315650820732117e+00 8.6067802309989929e+00 2.5094206929206848e+00
-9.4973444938659668e-03 9.3236122131347656e+00 -2.8195279836654663e+00
-2.8691649436950684e-02 1.9545819282531738e+01 7.1304261684417725e-02
ITEM: ATOMS id type xs ys zs fx fy fz
1 1 0.938606 0.166993 0.0368172 0 0 -3.05176e-05
2 1 0.486803 0.0738045 0.0618291 0 0 -8.01086e-05
3 1 0.325502 0.125338 0.653976 0 0 -5.53131e-05
4 1 0.426982 0.948884 0.923013 0 0 3.05176e-05
5 1 0.149205 0.15719 0.798464 0 0 -3.62396e-05
6 1 0.878785 0.042072 0.898001 0 0 7.43866e-05
7 1 0.602521 0.250356 0.776722 0 0 -2.28882e-05
8 1 0.77096 0.208706 0.407853 0 0 -3.24249e-05
9 1 0.871904 0.0321673 0.675099 0 0 -7.62939e-06
10 1 0.594628 0.240504 0.551977 0 0 3.05176e-05
11 1 0.763067 0.198854 0.183109 0 0 2.67029e-05
12 1 0.493684 0.0837089 0.284731 0 0 9.53674e-06
13 1 0.216383 0.29202 0.161366 0 0 3.24249e-05
14 1 0.317306 0.115526 0.428848 0 0 7.62939e-06
15 1 0.938606 0.500326 0.0368171 0 0 -1.33514e-05
16 1 0.486803 0.407138 0.0618289 0 0 -7.05719e-05
17 1 0.325502 0.458671 0.653976 0 0 -5.34058e-05
18 1 0.426982 0.282217 0.923013 0 0 1.90735e-05
19 1 0.149205 0.490523 0.798464 0 0 -3.62396e-05
20 1 0.878785 0.375405 0.898001 0 0 6.67572e-05
21 1 0.602521 0.583689 0.776722 0 0 -2.28882e-05
22 1 0.0482825 0.333684 0.530982 0 0 -9.53674e-06
23 1 0.770961 0.542039 0.407853 0 0 -3.24249e-05
24 1 0.871904 0.365501 0.6751 0 0 -1.52588e-05
25 1 0.594628 0.573837 0.551977 0 0 2.86102e-05
26 1 0.040086 0.323872 0.305854 0 0 5.53131e-05
27 1 0.763067 0.532187 0.183109 0 0 2.86102e-05
28 1 0.493684 0.417042 0.284731 0 0 7.62939e-06
29 1 0.216383 0.625353 0.161366 0 0 3.8147e-05
30 1 0.317306 0.448859 0.428848 0 0 1.71661e-05
31 1 0.938606 0.833659 0.0368173 0 0 -3.24249e-05
32 1 0.486803 0.740471 0.0618291 0 0 -8.2016e-05
33 1 0.325502 0.792005 0.653976 0 0 -4.95911e-05
34 1 0.426982 0.615551 0.923013 0 0 2.47955e-05
35 1 0.149205 0.823857 0.798464 0 0 -4.57764e-05
36 1 0.878785 0.708739 0.898001 0 0 8.01086e-05
37 1 0.602521 0.917022 0.776722 0 0 -2.09808e-05
38 1 0.0482823 0.667017 0.530983 0 0 -1.71661e-05
39 1 0.77096 0.875372 0.407853 0 0 -3.24249e-05
40 1 0.871904 0.698834 0.675099 0 0 -3.8147e-06
41 1 0.594628 0.90717 0.551977 0 0 3.05176e-05
42 1 0.0400859 0.657205 0.305854 0 0 4.95911e-05
43 1 0.763067 0.865521 0.183108 0 0 3.24249e-05
44 1 0.493684 0.750376 0.284731 0 0 3.8147e-06
45 1 0.216383 0.958686 0.161366 0 0 5.14984e-05
46 1 0.317306 0.782193 0.428848 0 0 1.90735e-05
47 1 0.048282 0.000350427 0.530982 0 0 -1.14441e-05
48 1 0.0400861 0.990538 0.305854 0 0 4.95911e-05
ITEM: TIMESTEP
10
ITEM: NUMBER OF ATOMS
48
ITEM: BOX BOUNDS xy xz yz pp pp pp
-2.8315650820732117e+00 8.6067802309989929e+00 2.5094206929206848e+00
-9.4973444938659668e-03 9.3236122131347656e+00 -2.8195279836654663e+00
-2.8691649436950684e-02 1.9545819282531738e+01 7.1304261684417725e-02
ITEM: ATOMS id type xs ys zs fx fy fz
1 1 0.938606 0.166993 0.0368168 0 0 4.3869e-05
2 1 0.486803 0.0738045 0.0618281 0 0 3.8147e-06
3 1 0.325502 0.125338 0.653975 0 0 -2.86102e-05
4 1 0.426982 0.948884 0.923013 0 0 -4.00543e-05
5 1 0.149205 0.15719 0.798463 0 0 5.72205e-06
6 1 0.878785 0.042072 0.898002 0 0 -5.72205e-06
7 1 0.602521 0.250356 0.776721 0 0 1.90735e-06
8 1 0.77096 0.208706 0.407853 0 0 1.90735e-06
9 1 0.871904 0.0321673 0.675099 0 0 -9.53674e-06
10 1 0.594628 0.240504 0.551978 0 0 0
11 1 0.763067 0.198854 0.183109 0 0 -7.62939e-06
12 1 0.493685 0.0837089 0.284731 0 0 5.72205e-06
13 1 0.216384 0.29202 0.161367 0 0 -1.90735e-06
14 1 0.317306 0.115526 0.428848 0 0 1.90735e-05
15 1 0.938606 0.500326 0.0368169 0 0 4.3869e-05
16 1 0.486803 0.407138 0.061828 0 0 1.90735e-06
17 1 0.325502 0.458671 0.653975 0 0 -3.24249e-05
18 1 0.426982 0.282217 0.923013 0 0 -4.3869e-05
19 1 0.149205 0.490523 0.798463 0 0 3.8147e-06
20 1 0.878785 0.375405 0.898002 0 0 1.90735e-06
21 1 0.602521 0.583689 0.776721 0 0 5.72205e-06
22 1 0.0482824 0.333684 0.530982 0 0 -1.90735e-05
23 1 0.77096 0.542039 0.407853 0 0 3.8147e-06
24 1 0.871904 0.365501 0.675099 0 0 -9.53674e-06
25 1 0.594628 0.573837 0.551978 0 0 -7.62939e-06
26 1 0.0400864 0.323872 0.305855 0 0 3.05176e-05
27 1 0.763067 0.532187 0.183109 0 0 -9.53674e-06
28 1 0.493684 0.417042 0.284731 0 0 7.62939e-06
29 1 0.216384 0.625353 0.161367 0 0 0
30 1 0.317306 0.448859 0.428848 0 0 1.71661e-05
31 1 0.938606 0.833659 0.0368168 0 0 4.57764e-05
32 1 0.486803 0.740471 0.0618281 0 0 0
33 1 0.325502 0.792005 0.653975 0 0 -2.86102e-05
34 1 0.426982 0.615551 0.923013 0 0 -4.76837e-05
35 1 0.149205 0.823857 0.798463 0 0 3.8147e-06
36 1 0.878785 0.708739 0.898002 0 0 0
37 1 0.602521 0.917022 0.776721 0 0 1.90735e-06
38 1 0.0482821 0.667017 0.530982 0 0 -1.90735e-05
39 1 0.77096 0.875372 0.407853 0 0 0
40 1 0.871904 0.698834 0.675099 0 0 -5.72205e-06
41 1 0.594628 0.90717 0.551978 0 0 -5.72205e-06
42 1 0.0400862 0.657205 0.305855 0 0 3.43323e-05
43 1 0.763067 0.865521 0.183109 0 0 -3.8147e-06
44 1 0.493684 0.750376 0.284731 0 0 7.62939e-06
45 1 0.216384 0.958686 0.161367 0 0 -3.8147e-06
46 1 0.317306 0.782193 0.428848 0 0 1.90735e-05
47 1 0.0482819 0.000350429 0.530982 0 0 -1.71661e-05
48 1 0.0400865 0.990538 0.305855 0 0 3.62396e-05
ITEM: TIMESTEP
11
ITEM: NUMBER OF ATOMS
48
ITEM: BOX BOUNDS xy xz yz pp pp pp
-2.8315650820732117e+00 8.6067802309989929e+00 2.5094206929206848e+00
-9.4973444938659668e-03 9.3236122131347656e+00 -2.8195279836654663e+00
-2.8691649436950684e-02 1.9545819282531738e+01 7.1304261684417725e-02
ITEM: ATOMS id type xs ys zs fx fy fz
1 1 0.938606 0.166993 0.0368168 0 0 4.3869e-05
2 1 0.486803 0.0738045 0.0618281 0 0 3.8147e-06
3 1 0.325502 0.125338 0.653975 0 0 -2.86102e-05
4 1 0.426982 0.948884 0.923013 0 0 -4.00543e-05
5 1 0.149205 0.15719 0.798463 0 0 5.72205e-06
6 1 0.878785 0.042072 0.898002 0 0 -5.72205e-06
7 1 0.602521 0.250356 0.776721 0 0 1.90735e-06
8 1 0.77096 0.208706 0.407853 0 0 1.90735e-06
9 1 0.871904 0.0321673 0.675099 0 0 -9.53674e-06
10 1 0.594628 0.240504 0.551978 0 0 0
11 1 0.763067 0.198854 0.183109 0 0 -7.62939e-06
12 1 0.493685 0.0837089 0.284731 0 0 5.72205e-06
13 1 0.216384 0.29202 0.161367 0 0 -1.90735e-06
14 1 0.317306 0.115526 0.428848 0 0 1.90735e-05
15 1 0.938606 0.500326 0.0368169 0 0 4.3869e-05
16 1 0.486803 0.407138 0.061828 0 0 1.90735e-06
17 1 0.325502 0.458671 0.653975 0 0 -3.24249e-05
18 1 0.426982 0.282217 0.923013 0 0 -4.3869e-05
19 1 0.149205 0.490523 0.798463 0 0 3.8147e-06
20 1 0.878785 0.375405 0.898002 0 0 1.90735e-06
21 1 0.602521 0.583689 0.776721 0 0 5.72205e-06
22 1 0.0482824 0.333684 0.530982 0 0 -1.90735e-05