ITEM: TIMESTEP
0
ITEM: NUMBER OF ATOMS
56
ITEM: BOX BOUNDS xy xz yz pp pp pp
-2.1646061539649963e+00 1.2203788340091705e+01 0.0000000000000000e+00
-8.4733366966247559e-03 5.5348814725875854e+00 -2.1459176540374756e+00
-2.9168844223022461e-02 1.9049128890037537e+01 0.0000000000000000e+00
ITEM: ATOMS id type xs ys zs fx fy fz
1 1 0.573311 4.41887e-05 0.132366 0 0.0202389 0.741838
2 1 0.323312 0.166624 0.132366 0 -0.0202599 0.741871
3 1 0.235802 2.39879e-05 0.275225 0 0.000200272 -0.00363731
4 1 0.985802 0.166644 0.275225 0 -0.000225067 -0.00363159
5 1 0.898239 1.9421e-05 0.418082 0 6.10352e-05 -0.000112534
6 1 0.0733117 4.41295e-05 0.132366 0 0.0202427 0.741852
7 1 0.992039 0.500074 0.0609403 0 0.0101566 0.743479
8 1 0.823313 0.166623 0.132366 0 -0.0202522 0.741875
9 1 0.74204 0.666593 0.0609403 0 -0.0101414 0.743526
10 1 0.735803 2.39872e-05 0.275225 0 0.000200272 -0.00362015
11 1 0.648238 0.166647 0.418082 0 -5.53131e-05 -0.000116348
12 1 0.560665 2.47556e-05 0.560942 0 -5.72205e-06 4.00543e-05
13 1 0.310666 0.166643 0.560942 0 -3.8147e-06 3.8147e-05
14 1 0.2231 2.39811e-05 0.703801 0 -0.000267029 0.00138474
15 1 0.9731 0.166644 0.703801 0 0.000232697 0.00138092
16 1 0.885548 2.63435e-05 0.846651 0 0.0064373 -0.00507545
17 1 0.654574 0.500026 0.203802 0 0.00645447 0.00508118
18 1 0.485802 0.166645 0.275225 0 -0.000240326 -0.00362968
19 1 0.404575 0.66664 0.203802 0 -0.00642395 0.00509453
20 1 0.398239 2.01694e-05 0.418082 0 4.3869e-05 -0.000112534
21 1 0.317022 0.500023 0.346651 0 -0.000238419 -0.00136566
22 1 0.148239 0.166648 0.418082 0 -6.10352e-05 -0.000114441
23 1 0.0670215 0.666642 0.346651 0 0.000278473 -0.00138474
24 1 0.0606656 2.49573e-05 0.560941 0 -9.53674e-06 4.76837e-05
25 1 0.979455 0.500025 0.489511 0 -1.90735e-06 -5.14984e-05
26 1 0.810667 0.166643 0.560941 0 -3.8147e-06 5.34058e-05
27 1 0.729457 0.666642 0.489511 0 7.62939e-06 -3.05176e-05
28 1 0.492038 0.500073 0.0609404 0 0.01017 0.743483
29 1 0.242039 0.666593 0.0609403 0 -0.0101452 0.743488
30 1 0.154575 0.500026 0.203802 0 0.00645065 0.00508308
31 1 0.904575 0.666641 0.203802 0 -0.00644875 0.00508881
32 1 0.817022 0.500024 0.346651 0 -0.000263214 -0.00138664
33 1 0.635547 0.166641 0.846652 0 -0.0064373 -0.0051136
34 1 0.548083 7.47473e-05 0.989512 0 0.0101318 -0.743464
35 1 0.298083 0.166594 0.989513 0 -0.0101624 -0.7435
36 1 0.723099 2.44315e-05 0.703801 0 -0.000270844 0.00138474
37 1 0.641881 0.50002 0.632371 0 5.53131e-05 9.53674e-05
38 1 0.4731 0.166643 0.703801 0 0.000246048 0.00138855
39 1 0.391882 0.666647 0.632371 0 -4.95911e-05 0.000112534
40 1 0.385547 2.63314e-05 0.846651 0 0.00644112 -0.00509262
41 1 0.304319 0.500023 0.775228 0 0.000217438 0.00363541
42 1 0.135547 0.166641 0.846651 0 -0.00644684 -0.00509262
43 1 0.0543193 0.666644 0.775228 0 -0.000205994 0.00361633
44 1 0.0480834 7.37033e-05 0.989512 0 0.0101624 -0.743473
45 1 0.96681 0.500043 0.918087 0 0.0202541 -0.741837
46 1 0.567021 0.666643 0.346651 0 0.000274658 -0.00137901
47 1 0.479455 0.500025 0.489511 0 1.90735e-06 -4.76837e-05
48 1 0.229456 0.666642 0.489511 0 1.14441e-05 -4.95911e-05
49 1 0.141882 0.500019 0.632371 0 6.86646e-05 0.000120163
50 1 0.891883 0.666647 0.63237 0 -3.8147e-05 0.000135422
51 1 0.804321 0.500022 0.775228 0 0.000230789 0.00362778
52 1 0.798081 0.166594 0.989513 0 -0.0101585 -0.743523
53 1 0.716809 0.666624 0.918087 0 -0.0202503 -0.741896
54 1 0.554319 0.666643 0.775228 0 -0.000211716 0.00363159
55 1 0.46681 0.500044 0.918087 0 0.0202618 -0.741861
56 1 0.21681 0.666624 0.918087 0 -0.0202541 -0.741856
ITEM: TIMESTEP
1
ITEM: NUMBER OF ATOMS
56
ITEM: BOX BOUNDS xy xz yz pp pp pp
-2.1646061539649963e+00 1.2203788340091705e+01 0.0000000000000000e+00
-8.4733366966247559e-03 5.5348814725875854e+00 -2.1459176540374756e+00
-2.9168844223022461e-02 1.9049128890037537e+01 0.0000000000000000e+00
ITEM: ATOMS id type xs ys zs fx fy fz
1 1 0.574229 0.000535229 0.137596 0 0.00674629 0.120129
2 1 0.32423 0.166132 0.137596 0 -0.00675583 0.120136
3 1 0.235798 2.88469e-05 0.275199 0 -0.0185471 0.100758
4 1 0.985797 0.166639 0.275199 0 0.018549 0.100758
5 1 0.898239 2.09019e-05 0.418081 0 -0.000785828 -0.00123596
6 1 0.0742299 0.000535263 0.137596 0 0.00675583 0.120138
7 1 0.992959 0.50032 0.0661815 0 -0.0378132 0.0922089
8 1 0.824231 0.166132 0.137596 0 -0.00675583 0.120127
9 1 0.74296 0.666347 0.0661818 0 0.0378227 0.0922012
10 1 0.735799 2.88462e-05 0.275199 0 -0.0185547 0.10074
11 1 0.648238 0.166646 0.418081 0 0.000795364 -0.00124931
12 1 0.560665 2.46168e-05 0.560942 0 0.000156403 0.0029068
13 1 0.310666 0.166643 0.560942 0 -0.000156403 0.0029068
14 1 0.223102 1.75024e-05 0.703811 0 -0.00275421 -0.00434875
15 1 0.973102 0.16665 0.703811 0 0.00274849 -0.00435448
16 1 0.885542 0.000182527 0.846615 0 -0.000133514 -0.128813
17 1 0.65458 0.500183 0.203837 0 -0.000133514 0.128828
18 1 0.485797 0.166639 0.275199 0 0.0185375 0.10076
19 1 0.404581 0.666484 0.203837 0 0.000146866 0.12883
20 1 0.398239 2.12338e-05 0.418081 0 -0.000795364 -0.00124359
21 1 0.31702 0.500017 0.346642 0 -0.00275803 0.00435257
22 1 0.148239 0.166646 0.418081 0 0.000789642 -0.00123978
23 1 0.0670198 0.666649 0.346642 0 0.00276566 0.00435448
24 1 0.0606656 2.47259e-05 0.560942 0 0.000150681 0.00290871
25 1 0.979455 0.500025 0.489511 0 0.000156403 -0.00291824
26 1 0.810667 0.166643 0.560942 0 -0.000156403 0.00292587
27 1 0.729457 0.666642 0.489511 0 -0.000154495 -0.00290489
28 1 0.492959 0.50032 0.0661816 0 -0.0378017 0.0922089
29 1 0.242959 0.666346 0.0661816 0 0.0378151 0.0921993
30 1 0.154581 0.500183 0.203837 0 -0.000143051 0.128826
31 1 0.904581 0.666485 0.203837 0 0.0001297 0.128834
32 1 0.817021 0.500018 0.346642 0 -0.00276184 0.00434875
33 1 0.63554 0.166484 0.846616 0 0.000139236 -0.128845
34 1 0.547163 0.000320568 0.984271 0 -0.0378189 -0.0922031
35 1 0.297163 0.166347 0.984271 0 0.0378075 -0.0922108
36 1 0.723101 1.78602e-05 0.703811 0 -0.00276756 -0.00434303
37 1 0.641881 0.500021 0.632372 0 -0.000789642 0.00122833
38 1 0.473102 0.166649 0.703811 0 0.00275421 -0.00434494
39 1 0.391883 0.666646 0.632372 0 0.00079155 0.00124168
40 1 0.385541 0.000182607 0.846615 0 -0.000131607 -0.128824
41 1 0.304324 0.500028 0.775253 0 -0.0185528 -0.100744
42 1 0.135541 0.166484 0.846615 0 0.000143051 -0.128838
43 1 0.0543238 0.666639 0.775253 0 0.0185452 -0.100756
44 1 0.0471632 0.000320265 0.984271 0 -0.0378151 -0.0921993
45 1 0.965892 0.500535 0.912857 0 0.00676346 -0.120125
46 1 0.567019 0.666649 0.346642 0 0.00275612 0.00435257
47 1 0.479455 0.500025 0.489511 0 0.000162125 -0.00291252
48 1 0.229455 0.666642 0.489511 0 -0.000146866 -0.00291824
49 1 0.141882 0.500021 0.632371 0 -0.000795364 0.00123978
50 1 0.891883 0.666646 0.632371 0 0.000799179 0.00124931
51 1 0.804325 0.500028 0.775253 0 -0.0185413 -0.10075
52 1 0.797161 0.166347 0.984271 0 0.0378151 -0.0922127
53 1 0.715891 0.666132 0.912857 0 -0.00676346 -0.120146
54 1 0.554324 0.666638 0.775254 0 0.0185413 -0.100752
55 1 0.465892 0.500535 0.912857 0 0.00675583 -0.120131
56 1 0.215892 0.666132 0.912857 0 -0.00675583 -0.120134
ITEM: TIMESTEP
2
ITEM: NUMBER OF ATOMS
56
ITEM: BOX BOUNDS xy xz yz pp pp pp
-2.1646061539649963e+00 1.2203788340091705e+01 0.0000000000000000e+00
-8.4733366966247559e-03 5.5348814725875854e+00 -2.1459176540374756e+00
-2.9168844223022461e-02 1.9049128890037537e+01 0.0000000000000000e+00
ITEM: ATOMS id type xs ys zs fx fy fz
1 1 0.574787 0.00114973 0.140775 0 -0.0223713 -0.0524769
2 1 0.324788 0.165517 0.140775 0 0.0223866 -0.0524921
3 1 0.236266 -0.00166056 0.277866 0 -0.0014801 0.0570717
4 1 0.986265 0.168328 0.277866 0 0.00146484 0.0570698
5 1 0.898233 -5.06772e-05 0.418048 0 -0.00867653 0.0460949
6 1 0.0747882 0.00115063 0.140775 0 -0.0223904 -0.0524864
7 1 0.993387 0.496876 0.0686219 0 -0.0153675 -0.0697784
8 1 0.824789 0.165517 0.140775 0 0.0223904 -0.0524807
9 1 0.743389 0.669792 0.0686221 0 0.0153599 -0.0697899
10 1 0.736267 -0.00166125 0.277866 0 -0.00146866 0.0570774
11 1 0.648232 0.166718 0.418048 0 0.00867462 0.0461044
12 1 0.560679 3.88631e-05 0.561019 0 -0.00237465 -0.00347137
13 1 0.310679 0.166628 0.561019 0 0.00238419 -0.00347519
14 1 0.223082 -0.000233372 0.703696 0 -0.0117779 -0.0729904
15 1 0.973082 0.1669 0.703696 0 0.0117664 -0.0729847
16 1 0.884943 0.000170365 0.843206 0 -0.00944328 -0.0311241
17 1 0.655179 0.50017 0.207247 0 -0.00946426 0.0311108
18 1 0.486266 0.168327 0.277866 0 0.00147247 0.0570717
19 1 0.40518 0.666497 0.207247 0 0.00944328 0.0311165
20 1 0.398234 -5.12139e-05 0.418048 0 -0.00867271 0.0461006
21 1 0.31704 0.499766 0.346757 0 -0.0117607 0.0729885
22 1 0.148233 0.166718 0.418048 0 0.00868034 0.0460949
23 1 0.0670401 0.666901 0.346757 0 0.011776 0.0729771
24 1 0.0606792 3.8451e-05 0.561019 0 -0.00238037 -0.00347328
25 1 0.979442 0.500039 0.489434 0 -0.00238609 0.00348091
26 1 0.81068 0.166629 0.561019 0 0.00238037 -0.00348663
27 1 0.729443 0.666628 0.489434 0 0.00239182 0.00347519
28 1 0.493387 0.496877 0.068622 0 -0.0153713 -0.0697918
29 1 0.243387 0.669791 0.0686218 0 0.0153618 -0.0697727
30 1 0.155179 0.50017 0.207247 0 -0.0094471 0.0311165
31 1 0.90518 0.666496 0.207247 0 0.00945091 0.0311089
32 1 0.817041 0.499766 0.346757 0 -0.0117722 0.0729942
33 1 0.634942 0.166497 0.843206 0 0.00944328 -0.0311069
34 1 0.546735 -0.00312426 0.981831 0 -0.0153618 0.0697727
35 1 0.296734 0.169791 0.981831 0 0.0153675 0.0697975
36 1 0.723081 -0.00023423 0.703696 0 -0.0117664 -0.0729923
37 1 0.641887 0.499949 0.632404 0 -0.00868225 -0.0460873
38 1 0.473082 0.1669 0.703696 0 0.0117702 -0.0730019
39 1 0.391888 0.666718 0.632405 0 0.00867653 -0.0460911
40 1 0.384942 0.00017062 0.843206 0 -0.00945663 -0.0311165
41 1 0.303856 0.498339 0.772587 0 -0.00146484 -0.0570889
42 1 0.134942 0.166497 0.843206 0 0.00944138 -0.0311031
43 1 0.0538556 0.668328 0.772587 0 0.00147247 -0.0570717
44 1 0.0467348 -0.00312422 0.981831 0 -0.0153465 0.0697975
45 1 0.965334 0.501151 0.909678 0 -0.0223961 0.052494
46 1 0.56704 0.6669 0.346757 0 0.011776 0.0729866
47 1 0.479442 0.500039 0.489434 0 -0.00238991 0.00347137
48 1 0.229442 0.666629 0.489434 0 0.00237846 0.003479
49 1 0.141888 0.499948 0.632404 0 -0.00867081 -0.0460911
50 1 0.891889 0.666719 0.632405 0 0.00866508 -0.0460892
51 1 0.803857 0.498339 0.772587 0 -0.00147057 -0.0570889
52 1 0.796733 0.169792 0.981831 0 0.0153751 0.0697899
53 1 0.715333 0.665516 0.909677 0 0.0223923 0.0524826
54 1 0.553856 0.668327 0.772587 0 0.00146866 -0.0570812
55 1 0.465333 0.501151 0.909678 0 -0.0223885 0.0524807
56 1 0.215333 0.665517 0.909678 0 0.0223885 0.0524788
ITEM: TIMESTEP
3
ITEM: NUMBER OF ATOMS
56
ITEM: BOX BOUNDS xy xz yz pp pp pp
-2.1646061539649963e+00 1.2203788340091705e+01 0.0000000000000000e+00
-8.4733366966247559e-03 5.5348814725875854e+00 -2.1459176540374756e+00
-2.9168844223022461e-02 1.9049128890037537e+01 0.0000000000000000e+00
ITEM: ATOMS id type xs ys zs fx fy fz
1 1 0.574788 -0.000416793 0.14078 0 -0.00982285 0.0286751
2 1 0.324789 0.167084 0.140779 0 0.00981712 0.0286922
3 1 0.236683 -0.00243616 0.28024 0 0.00852966 -0.0250912
4 1 0.986682 0.169103 0.28024 0 -0.00852013 -0.0250893
5 1 0.898421 -0.000778611 0.419116 0 -0.00818253 0.049118
6 1 0.0747889 -0.000417093 0.14078 0 -0.00982094 0.028698
7 1 0.993266 0.494298 0.0679337 0 0.0123749 0.0157795
8 1 0.82479 0.167084 0.140779 0 0.00980949 0.0286846
9 1 0.743268 0.672369 0.0679336 0 -0.0123692 0.0157738
10 1 0.736684 -0.0024362 0.280239 0 0.00852394 -0.0250759
11 1 0.64842 0.167446 0.419116 0 0.00817299 0.0491142
12 1 0.56067 -0.00014722 0.560967 0 -0.00990295 -0.018404
13 1 0.31067 0.166815 0.560967 0 0.00989342 -0.0183887
14 1 0.222773 -0.0012812 0.70194 0 -0.00619125 -0.0469608
15 1 0.972773 0.167947 0.70194 0 0.00620651 -0.0469627
16 1 0.884583 -0.000596362 0.841152 0 -0.0050602 0.0399761
17 1 0.655539 0.499402 0.209301 0 -0.00503349 -0.0399704
18 1 0.486682 0.169102 0.28024 0 -0.00851631 -0.0250874
19 1 0.40554 0.667265 0.209301 0 0.00503349 -0.0399818
20 1 0.398421 -0.000779177 0.419117 0 -0.00816727 0.0491123
21 1 0.317348 0.49872 0.348513 0 -0.00620079 0.046957
22 1 0.148421 0.167447 0.419116 0 0.00818443 0.0491142
23 1 0.0673483 0.667949 0.348513 0 0.00617981 0.0469589
24 1 0.0606701 -0.000148297 0.560967 0 -0.00989151 -0.0183926
25 1 0.979451 0.499852 0.489485 0 -0.0098896 0.0184002
26 1 0.810671 0.166815 0.560968 0 0.00990295 -0.0183868
27 1 0.729452 0.666816 0.489486 0 0.00988579 0.0183983
28 1 0.493266 0.494299 0.0679336 0 0.0123749 0.0157776
29 1 0.243266 0.672368 0.0679336 0 -0.012373 0.0157719
30 1 0.15554 0.499402 0.209301 0 -0.00504875 -0.0399666
31 1 0.90554 0.667264 0.209301 0 0.00504875 -0.0399761
32 1 0.817349 0.498719 0.348513 0 -0.00618553 0.0469513
33 1 0.634581 0.167264 0.841152 0 0.00504494 0.039978
34 1 0.546856 -0.00570182 0.982519 0 0.0123787 -0.0157604
35 1 0.296855 0.172368 0.982519 0 -0.0123749 -0.0157795
36 1 0.722772 -0.00128161 0.70194 0 -0.00618935 -0.0469608
37 1 0.641699 0.499221 0.631336 0 -0.00817871 -0.049118
38 1 0.472774 0.167947 0.70194 0 0.00619698 -0.0469551
39 1 0.391701 0.667446 0.631337 0 0.00817108 -0.0491352
40 1 0.384582 -0.000597118 0.841152 0 -0.00504684 0.0399704
41 1 0.303439 0.497564 0.770213 0 0.00852013 0.0250931
42 1 0.134581 0.167264 0.841152 0 0.00504875 0.0399761
43 1 0.0534389 0.669103 0.770213 0 -0.00852966 0.0250988
44 1 0.0468557 -0.00570041 0.98252 0 0.0123692 -0.015789
45 1 0.965333 0.499583 0.909674 0 -0.00980186 -0.0286884
46 1 0.567348 0.667948 0.348513 0 0.00619316 0.0469551
47 1 0.479451 0.499852 0.489485 0 -0.00989342 0.0183983
48 1 0.229451 0.666816 0.489485 0 0.00989532 0.0183983
49 1 0.141701 0.49922 0.631336 0 -0.0081749 -0.0491219
50 1 0.891702 0.667446 0.631337 0 0.00817108 -0.0491371
51 1 0.80344 0.497564 0.770213 0 0.00851059 0.0250969
52 1 0.796854 0.17237 0.982519 0 -0.0123692 -0.0157814
53 1 0.715332 0.667084 0.909673 0 0.00982666 -0.0286808
54 1 0.553439 0.669102 0.770213 0 -0.00852394 0.0250893
55 1 0.465333 0.499583 0.909673 0 -0.00981903 -0.0286884
56 1 0.215333 0.667084 0.909673 0 0.00981331 -0.028677
ITEM: TIMESTEP
4
ITEM: NUMBER OF ATOMS
56
ITEM: BOX BOUNDS xy xz yz pp pp pp
-2.1646061539649963e+00 1.2203788340091705e+01 0.0000000000000000e+00
-8.4733366966247559e-03 5.5348814725875854e+00 -2.1459176540374756e+00
-2.9168844223022461e-02 1.9049128890037537e+01 0.0000000000000000e+00
ITEM: ATOMS id type xs ys zs fx fy fz
1 1 0.574879 -0.00150376 0.141297 0 0.0031929 0.00310326
2 1 0.32488 0.168171 0.141297 0 -0.00319862 0.00310516
3 1 0.236731 -0.00214463 0.280513 0 -0.000684738 0.000965118
4 1 0.98673 0.168812 0.280513 0 0.000684738 0.000959396
5 1 0.898633 -0.00150784 0.420327 0 -0.00323868 0.00217438
6 1 0.0748799 -0.00150431 0.141298 0 0.00319481 0.00309181
7 1 0.993279 0.494278 0.0680076 0 0.0063839 0.00154686
8 1 0.824881 0.168171 0.141297 0 -0.00318909 0.00309944
9 1 0.743281 0.67239 0.0680072 0 -0.00637817 0.0015583
10 1 0.736732 -0.00214482 0.280513 0 -0.000684738 0.00097084
11 1 0.648632 0.168175 0.420327 0 0.00323677 0.00218201
12 1 0.560609 -0.00081754 0.56062 0 -0.010891 -0.0105782
13 1 0.310609 0.167485 0.560621 0 0.0108757 -0.0105839
14 1 0.222531 -0.00198477 0.700558 0 0.000837326 0.00574684
15 1 0.972531 0.168651 0.700558 0 -0.00084877 0.00575829
16 1 0.884599 -0.00114401 0.841245 0 0.00425148 0.0027256
17 1 0.655523 0.498855 0.209208 0 0.00425529 -0.00272751
18 1 0.48673 0.168811 0.280513 0 0.000686646 0.000957489
19 1 0.405524 0.667811 0.209209 0 -0.00425148 -0.0027256
20 1 0.398634 -0.00150747 0.420327 0 -0.00323677 0.00218201
21 1 0.317591 0.498016 0.349894 0 0.000843048 -0.00574303
22 1 0.148633 0.168176 0.420327 0 0.00323296 0.00218201
23 1 0.0675909 0.668652 0.349894 0 -0.000835419 -0.00573349
24 1 0.0606092 -0.00081811 0.56062 0 -0.0108814 -0.0105801
25 1 0.979512 0.499182 0.489832 0 -0.0108852 0.0105743
26 1 0.81061 0.167486 0.560621 0 0.0108795 -0.0105896
27 1 0.729513 0.667485 0.489833 0 0.0108852 0.0105762
28 1 0.493279 0.494278 0.0680073 0 0.0063839 0.00154495
29 1 0.243279 0.672389 0.0680074 0 -0.0063839 0.00154877
30 1 0.155524 0.498855 0.209209 0 0.00425339 -0.00273323
31 1 0.905524 0.667811 0.209209 0 -0.0042572 -0.0027256
32 1 0.817592 0.498016 0.349894 0 0.000837326 -0.00574303
33 1 0.634597 0.167811 0.841244 0 -0.00425148 0.00272179
34 1 0.546843 -0.00572219 0.982446 0 0.00638008 -0.00156021
35 1 0.296842 0.172389 0.982446 0 -0.0063839 -0.0015564
36 1 0.72253 -0.00198492 0.700558 0 0.000827789 0.00574112
37 1 0.641487 0.498491 0.630126 0 -0.00322342 -0.00217628
38 1 0.472531 0.168651 0.700558 0 -0.000841141 0.00574112
39 1 0.391488 0.668175 0.630126 0 0.00323677 -0.00217247
40 1 0.384598 -0.00114425 0.841244 0 0.00425148 0.00272942
41 1 0.303391 0.497855 0.76994 0 -0.000682831 -0.000965118
42 1 0.134598 0.167811 0.841244 0 -0.00425148 0.00272942
43 1 0.0533909 0.668811 0.76994 0 0.000688553 -0.000967026
44 1 0.0468428 -0.00572095 0.982446 0 0.00637627 -0.00155258
45 1 0.965242 0.498497 0.909156 0 0.00319672 -0.00310516
46 1 0.567591 0.668652 0.349894 0 -0.000835419 -0.00574303
47 1 0.479512 0.499182 0.489832 0 -0.0108738 0.010582
48 1 0.229512 0.667486 0.489832 0 0.0108852 0.0105743
49 1 0.141488 0.498492 0.630126 0 -0.00323105 -0.00218201
50 1 0.891489 0.668175 0.630126 0 0.00323486 -0.00216866
51 1 0.803392 0.497855 0.769939 0 -0.000680923 -0.000961304
52 1 0.796841 0.172391 0.982445 0 -0.00638771 -0.00154495
53 1 0.715241 0.668172 0.909155 0 -0.00319481 -0.00310135
54 1 0.553391 0.66881 0.76994 0 0.00069046 -0.000965118
55 1 0.465242 0.498496 0.909156 0 0.0031929 -0.00309563
56 1 0.215242 0.668171 0.909155 0 -0.0031929 -0.00309181
ITEM: TIMESTEP
5
ITEM: NUMBER OF ATOMS
56
ITEM: BOX BOUNDS xy xz yz pp pp pp
-2.1646061539649963e+00 1.2203788340091705e+01 0.0000000000000000e+00
-8.4733366966247559e-03 5.5348814725875854e+00 -2.1459176540374756e+00
-2.9168844223022461e-02 1.9049128890037537e+01 0.0000000000000000e+00
ITEM: ATOMS id type xs ys zs fx fy fz
1 1 0.574891 -0.0012725 0.141362 0 0.00300217 -0.00171471
2 1 0.324891 0.167939 0.141363 0 -0.00300026 -0.00172234
3 1 0.236734 -0.00219422 0.280534 0 0.00126457 0.00157738
4 1 0.986734 0.168861 0.280533 0 -0.00126839 0.00157166
5 1 0.898641 -0.00174241 0.420373 0 -0.00417519 -0.00274849
6 1 0.0748913 -0.00127291 0.141363 0 0.00299835 -0.00171089
7 1 0.993285 0.49474 0.0680402 0 0.00263214 -0.00334358
8 1 0.824892 0.16794 0.141362 0 -0.00300407 -0.00170135
9 1 0.743286 0.671928 0.06804 0 -0.00263786 -0.00335312
10 1 0.736735 -0.00219442 0.280533 0 0.00126839 0.00156784
11 1 0.64864 0.16841 0.420373 0 0.00419235 -0.0027504
12 1 0.56057 -0.00160636 0.560398 0 -0.00326157 0.00382996
13 1 0.31057 0.168273 0.560398 0 0.00327492 0.00383186
14 1 0.222552 -0.00192412 0.700679 0 -0.000167847 -0.00409508
15 1 0.972552 0.16859 0.70068 0 0.000175476 -0.00411797
16 1 0.884609 -0.00083608 0.841302 0 0.000371933 0.000749588
17 1 0.655513 0.499164 0.209151 0 0.000362396 -0.000747681
18 1 0.486734 0.168861 0.280534 0 -0.00126266 0.00156593
19 1 0.405514 0.667503 0.209151 0 -0.000362396 -0.000751495
20 1 0.398642 -0.00174191 0.420373 0 -0.00418091 -0.0027504
21 1 0.31757 0.498077 0.349774 0 -0.000179291 0.0041008
22 1 0.148641 0.16841 0.420373 0 0.00417519 -0.00274849
23 1 0.0675697 0.668592 0.349774 0 0.000167847 0.0041008
24 1 0.0605701 -0.00160624 0.560398 0 -0.00325775 0.00382614
25 1 0.979551 0.498394 0.490055 0 -0.00326347 -0.00382423
26 1 0.810571 0.168274 0.560398 0 0.00326157 0.00383759
27 1 0.729552 0.668274 0.490055 0 0.00325966 -0.00382805
28 1 0.493285 0.494741 0.0680398 0 0.00263023 -0.00333786
29 1 0.243285 0.671927 0.06804 0 -0.00263214 -0.00334358
30 1 0.155514 0.499163 0.209151 0 0.000368118 -0.000743866
31 1 0.905514 0.667502 0.209151 0 -0.000354767 -0.000745773
32 1 0.817571 0.498076 0.349774 0 -0.000167847 0.00410461
33 1 0.634607 0.167503 0.841301 0 -0.000356674 0.00075531
34 1 0.546837 -0.00526009 0.982413 0 0.00263023 0.00335312
35 1 0.296837 0.171927 0.982413 0 -0.00263214 0.0033474
36 1 0.722551 -0.00192497 0.700679 0 -0.00015831 -0.00410843
37 1 0.641479 0.498258 0.63008 0 -0.00419807 0.00274658
38 1 0.472552 0.16859 0.700679 0 0.000171661 -0.00410461
39 1 0.39148 0.668409 0.63008 0 0.00417328 0.00273895
40 1 0.384608 -0.000836317 0.841302 0 0.000364304 0.000743866
41 1 0.303387 0.497806 0.769919 0 0.00125694 -0.00156403
42 1 0.134608 0.167503 0.841302 0 -0.000354767 0.000747681
43 1 0.0533873 0.668861 0.769919 0 -0.0012722 -0.00156784
44 1 0.046837 -0.00525913 0.982413 0 0.00263786 0.00334549
45 1 0.965231 0.498728 0.909091 0 0.00299454 0.00170708
46 1 0.567569 0.668591 0.349774 0 0.000167847 0.0041008
47 1 0.479551 0.498395 0.490055 0 -0.00326347 -0.00382805
48 1 0.229551 0.668274 0.490055 0 0.00326538 -0.00382805
49 1 0.14148 0.498258 0.63008 0 -0.00418854 0.0027504
50 1 0.891481 0.668409 0.630081 0 0.00418472 0.00274086
51 1 0.803388 0.497806 0.769919 0 0.00125504 -0.00156212
52 1 0.796835 0.171929 0.982413 0 -0.00263977 0.00334167
53 1 0.71523 0.66794 0.90909 0 -0.00300026 0.00171852
54 1 0.553387 0.66886 0.769919 0 -0.00126076 -0.00156784
55 1 0.46523 0.498727 0.90909 0 0.00300026 0.00169754
56 1 0.21523 0.66794 0.90909 0 -0.00300598 0.00171089
ITEM: TIMESTEP
6
ITEM: NUMBER OF ATOMS
56
ITEM: BOX BOUNDS xy xz yz pp pp pp
-2.1646061539649963e+00 1.2203788340091705e+01 0.0000000000000000e+00
-8.4733366966247559e-03 5.5348814725875854e+00 -2.1459176540374756e+00
-2.9168844223022461e-02 1.9049128890037537e+01 0.0000000000000000e+00
ITEM: ATOMS id type xs ys zs fx fy fz
1 1 0.574887 -0.000941802 0.141342 0 0.000530243 0.000640869
2 1 0.324888 0.167609 0.141341 0 -0.000535965 0.000644684
3 1 0.236742 -0.00210306 0.280579 0 0.000221252 -0.00115967
4 1 0.986742 0.16877 0.280579 0 -0.000211716 -0.00114441
5 1 0.898632 -0.00217382 0.42032 0 -0.000263214 0.00144196
6 1 0.0748876 -0.000942491 0.141342 0 0.000537872 0.000648499
7 1 0.993273 0.495115 0.0679683 0 0.00094223 0.000495911
8 1 0.824888 0.167609 0.141342 0 -0.000528336 0.000631332
9 1 0.743274 0.671553 0.067968 0 -0.000946045 0.000513077
10 1 0.736743 -0.00210294 0.280579 0 0.00021553 -0.00114632
11 1 0.648631 0.168842 0.42032 0 0.000257492 0.00144005
12 1 0.560573 -0.00214167 0.560419 0 0.000232697 0.000623703
13 1 0.310574 0.168809 0.560419 0 -0.000236511 0.000637054
14 1 0.222541 -0.00191852 0.700618 0 -0.00105858 -0.000583649
15 1 0.972541 0.168584 0.700618 0 0.00104904 -0.000566483
16 1 0.884616 -0.000703659 0.841339 0 0.000415802 -0.00117493
17 1 0.655506 0.499295 0.209114 0 0.000431061 0.00116539
18 1 0.486742 0.16877 0.280579 0 -0.000221252 -0.00114441
19 1 0.405507 0.667371 0.209114 0 -0.000431061 0.00117302
20 1 0.398632 -0.00217375 0.42032 0 -0.000259399 0.00143623
21 1 0.317581 0.498082 0.349835 0 -0.00105858 0.000577927
22 1 0.148632 0.168842 0.42032 0 0.000261307 0.00143242
23 1 0.0675805 0.668586 0.349835 0 0.00105476 0.000574112
24 1 0.0605739 -0.00214099 0.560419 0 0.000225067 0.000637054
25 1 0.979547 0.497859 0.490033 0 0.000232697 -0.000637054
26 1 0.810575 0.168809 0.56042 0 -0.000234604 0.000629425
27 1 0.729548 0.668809 0.490034 0 -0.000221252 -0.000631332
28 1 0.493272 0.495115 0.0679681 0 0.000944138 0.000490189
29 1 0.243273 0.671552 0.0679681 0 -0.000951767 0.000494003
30 1 0.155507 0.499295 0.209114 0 0.000425339 0.00117302
31 1 0.905507 0.667371 0.209114 0 -0.000429153 0.0011692
32 1 0.817581 0.498082 0.349835 0 -0.00105476 0.000566483
33 1 0.634614 0.167372 0.841339 0 -0.000434875 -0.0011692
34 1 0.546849 -0.00488538 0.982485 0 0.000946045 -0.000511169
35 1 0.296849 0.171552 0.982485 0 -0.000946045 -0.000494003
36 1 0.72254 -0.00191878 0.700617 0 -0.00105476 -0.000570297
37 1 0.641488 0.497825 0.630133 0 -0.000253677 -0.00143242
38 1 0.472541 0.168585 0.700618 0 0.00105286 -0.000570297
39 1 0.391489 0.668841 0.630133 0 0.000267029 -0.00143242
40 1 0.384614 -0.000704544 0.841339 0 0.000423431 -0.00117111
41 1 0.303379 0.497896 0.769874 0 0.000226974 0.00114632
42 1 0.134614 0.167372 0.841339 0 -0.000442505 -0.0011673
43 1 0.0533794 0.668769 0.769874 0 -0.00021553 0.00115013
44 1 0.0468496 -0.00488387 0.982485 0 0.000947952 -0.000497818
45 1 0.965235 0.499058 0.909111 0 0.000545502 -0.000631332
46 1 0.56758 0.668586 0.349835 0 0.00105858 0.000572205
47 1 0.479547 0.49786 0.490033 0 0.00022316 -0.000638962
48 1 0.229547 0.66881 0.490033 0 -0.000228882 -0.000627518
49 1 0.141489 0.497825 0.630133 0 -0.000253677 -0.00143433
50 1 0.89149 0.668841 0.630133 0 0.000263214 -0.00143814
51 1 0.803381 0.497896 0.769874 0 0.000221252 0.00113487
52 1 0.796847 0.171553 0.982484 0 -0.00094223 -0.000495911
53 1 0.715233 0.66761 0.909111 0 -0.00053215 -0.000640869
54 1 0.553379 0.668769 0.769874 0 -0.000213623 0.00114441
55 1 0.465234 0.499058 0.909111 0 0.000535965 -0.00063324
56 1 0.215234 0.667609 0.909111 0 -0.000528336 -0.000638962
ITEM: TIMESTEP
7
ITEM: NUMBER OF ATOMS
56
ITEM: BOX BOUNDS xy xz yz pp pp pp
-2.1646061539649963e+00 1.2203788340091705e+01 0.0000000000000000e+00
-8.4733366966247559e-03 5.5348814725875854e+00 -2.1459176540374756e+00
-2.9168844223022461e-02 1.9049128890037537e+01 0.0000000000000000e+00
ITEM: ATOMS id type xs ys zs fx fy fz
1 1 0.574889 -0.000878499 0.141354 0 1.33514e-05 -0.000608444
2 1 0.32489 0.167545 0.141354 0 -1.33514e-05 -0.000606537
3 1 0.236738 -0.00208001 0.280557 0 -0.000185013 0.000946045
4 1 0.986738 0.168747 0.280557 0 0.000185013 0.000951767
5 1 0.898637 -0.00222443 0.420347 0 0.000217438 0.000133514
6 1 0.0748898 -0.000878639 0.141354 0 9.53674e-06 -0.000610352
7 1 0.993274 0.495212 0.0679739 0 0.000329971 0.000171661
8 1 0.824891 0.167546 0.141354 0 -2.28882e-05 -0.000598907
9 1 0.743275 0.671456 0.0679739 0 -0.000320435 0.000154495
10 1 0.736739 -0.00208029 0.280557 0 -0.000179291 0.000934601
11 1 0.648636 0.168893 0.420347 0 -0.00022316 0.000125885
12 1 0.560576 -0.00216274 0.560434 0 0.000152588 -0.000137329
13 1 0.310577 0.16883 0.560435 0 -0.000148773 -0.000144958
14 1 0.222538 -0.00199709 0.700601 0 -0.000337601 2.86102e-05
15 1 0.972538 0.168662 0.700601 0 0.000343323 2.67029e-05
16 1 0.884612 -0.00066313 0.841316 0 0.000276566 -0.000530243
17 1 0.65551 0.499337 0.209136 0 0.000267029 0.000534058
18 1 0.486738 0.168747 0.280557 0 0.000177383 0.00094986
19 1 0.405511 0.66733 0.209137 0 -0.000268936 0.000528336
20 1 0.398637 -0.00222411 0.420347 0 0.000213623 0.000127792
21 1 0.317583 0.498003 0.349852 0 -0.000333786 -3.62396e-05
22 1 0.148637 0.168892 0.420347 0 -0.000213623 0.000137329
23 1 0.0675835 0.668664 0.349852 0 0.000335693 -4.00543e-05
24 1 0.0605766 -0.0021626 0.560435 0 0.00015831 -0.000139236
25 1 0.979544 0.497837 0.490018 0 0.000156403 0.000141144
26 1 0.810578 0.16883 0.560435 0 -0.000141144 -0.000135422
27 1 0.729546 0.668831 0.490018 0 -0.000160217 0.000152588
28 1 0.493273 0.495213 0.0679736 0 0.000324249 0.000164032
29 1 0.243273 0.671454 0.0679737 0 -0.000320435 0.000175476
30 1 0.155511 0.499337 0.209137 0 0.000272751 0.000534058
31 1 0.905511 0.66733 0.209137 0 -0.000267029 0.000535965
32 1 0.817584 0.498004 0.349852 0 -0.000339508 -2.47955e-05
33 1 0.63461 0.16733 0.841316 0 -0.000270844 -0.00053978
34 1 0.546848 -0.0047879 0.982479 0 0.000320435 -0.000160217
35 1 0.296848 0.171454 0.982479 0 -0.000320435 -0.000173569
36 1 0.722537 -0.00199702 0.700601 0 -0.000341415 3.05176e-05
37 1 0.641483 0.497775 0.630106 0 0.000228882 -0.000146866
38 1 0.472538 0.168663 0.700601 0 0.000337601 2.86102e-05
39 1 0.391485 0.668892 0.630106 0 -0.000213623 -0.000133514
40 1 0.384611 -0.000663493 0.841316 0 0.000276566 -0.000526428
41 1 0.303383 0.49792 0.769896 0 -0.000190735 -0.000947952
42 1 0.13461 0.16733 0.841316 0 -0.000272751 -0.000541687
43 1 0.0533832 0.668747 0.769896 0 0.000185013 -0.000944138
44 1 0.0468487 -0.0047862 0.982479 0 0.000326157 -0.000160217
45 1 0.965232 0.499123 0.909099 0 1.90735e-06 0.00060463
46 1 0.567583 0.668664 0.349852 0 0.000339508 -1.90735e-05
47 1 0.479544 0.497838 0.490018 0 0.000154495 0.000148773
48 1 0.229545 0.668831 0.490018 0 -0.000162125 0.000148773
49 1 0.141485 0.497775 0.630106 0 0.000213623 -0.000127792
50 1 0.891486 0.668892 0.630106 0 -0.000225067 -0.000135422
51 1 0.803384 0.497919 0.769895 0 -0.000175476 -0.000938416
52 1 0.796846 0.171456 0.982479 0 -0.000326157 -0.000167847
53 1 0.715231 0.667546 0.909099 0 -1.71661e-05 0.000600815
54 1 0.553383 0.668747 0.769895 0 0.000181198 -0.000946045
55 1 0.465232 0.499121 0.909099 0 1.14441e-05 0.000608444
56 1 0.215232 0.667546 0.909099 0 -1.90735e-05 0.000597
ITEM: TIMESTEP
8
ITEM: NUMBER OF ATOMS
56
ITEM: BOX BOUNDS xy xz yz pp pp pp
-2.1646061539649963e+00 1.2203788340091705e+01 0.0000000000000000e+00
-8.4733366966247559e-03 5.5348814725875854e+00 -2.1459176540374756e+00
-2.9168844223022461e-02 1.9049128890037537e+01 0.0000000000000000e+00
ITEM: ATOMS id type xs ys zs fx fy fz
1 1 0.574887 -0.000863515 0.141344 0 0.000131607 0.000289917
2 1 0.324888 0.16753 0.141344 0 -0.0001297 0.000286102
3 1 0.236741 -0.00208858 0.280573 0 -2.28882e-05 0.000221252
4 1 0.986741 0.168756 0.280573 0 2.28882e-05 0.000217438
5 1 0.898638 -0.00221956 0.420356 0 7.62939e-06 3.8147e-05
6 1 0.074888 -0.000863815 0.141344 0 0.000131607 0.000295639
7 1 0.993274 0.495258 0.0679788 0 6.67572e-05 0.000246048
8 1 0.824889 0.16753 0.141344 0 -0.000127792 0.000289917
9 1 0.743276 0.67141 0.0679786 0 -7.05719e-05 0.000244141
10 1 0.736742 -0.00208852 0.280573 0 -2.09808e-05 0.000226974
11 1 0.648637 0.168887 0.420356 0 5.72205e-06 4.19617e-05
12 1 0.560576 -0.00215613 0.560435 0 9.72748e-05 -9.15527e-05
13 1 0.310577 0.168823 0.560435 0 -8.7738e-05 -9.53674e-05
14 1 0.222538 -0.00203941 0.700598 0 0.000165939 -0.000267029
15 1 0.972538 0.168705 0.700598 0 -0.000164032 -0.000268936
16 1 0.884609 -0.000633739 0.8413 0 -0.000179291 5.53131e-05
17 1 0.655513 0.499366 0.209153 0 -0.000171661 -5.53131e-05
18 1 0.486741 0.168755 0.280573 0 2.67029e-05 0.000219345
19 1 0.405514 0.6673 0.209153 0 0.000173569 -5.34058e-05
20 1 0.398639 -0.00221947 0.420356 0 -1.14441e-05 4.19617e-05
21 1 0.317584 0.497961 0.349855 0 0.000171661 0.000282288
22 1 0.148638 0.168887 0.420356 0 3.8147e-06 4.3869e-05