ITEM: TIMESTEP
0
ITEM: NUMBER OF ATOMS
32
ITEM: BOX BOUNDS xy xz yz pp pp pp
3.0272657245757604e-03 6.3938049081754240e+00 0.0000000000000000e+00
-3.1320509042145829e-03 6.4901867909074511e+00 0.0000000000000000e+00
2.7435269680358088e-02 2.0697951192719628e+01 9.6662356460323695e-01
ITEM: ATOMS id type xs ys zs fx fy fz
1 1 0.999986 0.655834 0.0597554 2.98533e-07 0 0.553572
2 1 0.499986 0.655834 0.0597554 5.43514e-08 0 0.553572
3 1 0.249986 0.155834 0.0597529 -3.07773e-07 0 0.553856
4 1 0.749986 0.155834 0.0597529 2.8826e-07 0 0.553856
5 1 0.999986 0.61212 0.309761 2.73488e-07 0 0.00216251
6 1 0.249986 0.468075 0.18476 -3.06303e-07 0 0.00843626
7 1 0.749986 0.468075 0.18476 1.99144e-07 0 0.00843636
8 1 0.499986 0.61212 0.309761 -8.32369e-08 0 0.00216212
9 1 0.999986 0.968076 0.184758 1.51107e-07 0 0.00849342
10 1 0.249986 0.112119 0.309759 -3.64525e-07 0 0.00224089
11 1 0.499986 0.968076 0.184758 -3.46248e-07 0 0.00849343
12 1 0.749986 0.112119 0.309759 4.0072e-07 0 0.00224071
13 1 0.999986 0.568379 0.559747 1.99012e-07 0 0.000541481
14 1 0.499986 0.568379 0.559747 -4.9526e-07 0 0.00054157
15 1 0.249986 0.0683802 0.559747 -4.57192e-07 0 0.000529133
16 1 0.749986 0.0683802 0.559747 4.03849e-07 0 0.000528643
17 1 0.249986 0.424354 0.434755 -4.54456e-07 0 -0.000537151
18 1 0.749986 0.424354 0.434755 4.81581e-07 0 -0.000537393
19 1 0.999986 0.924356 0.434755 2.01922e-07 0 -0.000553219
20 1 0.499986 0.924356 0.434755 -2.15692e-07 0 -0.000552916
21 1 0.999986 0.524648 0.809742 2.84243e-07 0 -0.00847822
22 1 0.249986 0.38061 0.684743 -5.74306e-07 0 -0.00223976
23 1 0.499986 0.524648 0.809742 -1.60217e-07 0 -0.00847782
24 1 0.749986 0.38061 0.684743 3.7931e-07 0 -0.00223973
25 1 0.999986 0.880609 0.684741 3.49391e-07 0 -0.00217878
26 1 0.249986 0.0246487 0.809741 -4.41942e-07 0 -0.008448
27 1 0.749986 0.0246487 0.809741 3.24699e-07 0 -0.00844803
28 1 0.499986 0.880609 0.684741 -2.08638e-07 0 -0.00217842
29 1 0.249986 0.336888 0.934748 -5.89047e-07 0 -0.553834
30 1 0.749986 0.336888 0.934748 3.14249e-07 0 -0.553834
31 1 0.999986 0.836887 0.934746 4.03379e-07 0 -0.553563
32 1 0.499986 0.836887 0.934746 -4.75368e-08 0 -0.553563
ITEM: TIMESTEP
9
ITEM: NUMBER OF ATOMS
32
ITEM: BOX BOUNDS xy xz yz pp pp pp
3.0272657245757604e-03 6.3938049081754240e+00 0.0000000000000000e+00
-3.1320509042145829e-03 6.4901867909074511e+00 0.0000000000000000e+00
2.7435269680358088e-02 2.0697951192719628e+01 9.6662356460323695e-01
ITEM: ATOMS id type xs ys zs fx fy fz
1 1 0.999986 0.654836 0.0654577 -4.47792e-07 0 1.1702e-06
2 1 0.499986 0.654836 0.0654577 3.4635e-07 0 -3.93244e-07
3 1 0.249986 0.154836 0.0654576 2.31143e-07 0 1.34612e-07
4 1 0.749986 0.154836 0.0654576 3.98974e-07 0 6.4756e-09
5 1 0.999986 0.611677 0.312296 7.18952e-07 0 -1.82112e-06
6 1 0.249986 0.467358 0.188862 -6.07164e-07 0 1.77997e-08
7 1 0.749986 0.467358 0.188862 6.71667e-07 0 -3.76252e-07
8 1 0.499986 0.611677 0.312296 -6.48579e-07 0 8.65799e-07
9 1 0.999986 0.967358 0.188862 1.38301e-07 0 8.94686e-07
10 1 0.249986 0.111675 0.312296 -4.77768e-07 0 7.74966e-09
11 1 0.499986 0.967358 0.188862 -5.62743e-07 0 6.36477e-07
12 1 0.749986 0.111675 0.312296 4.30585e-07 0 -9.35813e-10
13 1 0.999986 0.568526 0.558905 -5.01954e-07 0 -2.36927e-06
14 1 0.499986 0.568526 0.558905 7.27421e-07 0 -1.33087e-07
15 1 0.249986 0.0685274 0.558906 2.8353e-07 0 2.02793e-06
16 1 0.749986 0.0685274 0.558906 -6.80942e-07 0 -4.76235e-07
17 1 0.249986 0.424206 0.435596 -9.10077e-08 0 -1.94714e-07
18 1 0.749986 0.424206 0.435596 -3.9296e-07 0 5.97298e-07
19 1 0.999986 0.924208 0.435596 1.23226e-07 0 -5.58237e-07
20 1 0.499986 0.924208 0.435596 2.17214e-07 0 -1.3422e-06
21 1 0.999986 0.525365 0.80564 -7.82369e-07 0 -5.76914e-07
22 1 0.249986 0.381053 0.682205 1.26514e-06 0 2.27088e-06
23 1 0.499986 0.525365 0.80564 5.5971e-07 0 -2.17332e-06
24 1 0.749986 0.381053 0.682205 -1.06296e-06 0 2.28906e-06
25 1 0.999986 0.881052 0.682205 5.34783e-07 0 6.69023e-07
26 1 0.249986 0.025366 0.80564 -1.31613e-06 0 -1.10566e-06
27 1 0.749986 0.025366 0.80564 1.20546e-06 0 -1.14671e-06
28 1 0.499986 0.881052 0.682205 -5.03776e-07 0 2.02327e-06
29 1 0.249986 0.337885 0.929044 1.03783e-06 0 3.72718e-07
30 1 0.749986 0.337885 0.929044 -5.2336e-07 0 -3.11593e-07
31 1 0.999986 0.837884 0.929044 4.18513e-07 0 -2.63247e-06
32 1 0.499986 0.837884 0.929044 -7.08069e-07 0 1.86928e-06
