ITEM: TIMESTEP
0
ITEM: NUMBER OF ATOMS
32
ITEM: BOX BOUNDS xy xz yz pp pp pp
-9.5987319946289062e-04 6.3977920413017273e+00 -0.0000000000000000e+00
-1.0525226593017578e-02 9.5408997535705566e+00 0.0000000000000000e+00
-5.8505058288574219e-02 2.0783891499042511e+01 4.0099433660507202e+00
ITEM: ATOMS id type xs ys zs fx fy fz
1 1 0.999986 0.623429 0.0597507 -1.90735e-06 0 0.0301571
2 1 0.499986 0.623429 0.0597507 1.90735e-06 0 0.0301576
3 1 0.249986 0.123429 0.0597507 3.57628e-07 0 0.0301595
4 1 0.749986 0.123429 0.0597507 -5.96046e-07 0 0.0301583
5 1 0.999986 0.442524 0.309751 0 0 -9.2864e-05
6 1 0.249986 0.36631 0.184751 -1.54972e-06 0 0.00274682
7 1 0.749986 0.36631 0.184751 9.53674e-07 0 0.00274539
8 1 0.499986 0.442524 0.309751 1.07288e-06 0 -9.21488e-05
9 1 0.999986 0.86631 0.184751 4.76837e-07 0 0.00274634
10 1 0.249986 0.942524 0.309751 -2.14577e-06 0 -9.48906e-05
11 1 0.499986 0.86631 0.184751 2.38419e-07 0 0.00274491
12 1 0.749986 0.942524 0.309751 1.54972e-06 0 -9.42945e-05
13 1 0.999986 0.261618 0.559751 -2.38419e-06 0 6.25849e-05
14 1 0.499986 0.261618 0.559751 2.5034e-06 0 6.27041e-05
15 1 0.249986 0.761618 0.559751 -7.15256e-07 0 6.29425e-05
16 1 0.749986 0.761618 0.559751 8.34465e-07 0 6.35386e-05
17 1 0.249986 0.185404 0.434751 4.76837e-07 0 -6.25849e-05
18 1 0.749986 0.185404 0.434751 -2.38419e-06 0 -6.28233e-05
19 1 0.999986 0.685404 0.434751 9.53674e-07 0 -6.24657e-05
20 1 0.499986 0.685404 0.434751 2.38419e-07 0 -6.2108e-05
21 1 0.999986 0.080712 0.809751 1.19209e-07 0 -0.00274682
22 1 0.249986 0.0044984 0.684751 2.38419e-07 0 9.39369e-05
23 1 0.499986 0.0807119 0.809751 -8.34465e-07 0 -0.00274622
24 1 0.749986 0.00449834 0.684751 4.76837e-07 0 9.20296e-05
25 1 0.999986 0.504498 0.684751 -7.15256e-07 0 9.34601e-05
26 1 0.249986 0.580712 0.809751 1.19209e-07 0 -0.00274575
27 1 0.749986 0.580712 0.809751 2.38419e-07 0 -0.00274634
28 1 0.499986 0.504498 0.684751 3.57628e-07 0 9.2864e-05
29 1 0.249986 0.823593 0.934751 -2.38419e-07 0 -0.030159
30 1 0.749986 0.823593 0.934751 3.57628e-07 0 -0.0301553
31 1 0.999986 0.323593 0.934751 -5.96046e-07 0 -0.0301582
32 1 0.499986 0.323593 0.934751 5.96046e-07 0 -0.0301582
ITEM: TIMESTEP
1
ITEM: NUMBER OF ATOMS
32
ITEM: BOX BOUNDS xy xz yz pp pp pp
-9.5987319946289062e-04 6.3977920413017273e+00 -0.0000000000000000e+00
-1.0525226593017578e-02 9.5408997535705566e+00 0.0000000000000000e+00
-5.8505058288574219e-02 2.0783891499042511e+01 4.0099433660507202e+00
ITEM: ATOMS id type xs ys zs fx fy fz
1 1 0.999986 0.623138 0.0601529 0 0 -0.00183249
2 1 0.499986 0.623138 0.0601529 -3.57628e-07 0 -0.00183249
3 1 0.249986 0.123138 0.0601529 -2.38419e-07 0 -0.00183177
4 1 0.749986 0.123138 0.0601529 -1.19209e-07 0 -0.00183165
5 1 0.999986 0.442525 0.309749 1.19209e-07 0 0.00141609
6 1 0.249986 0.366283 0.184787 3.57628e-07 0 0.0103409
7 1 0.749986 0.366284 0.184787 -3.57628e-07 0 0.0103407
8 1 0.499986 0.442525 0.309749 -4.76837e-07 0 0.00141573
9 1 0.999986 0.866283 0.184787 4.76837e-07 0 0.0103406
10 1 0.249986 0.942525 0.309749 9.53674e-07 0 0.00141501
11 1 0.499986 0.866283 0.184787 1.19209e-07 0 0.0103407
12 1 0.749986 0.942525 0.309749 -7.15256e-07 0 0.00141513
13 1 0.999986 0.261617 0.559752 8.34465e-07 0 2.20537e-05
14 1 0.499986 0.261617 0.559752 -8.34465e-07 0 2.22921e-05
15 1 0.249986 0.761617 0.559752 5.96046e-07 0 2.30074e-05
16 1 0.749986 0.761617 0.559752 -3.57628e-07 0 2.21729e-05
17 1 0.249986 0.185405 0.43475 -4.76837e-07 0 -2.21729e-05
18 1 0.749986 0.185405 0.43475 0 0 -2.22921e-05
19 1 0.999986 0.685405 0.43475 2.38419e-07 0 -2.22921e-05
20 1 0.499986 0.685405 0.43475 0 0 -2.22921e-05
21 1 0.999986 0.0807385 0.809714 -3.57628e-07 0 -0.0103408
22 1 0.249986 0.00449749 0.684752 -1.19209e-07 0 -0.00141549
23 1 0.499986 0.0807384 0.809714 -1.19209e-07 0 -0.0103408
24 1 0.749986 0.00449745 0.684752 1.19209e-07 0 -0.00141537
25 1 0.999986 0.504497 0.684752 1.19209e-07 0 -0.00141585
26 1 0.249986 0.580738 0.809714 2.38419e-07 0 -0.0103407
27 1 0.749986 0.580739 0.809714 0 0 -0.0103405
28 1 0.499986 0.504497 0.684752 1.19209e-07 0 -0.00141585
29 1 0.249986 0.823884 0.934349 -3.57628e-07 0 0.00183201
30 1 0.749986 0.823884 0.934349 5.96046e-07 0 0.00183249
31 1 0.999986 0.323884 0.934349 0 0 0.00183225
32 1 0.499986 0.323884 0.934349 0 0 0.00183165
ITEM: TIMESTEP
2
ITEM: NUMBER OF ATOMS
32
ITEM: BOX BOUNDS xy xz yz pp pp pp
-9.5987319946289062e-04 6.3977920413017273e+00 -0.0000000000000000e+00
-1.0525226593017578e-02 9.5408997535705566e+00 0.0000000000000000e+00
-5.8505058288574219e-02 2.0783891499042511e+01 4.0099433660507202e+00
ITEM: ATOMS id type xs ys zs fx fy fz
1 1 0.999986 0.623094 0.0602141 8.34465e-07 0 -0.000962496
2 1 0.499986 0.623094 0.0602141 -9.53674e-07 0 -0.000962853
3 1 0.249986 0.123094 0.0602141 -3.57628e-07 0 -0.000963688
4 1 0.749986 0.123094 0.0602141 4.76837e-07 0 -0.000963211
5 1 0.999986 0.442502 0.309781 -1.19209e-07 0 0.00594032
6 1 0.249986 0.36611 0.185027 1.19209e-07 0 -0.000511289
7 1 0.749986 0.36611 0.185027 1.19209e-07 0 -0.000509739
8 1 0.499986 0.442502 0.309781 1.19209e-07 0 0.00594032
9 1 0.999986 0.86611 0.185027 -4.76837e-07 0 -0.000510216
10 1 0.249986 0.942502 0.309781 -4.76837e-07 0 0.00594079
11 1 0.499986 0.86611 0.185027 1.19209e-07 0 -0.000510573
12 1 0.749986 0.942502 0.309781 5.96046e-07 0 0.0059402
13 1 0.999986 0.261617 0.559752 -1.19209e-07 0 -0.00108898
14 1 0.499986 0.261617 0.559752 -3.57628e-07 0 -0.0010891
15 1 0.249986 0.761617 0.559752 2.38419e-07 0 -0.00108981
16 1 0.749986 0.761617 0.559752 2.38419e-07 0 -0.00108957
17 1 0.249986 0.185405 0.434749 2.38419e-07 0 0.00108922
18 1 0.749986 0.185405 0.434749 4.76837e-07 0 0.00108933
19 1 0.999986 0.685405 0.434749 -7.15256e-07 0 0.00108945
20 1 0.499986 0.685405 0.434749 0 0 0.00108922
21 1 0.999986 0.080912 0.809474 0 0 0.000510454
22 1 0.249986 0.00452009 0.684721 0 0 -0.00594068
23 1 0.499986 0.0809119 0.809474 3.57628e-07 0 0.00051105
24 1 0.749986 0.00452005 0.684721 -2.38419e-07 0 -0.00594068
25 1 0.999986 0.50452 0.684721 3.57628e-07 0 -0.00593996
26 1 0.249986 0.580912 0.809474 -1.19209e-07 0 0.000510693
27 1 0.749986 0.580912 0.809474 -2.38419e-07 0 0.000510573
28 1 0.499986 0.50452 0.684721 0 0 -0.00593984
29 1 0.249986 0.823928 0.934287 2.38419e-07 0 0.000962973
30 1 0.749986 0.823928 0.934287 -8.34465e-07 0 0.000961661
31 1 0.999986 0.323928 0.934287 5.96046e-07 0 0.000963211
32 1 0.499986 0.323928 0.934287 -1.19209e-07 0 0.000963211
ITEM: TIMESTEP
3
ITEM: NUMBER OF ATOMS
32
ITEM: BOX BOUNDS xy xz yz pp pp pp
-9.5987319946289062e-04 6.3977920413017273e+00 -0.0000000000000000e+00
-1.0525226593017578e-02 9.5408997535705566e+00 0.0000000000000000e+00
-5.8505058288574219e-02 2.0783891499042511e+01 4.0099433660507202e+00
ITEM: ATOMS id type xs ys zs fx fy fz
1 1 0.999986 0.623097 0.06021 -1.3113e-06 0 0.00120997
2 1 0.499986 0.623097 0.06021 9.53674e-07 0 0.00121009
3 1 0.249986 0.123097 0.06021 8.34465e-07 0 0.00121045
4 1 0.749986 0.123097 0.06021 -8.34465e-07 0 0.00121033
5 1 0.999986 0.442383 0.309945 3.57628e-07 0 -0.000433683
6 1 0.249986 0.366061 0.185095 -1.19209e-07 0 -8.40425e-05
7 1 0.749986 0.366061 0.185095 0 0 -8.53539e-05
8 1 0.499986 0.442383 0.309945 -3.57628e-07 0 -0.000433445
9 1 0.999986 0.866061 0.185095 0 0 -8.54731e-05
10 1 0.249986 0.942383 0.309945 8.34465e-07 0 -0.000433207
11 1 0.499986 0.866061 0.185095 0 0 -8.46386e-05
12 1 0.749986 0.942383 0.309945 -5.96046e-07 0 -0.000432611
13 1 0.999986 0.261637 0.559724 1.19209e-07 0 -0.00296402
14 1 0.499986 0.261637 0.559724 8.34465e-07 0 -0.00296402
15 1 0.249986 0.761637 0.559724 -8.34465e-07 0 -0.00296354
16 1 0.749986 0.761637 0.559724 -1.19209e-07 0 -0.00296342
17 1 0.249986 0.185385 0.434777 1.19209e-07 0 0.00296378
18 1 0.749986 0.185385 0.434777 -2.38419e-07 0 0.00296378
19 1 0.999986 0.685385 0.434777 7.15256e-07 0 0.0029633
20 1 0.499986 0.685385 0.434777 -4.76837e-07 0 0.00296366
21 1 0.999986 0.0809612 0.809406 3.57628e-07 0 8.47578e-05
22 1 0.249986 0.00463884 0.684557 -4.76837e-07 0 0.000433803
23 1 0.499986 0.0809611 0.809406 -3.57628e-07 0 8.41618e-05
24 1 0.749986 0.00463881 0.684557 0 0 0.000433683
25 1 0.999986 0.504639 0.684557 3.57628e-07 0 0.000433326
26 1 0.249986 0.580961 0.809406 -4.76837e-07 0 8.40425e-05
27 1 0.749986 0.580961 0.809406 3.57628e-07 0 8.44002e-05
28 1 0.499986 0.504639 0.684557 -1.19209e-07 0 0.000433326
29 1 0.249986 0.823925 0.934291 -1.19209e-07 0 -0.00120974
30 1 0.749986 0.823925 0.934291 7.15256e-07 0 -0.00120926
31 1 0.999986 0.323925 0.934291 -3.57628e-07 0 -0.00121057
32 1 0.499986 0.323925 0.934291 2.38419e-07 0 -0.00120986
ITEM: TIMESTEP
4
ITEM: NUMBER OF ATOMS
32
ITEM: BOX BOUNDS xy xz yz pp pp pp
-9.5987319946289062e-04 6.3977920413017273e+00 -0.0000000000000000e+00
-1.0525226593017578e-02 9.5408997535705566e+00 0.0000000000000000e+00
-5.8505058288574219e-02 2.0783891499042511e+01 4.0099433660507202e+00
ITEM: ATOMS id type xs ys zs fx fy fz
1 1 0.999986 0.623086 0.0602257 -5.96046e-07 0 0.000187397
2 1 0.499986 0.623086 0.0602257 8.34465e-07 0 0.000187635
3 1 0.249986 0.123086 0.0602257 -1.19209e-07 0 0.000186801
4 1 0.749986 0.123086 0.0602257 1.19209e-07 0 0.000186443
5 1 0.999986 0.442369 0.309964 0 0 -0.000116229
6 1 0.249986 0.366054 0.185104 -1.19209e-07 0 0.000333905
7 1 0.749986 0.366054 0.185104 -1.19209e-07 0 0.000333548
8 1 0.499986 0.442369 0.309964 0 0 -0.000116348
9 1 0.999986 0.866054 0.185104 4.76837e-07 0 0.000333548
10 1 0.249986 0.942369 0.309964 1.19209e-07 0 -0.000115633
11 1 0.499986 0.866054 0.185104 -4.76837e-07 0 0.000333548
12 1 0.749986 0.942369 0.309964 -2.38419e-07 0 -0.000115514
13 1 0.999986 0.261669 0.55968 0 0 7.35521e-05
14 1 0.499986 0.261669 0.55968 4.76837e-07 0 7.4029e-05
15 1 0.249986 0.761669 0.55968 0 0 7.37906e-05
16 1 0.749986 0.761669 0.55968 2.38419e-07 0 7.41482e-05
17 1 0.249986 0.185353 0.434821 2.38419e-07 0 -7.37906e-05
18 1 0.749986 0.185353 0.434821 -2.38419e-07 0 -7.41482e-05
19 1 0.999986 0.685353 0.434821 -4.76837e-07 0 -7.37906e-05
20 1 0.499986 0.685353 0.434821 2.38419e-07 0 -7.41482e-05
21 1 0.999986 0.0809678 0.809397 -3.57628e-07 0 -0.000333428
22 1 0.249986 0.00465262 0.684538 1.19209e-07 0 0.000116229
23 1 0.499986 0.0809678 0.809397 -1.19209e-07 0 -0.000333905
24 1 0.749986 0.00465259 0.684538 0 0 0.000115991
25 1 0.999986 0.504653 0.684538 -4.76837e-07 0 0.000115752
26 1 0.249986 0.580968 0.809397 3.57628e-07 0 -0.000333548
27 1 0.749986 0.580968 0.809397 2.38419e-07 0 -0.000333667
28 1 0.499986 0.504653 0.684538 1.19209e-07 0 0.000115514
29 1 0.249986 0.823936 0.934276 -2.38419e-07 0 -0.000186801
30 1 0.749986 0.823936 0.934276 2.38419e-07 0 -0.000187159
31 1 0.999986 0.323936 0.934276 -3.57628e-07 0 -0.000186801
32 1 0.499986 0.323936 0.934276 1.19209e-07 0 -0.00018692
ITEM: TIMESTEP
5
ITEM: NUMBER OF ATOMS
32
ITEM: BOX BOUNDS xy xz yz pp pp pp
-9.5987319946289062e-04 6.3977920413017273e+00 -0.0000000000000000e+00
-1.0525226593017578e-02 9.5408997535705566e+00 0.0000000000000000e+00
-5.8505058288574219e-02 2.0783891499042511e+01 4.0099433660507202e+00
ITEM: ATOMS id type xs ys zs fx fy fz
1 1 0.999986 0.623083 0.0602296 7.15256e-07 0 2.86102e-05
2 1 0.499986 0.623083 0.0602296 -4.76837e-07 0 2.81334e-05
3 1 0.249986 0.123083 0.0602296 -2.38419e-07 0 2.88486e-05
4 1 0.749986 0.123083 0.0602296 1.19209e-07 0 2.89679e-05
5 1 0.999986 0.442371 0.309962 0 0 0.000141978
6 1 0.249986 0.366049 0.185111 -2.38419e-07 0 1.87159e-05
7 1 0.749986 0.366049 0.185111 1.19209e-07 0 1.93119e-05
8 1 0.499986 0.442371 0.309962 2.38419e-07 0 0.00014174
9 1 0.999986 0.866049 0.185111 -5.96046e-07 0 1.89543e-05
10 1 0.249986 0.942371 0.309962 -4.76837e-07 0 0.000141382
11 1 0.499986 0.866049 0.185111 4.76837e-07 0 2.01464e-05
12 1 0.749986 0.942371 0.309962 3.57628e-07 0 0.000141263
13 1 0.999986 0.261669 0.559681 3.57628e-07 0 6.18696e-05
14 1 0.499986 0.261669 0.559681 -7.15256e-07 0 6.13928e-05
15 1 0.249986 0.761669 0.559681 0 0 6.1512e-05
16 1 0.749986 0.761669 0.559681 -2.38419e-07 0 6.11544e-05
17 1 0.249986 0.185353 0.434821 0 0 -6.13928e-05
18 1 0.749986 0.185353 0.434821 4.76837e-07 0 -6.12736e-05
19 1 0.999986 0.685354 0.434821 4.76837e-07 0 -6.19888e-05
20 1 0.499986 0.685353 0.434821 -3.57628e-07 0 -6.12736e-05
21 1 0.999986 0.0809726 0.809391 0 0 -1.85966e-05
22 1 0.249986 0.00465126 0.684539 3.57628e-07 0 -0.000141978
23 1 0.499986 0.0809725 0.809391 1.19209e-07 0 -1.83582e-05
24 1 0.749986 0.00465123 0.684539 -2.38419e-07 0 -0.000141859
25 1 0.999986 0.504651 0.684539 2.38419e-07 0 -0.00014174
26 1 0.249986 0.580973 0.809391 0 0 -1.94311e-05
27 1 0.749986 0.580973 0.809391 -2.38419e-07 0 -1.96695e-05
28 1 0.499986 0.504651 0.684539 -3.57628e-07 0 -0.000141501
29 1 0.249986 0.823939 0.934272 7.15256e-07 0 -2.87294e-05
30 1 0.749986 0.823939 0.934272 -5.96046e-07 0 -2.82526e-05
31 1 0.999986 0.323939 0.934272 -1.19209e-07 0 -2.90871e-05
32 1 0.499986 0.323939 0.934272 1.19209e-07 0 -2.88486e-05
ITEM: TIMESTEP
6
ITEM: NUMBER OF ATOMS
32
ITEM: BOX BOUNDS xy xz yz pp pp pp
-9.5987319946289062e-04 6.3977920413017273e+00 -0.0000000000000000e+00
-1.0525226593017578e-02 9.5408997535705566e+00 0.0000000000000000e+00
-5.8505058288574219e-02 2.0783891499042511e+01 4.0099433660507202e+00
ITEM: ATOMS id type xs ys zs fx fy fz
1 1 0.999986 0.623082 0.0602306 -2.38419e-07 0 -1.9908e-05
2 1 0.499986 0.623082 0.0602306 0 0 -1.91927e-05
3 1 0.249986 0.123082 0.0602306 8.34465e-07 0 -1.93119e-05
4 1 0.749986 0.123082 0.0602306 -4.76837e-07 0 -1.94311e-05
5 1 0.999986 0.442369 0.309964 1.19209e-07 0 3.39746e-05
6 1 0.249986 0.366048 0.185112 2.38419e-07 0 3.09944e-05
7 1 0.749986 0.366049 0.185112 2.38419e-07 0 3.06368e-05
8 1 0.499986 0.442369 0.309964 0 0 3.40939e-05
9 1 0.999986 0.866048 0.185112 0 0 3.11136e-05
10 1 0.249986 0.942369 0.309964 0 0 3.49283e-05
11 1 0.499986 0.866048 0.185112 -3.57628e-07 0 2.98023e-05
12 1 0.749986 0.942369 0.309964 -1.19209e-07 0 3.49283e-05
13 1 0.999986 0.261668 0.559682 -2.38419e-07 0 -7.77245e-05
14 1 0.499986 0.261668 0.559682 4.76837e-07 0 -7.76052e-05
15 1 0.249986 0.761668 0.559682 -1.19209e-07 0 -7.78437e-05
16 1 0.749986 0.761668 0.559682 -1.19209e-07 0 -7.77245e-05
17 1 0.249986 0.185354 0.43482 0 0 7.73668e-05
18 1 0.749986 0.185354 0.43482 -1.19209e-07 0 7.77245e-05
19 1 0.999986 0.685354 0.43482 0 0 7.79629e-05
20 1 0.499986 0.685354 0.43482 1.19209e-07 0 7.77245e-05
21 1 0.999986 0.0809734 0.809389 3.57628e-07 0 -3.12328e-05
22 1 0.249986 0.00465279 0.684537 -4.76837e-07 0 -3.43323e-05
23 1 0.499986 0.0809734 0.809389 0 0 -3.1352e-05
24 1 0.749986 0.00465276 0.684537 2.38419e-07 0 -3.37362e-05
25 1 0.999986 0.504653 0.684537 -1.19209e-07 0 -3.44515e-05
26 1 0.249986 0.580973 0.809389 -4.76837e-07 0 -3.05176e-05
27 1 0.749986 0.580974 0.809389 1.19209e-07 0 -3.02792e-05
28 1 0.499986 0.504653 0.684537 3.57628e-07 0 -3.45707e-05
29 1 0.249986 0.82394 0.934271 -3.57628e-07 0 1.95503e-05
30 1 0.749986 0.82394 0.934271 2.38419e-07 0 1.96695e-05
31 1 0.999986 0.32394 0.934271 3.57628e-07 0 1.91927e-05
32 1 0.499986 0.32394 0.934271 -4.76837e-07 0 1.95503e-05
ITEM: TIMESTEP
7
ITEM: NUMBER OF ATOMS
32
ITEM: BOX BOUNDS xy xz yz pp pp pp
-9.5987319946289062e-04 6.3977920413017273e+00 -0.0000000000000000e+00
-1.0525226593017578e-02 9.5408997535705566e+00 0.0000000000000000e+00
-5.8505058288574219e-02 2.0783891499042511e+01 4.0099433660507202e+00
ITEM: ATOMS id type xs ys zs fx fy fz
1 1 0.999986 0.623082 0.0602306 -1.19209e-07 0 2.00272e-05
2 1 0.499986 0.623082 0.0602306 2.38419e-07 0 1.93119e-05
3 1 0.249986 0.123082 0.0602306 -1.19209e-06 0 1.91927e-05
4 1 0.749986 0.123082 0.0602306 5.96046e-07 0 1.94311e-05
5 1 0.999986 0.442368 0.309966 -3.57628e-07 0 -6.31809e-06
6 1 0.249986 0.366047 0.185114 0 0 3.09944e-06
7 1 0.749986 0.366047 0.185114 -3.57628e-07 0 2.86102e-06
8 1 0.499986 0.442368 0.309966 3.57628e-07 0 -6.79493e-06
9 1 0.999986 0.866047 0.185114 4.76837e-07 0 3.69549e-06
10 1 0.249986 0.942368 0.309966 3.57628e-07 0 -7.86781e-06
11 1 0.499986 0.866047 0.185114 -1.19209e-07 0 4.17233e-06
12 1 0.749986 0.942368 0.309966 -3.57628e-07 0 -7.51019e-06
13 1 0.999986 0.261669 0.55968 -1.19209e-07 0 -7.27177e-06
14 1 0.499986 0.261669 0.55968 2.38419e-07 0 -7.27177e-06
15 1 0.249986 0.761669 0.55968 -1.19209e-07 0 -7.03335e-06
16 1 0.749986 0.761669 0.55968 0 0 -6.79493e-06
17 1 0.249986 0.185353 0.434821 2.38419e-07 0 7.03335e-06
18 1 0.749986 0.185353 0.434821 0 0 6.55651e-06
19 1 0.999986 0.685353 0.434821 -5.96046e-07 0 7.39098e-06
20 1 0.499986 0.685353 0.434821 3.57628e-07 0 7.03335e-06
21 1 0.999986 0.0809746 0.809388 -5.96046e-07 0 -3.09944e-06
22 1 0.249986 0.00465443 0.684535 4.76837e-07 0 7.27177e-06
23 1 0.499986 0.0809746 0.809388 1.19209e-07 0 -3.09944e-06
24 1 0.749986 0.00465439 0.684535 -1.19209e-07 0 6.4373e-06
25 1 0.999986 0.504654 0.684535 1.19209e-07 0 7.39098e-06
26 1 0.249986 0.580975 0.809388 4.76837e-07 0 -3.57628e-06
27 1 0.749986 0.580975 0.809388 -4.76837e-07 0 -3.09944e-06
28 1 0.499986 0.504654 0.684535 -5.96046e-07 0 7.39098e-06
29 1 0.249986 0.82394 0.934271 0 0 -1.96695e-05
30 1 0.749986 0.82394 0.934271 5.96046e-07 0 -2.02656e-05
31 1 0.999986 0.32394 0.934271 -1.19209e-07 0 -1.87159e-05
32 1 0.499986 0.32394 0.934271 5.96046e-07 0 -1.9908e-05
ITEM: TIMESTEP
8
ITEM: NUMBER OF ATOMS
32
ITEM: BOX BOUNDS xy xz yz pp pp pp
-9.5987319946289062e-04 6.3977920413017273e+00 -0.0000000000000000e+00
-1.0525226593017578e-02 9.5408997535705566e+00 0.0000000000000000e+00
-5.8505058288574219e-02 2.0783891499042511e+01 4.0099433660507202e+00
ITEM: ATOMS id type xs ys zs fx fy fz
1 1 0.999986 0.623082 0.0602309 1.19209e-07 0 1.19209e-06
2 1 0.499986 0.623082 0.0602309 1.19209e-07 0 1.19209e-06
3 1 0.249986 0.123082 0.0602309 -1.19209e-07 0 1.43051e-06
4 1 0.749986 0.123082 0.0602309 -2.38419e-07 0 1.43051e-06
5 1 0.999986 0.442368 0.309966 4.76837e-07 0 1.90735e-06
6 1 0.249986 0.366047 0.185114 0 0 3.93391e-06
7 1 0.749986 0.366047 0.185114 1.19209e-07 0 4.41074e-06
8 1 0.499986 0.442368 0.309966 -4.76837e-07 0 2.38419e-06
9 1 0.999986 0.866047 0.185114 -1.19209e-07 0 3.8147e-06
10 1 0.249986 0.942368 0.309966 -4.76837e-07 0 1.54972e-06
11 1 0.499986 0.866047 0.185114 2.38419e-07 0 3.93391e-06
12 1 0.749986 0.942368 0.309966 2.38419e-07 0 1.43051e-06
13 1 0.999986 0.261669 0.55968 -1.19209e-07 0 6.4373e-06
14 1 0.499986 0.261669 0.55968 -3.57628e-07 0 6.19888e-06
15 1 0.249986 0.761669 0.55968 2.38419e-07 0 6.67572e-06
16 1 0.749986 0.761669 0.55968 0 0 6.4373e-06
17 1 0.249986 0.185353 0.434821 0 0 -6.4373e-06
18 1 0.749986 0.185353 0.434821 0 0 -6.19888e-06
19 1 0.999986 0.685353 0.434821 1.19209e-07 0 -6.31809e-06
20 1 0.499986 0.685353 0.434821 0 0 -6.31809e-06
21 1 0.999986 0.0809747 0.809388 3.57628e-07 0 -4.29153e-06
22 1 0.249986 0.00465441 0.684535 4.76837e-07 0 -2.02656e-06
23 1 0.499986 0.0809746 0.809388 -2.38419e-07 0 -4.29153e-06
24 1 0.749986 0.00465437 0.684535 -1.19209e-07 0 -1.90735e-06
25 1 0.999986 0.504654 0.684535 -4.76837e-07 0 -1.90735e-06
26 1 0.249986 0.580975 0.809388 1.19209e-07 0 -3.69549e-06
27 1 0.749986 0.580975 0.809388 1.19209e-07 0 -4.29153e-06
28 1 0.499986 0.504654 0.684535 2.38419e-07 0 -1.66893e-06
29 1 0.249986 0.82394 0.934271 1.19209e-07 0 -1.3113e-06
30 1 0.749986 0.82394 0.934271 -2.38419e-07 0 -1.3113e-06
31 1 0.999986 0.32394 0.93427 0 0 -1.07288e-06
32 1 0.499986 0.32394 0.93427 -1.19209e-07 0 -1.3113e-06
ITEM: TIMESTEP
9
ITEM: NUMBER OF ATOMS
32
ITEM: BOX BOUNDS xy xz yz pp pp pp
-9.5987319946289062e-04 6.3977920413017273e+00 -0.0000000000000000e+00
-1.0525226593017578e-02 9.5408997535705566e+00 0.0000000000000000e+00
-5.8505058288574219e-02 2.0783891499042511e+01 4.0099433660507202e+00
ITEM: ATOMS id type xs ys zs fx fy fz
1 1 0.999986 0.623082 0.060231 0 0 -2.14577e-06
2 1 0.499986 0.623082 0.060231 0 0 -2.74181e-06
3 1 0.249986 0.123082 0.060231 -1.19209e-07 0 -2.98023e-06
4 1 0.749986 0.123082 0.060231 0 0 -2.38419e-06
5 1 0.999986 0.442368 0.309966 -4.76837e-07 0 -3.57628e-07
6 1 0.249986 0.366047 0.185114 2.38419e-07 0 2.02656e-06
7 1 0.749986 0.366047 0.185114 -1.19209e-07 0 1.78814e-06
8 1 0.499986 0.442368 0.309966 0 0 0
9 1 0.999986 0.866047 0.185114 1.19209e-07 0 1.66893e-06
10 1 0.249986 0.942368 0.309966 4.76837e-07 0 4.76837e-07
11 1 0.499986 0.866047 0.185114 -1.19209e-07 0 1.66893e-06
12 1 0.749986 0.942368 0.309966 0 0 3.57628e-07
13 1 0.999986 0.261669 0.55968 0 0 -1.43051e-06
14 1 0.499986 0.261669 0.55968 1.19209e-07 0 -1.66893e-06
15 1 0.249986 0.761669 0.55968 -2.38419e-07 0 -1.66893e-06
16 1 0.749986 0.761669 0.55968 0 0 -1.66893e-06
17 1 0.249986 0.185353 0.434821 0 0 2.14577e-06
18 1 0.749986 0.185353 0.434821 0 0 1.90735e-06
19 1 0.999986 0.685353 0.434821 1.19209e-07 0 1.54972e-06
20 1 0.499986 0.685353 0.434821 0 0 1.54972e-06
21 1 0.999986 0.0809747 0.809388 0 0 -1.54972e-06
22 1 0.249986 0.00465442 0.684535 0 0 0
23 1 0.499986 0.0809747 0.809388 0 0 -1.78814e-06
24 1 0.749986 0.00465439 0.684535 1.19209e-07 0 -1.07288e-06
25 1 0.999986 0.504654 0.684535 1.19209e-07 0 1.19209e-07
26 1 0.249986 0.580975 0.809388 -1.19209e-07 0 -1.54972e-06
27 1 0.749986 0.580975 0.809388 2.38419e-07 0 -2.02656e-06
28 1 0.499986 0.504654 0.684535 -3.57628e-07 0 -5.96046e-07
29 1 0.249986 0.82394 0.93427 0 0 2.6226e-06
30 1 0.749986 0.82394 0.93427 0 0 2.38419e-06
31 1 0.999986 0.32394 0.93427 1.19209e-07 0 2.38419e-06
32 1 0.499986 0.32394 0.93427 -1.19209e-07 0 2.98023e-06
ITEM: TIMESTEP
10
ITEM: NUMBER OF ATOMS
32
ITEM: BOX BOUNDS xy xz yz pp pp pp
-9.5987319946289062e-04 6.3977920413017273e+00 -0.0000000000000000e+00
-1.0525226593017578e-02 9.5408997535705566e+00 0.0000000000000000e+00
-5.8505058288574219e-02 2.0783891499042511e+01 4.0099433660507202e+00
ITEM: ATOMS id type xs ys zs fx fy fz
1 1 0.999986 0.623082 0.0602309 0 0 -5.96046e-07
2 1 0.499986 0.623082 0.0602309 0 0 -1.19209e-07
3 1 0.249986 0.123082 0.060231 0 0 -9.53674e-07
4 1 0.749986 0.123082 0.060231 0 0 -8.34465e-07
5 1 0.999986 0.442368 0.309966 0 0 5.96046e-07
6 1 0.249986 0.366047 0.185114 0 0 -2.38419e-07
7 1 0.749986 0.366047 0.185114 0 0 0
8 1 0.499986 0.442368 0.309966 1.19209e-07 0 7.15256e-07
9 1 0.999986 0.866047 0.185114 -1.19209e-07 0 -3.57628e-07
10 1 0.249986 0.942368 0.309966 -1.19209e-07 0 8.34465e-07
11 1 0.499986 0.866047 0.185114 1.19209e-07 0 -5.96046e-07
12 1 0.749986 0.942368 0.309966 1.19209e-07 0 5.96046e-07
13 1 0.999986 0.261669 0.55968 2.38419e-07 0 -2.14577e-06
14 1 0.499986 0.261669 0.55968 0 0 -1.54972e-06
15 1 0.249986 0.761669 0.55968 -2.38419e-07 0 -2.6226e-06
16 1 0.749986 0.761669 0.55968 -1.19209e-07 0 -2.02656e-06
17 1 0.249986 0.185353 0.434821 1.19209e-07 0 1.90735e-06
18 1 0.749986 0.185353 0.434821 0 0 2.02656e-06
19 1 0.999986 0.685353 0.434821 -1.19209e-07 0 1.90735e-06
20 1 0.499986 0.685353 0.434821 -1.19209e-07 0 1.90735e-06
21 1 0.999986 0.0809748 0.809388 1.19209e-07 0 -1.19209e-07
22 1 0.249986 0.00465443 0.684535 -4.76837e-07 0 -2.38419e-07
23 1 0.499986 0.0809747 0.809388 1.19209e-07 0 -1.19209e-07
24 1 0.749986 0.0046544 0.684535 0 0 1.19209e-07
25 1 0.999986 0.504654 0.684535 3.57628e-07 0 -5.96046e-07
26 1 0.249986 0.580975 0.809388 -1.19209e-07 0 2.38419e-07
27 1 0.749986 0.580975 0.809388 0 0 2.38419e-07
28 1 0.499986 0.504654 0.684535 2.38419e-07 0 -3.57628e-07
29 1 0.249986 0.82394 0.93427 -1.19209e-07 0 5.96046e-07
30 1 0.749986 0.82394 0.93427 0 0 5.96046e-07
31 1 0.999986 0.32394 0.93427 -2.38419e-07 0 5.96046e-07
32 1 0.499986 0.32394 0.93427 2.38419e-07 0 5.96046e-07
