ITEM: TIMESTEP
0
ITEM: NUMBER OF ATOMS
48
ITEM: BOX BOUNDS xy xz yz pp pp pp
-2.9839990735054016e+00 8.6067802309989929e+00 2.5094206929206848e+00
-9.4973444938659668e-03 9.3236122131347656e+00 -2.9719619750976562e+00
-2.8691649436950684e-02 1.9545819282531738e+01 7.1304261684417725e-02
ITEM: ATOMS id type xs ys zs fx fy fz
1 1 0.937177 0.16703 0.0320218 0 0 0.665876
2 1 0.48393 0.0738739 0.0528103 0 0 0.696735
3 1 0.343311 0.125314 0.657023 0 0 0.00104332
4 1 0.45236 0.948847 0.927808 0 0 -0.665871
5 1 0.171253 0.157156 0.802805 0 0 0.00456047
6 1 0.905606 0.0420026 0.90702 0 0 -0.696733
7 1 0.624495 0.250315 0.78202 0 0 -0.0111427
8 1 0.780733 0.208712 0.407029 0 0 0.000707626
9 1 0.890071 0.0321465 0.677802 0 0 0.00173569
10 1 0.608804 0.240498 0.552801 0 0 -0.000699997
11 1 0.765042 0.198895 0.17781 0 0 0.011137
12 1 0.499466 0.0837297 0.282028 0 0 -0.00173569
13 1 0.218284 0.292053 0.157025 0 0 -0.00456429
14 1 0.327495 0.115534 0.427803 0 0 -0.000591278
15 1 0.937177 0.500363 0.0320219 0 0 0.665861
16 1 0.48393 0.407207 0.0528103 0 0 0.696739
17 1 0.343311 0.458648 0.657023 0 0 0.00104332
18 1 0.452359 0.28218 0.927808 0 0 -0.665873
19 1 0.171252 0.49049 0.802805 0 0 0.00456429
20 1 0.905607 0.375336 0.90702 0 0 -0.696722
21 1 0.624495 0.583648 0.78202 0 0 -0.0111427
22 1 0.0620423 0.333676 0.532027 0 0 0.000587463
23 1 0.780733 0.542046 0.407029 0 0 0.000701904
24 1 0.890072 0.36548 0.677802 0 0 0.00173759
25 1 0.608804 0.573831 0.552801 0 0 -0.000703812
26 1 0.0462256 0.323895 0.302807 0 0 -0.00104332
27 1 0.765042 0.532228 0.17781 0 0 0.0111408
28 1 0.499465 0.417063 0.282028 0 0 -0.00173378
29 1 0.218284 0.625387 0.157025 0 0 -0.00456429
30 1 0.327495 0.448867 0.427803 0 0 -0.000591278
31 1 0.937177 0.833696 0.0320219 0 0 0.665869
32 1 0.48393 0.740541 0.0528104 0 0 0.696733
33 1 0.343311 0.791981 0.657023 0 0 0.00104332
34 1 0.452359 0.615514 0.927808 0 0 -0.665874
35 1 0.171253 0.823823 0.802805 0 0 0.00456619
36 1 0.905606 0.708669 0.90702 0 0 -0.696732
37 1 0.624495 0.916981 0.78202 0 0 -0.0111408
38 1 0.0620421 0.667009 0.532027 0 0 0.000585556
39 1 0.780733 0.875379 0.407029 0 0 0.000701904
40 1 0.890071 0.698813 0.677802 0 0 0.00173569
41 1 0.608803 0.907164 0.552801 0 0 -0.00069809
42 1 0.0462255 0.657228 0.302807 0 0 -0.00104332
43 1 0.765042 0.865562 0.17781 0 0 0.0111408
44 1 0.499466 0.750396 0.282028 0 0 -0.00173569
45 1 0.218284 0.95872 0.157026 0 0 -0.00457001
46 1 0.327495 0.782201 0.427803 0 0 -0.000585556
47 1 0.0620418 0.000342385 0.532027 0 0 0.000585556
48 1 0.0462257 0.990562 0.302807 0 0 -0.00104141
ITEM: TIMESTEP
1
ITEM: NUMBER OF ATOMS
48
ITEM: BOX BOUNDS xy xz yz pp pp pp
-2.9839990735054016e+00 8.6067802309989929e+00 2.5094206929206848e+00
-9.4973444938659668e-03 9.3236122131347656e+00 -2.9719619750976562e+00
-2.8691649436950684e-02 1.9545819282531738e+01 7.1304261684417725e-02
ITEM: ATOMS id type xs ys zs fx fy fz
1 1 0.939567 0.166992 0.0369042 0 0 0.0362625
2 1 0.486431 0.0738346 0.057919 0 0 0.102674
3 1 0.343315 0.125314 0.657031 0 0 -0.00518417
4 1 0.449969 0.948885 0.922926 0 0 -0.0362587
5 1 0.171269 0.157156 0.802838 0 0 -0.118149
6 1 0.903105 0.0420419 0.901911 0 0 -0.102673
7 1 0.624455 0.250316 0.781938 0 0 -0.137196
8 1 0.780736 0.208712 0.407034 0 0 -0.00235176
9 1 0.890078 0.0321464 0.677815 0 0 -0.001894
10 1 0.608801 0.240498 0.552796 0 0 0.00235748
11 1 0.765082 0.198894 0.177892 0 0 0.137197
12 1 0.499459 0.0837298 0.282016 0 0 0.0018959
13 1 0.218268 0.292053 0.156992 0 0 0.118149
14 1 0.327493 0.115534 0.427799 0 0 -0.0022068
15 1 0.939568 0.500325 0.0369042 0 0 0.0362606
16 1 0.486431 0.407168 0.057919 0 0 0.102674
17 1 0.343315 0.458648 0.65703 0 0 -0.00518036
18 1 0.449969 0.282218 0.922926 0 0 -0.0362644
19 1 0.171269 0.49049 0.802838 0 0 -0.118143
20 1 0.903105 0.375375 0.901911 0 0 -0.102682
21 1 0.624455 0.583649 0.781938 0 0 -0.137201
22 1 0.0620444 0.333676 0.532031 0 0 0.00221062
23 1 0.780736 0.542045 0.407034 0 0 -0.00235176
24 1 0.890078 0.36548 0.677815 0 0 -0.00189209
25 1 0.608801 0.573831 0.552796 0 0 0.00235176
26 1 0.0462218 0.323895 0.3028 0 0 0.00518036
27 1 0.765082 0.532227 0.177892 0 0 0.137192
28 1 0.499459 0.417063 0.282016 0 0 0.00190353
29 1 0.218268 0.625387 0.156992 0 0 0.118147
30 1 0.327492 0.448867 0.427799 0 0 -0.00221252
31 1 0.939568 0.833659 0.0369043 0 0 0.0362568
32 1 0.486431 0.740501 0.057919 0 0 0.102667
33 1 0.343315 0.791981 0.65703 0 0 -0.00518036
34 1 0.449969 0.615551 0.922926 0 0 -0.036253
35 1 0.171269 0.823823 0.802838 0 0 -0.118141
36 1 0.903105 0.708709 0.901911 0 0 -0.102671
37 1 0.624455 0.916982 0.781938 0 0 -0.137197
38 1 0.0620442 0.667009 0.532031 0 0 0.00220871
39 1 0.780736 0.875379 0.407034 0 0 -0.00235367
40 1 0.890077 0.698813 0.677815 0 0 -0.0018959
41 1 0.608801 0.907164 0.552796 0 0 0.00235367
42 1 0.0462217 0.657229 0.3028 0 0 0.00518036
43 1 0.765082 0.865561 0.177892 0 0 0.137192
44 1 0.499459 0.750396 0.282016 0 0 0.00189972
45 1 0.218268 0.95872 0.156992 0 0 0.118147
46 1 0.327493 0.782201 0.427799 0 0 -0.00220871
47 1 0.0620439 0.000342352 0.532031 0 0 0.00220108
48 1 0.0462219 0.990562 0.3028 0 0 0.00517845
ITEM: TIMESTEP
2
ITEM: NUMBER OF ATOMS
48
ITEM: BOX BOUNDS xy xz yz pp pp pp
-2.9839990735054016e+00 8.6067802309989929e+00 2.5094206929206848e+00
-9.4973444938659668e-03 9.3236122131347656e+00 -2.9719619750976562e+00
-2.8691649436950684e-02 1.9545819282531738e+01 7.1304261684417725e-02
ITEM: ATOMS id type xs ys zs fx fy fz
1 1 0.940041 0.166985 0.0378719 0 0 -0.0306435
2 1 0.487773 0.0738135 0.060659 0 0 0.0020771
3 1 0.343247 0.125315 0.656892 0 0 -0.0806656
4 1 0.449495 0.948892 0.921958 0 0 0.0306358
5 1 0.169725 0.15718 0.799685 0 0 0.00349045
6 1 0.901764 0.042063 0.899171 0 0 -0.00206947
7 1 0.622663 0.250344 0.778277 0 0 -0.00370407
8 1 0.780705 0.208713 0.406972 0 0 0.0037899
9 1 0.890053 0.0321468 0.677764 0 0 -0.0734863
10 1 0.608832 0.240497 0.552859 0 0 -0.00379562
11 1 0.766874 0.198866 0.181553 0 0 0.00370407
12 1 0.499484 0.0837294 0.282066 0 0 0.0734806
13 1 0.219812 0.292029 0.160145 0 0 -0.00348854
14 1 0.327464 0.115535 0.42774 0 0 0.00693893
15 1 0.940041 0.500318 0.0378719 0 0 -0.0306435
16 1 0.487773 0.407147 0.060659 0 0 0.00206757
17 1 0.343247 0.458649 0.656892 0 0 -0.0806599
18 1 0.449495 0.282225 0.921958 0 0 0.0306454
19 1 0.169725 0.490514 0.799685 0 0 0.00348663
20 1 0.901764 0.375396 0.899171 0 0 -0.00206757
21 1 0.622662 0.583677 0.778277 0 0 -0.00369263
22 1 0.0620733 0.333675 0.53209 0 0 -0.00694275
23 1 0.780705 0.542046 0.406972 0 0 0.00378418
24 1 0.890053 0.36548 0.677764 0 0 -0.0734863
25 1 0.608832 0.57383 0.552858 0 0 -0.0037899
26 1 0.0462895 0.323894 0.302938 0 0 0.0806675
27 1 0.766874 0.532199 0.181553 0 0 0.00370789
28 1 0.499484 0.417063 0.282066 0 0 0.0734711
29 1 0.219812 0.625363 0.160145 0 0 -0.00348473
30 1 0.327464 0.448868 0.42774 0 0 0.00695038
31 1 0.940041 0.833651 0.0378718 0 0 -0.0306377
32 1 0.487773 0.74048 0.0606588 0 0 0.00208473
33 1 0.343247 0.791982 0.656892 0 0 -0.0806637
34 1 0.449495 0.615559 0.921958 0 0 0.0306282
35 1 0.169725 0.823847 0.799685 0 0 0.00348282
36 1 0.901764 0.70873 0.899171 0 0 -0.00208664
37 1 0.622663 0.91701 0.778277 0 0 -0.00369644
38 1 0.062073 0.667009 0.53209 0 0 -0.00694084
39 1 0.780705 0.875379 0.406972 0 0 0.00378418
40 1 0.890053 0.698814 0.677764 0 0 -0.0734768
41 1 0.608832 0.907164 0.552859 0 0 -0.00378799
42 1 0.0462894 0.657227 0.302938 0 0 0.0806694
43 1 0.766874 0.865533 0.181553 0 0 0.00370407
44 1 0.499484 0.750396 0.282066 0 0 0.0734673
45 1 0.219812 0.958696 0.160145 0 0 -0.00348854
46 1 0.327464 0.782201 0.42774 0 0 0.00694275
47 1 0.0620727 0.0003419 0.53209 0 0 -0.0069294
48 1 0.0462896 0.990561 0.302938 0 0 0.0806675
ITEM: TIMESTEP
3
ITEM: NUMBER OF ATOMS
48
ITEM: BOX BOUNDS xy xz yz pp pp pp
-2.9839990735054016e+00 8.6067802309989929e+00 2.5094206929206848e+00
-9.4973444938659668e-03 9.3236122131347656e+00 -2.9719619750976562e+00
-2.8691649436950684e-02 1.9545819282531738e+01 7.1304261684417725e-02
ITEM: ATOMS id type xs ys zs fx fy fz
1 1 0.939752 0.166989 0.0372814 0 0 0.0041523
2 1 0.488243 0.0738061 0.06162 0 0 -0.000385284
3 1 0.342055 0.125334 0.654456 0 0 0.00382996
4 1 0.449784 0.948887 0.922549 0 0 -0.0041256
5 1 0.169269 0.157188 0.798754 0 0 -0.00613022
6 1 0.901293 0.0420704 0.89821 0 0 0.000368118
7 1 0.62202 0.250354 0.776966 0 0 -0.00251961
8 1 0.78075 0.208712 0.407063 0 0 0.0448074
9 1 0.888978 0.0321637 0.67557 0 0 0.00284576
10 1 0.608787 0.240498 0.552767 0 0 -0.0448036
11 1 0.767516 0.198856 0.182865 0 0 0.00252151
12 1 0.500558 0.0837125 0.284261 0 0 -0.00284958
13 1 0.220268 0.292022 0.161077 0 0 0.00612259
14 1 0.327555 0.115533 0.427926 0 0 0.0493698
15 1 0.939752 0.500322 0.0372813 0 0 0.0041523
16 1 0.488243 0.407139 0.0616198 0 0 -0.000368118
17 1 0.342055 0.458667 0.654456 0 0 0.00382233
18 1 0.449784 0.282221 0.922549 0 0 -0.00414467
19 1 0.169269 0.490521 0.798754 0 0 -0.00612831
20 1 0.901293 0.375404 0.89821 0 0 0.00037384
21 1 0.62202 0.583687 0.776966 0 0 -0.00253868
22 1 0.061982 0.333677 0.531904 0 0 -0.049366
23 1 0.78075 0.542045 0.407063 0 0 0.0448093
24 1 0.888979 0.365497 0.67557 0 0 0.00284958
25 1 0.608787 0.573831 0.552767 0 0 -0.0448036
26 1 0.0474823 0.323875 0.305374 0 0 -0.00382233
27 1 0.767516 0.532189 0.182865 0 0 0.00251961
28 1 0.500558 0.417046 0.284261 0 0 -0.00283813
29 1 0.220268 0.625355 0.161077 0 0 0.00611115
30 1 0.327555 0.448866 0.427926 0 0 0.0493622
31 1 0.939752 0.833656 0.0372814 0 0 0.00413704
32 1 0.488243 0.740473 0.06162 0 0 -0.000391006
33 1 0.342054 0.792001 0.654456 0 0 0.00382233
34 1 0.449784 0.615554 0.922549 0 0 -0.00412941
35 1 0.169269 0.823854 0.798754 0 0 -0.0061264
36 1 0.901293 0.708737 0.89821 0 0 0.000400543
37 1 0.622021 0.91702 0.776966 0 0 -0.00253868
38 1 0.0619818 0.66701 0.531904 0 0 -0.049366
39 1 0.78075 0.875379 0.407063 0 0 0.0448132
40 1 0.888978 0.69883 0.67557 0 0 0.00283623
41 1 0.608787 0.907164 0.552767 0 0 -0.0448112
42 1 0.0474822 0.657209 0.305374 0 0 -0.00382423
43 1 0.767516 0.865523 0.182865 0 0 0.00252533
44 1 0.500558 0.750379 0.28426 0 0 -0.00283623
45 1 0.220268 0.958689 0.161077 0 0 0.00612259
46 1 0.327555 0.7822 0.427926 0 0 0.0493622
47 1 0.0619816 0.000343333 0.531904 0 0 -0.0493679
48 1 0.0474824 0.990542 0.305374 0 0 -0.00382233
ITEM: TIMESTEP
4
ITEM: NUMBER OF ATOMS
48
ITEM: BOX BOUNDS xy xz yz pp pp pp
-2.9839990735054016e+00 8.6067802309989929e+00 2.5094206929206848e+00
-9.4973444938659668e-03 9.3236122131347656e+00 -2.9719619750976562e+00
-2.8691649436950684e-02 1.9545819282531738e+01 7.1304261684417725e-02
ITEM: ATOMS id type xs ys zs fx fy fz
1 1 0.939727 0.166989 0.0372311 0 0 0.00845146
2 1 0.488335 0.0738047 0.0618072 0 0 -0.00135231
3 1 0.341845 0.125337 0.654029 0 0 -0.00213051
4 1 0.449809 0.948887 0.922599 0 0 -0.00846863
5 1 0.169128 0.15719 0.798465 0 0 -0.00300598
6 1 0.901201 0.0420718 0.898023 0 0 0.00135612
7 1 0.621871 0.250356 0.77666 0 0 8.58307e-05
8 1 0.781121 0.208706 0.407822 0 0 0.0010891
9 1 0.888785 0.0321667 0.675175 0 0 -0.00362587
10 1 0.608415 0.240504 0.552008 0 0 -0.00108337
11 1 0.767666 0.198854 0.18317 0 0 -8.7738e-05
12 1 0.500752 0.0837094 0.284655 0 0 0.00363541
13 1 0.220409 0.29202 0.161365 0 0 0.00301361
14 1 0.327973 0.115526 0.42878 0 0 0.00274277
15 1 0.939728 0.500323 0.037231 0 0 0.00844955
16 1 0.488335 0.407138 0.0618072 0 0 -0.00135612
17 1 0.341845 0.458671 0.654029 0 0 -0.00213242
18 1 0.449809 0.28222 0.922599 0 0 -0.00845528
19 1 0.169128 0.490523 0.798465 0 0 -0.00300407
20 1 0.901201 0.375405 0.898023 0 0 0.00135803
21 1 0.621871 0.58369 0.77666 0 0 8.96454e-05
22 1 0.0615643 0.333683 0.531051 0 0 -0.00274277
23 1 0.781122 0.542039 0.407822 0 0 0.0010891
24 1 0.888785 0.3655 0.675175 0 0 -0.00363731
25 1 0.608415 0.573837 0.552008 0 0 -0.00108719
26 1 0.0476916 0.323872 0.305801 0 0 0.00212288
27 1 0.767666 0.532187 0.18317 0 0 -8.58307e-05
28 1 0.500752 0.417043 0.284655 0 0 0.0036335
29 1 0.220409 0.625353 0.161365 0 0 0.00300789
30 1 0.327973 0.44886 0.42878 0 0 0.00274086
31 1 0.939728 0.833656 0.0372309 0 0 0.00846672
32 1 0.488335 0.740471 0.0618071 0 0 -0.0013485
33 1 0.341845 0.792004 0.654029 0 0 -0.0021286
34 1 0.449809 0.615554 0.922599 0 0 -0.00846481
35 1 0.169128 0.823857 0.798465 0 0 -0.00300598
36 1 0.901201 0.708739 0.898023 0 0 0.00134659
37 1 0.621871 0.917023 0.77666 0 0 9.53674e-05
38 1 0.0615641 0.667017 0.531051 0 0 -0.00274467
39 1 0.781121 0.875373 0.407822 0 0 0.00109291
40 1 0.888785 0.698833 0.675175 0 0 -0.00363159
41 1 0.608415 0.90717 0.552008 0 0 -0.00109291
42 1 0.0476915 0.657205 0.305801 0 0 0.00212288
43 1 0.767666 0.86552 0.18317 0 0 -8.58307e-05
44 1 0.500752 0.750376 0.284655 0 0 0.00364113
45 1 0.220409 0.958686 0.161365 0 0 0.00300789
46 1 0.327973 0.782193 0.428779 0 0 0.00273895
47 1 0.0615639 0.000349901 0.531051 0 0 -0.00274849
48 1 0.0476916 0.990539 0.305801 0 0 0.0021286
ITEM: TIMESTEP
5
ITEM: NUMBER OF ATOMS
48
ITEM: BOX BOUNDS xy xz yz pp pp pp
-2.9839990735054016e+00 8.6067802309989929e+00 2.5094206929206848e+00
-9.4973444938659668e-03 9.3236122131347656e+00 -2.9719619750976562e+00
-2.8691649436950684e-02 1.9545819282531738e+01 7.1304261684417725e-02
ITEM: ATOMS id type xs ys zs fx fy fz
1 1 0.939846 0.166988 0.0374725 0 0 -0.00312614
2 1 0.488316 0.073805 0.0617685 0 0 -0.00576973
3 1 0.341816 0.125338 0.653968 0 0 -0.00157738
4 1 0.449691 0.948889 0.922357 0 0 0.00314522
5 1 0.169086 0.157191 0.798379 0 0 -0.00365257
6 1 0.90122 0.0420715 0.898062 0 0 0.0057621
7 1 0.621872 0.250356 0.776662 0 0 -0.00345039
8 1 0.781137 0.208706 0.407853 0 0 0.000263214
9 1 0.888734 0.0321675 0.675071 0 0 -0.00136566
10 1 0.6084 0.240504 0.551977 0 0 -0.000261307
11 1 0.767665 0.198854 0.183168 0 0 0.00345421
12 1 0.500803 0.0837086 0.284759 0 0 0.00135994
13 1 0.220451 0.292019 0.161451 0 0 0.00363731
14 1 0.328011 0.115526 0.428858 0 0 -0.000238419
15 1 0.939846 0.500321 0.0374724 0 0 -0.00312424
16 1 0.488316 0.407138 0.0617684 0 0 -0.00576019
17 1 0.341816 0.458671 0.653968 0 0 -0.00157166
18 1 0.449691 0.282222 0.922358 0 0 0.00312614
19 1 0.169086 0.490524 0.798379 0 0 -0.0036602
20 1 0.90122 0.375405 0.898062 0 0 0.0057621
21 1 0.621872 0.583689 0.776662 0 0 -0.00345802
22 1 0.061526 0.333684 0.530972 0 0 0.000238419
23 1 0.781137 0.542039 0.407853 0 0 0.000265121
24 1 0.888734 0.365501 0.675071 0 0 -0.00135231
25 1 0.6084 0.573837 0.551977 0 0 -0.000265121
26 1 0.0477213 0.323872 0.305862 0 0 0.00157928
27 1 0.767665 0.532187 0.183168 0 0 0.00345421
28 1 0.500803 0.417042 0.284759 0 0 0.00135422
29 1 0.220451 0.625352 0.161451 0 0 0.00365639
30 1 0.328011 0.448859 0.428858 0 0 -0.000242233
31 1 0.939846 0.833654 0.0374728 0 0 -0.00314522
32 1 0.488316 0.740472 0.0617686 0 0 -0.00577164
33 1 0.341815 0.792005 0.653968 0 0 -0.00157356
34 1 0.449691 0.615556 0.922357 0 0 0.0031414
35 1 0.169086 0.823857 0.798379 0 0 -0.00365639
36 1 0.90122 0.708738 0.898062 0 0 0.00578308
37 1 0.621872 0.917023 0.776662 0 0 -0.00346947
38 1 0.0615257 0.667017 0.530972 0 0 0.000240326
39 1 0.781137 0.875372 0.407853 0 0 0.000259399
40 1 0.888734 0.698834 0.675071 0 0 -0.00135803
41 1 0.6084 0.90717 0.551977 0 0 -0.000255585
42 1 0.0477212 0.657205 0.305862 0 0 0.00157356
43 1 0.767665 0.86552 0.183168 0 0 0.00345612
44 1 0.500803 0.750375 0.284759 0 0 0.00135612
45 1 0.220451 0.958686 0.161451 0 0 0.00365829
46 1 0.328011 0.782193 0.428858 0 0 -0.000238419
47 1 0.0615254 0.000350505 0.530972 0 0 0.000244141
48 1 0.0477214 0.990538 0.305862 0 0 0.00157356
ITEM: TIMESTEP
6
ITEM: NUMBER OF ATOMS
48
ITEM: BOX BOUNDS xy xz yz pp pp pp
-2.9839990735054016e+00 8.6067802309989929e+00 2.5094206929206848e+00
-9.4973444938659668e-03 9.3236122131347656e+00 -2.9719619750976562e+00
-2.8691649436950684e-02 1.9545819282531738e+01 7.1304261684417725e-02
ITEM: ATOMS id type xs ys zs fx fy fz
1 1 0.939866 0.166987 0.0375149 0 0 -0.000303268
2 1 0.488261 0.0738058 0.061657 0 0 0.000951767
3 1 0.341791 0.125338 0.653918 0 0 -0.00139999
4 1 0.44967 0.948889 0.922315 0 0 0.000314713
5 1 0.169039 0.157191 0.798284 0 0 0.000301361
6 1 0.901275 0.0420707 0.898173 0 0 -0.000953674
7 1 0.621844 0.250357 0.776606 0 0 -0.000511169
8 1 0.781145 0.208706 0.40787 0 0 0.00034523
9 1 0.888703 0.032168 0.675008 0 0 -0.000787735
10 1 0.608392 0.240504 0.551961 0 0 -0.000354767
11 1 0.767693 0.198853 0.183225 0 0 0.00050354
12 1 0.500834 0.0837082 0.284823 0 0 0.000776291
13 1 0.220498 0.292018 0.161546 0 0 -0.000301361
14 1 0.328024 0.115526 0.428885 0 0 -0.000579834
15 1 0.939867 0.500321 0.0375148 0 0 -0.000297546
16 1 0.488262 0.407139 0.061657 0 0 0.00094986
17 1 0.341791 0.458672 0.653918 0 0 -0.00140762
18 1 0.44967 0.282223 0.922315 0 0 0.000305176
19 1 0.169039 0.490525 0.798284 0 0 0.000291824
20 1 0.901275 0.375404 0.898173 0 0 -0.000951767
21 1 0.621844 0.58369 0.776605 0 0 -0.000507355
22 1 0.0615129 0.333684 0.530946 0 0 0.000576019
23 1 0.781145 0.542039 0.40787 0 0 0.000349045
24 1 0.888703 0.365501 0.675008 0 0 -0.000770569
25 1 0.608392 0.573837 0.55196 0 0 -0.000350952
26 1 0.0477458 0.323871 0.305912 0 0 0.00141144
27 1 0.767693 0.532186 0.183225 0 0 0.000511169
28 1 0.500834 0.417042 0.284823 0 0 0.000782013
29 1 0.220498 0.625352 0.161546 0 0 -0.000291824
30 1 0.328024 0.448859 0.428884 0 0 -0.000576019
31 1 0.939867 0.833654 0.037515 0 0 -0.000314713
32 1 0.488262 0.740472 0.0616571 0 0 0.000946045
33 1 0.341791 0.792005 0.653918 0 0 -0.00140953
34 1 0.44967 0.615556 0.922315 0 0 0.000318527
35 1 0.169039 0.823858 0.798284 0 0 0.000305176
36 1 0.901275 0.708737 0.898173 0 0 -0.000957489
37 1 0.621844 0.917023 0.776605 0 0 -0.000511169
38 1 0.0615126 0.667017 0.530946 0 0 0.000576019
39 1 0.781145 0.875372 0.40787 0 0 0.000343323
40 1 0.888703 0.698835 0.675008 0 0 -0.000785828
41 1 0.608392 0.907171 0.55196 0 0 -0.000343323
42 1 0.0477457 0.657205 0.305912 0 0 0.00141525
43 1 0.767693 0.86552 0.183225 0 0 0.000509262
44 1 0.500834 0.750375 0.284823 0 0 0.000772476
45 1 0.220498 0.958685 0.161546 0 0 -0.000301361
46 1 0.328024 0.782192 0.428884 0 0 -0.000574112
47 1 0.0615123 0.000350711 0.530946 0 0 0.000579834
48 1 0.047746 0.990538 0.305912 0 0 0.00140762
ITEM: TIMESTEP
7
ITEM: NUMBER OF ATOMS
48
ITEM: BOX BOUNDS xy xz yz pp pp pp
-2.9839990735054016e+00 8.6067802309989929e+00 2.5094206929206848e+00
-9.4973444938659668e-03 9.3236122131347656e+00 -2.9719619750976562e+00
-2.8691649436950684e-02 1.9545819282531738e+01 7.1304261684417725e-02
ITEM: ATOMS id type xs ys zs fx fy fz
1 1 0.939865 0.166987 0.0375114 0 0 -0.000263214
2 1 0.488268 0.0738057 0.0616701 0 0 0.000692368
3 1 0.341771 0.125339 0.653877 0 0 0.00030899
4 1 0.449672 0.948889 0.922319 0 0 0.000244141
5 1 0.169038 0.157191 0.798283 0 0 -0.000476837
6 1 0.901268 0.0420708 0.89816 0 0 -0.000684738
7 1 0.621835 0.250357 0.776587 0 0 -0.000543594
8 1 0.78115 0.208706 0.40788 0 0 0.000598907
9 1 0.888691 0.0321682 0.674981 0 0 0.000209808
10 1 0.608387 0.240504 0.55195 0 0 -0.000595093
11 1 0.767702 0.198853 0.183243 0 0 0.000553131
12 1 0.500846 0.083708 0.284849 0 0 -0.000204086
13 1 0.220498 0.292018 0.161548 0 0 0.000480652
14 1 0.328019 0.115526 0.428873 0 0 0.000797272
15 1 0.939865 0.500321 0.0375114 0 0 -0.000257492
16 1 0.488268 0.407139 0.06167 0 0 0.000686646
17 1 0.341771 0.458672 0.653877 0 0 0.000312805
18 1 0.449672 0.282223 0.922319 0 0 0.000253677
19 1 0.169038 0.490525 0.798282 0 0 -0.0004673
20 1 0.901269 0.375404 0.89816 0 0 -0.000686646
21 1 0.621835 0.58369 0.776587 0 0 -0.000553131
22 1 0.0615187 0.333684 0.530958 0 0 -0.00079155
23 1 0.78115 0.542039 0.40788 0 0 0.000593185
24 1 0.888691 0.365502 0.674982 0 0 0.000190735
25 1 0.608387 0.573837 0.55195 0 0 -0.000589371
26 1 0.0477657 0.323871 0.305953 0 0 -0.000318527
27 1 0.767702 0.532186 0.183243 0 0 0.000545502
28 1 0.500846 0.417041 0.284849 0 0 -0.000196457
29 1 0.220499 0.625352 0.161548 0 0 0.0004673
30 1 0.328018 0.448859 0.428873 0 0 0.000793457
31 1 0.939865 0.833654 0.0375112 0 0 -0.000244141
32 1 0.488268 0.740472 0.06167 0 0 0.000699997
33 1 0.341771 0.792005 0.653877 0 0 0.000314713
34 1 0.449672 0.615556 0.922319 0 0 0.000240326
35 1 0.169038 0.823858 0.798283 0 0 -0.000476837
36 1 0.901268 0.708737 0.89816 0 0 -0.000684738
37 1 0.621835 0.917023 0.776587 0 0 -0.000541687
38 1 0.0615185 0.667017 0.530958 0 0 -0.000793457
39 1 0.78115 0.875372 0.40788 0 0 0.000608444
40 1 0.88869 0.698835 0.674981 0 0 0.000211716
41 1 0.608387 0.907171 0.55195 0 0 -0.00060463
42 1 0.0477656 0.657204 0.305953 0 0 -0.000320435
43 1 0.767702 0.86552 0.183243 0 0 0.000541687
44 1 0.500846 0.750375 0.284848 0 0 -0.000202179
45 1 0.220499 0.958685 0.161548 0 0 0.000471115
46 1 0.328018 0.782193 0.428873 0 0 0.000793457
47 1 0.0615182 0.000350618 0.530958 0 0 -0.000799179
48 1 0.0477658 0.990538 0.305953 0 0 -0.000314713
ITEM: TIMESTEP
8
ITEM: NUMBER OF ATOMS
48
ITEM: BOX BOUNDS xy xz yz pp pp pp
-2.9839990735054016e+00 8.6067802309989929e+00 2.5094206929206848e+00
-9.4973444938659668e-03 9.3236122131347656e+00 -2.9719619750976562e+00
-2.8691649436950684e-02 1.9545819282531738e+01 7.1304261684417725e-02
ITEM: ATOMS id type xs ys zs fx fy fz
1 1 0.939861 0.166987 0.0375035 0 0 -0.000110626
2 1 0.488279 0.0738055 0.0616926 0 0 0.000173569
3 1 0.341766 0.125339 0.653866 0 0 6.29425e-05
4 1 0.449676 0.948889 0.922327 0 0 0.000125885
5 1 0.169032 0.157191 0.79827 0 0 -0.000230789
6 1 0.901258 0.042071 0.898138 0 0 -0.000179291
7 1 0.621825 0.250357 0.776566 0 0 -1.71661e-05
8 1 0.781159 0.208706 0.407899 0 0 -0.000476837
9 1 0.888687 0.0321683 0.674974 0 0 -0.000188828
10 1 0.608378 0.240504 0.551931 0 0 0.000476837
11 1 0.767712 0.198853 0.183265 0 0 1.90735e-05
12 1 0.50085 0.0837079 0.284856 0 0 0.00019455
13 1 0.220504 0.292018 0.16156 0 0 0.00022316
14 1 0.328025 0.115526 0.428886 0 0 3.43323e-05
15 1 0.939861 0.500321 0.0375038 0 0 -0.000125885
16 1 0.488279 0.407139 0.0616924 0 0 0.000190735
17 1 0.341766 0.458672 0.653866 0 0 6.48499e-05
18 1 0.449675 0.282223 0.922326 0 0 0.000116348
19 1 0.169032 0.490525 0.79827 0 0 -0.000221252
20 1 0.901258 0.375404 0.898138 0 0 -0.000179291
21 1 0.621824 0.58369 0.776565 0 0 -9.53674e-06
22 1 0.0615122 0.333684 0.530944 0 0 -3.8147e-05
23 1 0.781159 0.542039 0.407899 0 0 -0.00047493
24 1 0.888687 0.365502 0.674974 0 0 -0.00019455
25 1 0.608378 0.573837 0.551931 0 0 0.00047493
26 1 0.0477713 0.323871 0.305964 0 0 -5.91278e-05
27 1 0.767712 0.532186 0.183265 0 0 1.71661e-05
28 1 0.50085 0.417041 0.284856 0 0 0.000181198
29 1 0.220504 0.625352 0.16156 0 0 0.000219345
30 1 0.328025 0.448859 0.428886 0 0 4.19617e-05
31 1 0.939861 0.833654 0.0375036 0 0 -0.00012207
32 1 0.488279 0.740472 0.0616926 0 0 0.000169754
33 1 0.341765 0.792005 0.653866 0 0 6.86646e-05
34 1 0.449675 0.615556 0.922327 0 0 0.000120163
35 1 0.169032 0.823858 0.798271 0 0 -0.000226974
36 1 0.901257 0.708738 0.898138 0 0 -0.000179291
37 1 0.621825 0.917023 0.776565 0 0 -2.09808e-05
38 1 0.0615119 0.667017 0.530944 0 0 -3.62396e-05
39 1 0.781159 0.875372 0.407899 0 0 -0.000486374
40 1 0.888687 0.698835 0.674974 0 0 -0.000190735
41 1 0.608377 0.907171 0.551931 0 0 0.000482559
42 1 0.0477711 0.657204 0.305964 0 0 -5.91278e-05
43 1 0.767712 0.86552 0.183265 0 0 1.90735e-05
44 1 0.50085 0.750375 0.284856 0 0 0.000198364
45 1 0.220505 0.958685 0.16156 0 0 0.000225067
46 1 0.328025 0.782192 0.428886 0 0 3.05176e-05
47 1 0.0615117 0.000350721 0.530944 0 0 -3.62396e-05
48 1 0.0477714 0.990537 0.305964 0 0 -6.67572e-05
ITEM: TIMESTEP
9
ITEM: NUMBER OF ATOMS
48
ITEM: BOX BOUNDS xy xz yz pp pp pp
-2.9839990735054016e+00 8.6067802309989929e+00 2.5094206929206848e+00
-9.4973444938659668e-03 9.3236122131347656e+00 -2.9719619750976562e+00
-2.8691649436950684e-02 1.9545819282531738e+01 7.1304261684417725e-02
ITEM: ATOMS id type xs ys zs fx fy fz
1 1 0.939859 0.166987 0.0375003 0 0 -1.90735e-06
2 1 0.488282 0.0738055 0.0616991 0 0 4.57764e-05
3 1 0.341765 0.125339 0.653866 0 0 -3.8147e-06
4 1 0.449677 0.948889 0.92233 0 0 -9.53674e-06
5 1 0.169029 0.157191 0.798264 0 0 0
6 1 0.901254 0.042071 0.898131 0 0 -4.00543e-05
7 1 0.621823 0.250357 0.776562 0 0 1.71661e-05
8 1 0.781156 0.208706 0.407893 0 0 -7.43866e-05
9 1 0.888685 0.0321683 0.67497 0 0 -1.33514e-05
10 1 0.608381 0.240504 0.551938 0 0 6.86646e-05
11 1 0.767714 0.198853 0.183268 0 0 -1.71661e-05
12 1 0.500852 0.0837079 0.28486 0 0 1.33514e-05
13 1 0.220507 0.292018 0.161566 0 0 9.53674e-06
14 1 0.328026 0.115526 0.428888 0 0 2.86102e-05
15 1 0.939859 0.500321 0.0375003 0 0 -1.90735e-06
16 1 0.488282 0.407139 0.0616992 0 0 2.47955e-05
17 1 0.341765 0.458672 0.653866 0 0 -3.8147e-06
18 1 0.449677 0.282222 0.92233 0 0 1.71661e-05
19 1 0.169029 0.490525 0.798264 0 0 -3.8147e-06
20 1 0.901254 0.375404 0.898131 0 0 -3.62396e-05
21 1 0.621823 0.58369 0.776562 0 0 1.71661e-05
22 1 0.061511 0.333684 0.530942 0 0 -3.43323e-05
23 1 0.781156 0.542039 0.407893 0 0 -7.43866e-05
24 1 0.888685 0.365502 0.67497 0 0 -5.72205e-06
25 1 0.608381 0.573837 0.551938 0 0 6.48499e-05
26 1 0.0477715 0.323871 0.305965 0 0 1.90735e-06
27 1 0.767714 0.532186 0.183268 0 0 -1.52588e-05
28 1 0.500852 0.417041 0.284861 0 0 1.14441e-05
29 1 0.220507 0.625352 0.161566 0 0 3.8147e-06
30 1 0.328026 0.448859 0.428889 0 0 2.67029e-05
31 1 0.939859 0.833654 0.0375002 0 0 -1.90735e-06
32 1 0.488282 0.740472 0.0616991 0 0 3.62396e-05
33 1 0.341765 0.792005 0.653866 0 0 -1.14441e-05
34 1 0.449677 0.615556 0.92233 0 0 0
35 1 0.16903 0.823858 0.798264 0 0 -7.62939e-06
36 1 0.901254 0.708738 0.898131 0 0 -4.00543e-05
37 1 0.621823 0.917023 0.776562 0 0 2.47955e-05
38 1 0.0615107 0.667017 0.530942 0 0 -2.47955e-05
39 1 0.781156 0.875372 0.407893 0 0 -7.24792e-05
40 1 0.888684 0.698835 0.67497 0 0 -1.14441e-05
41 1 0.608381 0.907171 0.551938 0 0 7.24792e-05
42 1 0.0477713 0.657204 0.305965 0 0 0
43 1 0.767714 0.865519 0.183268 0 0 -1.71661e-05
44 1 0.500852 0.750375 0.28486 0 0 1.33514e-05
45 1 0.220507 0.958685 0.161566 0 0 5.72205e-06
46 1 0.328026 0.782192 0.428888 0 0 4.19617e-05
47 1 0.0615104 0.000350741 0.530942 0 0 -2.67029e-05
48 1 0.0477715 0.990537 0.305964 0 0 3.8147e-06
ITEM: TIMESTEP
10
ITEM: NUMBER OF ATOMS
48
ITEM: BOX BOUNDS xy xz yz pp pp pp
-2.9839990735054016e+00 8.6067802309989929e+00 2.5094206929206848e+00
-9.4973444938659668e-03 9.3236122131347656e+00 -2.9719619750976562e+00
-2.8691649436950684e-02 1.9545819282531738e+01 7.1304261684417725e-02
ITEM: ATOMS id type xs ys zs fx fy fz
1 1 0.939859 0.166987 0.0375003 0 0 -1.52588e-05
2 1 0.488282 0.0738055 0.0616999 0 0 -1.33514e-05
3 1 0.341765 0.125339 0.653866 0 0 7.62939e-06
4 1 0.449677 0.948889 0.92233 0 0 2.47955e-05
5 1 0.169029 0.157191 0.798264 0 0 -7.62939e-06
6 1 0.901254 0.042071 0.89813 0 0 1.90735e-06
7 1 0.621823 0.250357 0.776562 0 0 -1.33514e-05
8 1 0.781155 0.208706 0.407891 0 0 3.8147e-06
9 1 0.888685 0.0321683 0.674969 0 0 1.52588e-05
10 1 0.608382 0.240504 0.551939 0 0 -3.8147e-06
11 1 0.767714 0.198853 0.183268 0 0 1.14441e-05
12 1 0.500852 0.0837079 0.284861 0 0 -1.33514e-05
13 1 0.220507 0.292018 0.161566 0 0 7.62939e-06
14 1 0.328027 0.115526 0.428889 0 0 1.90735e-05
15 1 0.939859 0.500321 0.0375002 0 0 -1.90735e-05
16 1 0.488282 0.407139 0.0616997 0 0 9.53674e-06
17 1 0.341765 0.458672 0.653866 0 0 7.62939e-06
18 1 0.449677 0.282222 0.92233 0 0 1.33514e-05
19 1 0.169029 0.490525 0.798264 0 0 -1.90735e-05
20 1 0.901254 0.375404 0.89813 0 0 3.8147e-06
21 1 0.621823 0.58369 0.776562 0 0 -1.33514e-05
22 1 0.0615107 0.333684 0.530941 0 0 -1.71661e-05
23 1 0.781155 0.542039 0.407891 0 0 9.53674e-06
24 1 0.888685 0.365502 0.67497 0 0 1.52588e-05
25 1 0.608381 0.573837 0.551939 0 0 -3.8147e-06
26 1 0.0477715 0.323871 0.305965 0 0 -3.8147e-06
27 1 0.767714 0.532186 0.183268 0 0 5.72205e-06
28 1 0.500852 0.417041 0.284861 0 0 -1.14441e-05
29 1 0.220507 0.625352 0.161566 0 0 1.14441e-05
30 1 0.328026 0.448859 0.428889 0 0 1.52588e-05
31 1 0.939859 0.833654 0.0375002 0 0 -1.71661e-05
32 1 0.488282 0.740472 0.0616997 0 0 1.90735e-06
33 1 0.341765 0.792005 0.653865 0 0 1.14441e-05
34 1 0.449677 0.615556 0.92233 0 0 1.71661e-05
35 1 0.169029 0.823858 0.798264 0 0 -1.33514e-05
36 1 0.901254 0.708738 0.89813 0 0 3.8147e-06
37 1 0.621823 0.917023 0.776563 0 0 -1.52588e-05
38 1 0.0615105 0.667017 0.530941 0 0 -2.28882e-05
39 1 0.781155 0.875372 0.407891 0 0 9.53674e-06
40 1 0.888684 0.698835 0.674969 0 0 1.33514e-05
41 1 0.608381 0.907171 0.551939 0 0 -7.62939e-06
42 1 0.0477713 0.657204 0.305965 0 0 -1.90735e-06
43 1 0.767714 0.865519 0.183268 0 0 1.14441e-05
44 1 0.500852 0.750375 0.284861 0 0 -1.71661e-05
45 1 0.220508 0.958685 0.161566 0 0 1.52588e-05
46 1 0.328026 0.782192 0.428889 0 0 1.14441e-05
47 1 0.0615102 0.000350745 0.530941 0 0 -2.47955e-05
48 1 0.0477715 0.990537 0.305965 0 0 -3.8147e-06
ITEM: TIMESTEP
11
ITEM: NUMBER OF ATOMS
48
ITEM: BOX BOUNDS xy xz yz pp pp pp
-2.9839990735054016e+00 8.6067802309989929e+00 2.5094206929206848e+00
-9.4973444938659668e-03 9.3236122131347656e+00 -2.9719619750976562e+00
-2.8691649436950684e-02 1.9545819282531738e+01 7.1304261684417725e-02
ITEM: ATOMS id type xs ys zs fx fy fz
1 1 0.939859 0.166987 0.0375001 0 0 -7.62939e-06
2 1 0.488282 0.0738055 0.0616999 0 0 5.72205e-06
3 1 0.341765 0.125339 0.653866 0 0 -1.90735e-06
4 1 0.449677 0.948889 0.92233 0 0 5.72205e-06
5 1 0.169029 0.157191 0.798264 0 0 -1.90735e-06
6 1 0.901254 0.042071 0.89813 0 0 -3.8147e-06
7 1 0.621823 0.250357 0.776562 0 0 0
8 1 0.781155 0.208706 0.407891 0 0 1.71661e-05
9 1 0.888685 0.0321683 0.67497 0 0 -1.90735e-06
10 1 0.608382 0.240504 0.551939 0 0 -9.53674e-06
11 1 0.767714 0.198853 0.183268 0 0 5.72205e-06
12 1 0.500852 0.0837079 0.284861 0 0 -1.90735e-06
13 1 0.220508 0.292018 0.161566 0 0 -9.53674e-06
14 1 0.328027 0.115526 0.428889 0 0 0
15 1 0.939859 0.500321 0.0375 0 0 0
16 1 0.488283 0.407139 0.0616999 0 0 7.62939e-06
17 1 0.341765 0.458672 0.653866 0 0 -3.8147e-06
18 1 0.449677 0.282222 0.92233 0 0 -3.8147e-06
19 1 0.169029 0.490525 0.798264 0 0 1.14441e-05
20 1 0.901254 0.375404 0.89813 0 0 -9.53674e-06
21 1 0.621823 0.58369 0.776562 0 0 -5.72205e-06