ITEM: TIMESTEP
0
ITEM: NUMBER OF ATOMS
48
ITEM: BOX BOUNDS xy xz yz pp pp pp
-5.3004669343689077e+00 8.5889536499827912e+00 2.5120357483981479e+00
-2.3252728783138264e-03 9.4515407374878730e+00 -5.3088714656842670e+00
9.2526380721303085e-04 1.9516202358592782e+01 2.0640487290955647e-01
ITEM: ATOMS id type xs ys zs fx fy fz
1 1 0.949115 0.167048 0.0318988 0 0 3.00268
2 1 0.504176 0.074165 0.0529524 0 0 0.0998803
3 1 0.610875 0.12485 0.656954 0 0 -0.00766181
4 1 0.825689 0.948828 0.927931 0 0 -3.00268
5 1 0.498148 0.157077 0.80274 0 0 -0.00339713
6 1 0.270628 0.0417114 0.906878 0 0 -0.0998814
7 1 0.942969 0.249755 0.781855 0 0 -0.0224113
8 1 0.942565 0.208448 0.407115 0 0 -0.00174149
9 1 0.166194 0.0322453 0.677678 0 0 0.00717716
10 1 0.83224 0.240762 0.552715 0 0 0.00174272
11 1 0.831835 0.199455 0.177975 0 0 0.0224125
12 1 0.608611 0.083631 0.282152 0 0 -0.00717727
13 1 0.276657 0.292133 0.15709 0 0 0.00339772
14 1 0.497904 0.115898 0.427787 0 0 0.000221072
15 1 0.949115 0.500382 0.0318988 0 0 3.00268
16 1 0.504176 0.407498 0.0529524 0 0 0.0998806
17 1 0.610875 0.458184 0.656954 0 0 -0.00766159
18 1 0.825689 0.282161 0.927931 0 0 -3.00268
19 1 0.498148 0.49041 0.80274 0 0 -0.00339679
20 1 0.270628 0.375045 0.906878 0 0 -0.0998816
21 1 0.942969 0.583088 0.781855 0 0 -0.0224115
22 1 0.276901 0.333312 0.532044 0 0 -0.000220691
23 1 0.942564 0.541781 0.407115 0 0 -0.00174133
24 1 0.166194 0.365579 0.677678 0 0 0.00717655
25 1 0.83224 0.574095 0.552715 0 0 0.00174235
26 1 0.16393 0.324359 0.302876 0 0 0.00766167
27 1 0.831835 0.532788 0.177975 0 0 0.0224117
28 1 0.608611 0.416964 0.282152 0 0 -0.00717699
29 1 0.276657 0.625466 0.15709 0 0 0.00339591
30 1 0.497904 0.449231 0.427787 0 0 0.000220183
31 1 0.949115 0.833715 0.0318988 0 0 3.00268
32 1 0.504176 0.740832 0.0529524 0 0 0.0998802
33 1 0.610875 0.791517 0.656954 0 0 -0.00766242
34 1 0.825689 0.615495 0.927931 0 0 -3.00268
35 1 0.498148 0.823743 0.80274 0 0 -0.00339704
36 1 0.270628 0.708378 0.906878 0 0 -0.0998812
37 1 0.942969 0.916422 0.781855 0 0 -0.0224113
38 1 0.276901 0.666645 0.532044 0 0 -0.000220624
39 1 0.942564 0.875115 0.407115 0 0 -0.00174159
40 1 0.166194 0.698912 0.677678 0 0 0.00717668
41 1 0.83224 0.907428 0.552715 0 0 0.00173975
42 1 0.16393 0.657693 0.302876 0 0 0.00766391
43 1 0.831835 0.866121 0.177975 0 0 0.0224127
44 1 0.608611 0.750298 0.282152 0 0 -0.00717617
45 1 0.276657 0.9588 0.15709 0 0 0.00339737
46 1 0.497904 0.782564 0.427787 0 0 0.000220661
47 1 0.276901 0.999979 0.532044 0 0 -0.000221239
48 1 0.16393 0.991026 0.302876 0 0 0.00766186
ITEM: TIMESTEP
11
ITEM: NUMBER OF ATOMS
48
ITEM: BOX BOUNDS xy xz yz pp pp pp
-5.3004669343689077e+00 8.5889536499827912e+00 2.5120357483981479e+00
-2.3252728783138264e-03 9.4515407374878730e+00 -5.3088714656842670e+00
9.2526380721303085e-04 1.9516202358592782e+01 2.0640487290955647e-01
ITEM: ATOMS id type xs ys zs fx fy fz
1 1 0.96277 0.166704 0.0473448 0 0 8.61461e-05
2 1 0.507163 0.0740896 0.0563314 0 0 0.000107829
3 1 0.606952 0.124949 0.652516 0 0 -0.00022841
4 1 0.812034 0.949173 0.912485 0 0 -8.81687e-05
5 1 0.491769 0.157238 0.795524 0 0 1.96354e-05
6 1 0.267641 0.0417868 0.903499 0 0 -0.000108198
7 1 0.936878 0.249909 0.774966 0 0 -0.000339357
8 1 0.943639 0.208421 0.408331 0 0 -0.000545984
9 1 0.162717 0.0323331 0.673745 0 0 -0.000151679
10 1 0.831165 0.240789 0.551499 0 0 0.000546196
11 1 0.837927 0.199301 0.184865 0 0 0.000339351
12 1 0.612088 0.0835433 0.286085 0 0 0.000154729
13 1 0.283035 0.291972 0.164306 0 0 -1.71319e-05
14 1 0.499301 0.115862 0.429367 0 0 -0.000621767
15 1 0.96277 0.500037 0.0473448 0 0 8.05726e-05
16 1 0.507163 0.407423 0.0563314 0 0 0.000108212
17 1 0.606952 0.458283 0.652516 0 0 -0.000230208
18 1 0.812034 0.282506 0.912485 0 0 -8.72567e-05
19 1 0.491769 0.490571 0.795525 0 0 1.36378e-05
20 1 0.267641 0.37512 0.903499 0 0 -0.000108167
21 1 0.936878 0.583242 0.774966 0 0 -0.000342125
22 1 0.275504 0.333347 0.530463 0 0 0.000619111
23 1 0.943639 0.541754 0.408331 0 0 -0.000547588
24 1 0.162717 0.365666 0.673745 0 0 -0.000154115
25 1 0.831165 0.574122 0.551499 0 0 0.000547228
26 1 0.167853 0.32426 0.307314 0 0 0.000229742
27 1 0.837927 0.532634 0.184865 0 0 0.000340296
28 1 0.612088 0.416877 0.286085 0 0 0.000154215
29 1 0.283035 0.625305 0.164306 0 0 -1.58767e-05
30 1 0.499301 0.449196 0.429367 0 0 -0.000618842
31 1 0.96277 0.83337 0.0473448 0 0 8.62621e-05
32 1 0.507163 0.740756 0.0563314 0 0 0.000106141
33 1 0.606952 0.791616 0.652516 0 0 -0.000229006
34 1 0.812034 0.615839 0.912485 0 0 -7.79928e-05
35 1 0.491769 0.823904 0.795524 0 0 1.62512e-05
36 1 0.267641 0.708453 0.903499 0 0 -0.00010455
37 1 0.936878 0.916576 0.774966 0 0 -0.000340324
38 1 0.275504 0.666681 0.530463 0 0 0.000621956
39 1 0.943639 0.875088 0.408331 0 0 -0.000546648
40 1 0.162717 0.699 0.673745 0 0 -0.000155014
41 1 0.831165 0.907455 0.551499 0 0 0.00054859
42 1 0.167853 0.657594 0.307314 0 0 0.000228251
43 1 0.837927 0.865967 0.184865 0 0 0.000340895
44 1 0.612088 0.75021 0.286085 0 0 0.000153909
45 1 0.283035 0.958639 0.164306 0 0 -1.54801e-05
46 1 0.499301 0.782529 0.429367 0 0 -0.000621453
47 1 0.275504 1.00001 0.530463 0 0 0.000617919
48 1 0.167853 0.990927 0.307314 0 0 0.000228429
