ITEM: TIMESTEP
0
ITEM: NUMBER OF ATOMS
56
ITEM: BOX BOUNDS xy xz yz pp pp pp
-9.9002748727798462e-01 1.2206987559795380e+01 -4.7683715820312500e-07
-7.5370073318481445e-03 5.5339480042457581e+00 -9.6813929080963135e-01
-3.2569408416748047e-02 1.9052529454231262e+01 2.8610229492187500e-06
ITEM: ATOMS id type xs ys zs fx fy fz
1 1 0.56005 1 0.132369 0 0.01503 0.125317
2 1 0.310049 0.166667 0.132369 0 -0.0150303 0.125317
3 1 0.208254 1 0.275226 0 0.000712991 0.000203967
4 1 0.958254 0.166667 0.275226 0 -0.000712991 0.000204086
5 1 0.856459 5.00995e-07 0.418084 0 -7.89165e-05 0.000284672
6 1 0.0600495 1 0.132369 0 0.0150304 0.125317
7 1 0.985948 0.5 0.0609408 0 -0.0548456 0.134967
8 1 0.810049 0.166667 0.132369 0 -0.0150305 0.125318
9 1 0.735948 0.666667 0.0609408 0 0.0548458 0.134967
10 1 0.708254 1 0.275226 0 0.000713229 0.000203729
11 1 0.606459 0.166667 0.418084 0 7.93934e-05 0.000285268
12 1 0.504665 5.53965e-07 0.560941 0 -2.34842e-05 -0.000134945
13 1 0.254665 0.166667 0.560941 0 2.37226e-05 -0.000135064
14 1 0.15287 1.60387e-07 0.703798 0 -6.69956e-05 -0.00020659
15 1 0.90287 0.166667 0.703798 0 6.74725e-05 -0.00020659
16 1 0.801075 1 0.846655 0 0.00267959 -0.00117016
17 1 0.634152 0.5 0.203798 0 0.00268006 0.0011704
18 1 0.458254 0.166667 0.275226 0 -0.000713348 0.000204206
19 1 0.384151 0.666667 0.203798 0 -0.00267899 0.00117064
20 1 0.356459 5.02326e-07 0.418084 0 -7.90358e-05 0.000284553
21 1 0.282356 0.5 0.346655 0 -6.74725e-05 0.00020647
22 1 0.106459 0.166667 0.418084 0 7.93934e-05 0.00028491
23 1 0.0323562 0.666667 0.346655 0 6.69956e-05 0.00020647
24 1 0.00466481 5.42012e-07 0.560941 0 -2.31266e-05 -0.000135303
25 1 0.930562 0.500001 0.489512 0 -2.38419e-05 0.000135183
26 1 0.754665 0.166667 0.560941 0 2.38419e-05 -0.000135899
27 1 0.680562 0.666667 0.489512 0 2.3365e-05 0.000135422
28 1 0.485948 0.5 0.0609408 0 -0.0548458 0.134967
29 1 0.235948 0.666667 0.0609408 0 0.0548458 0.134967
30 1 0.134152 0.5 0.203798 0 0.00267994 0.00117052
31 1 0.884152 0.666667 0.203798 0 -0.00267935 0.00117064
32 1 0.782356 0.5 0.346655 0 -6.73532e-05 0.000206709
33 1 0.551075 0.166667 0.846655 0 -0.00268006 -0.0011704
34 1 0.449279 1 0.989512 0 -0.0548455 -0.134967
35 1 0.199279 0.166667 0.989512 0 0.0548455 -0.134967
36 1 0.65287 1.92026e-07 0.703798 0 -6.68764e-05 -0.00020647
37 1 0.578768 0.500001 0.632369 0 -7.96318e-05 -0.000284791
38 1 0.40287 0.166667 0.703798 0 6.74725e-05 -0.000206947
39 1 0.328768 0.666667 0.632369 0 7.89165e-05 -0.000284791
40 1 0.301075 1 0.846655 0 0.00267959 -0.00116992
41 1 0.226973 0.5 0.775226 0 0.000713468 -0.000203848
42 1 0.0510751 0.166667 0.846655 0 -0.00267971 -0.00117087
43 1 0.976973 0.666667 0.775226 0 -0.00071311 -0.000203729
44 1 0.949279 1 0.989512 0 -0.0548457 -0.134967
45 1 0.875177 0.5 0.918083 0 0.0150301 -0.125317
46 1 0.532356 0.666667 0.346655 0 6.67572e-05 0.000206232
47 1 0.430562 0.500001 0.489512 0 -2.36034e-05 0.000134945
48 1 0.180562 0.666667 0.489512 0 2.31266e-05 0.000135183
49 1 0.0787677 0.5 0.632369 0 -7.96318e-05 -0.000284791
50 1 0.828768 0.666667 0.632369 0 7.89165e-05 -0.000284672
51 1 0.726973 0.5 0.775226 0 0.00071311 -0.000203967
52 1 0.699279 0.166667 0.989512 0 0.0548457 -0.134968
53 1 0.625177 0.666667 0.918083 0 -0.0150303 -0.125317
54 1 0.476973 0.666667 0.775226 0 -0.000713229 -0.000203967
55 1 0.375177 0.5 0.918083 0 0.0150304 -0.125317
56 1 0.125177 0.666667 0.918083 0 -0.0150307 -0.125317
ITEM: TIMESTEP
1
ITEM: NUMBER OF ATOMS
56
ITEM: BOX BOUNDS xy xz yz pp pp pp
-9.9002748727798462e-01 1.2206987559795380e+01 -4.7683715820312500e-07
-7.5370073318481445e-03 5.5339480042457581e+00 -9.6813929080963135e-01
-3.2569408416748047e-02 1.9052529454231262e+01 2.8610229492187500e-06
ITEM: ATOMS id type xs ys zs fx fy fz
1 1 0.560204 1.00081 0.134323 0 -0.0042938 -0.0128541
2 1 0.310204 0.16586 0.134323 0 0.0042938 -0.0128541
3 1 0.208254 1.00004 0.27523 0 -0.00578153 0.0353825
4 1 0.958254 0.166629 0.27523 0 0.00578117 0.0353831
5 1 0.856459 -3.73556e-06 0.418088 0 -0.000572205 0.00104034
6 1 0.0602042 1.00081 0.134323 0 -0.00429404 -0.0128543
7 1 0.986114 0.497055 0.0630446 0 -0.0302376 -0.0242161
8 1 0.810204 0.16586 0.134323 0 0.00429368 -0.0128543
9 1 0.736114 0.669612 0.0630446 0 0.030238 -0.0242162
10 1 0.708254 1.00004 0.27523 0 -0.00578141 0.0353826
11 1 0.606459 0.166671 0.418088 0 0.000571728 0.00104046
12 1 0.504665 -7.0676e-07 0.560939 0 0.000101209 0.000868201
13 1 0.254665 0.166668 0.560939 0 -0.000101328 0.000868559
14 1 0.15287 -3.4362e-06 0.703795 0 -0.00168419 -0.00564659
15 1 0.90287 0.166671 0.703795 0 0.00168419 -0.00564671
16 1 0.801074 1.00014 0.846637 0 0.00437641 -0.0421066
17 1 0.634153 0.500144 0.203816 0 0.00437641 0.0421071
18 1 0.458254 0.166629 0.27523 0 0.00578141 0.0353827
19 1 0.384153 0.666524 0.203816 0 -0.00437653 0.0421069
20 1 0.356459 -3.74063e-06 0.418088 0 -0.000571728 0.00104046
21 1 0.282356 0.499997 0.346658 0 -0.00168419 0.00564706
22 1 0.106459 0.166671 0.418088 0 0.000571132 0.0010401
23 1 0.0323565 0.666671 0.346658 0 0.00168443 0.0056473
24 1 0.00466465 -6.99515e-07 0.560939 0 0.000100851 0.000868201
25 1 0.930562 0.499999 0.489514 0 0.000101566 -0.00086844
26 1 0.754665 0.166668 0.560939 0 -0.000101209 0.00086832
27 1 0.680562 0.666668 0.489514 0 -0.000101328 -0.00086832
28 1 0.486114 0.497055 0.0630446 0 -0.0302376 -0.0242159
29 1 0.236114 0.669612 0.0630446 0 0.0302378 -0.0242162
30 1 0.134153 0.500144 0.203816 0 0.00437677 0.0421067
31 1 0.884153 0.666524 0.203816 0 -0.00437665 0.042107
32 1 0.782356 0.499997 0.346658 0 -0.00168407 0.00564682
33 1 0.551074 0.166524 0.846637 0 -0.00437665 -0.042107
34 1 0.449112 0.997055 0.987408 0 -0.0302385 0.0242159
35 1 0.199112 0.169612 0.987408 0 0.0302378 0.0242158
36 1 0.65287 -3.39816e-06 0.703795 0 -0.00168478 -0.00564671
37 1 0.578767 0.499996 0.632365 0 -0.000570893 -0.00104046
38 1 0.40287 0.166671 0.703795 0 0.00168359 -0.00564694
39 1 0.328767 0.666671 0.632365 0 0.000571847 -0.00104058
40 1 0.301074 1.00014 0.846637 0 0.00437677 -0.0421069
41 1 0.226973 0.500038 0.775223 0 -0.00578117 -0.0353831
42 1 0.0510737 0.166524 0.846637 0 -0.00437653 -0.042107
43 1 0.976973 0.666629 0.775223 0 0.00578177 -0.0353829
44 1 0.949112 0.997055 0.987408 0 -0.0302382 0.0242163
45 1 0.875022 0.500807 0.91613 0 -0.00429392 0.0128539
46 1 0.532356 0.666671 0.346658 0 0.00168443 0.00564682
47 1 0.430562 0.499999 0.489514 0 0.00010097 -0.000868201
48 1 0.180562 0.666668 0.489514 0 -0.00010097 -0.000868201
49 1 0.0787673 0.499996 0.632365 0 -0.000571132 -0.00104034
50 1 0.828767 0.666671 0.632365 0 0.000571847 -0.00104058
51 1 0.726973 0.500038 0.775223 0 -0.00578129 -0.0353829
52 1 0.699112 0.169612 0.987408 0 0.0302374 0.0242165
53 1 0.625022 0.66586 0.91613 0 0.00429428 0.0128543
54 1 0.476973 0.666629 0.775223 0 0.00578165 -0.0353829
55 1 0.375022 0.500807 0.91613 0 -0.0042938 0.0128541
56 1 0.125022 0.66586 0.91613 0 0.00429416 0.0128542
ITEM: TIMESTEP
2
ITEM: NUMBER OF ATOMS
56
ITEM: BOX BOUNDS xy xz yz pp pp pp
-9.9002748727798462e-01 1.2206987559795380e+01 -4.7683715820312500e-07
-7.5370073318481445e-03 5.5339480042457581e+00 -9.6813929080963135e-01
-3.2569408416748047e-02 1.9052529454231262e+01 2.8610229492187500e-06
ITEM: ATOMS id type xs ys zs fx fy fz
1 1 0.560231 1.00072 0.134665 0 -0.013429 -0.00662851
2 1 0.310231 0.165948 0.134665 0 0.0134298 -0.00662923
3 1 0.208322 0.99957 0.276085 0 0.00262642 0.00488973
4 1 0.958322 0.167097 0.276085 0 -0.00262594 0.00488901
5 1 0.856461 -5.27503e-05 0.418115 0 -0.002648 0.0162758
6 1 0.0602313 1.00072 0.134665 0 -0.0134289 -0.00662816
7 1 0.986124 0.493556 0.0631631 0 0.0026269 -0.019541
8 1 0.810231 0.165948 0.134665 0 0.0134301 -0.00662911
9 1 0.736124 0.673111 0.0631631 0 -0.00262833 -0.0195409
10 1 0.708322 0.99957 0.276085 0 0.00262606 0.00488997
11 1 0.606461 0.16672 0.418115 0 0.00264823 0.0162754
12 1 0.504666 7.29068e-06 0.560959 0 -0.00156832 -0.00349629
13 1 0.254666 0.16666 0.560959 0 0.00156856 -0.00349724
14 1 0.152859 -0.000144736 0.703657 0 -0.00276756 -0.0210931
15 1 0.902859 0.166812 0.703657 0 0.00276768 -0.0210925
16 1 0.800993 1.00056 0.845614 0 -0.00350642 0.000211954
17 1 0.634234 0.500556 0.204839 0 -0.00350678 -0.000213265
18 1 0.458322 0.167097 0.276085 0 -0.00262582 0.00488913
19 1 0.384234 0.666111 0.204839 0 0.00350595 -0.000212431
20 1 0.356461 -5.27178e-05 0.418115 0 -0.00264871 0.0162762
21 1 0.282367 0.499855 0.346796 0 -0.0027678 0.0210919
22 1 0.106461 0.16672 0.418115 0 0.00264871 0.0162761
23 1 0.0323673 0.666812 0.346796 0 0.00276697 0.0210923
24 1 0.00466625 7.2746e-06 0.560959 0 -0.00156808 -0.00349653
25 1 0.93056 0.500007 0.489494 0 -0.00156915 0.003497
26 1 0.754666 0.16666 0.560959 0 0.00156868 -0.00349653
27 1 0.68056 0.66666 0.489494 0 0.00156856 0.00349605
28 1 0.486124 0.493556 0.0631631 0 0.00262702 -0.0195409
29 1 0.236124 0.673111 0.0631631 0 -0.00262821 -0.0195411
30 1 0.134234 0.500556 0.204839 0 -0.00350678 -0.00021255
31 1 0.884234 0.666111 0.204839 0 0.00350618 -0.000212669
32 1 0.782367 0.499855 0.346796 0 -0.00276792 0.0210923
33 1 0.550993 0.166111 0.845614 0 0.00350666 0.000212669
34 1 0.449103 0.993556 0.98729 0 0.00262809 0.0195415
35 1 0.199103 0.173111 0.98729 0 -0.00262737 0.0195413
36 1 0.652859 -0.000144746 0.703657 0 -0.00276721 -0.0210929
37 1 0.578765 0.499947 0.632338 0 -0.00264907 -0.0162755
38 1 0.402859 0.166812 0.703657 0 0.00276816 -0.0210925
39 1 0.328765 0.66672 0.632338 0 0.00264823 -0.0162756
40 1 0.300993 1.00056 0.845614 0 -0.00350666 0.000212193
41 1 0.226905 0.49957 0.774368 0 0.00262594 -0.00488901
42 1 0.0509927 0.166111 0.845614 0 0.00350702 0.000213146
43 1 0.976905 0.667097 0.774368 0 -0.00262606 -0.00488961
44 1 0.949103 0.993556 0.98729 0 0.00262809 0.0195411
45 1 0.874995 0.500719 0.915788 0 -0.0134295 0.00662923
46 1 0.532367 0.666812 0.346796 0 0.00276768 0.0210931
47 1 0.43056 0.500007 0.489494 0 -0.0015682 0.00349665
48 1 0.18056 0.66666 0.489494 0 0.00156856 0.00349665
49 1 0.0787652 0.499947 0.632338 0 -0.00264859 -0.0162755
50 1 0.828765 0.66672 0.632338 0 0.00264847 -0.0162758
51 1 0.726905 0.49957 0.774368 0 0.00262582 -0.00488901
52 1 0.699103 0.173111 0.98729 0 -0.0026269 0.0195408
53 1 0.624995 0.665948 0.915788 0 0.0134289 0.00662863
54 1 0.476905 0.667097 0.774368 0 -0.00262606 -0.00488949
55 1 0.374995 0.500719 0.915788 0 -0.0134293 0.00662899
56 1 0.124995 0.665948 0.915788 0 0.0134293 0.00662827
ITEM: TIMESTEP
3
ITEM: NUMBER OF ATOMS
56
ITEM: BOX BOUNDS xy xz yz pp pp pp
-9.9002748727798462e-01 1.2206987559795380e+01 -4.7683715820312500e-07
-7.5370073318481445e-03 5.5339480042457581e+00 -9.6813929080963135e-01
-3.2569408416748047e-02 1.9052529454231262e+01 2.8610229492187500e-06
ITEM: ATOMS id type xs ys zs fx fy fz
1 1 0.560223 0.999723 0.134561 0 -0.000613689 0.00929141
2 1 0.310223 0.166945 0.134561 0 0.000612378 0.00929272
3 1 0.208337 0.999713 0.276282 0 3.19481e-05 0.00161397
4 1 0.958337 0.166954 0.276282 0 -3.24249e-05 0.00161409
5 1 0.856489 -0.000252741 0.418465 0 -0.00124037 0.00411773
6 1 0.060223 0.999723 0.134561 0 -0.000613451 0.00929081
7 1 0.986092 0.493371 0.0627587 0 0.00119185 0.00671434
8 1 0.810223 0.166945 0.134561 0 0.000612736 0.00929224
9 1 0.736092 0.673296 0.0627587 0 -0.00119126 0.00671494
10 1 0.708337 0.999713 0.276282 0 3.19481e-05 0.00161314
11 1 0.606489 0.16692 0.418465 0 0.0012399 0.00411713
12 1 0.504661 -0.000107159 0.560886 0 -0.00260055 -0.00319552
13 1 0.254661 0.166774 0.560886 0 0.00260043 -0.00319505
14 1 0.152823 -0.000363482 0.703192 0 -0.000209928 -0.00331271
15 1 0.902822 0.167031 0.703192 0 0.000210285 -0.00331342
16 1 0.800984 1.00034 0.845508 0 -0.00188863 0.00225818
17 1 0.634242 0.500342 0.204945 0 -0.00188744 -0.00225759
18 1 0.458337 0.166954 0.276282 0 -3.23057e-05 0.00161445
19 1 0.384242 0.666325 0.204945 0 0.00188887 -0.00225866
20 1 0.356489 -0.000252757 0.418465 0 -0.00123966 0.00411677
21 1 0.282404 0.499637 0.347261 0 -0.000210166 0.00331354
22 1 0.106489 0.16692 0.418465 0 0.00124002 0.00411713
23 1 0.0324042 0.667031 0.347261 0 0.000210166 0.00331306
24 1 0.00466052 -0.00010716 0.560886 0 -0.00260067 -0.00319529
25 1 0.930566 0.499893 0.489566 0 -0.00259995 0.00319576
26 1 0.754661 0.166774 0.560886 0 0.00260019 -0.00319576
27 1 0.680566 0.666774 0.489566 0 0.00260067 0.00319588
28 1 0.486092 0.493371 0.0627587 0 0.00119174 0.00671446
29 1 0.236092 0.673296 0.0627587 0 -0.00119138 0.0067147
30 1 0.134242 0.500342 0.204945 0 -0.00188804 -0.00225842
31 1 0.884242 0.666325 0.204945 0 0.00188887 -0.00225794
32 1 0.782404 0.499636 0.347261 0 -0.000210047 0.00331318
33 1 0.550984 0.166325 0.845508 0 0.00188804 0.00225782
34 1 0.449135 0.993371 0.987694 0 0.00119185 -0.00671494
35 1 0.199135 0.173296 0.987694 0 -0.00119197 -0.0067147
36 1 0.652822 -0.00036347 0.703192 0 -0.000209928 -0.00331283
37 1 0.578737 0.499747 0.631988 0 -0.00123978 -0.00411701
38 1 0.402822 0.167031 0.703192 0 0.000209928 -0.0033133
39 1 0.328737 0.66692 0.631988 0 0.0012399 -0.00411773
40 1 0.300984 1.00034 0.845508 0 -0.00188804 0.00225806
41 1 0.226889 0.499713 0.774171 0 3.21865e-05 -0.00161374
42 1 0.0509843 0.166325 0.845508 0 0.00188744 0.0022577
43 1 0.976889 0.666954 0.774171 0 -3.19481e-05 -0.00161421
44 1 0.949135 0.993371 0.987694 0 0.00119174 -0.0067147
45 1 0.875004 0.499723 0.915892 0 -0.000613093 -0.00929189
46 1 0.532404 0.667031 0.347261 0 0.000209808 0.00331271
47 1 0.430566 0.499893 0.489566 0 -0.00260067 0.00319552
48 1 0.180566 0.666774 0.489566 0 0.00260019 0.00319552
49 1 0.0787375 0.499747 0.631988 0 -0.00124002 -0.00411737
50 1 0.828737 0.66692 0.631988 0 0.00124013 -0.00411725
51 1 0.726889 0.499713 0.774171 0 3.25441e-05 -0.00161409
52 1 0.699135 0.173296 0.987694 0 -0.00119197 -0.00671434
53 1 0.625004 0.666945 0.915892 0 0.000613213 -0.00929213
54 1 0.476889 0.666954 0.774171 0 -3.18289e-05 -0.0016135
55 1 0.375004 0.499723 0.915892 0 -0.000613689 -0.00929177
56 1 0.125004 0.666945 0.915892 0 0.000613928 -0.00929117
ITEM: TIMESTEP
4
ITEM: NUMBER OF ATOMS
56
ITEM: BOX BOUNDS xy xz yz pp pp pp
-9.9002748727798462e-01 1.2206987559795380e+01 -4.7683715820312500e-07
-7.5370073318481445e-03 5.5339480042457581e+00 -9.6813929080963135e-01
-3.2569408416748047e-02 1.9052529454231262e+01 2.8610229492187500e-06
ITEM: ATOMS id type xs ys zs fx fy fz
1 1 0.560236 0.999553 0.134725 0 0.00156021 0.000722766
2 1 0.310236 0.167114 0.134725 0 -0.00155902 0.000722647
3 1 0.208342 0.999733 0.276339 0 -0.00132787 0.00452244
4 1 0.958342 0.166934 0.276339 0 0.00132799 0.00452256
5 1 0.856499 -0.000360608 0.418589 0 -0.000852346 -0.00116289
6 1 0.060236 0.999553 0.134725 0 0.00155962 0.000723481
7 1 0.986098 0.493426 0.0628351 0 -0.000348926 -5.40018e-05
8 1 0.810236 0.167114 0.134725 0 -0.00155938 0.000722766
9 1 0.736098 0.673241 0.0628351 0 0.000350118 -5.4121e-05
10 1 0.708342 0.999733 0.276339 0 -0.0013274 0.0045228
11 1 0.606499 0.167028 0.418589 0 0.000852227 -0.00116241
12 1 0.504655 -0.000293793 0.560816 0 -0.0013032 0.000175238
13 1 0.254655 0.166961 0.560816 0 0.00130332 0.000175357
14 1 0.152813 -0.000405706 0.703068 0 5.19753e-05 0.000859499
15 1 0.902813 0.167073 0.703068 0 -5.20945e-05 0.000859737
16 1 0.800987 1.00019 0.845537 0 0.000190616 -0.00399101
17 1 0.63424 0.50019 0.204916 0 0.000189424 0.00399101
18 1 0.458342 0.166934 0.276339 0 0.00132787 0.00452268
19 1 0.38424 0.666477 0.204916 0 -0.000190973 0.00399148
20 1 0.356499 -0.000360583 0.418589 0 -0.000852466 -0.00116229
21 1 0.282414 0.499594 0.347385 0 5.22137e-05 -0.000859857
22 1 0.106499 0.167028 0.418589 0 0.000852346 -0.00116241
23 1 0.032414 0.667073 0.347385 0 -5.17368e-05 -0.000859499
24 1 0.00465492 -0.0002938 0.560816 0 -0.00130332 0.000175238
25 1 0.930572 0.499706 0.489637 0 -0.00130308 -0.000175834
26 1 0.754655 0.166961 0.560816 0 0.0013032 0.000175476
27 1 0.680572 0.666961 0.489637 0 0.00130308 -0.000175357
28 1 0.486098 0.493426 0.0628351 0 -0.000349522 -5.37634e-05
29 1 0.236098 0.673241 0.0628351 0 0.000349402 -5.40018e-05
30 1 0.13424 0.50019 0.204916 0 0.000190258 0.00399125
31 1 0.88424 0.666477 0.204916 0 -0.000190973 0.00399113
32 1 0.782414 0.499594 0.347385 0 5.20945e-05 -0.000859261
33 1 0.550987 0.166477 0.845537 0 -0.000189781 -0.00399089
34 1 0.449129 0.993426 0.987618 0 -0.000350356 5.3525e-05
35 1 0.199129 0.173241 0.987618 0 0.000349522 5.44786e-05
36 1 0.652813 -0.000405692 0.703068 0 5.20945e-05 0.000859499
37 1 0.578728 0.499639 0.631863 0 -0.000852227 0.00116229
38 1 0.402813 0.167073 0.703068 0 -5.1856e-05 0.000859857
39 1 0.328728 0.667028 0.631863 0 0.000852227 0.00116265
40 1 0.300987 1.00019 0.845537 0 0.000190258 -0.00399089
41 1 0.226885 0.499733 0.774114 0 -0.00132751 -0.00452292
42 1 0.0509867 0.166477 0.845537 0 -0.000189662 -0.00399101
43 1 0.976885 0.666934 0.774114 0 0.00132716 -0.00452256
44 1 0.949129 0.993426 0.987618 0 -0.000350237 5.37634e-05
45 1 0.874991 0.499553 0.915727 0 0.00155962 -0.000723004
46 1 0.532414 0.667073 0.347385 0 -5.1856e-05 -0.000859737
47 1 0.430572 0.499706 0.489637 0 -0.0013032 -0.000175595
48 1 0.180572 0.666961 0.489637 0 0.00130332 -0.000175476
49 1 0.0787276 0.499639 0.631863 0 -0.000852108 0.00116241
50 1 0.828728 0.667028 0.631863 0 0.000852466 0.00116277
51 1 0.726885 0.499733 0.774114 0 -0.00132811 -0.00452268
52 1 0.699129 0.173241 0.987618 0 0.000349402 5.38826e-05
53 1 0.624991 0.667114 0.915727 0 -0.00155973 -0.000722647
54 1 0.476885 0.666934 0.774114 0 0.00132716 -0.00452268
55 1 0.374991 0.499553 0.915727 0 0.00155985 -0.000722885
56 1 0.124991 0.667114 0.915727 0 -0.00156009 -0.000723004
ITEM: TIMESTEP
5
ITEM: NUMBER OF ATOMS
56
ITEM: BOX BOUNDS xy xz yz pp pp pp
-9.9002748727798462e-01 1.2206987559795380e+01 -4.7683715820312500e-07
-7.5370073318481445e-03 5.5339480042457581e+00 -9.6813929080963135e-01
-3.2569408416748047e-02 1.9052529454231262e+01 2.8610229492187500e-06
ITEM: ATOMS id type xs ys zs fx fy fz
1 1 0.560242 0.999646 0.134807 0 0.000196099 -0.000550032
2 1 0.310242 0.167022 0.134807 0 -0.000197053 -0.000550508
3 1 0.208354 0.999609 0.27649 0 0.000238061 -0.000314593
4 1 0.958354 0.167058 0.27649 0 -0.00023818 -0.000314355
5 1 0.8565 -0.000485121 0.418602 0 -0.00030005 0.000813723
6 1 0.0602425 0.999645 0.134807 0 0.000196934 -0.000550508
7 1 0.9861 0.493411 0.0628616 0 0.000254869 -0.000774622
8 1 0.810242 0.167022 0.134807 0 -0.000196457 -0.00055027
9 1 0.7361 0.673256 0.0628616 0 -0.000257015 -0.00077498
10 1 0.708354 0.999609 0.27649 0 0.000237584 -0.000314355
11 1 0.6065 0.167152 0.418602 0 0.000300288 0.000813961
12 1 0.504653 -0.000492163 0.560795 0 0.000204325 0.000937104
13 1 0.254653 0.167159 0.560795 0 -0.000204682 0.000936866
14 1 0.152811 -0.000416086 0.703047 0 -0.000613689 -0.00134814
15 1 0.902811 0.167083 0.703047 0 0.000614047 -0.00134802
16 1 0.800978 1.00015 0.845433 0 0.000468135 -0.000990152
17 1 0.634248 0.500153 0.20502 0 0.00046885 0.000990272
18 1 0.458354 0.167058 0.27649 0 -0.000237942 -0.000315189
19 1 0.384248 0.666514 0.20502 0 -0.0004673 0.000989914
20 1 0.3565 -0.000485093 0.418602 0 -0.000300646 0.000813484
21 1 0.282416 0.499584 0.347406 0 -0.000614047 0.00134802
22 1 0.1065 0.167152 0.418602 0 0.000300288 0.000813961
23 1 0.0324156 0.667083 0.347406 0 0.000614047 0.00134802
24 1 0.00465326 -0.000492184 0.560795 0 0.00020504 0.000936985
25 1 0.930573 0.499508 0.489658 0 0.000204444 -0.000936866
26 1 0.754653 0.167159 0.560795 0 -0.000204325 0.000936985
27 1 0.680573 0.667159 0.489658 0 -0.000204563 -0.000936747
28 1 0.4861 0.493411 0.0628616 0 0.000255466 -0.00077486
29 1 0.2361 0.673256 0.0628616 0 -0.000255466 -0.000774145
30 1 0.134248 0.500153 0.20502 0 0.000467777 0.000989914
31 1 0.884248 0.666514 0.20502 0 -0.00046742 0.000990033
32 1 0.782416 0.499584 0.347406 0 -0.000613809 0.00134742
33 1 0.550978 0.166514 0.845433 0 -0.00046885 -0.000989795
34 1 0.449127 0.993411 0.987591 0 0.000256658 0.000775695
35 1 0.199127 0.173256 0.987591 0 -0.000255466 0.000774264
36 1 0.652811 -0.000416059 0.703047 0 -0.000614166 -0.00134802
37 1 0.578727 0.499515 0.631851 0 -0.000300169 -0.000813842
38 1 0.402811 0.167083 0.703047 0 0.000613689 -0.00134838
39 1 0.328727 0.667152 0.631851 0 0.000300884 -0.000813365
40 1 0.300978 1.00015 0.845433 0 0.000468493 -0.000990033
41 1 0.226873 0.499609 0.773963 0 0.000237346 0.000314474
42 1 0.0509784 0.166514 0.845433 0 -0.000468373 -0.000989914
43 1 0.976873 0.667058 0.773963 0 -0.000237346 0.000315189
44 1 0.949127 0.993411 0.987591 0 0.000256538 0.000775099
45 1 0.874984 0.499645 0.915646 0 0.000196218 0.000550151
46 1 0.532416 0.667083 0.347406 0 0.000613809 0.00134814
47 1 0.430573 0.499508 0.489658 0 0.000204682 -0.000936866
48 1 0.180573 0.667159 0.489658 0 -0.000204921 -0.000936985
49 1 0.0787267 0.499515 0.631851 0 -0.000300646 -0.000813484
50 1 0.828727 0.667152 0.631851 0 0.000299692 -0.000813961
51 1 0.726873 0.499609 0.773963 0 0.000238299 0.000314474
52 1 0.699127 0.173256 0.987591 0 -0.000255466 0.000774503
53 1 0.624984 0.667022 0.915646 0 -0.000196576 0.000550032
54 1 0.476873 0.667058 0.773963 0 -0.000237465 0.000314593
55 1 0.374984 0.499645 0.915646 0 0.000196099 0.000549793
56 1 0.124984 0.667022 0.915646 0 -0.000196576 0.000549912
ITEM: TIMESTEP
6
ITEM: NUMBER OF ATOMS
56
ITEM: BOX BOUNDS xy xz yz pp pp pp
-9.9002748727798462e-01 1.2206987559795380e+01 -4.7683715820312500e-07
-7.5370073318481445e-03 5.5339480042457581e+00 -9.6813929080963135e-01
-3.2569408416748047e-02 1.9052529454231262e+01 2.8610229492187500e-06
ITEM: ATOMS id type xs ys zs fx fy fz
1 1 0.560242 0.999669 0.134803 0 -8.9407e-06 0.000170946
2 1 0.310242 0.166998 0.134803 0 8.70228e-06 0.000170946
3 1 0.208354 0.999614 0.276498 0 0.000171542 -0.000132561
4 1 0.958354 0.167053 0.276498 0 -0.000170708 -0.000133038
5 1 0.856501 -0.000519352 0.41862 0 9.84669e-05 0.000461817
6 1 0.0602422 0.999669 0.134803 0 -8.70228e-06 0.000170946
7 1 0.986099 0.493429 0.0628477 0 0.000277162 0.000605702
8 1 0.810242 0.166998 0.134803 0 7.98702e-06 0.000170588
9 1 0.736099 0.673238 0.0628477 0 -0.000276208 0.000605702
10 1 0.708354 0.999614 0.276498 0 0.000171304 -0.000132561
11 1 0.606501 0.167186 0.41862 0 -9.799e-05 0.000461221
12 1 0.504655 -0.0004965 0.560813 0 -1.2517e-05 -0.000356913
13 1 0.254655 0.167164 0.560813 0 1.23978e-05 -0.000356555
14 1 0.152809 -0.000462247 0.703016 0 -0.00020504 -0.000235081
15 1 0.902809 0.167129 0.703016 0 0.000204086 -0.000235081
16 1 0.800976 1.00018 0.845402 0 0.000216603 0.000144482
17 1 0.634251 0.500184 0.205051 0 0.000216961 -0.000144243
18 1 0.458354 0.167053 0.276498 0 -0.000171423 -0.00013268
19 1 0.384251 0.666484 0.205051 0 -0.000217319 -0.000144243
20 1 0.356501 -0.000519368 0.41862 0 9.87053e-05 0.000461936
21 1 0.282418 0.499538 0.347436 0 -0.000204444 0.000235558
22 1 0.106501 0.167186 0.41862 0 -9.81092e-05 0.000461102
23 1 0.0324181 0.667129 0.347436 0 0.000203967 0.000235319
24 1 0.00465468 -0.00049647 0.560813 0 -1.29938e-05 -0.000356674
25 1 0.930572 0.499504 0.48964 0 -1.28746e-05 0.000356555
26 1 0.754655 0.167164 0.560813 0 1.26362e-05 -0.000356555
27 1 0.680572 0.667164 0.48964 0 1.26362e-05 0.000356317
28 1 0.486099 0.493429 0.0628477 0 0.0002774 0.000605583
29 1 0.236099 0.673238 0.0628477 0 -0.000277042 0.00060463
30 1 0.134251 0.500184 0.205051 0 0.000216961 -0.000143647
31 1 0.884251 0.666483 0.205051 0 -0.000216961 -0.000144482
32 1 0.782418 0.499538 0.347436 0 -0.000204325 0.000235558
33 1 0.550976 0.166483 0.845402 0 -0.000216842 0.000143647
34 1 0.449128 0.993429 0.987605 0 0.000276566 -0.000605822
35 1 0.199128 0.173238 0.987605 0 -0.000277042 -0.000605464
36 1 0.652809 -0.000462254 0.703016 0 -0.000204682 -0.0002352
37 1 0.578725 0.499481 0.631833 0 9.81092e-05 -0.00046134
38 1 0.402809 0.167129 0.703016 0 0.000204325 -0.000234842
39 1 0.328725 0.667186 0.631833 0 -9.84669e-05 -0.00046134
40 1 0.300976 1.00018 0.845402 0 0.000216007 0.000144362
41 1 0.226872 0.499614 0.773955 0 0.000171423 0.000132561
42 1 0.0509759 0.166483 0.845402 0 -0.000216246 0.000143766
43 1 0.976872 0.667053 0.773955 0 -0.000171304 0.000132203
44 1 0.949128 0.993429 0.987605 0 0.000276923 -0.000605702
45 1 0.874984 0.499669 0.91565 0 -8.34465e-06 -0.000170827
46 1 0.532418 0.667129 0.347436 0 0.000204444 0.000235319
47 1 0.430572 0.499504 0.48964 0 -1.27554e-05 0.000356436
48 1 0.180572 0.667164 0.48964 0 1.28746e-05 0.000356674
49 1 0.0787252 0.499481 0.631833 0 9.89437e-05 -0.000461459
50 1 0.828725 0.667186 0.631833 0 -9.799e-05 -0.00046134
51 1 0.726872 0.499614 0.773955 0 0.000171423 0.000132561
52 1 0.699128 0.173238 0.987605 0 -0.000277519 -0.000605345
53 1 0.624984 0.666998 0.91565 0 9.05991e-06 -0.000170708
54 1 0.476872 0.667053 0.773955 0 -0.000171423 0.000132203
55 1 0.374984 0.499669 0.91565 0 -7.7486e-06 -0.000170588
56 1 0.124984 0.666998 0.91565 0 8.34465e-06 -0.00017035
ITEM: TIMESTEP
7
ITEM: NUMBER OF ATOMS
56
ITEM: BOX BOUNDS xy xz yz pp pp pp
-9.9002748727798462e-01 1.2206987559795380e+01 -4.7683715820312500e-07
-7.5370073318481445e-03 5.5339480042457581e+00 -9.6813929080963135e-01
-3.2569408416748047e-02 1.9052529454231262e+01 2.8610229492187500e-06
ITEM: ATOMS id type xs ys zs fx fy fz
1 1 0.560242 0.999672 0.134806 0 9.41753e-05 -0.000101924
2 1 0.310242 0.166995 0.134806 0 -9.38177e-05 -0.000102401
3 1 0.208354 0.999626 0.276497 0 4.41074e-06 0.000218391
4 1 0.958354 0.167041 0.276497 0 -5.24521e-06 0.000218153
5 1 0.856502 -0.000517985 0.418632 0 -4.17233e-06 -0.000102043
6 1 0.0602424 0.999672 0.134806 0 9.33409e-05 -0.000102282
7 1 0.986099 0.493449 0.062857 0 0.000119328 8.10623e-05
8 1 0.810242 0.166995 0.134806 0 -9.33409e-05 -0.000102162
9 1 0.736099 0.673218 0.062857 0 -0.000119686 8.11815e-05
10 1 0.708354 0.999626 0.276497 0 4.76837e-06 0.000218272
11 1 0.606502 0.167185 0.418632 0 4.05312e-06 -0.000101924
12 1 0.504654 -0.000497943 0.560809 0 -1.13249e-05 -0.000137806
13 1 0.254654 0.167165 0.560809 0 1.18017e-05 -0.000138044
14 1 0.152808 -0.000482249 0.703008 0 8.97646e-05 2.46763e-05
15 1 0.902808 0.167149 0.703008 0 -8.92878e-05 2.46763e-05
16 1 0.800976 1.0002 0.8454 0 2.12193e-05 -0.000123501
17 1 0.634251 0.500202 0.205053 0 2.07424e-05 0.000123024
18 1 0.458354 0.167041 0.276497 0 -4.41074e-06 0.000218511
19 1 0.384251 0.666465 0.205053 0 -2.11e-05 0.000123739
20 1 0.356502 -0.000517992 0.418632 0 -4.64916e-06 -0.000102401
21 1 0.282419 0.499518 0.347445 0 9.02414e-05 -2.47955e-05
22 1 0.106502 0.167185 0.418632 0 3.8147e-06 -0.000102043
23 1 0.0324188 0.667149 0.347445 0 -8.89301e-05 -2.51532e-05
24 1 0.00465436 -0.000497936 0.560809 0 -1.13249e-05 -0.000137806
25 1 0.930572 0.499502 0.489644 0 -1.14441e-05 0.000138164
26 1 0.754654 0.167165 0.560809 0 1.12057e-05 -0.000137925
27 1 0.680572 0.667165 0.489644 0 1.15633e-05 0.000137925
28 1 0.486099 0.493449 0.062857 0 0.00011909 8.08239e-05
29 1 0.236099 0.673218 0.062857 0 -0.000119328 8.11815e-05
30 1 0.134251 0.500202 0.205053 0 2.14577e-05 0.000123382
31 1 0.884251 0.666465 0.205053 0 -2.08616e-05 0.00012362
32 1 0.782419 0.499518 0.347445 0 8.98838e-05 -2.45571e-05
33 1 0.550976 0.166465 0.8454 0 -2.0504e-05 -0.000123024
34 1 0.449127 0.993449 0.987596 0 0.000119448 -8.09431e-05
35 1 0.199127 0.173218 0.987596 0 -0.000119328 -8.10623e-05
36 1 0.652808 -0.000482238 0.703008 0 8.96454e-05 2.45571e-05
37 1 0.578724 0.499482 0.631821 0 -4.52995e-06 0.000101566
38 1 0.402808 0.167149 0.703008 0 -8.92878e-05 2.46763e-05
39 1 0.328724 0.667185 0.631821 0 3.93391e-06 0.000102043
40 1 0.300976 1.0002 0.8454 0 2.11e-05 -0.000123501
41 1 0.226872 0.499626 0.773956 0 4.64916e-06 -0.000218272
42 1 0.0509758 0.166465 0.8454 0 -2.14577e-05 -0.000123143
43 1 0.976872 0.667041 0.773956 0 -4.88758e-06 -0.000217795
44 1 0.949127 0.993449 0.987596 0 0.000118971 -8.11815e-05
45 1 0.874984 0.499672 0.915647 0 9.38177e-05 0.000102401
46 1 0.532419 0.667149 0.347445 0 -8.92878e-05 -2.5034e-05
47 1 0.430572 0.499502 0.489644 0 -1.13249e-05 0.000138164
48 1 0.180572 0.667165 0.489644 0 1.15633e-05 0.000138044
49 1 0.0787243 0.499482 0.631821 0 -4.76837e-06 0.000101686
50 1 0.828724 0.667185 0.631821 0 4.17233e-06 0.000101805
51 1 0.726872 0.499626 0.773956 0 4.17233e-06 -0.000218391
52 1 0.699127 0.173218 0.987596 0 -0.000118732 -8.08239e-05
53 1 0.624984 0.666995 0.915647 0 -9.44138e-05 0.000102043
54 1 0.476872 0.667041 0.773956 0 -4.88758e-06 -0.000218034
55 1 0.374984 0.499672 0.915647 0 9.34601e-05 0.000102401
56 1 0.124984 0.666995 0.915647 0 -9.34601e-05 0.000101805
ITEM: TIMESTEP
8
ITEM: NUMBER OF ATOMS
56
ITEM: BOX BOUNDS xy xz yz pp pp pp
-9.9002748727798462e-01 1.2206987559795380e+01 -4.7683715820312500e-07
-7.5370073318481445e-03 5.5339480042457581e+00 -9.6813929080963135e-01
-3.2569408416748047e-02 1.9052529454231262e+01 2.8610229492187500e-06
ITEM: ATOMS id type xs ys zs fx fy fz
1 1 0.560242 0.99968 0.134804 0 5.40018e-05 4.48227e-05
2 1 0.310242 0.166987 0.134804 0 -5.40018e-05 4.60148e-05
3 1 0.208355 0.999629 0.276502 0 1.09673e-05 -4.43459e-05
4 1 0.958355 0.167039 0.276502 0 -9.77516e-06 -4.30346e-05
5 1 0.856502 -0.000518096 0.418631 0 -2.59876e-05 -3.02792e-05
6 1 0.0602422 0.99968 0.134804 0 5.45979e-05 4.55379e-05
7 1 0.9861 0.493463 0.0628607 0 5.91278e-05 -3.65973e-05
8 1 0.810242 0.166987 0.134804 0 -5.43594e-05 4.57764e-05
9 1 0.7361 0.673204 0.0628607 0 -5.84126e-05 -3.73125e-05
10 1 0.708355 0.999629 0.276502 0 1.0848e-05 -4.37498e-05
11 1 0.606502 0.167185 0.418631 0 2.63453e-05 -3.02792e-05
12 1 0.504654 -0.00049918 0.560804 0 8.34465e-07 5.78165e-05
13 1 0.254654 0.167166 0.560804 0 -1.43051e-06 5.79357e-05
14 1 0.152808 -0.000478159 0.703007 0 5.19753e-05 -8.18968e-05
15 1 0.902808 0.167145 0.703007 0 -5.25713e-05 -8.18968e-05
16 1 0.800975 1.00021 0.845396 0 -3.91006e-05 -6.59227e-05
17 1 0.634251 0.500207 0.205057 0 -3.88622e-05 6.58035e-05
18 1 0.458355 0.167039 0.276502 0 -1.04904e-05 -4.36306e-05
19 1 0.384251 0.66646 0.205057 0 3.91006e-05 6.53267e-05
20 1 0.356502 -0.000518142 0.418631 0 -2.53916e-05 -3.016e-05
21 1 0.282419 0.499522 0.347446 0 5.126e-05 8.18968e-05