ITEM: TIMESTEP
0
ITEM: NUMBER OF ATOMS
32
ITEM: BOX BOUNDS xy xz yz pp pp pp
-4.7826766967773438e-03 7.1992481350898743e+00 7.9991644620895386e-01
-3.7661075592041016e-02 2.2120539069175720e+01 0.0000000000000000e+00
-1.1393904685974121e-02 5.1938598752021790e+00 0.0000000000000000e+00
ITEM: ATOMS id type xs ys zs fx fy fz
1 1 0.977177 0.336542 0.593597 0 0.000823975 5.72205e-06
2 1 0.477178 0.336542 0.593597 0 0.000822067 5.72205e-06
3 1 0.232362 0.295033 0.0935973 0 -0.00129318 -3.8147e-06
4 1 0.732362 0.295033 0.0935973 0 -0.00129128 -1.90735e-06
5 1 0.211564 0.461543 0.593597 0 0.000947952 0
6 1 0.711564 0.461543 0.593597 0 0.000951767 5.72205e-06
7 1 0.966748 0.420037 0.0935973 0 -0.00122261 -7.62939e-06
8 1 0.466749 0.420037 0.0935973 0 -0.00122261 -3.8147e-06
9 1 0.94595 0.586543 0.593597 0 0.00116348 0
10 1 0.445951 0.586543 0.593597 0 0.00116158 0
11 1 0.180338 0.711539 0.593597 0 0.00137329 7.62939e-06
12 1 0.680338 0.711539 0.593597 0 0.00136948 3.8147e-06
13 1 0.935521 0.670042 0.0935972 0 -0.00106812 -3.8147e-06
14 1 0.201135 0.545043 0.0935972 0 -0.00105476 0
15 1 0.701135 0.545043 0.0935972 0 -0.00105095 0
16 1 0.435521 0.670042 0.0935972 0 -0.00107193 -7.62939e-06
17 1 0.914725 0.836533 0.593597 0 0.0113316 0
18 1 0.414725 0.836533 0.593597 0 0.0113277 1.90735e-06
19 1 0.149112 0.961533 0.593597 0 -0.18577 1.90735e-06
20 1 0.649112 0.961533 0.593597 0 -0.185768 0
21 1 0.169909 0.795035 0.0935971 0 0.000879288 0
22 1 0.669909 0.795035 0.0935971 0 0.000879288 0
23 1 0.904296 0.920032 0.0935971 0 -0.324421 0
24 1 0.404296 0.920032 0.0935971 0 -0.324411 -3.8147e-06
25 1 0.00840448 0.0865377 0.593597 0 0.324228 0
26 1 0.508405 0.0865377 0.593597 0 0.32423 0
27 1 0.263589 0.045031 0.093597 0 0.186064 0
28 1 0.763589 0.045031 0.093597 0 0.18606 0
29 1 0.242791 0.211541 0.593597 0 -0.000879288 0
30 1 0.742791 0.211541 0.593597 0 -0.00087738 0
31 1 0.997976 0.170031 0.093597 0 -0.0111084 0
32 1 0.497976 0.170031 0.093597 0 -0.0111027 0
ITEM: TIMESTEP
1
ITEM: NUMBER OF ATOMS
32
ITEM: BOX BOUNDS xy xz yz pp pp pp
-4.7826766967773438e-03 7.1992481350898743e+00 7.9991644620895386e-01
-3.7661075592041016e-02 2.2120539069175720e+01 0.0000000000000000e+00
-1.1393904685974121e-02 5.1938598752021790e+00 0.0000000000000000e+00
ITEM: ATOMS id type xs ys zs fx fy fz
1 1 0.977176 0.336551 0.593597 0 0.000299454 0
2 1 0.477177 0.336551 0.593597 0 0.000303268 -3.8147e-06
3 1 0.232364 0.29502 0.0935971 0 -4.3869e-05 1.90735e-06
4 1 0.732364 0.29502 0.0935972 0 -5.34058e-05 0
5 1 0.211563 0.461552 0.593597 0 0.00112152 1.90735e-06
6 1 0.711563 0.461552 0.593597 0 0.00112534 -1.90735e-06
7 1 0.96675 0.420025 0.093597 0 -0.00154495 1.90735e-06
8 1 0.46675 0.420025 0.0935971 0 -0.00154114 0
9 1 0.945949 0.586555 0.593597 0 0.00150681 3.8147e-06
10 1 0.445949 0.586555 0.593597 0 0.00151062 -1.90735e-06
11 1 0.180336 0.711553 0.593597 0 0.000133514 0
12 1 0.680336 0.711553 0.593597 0 0.000139236 -1.90735e-06
13 1 0.935522 0.670031 0.093597 0 -0.000440598 0
14 1 0.201136 0.545032 0.0935972 0 -0.00127983 -3.8147e-06
15 1 0.701136 0.545032 0.0935972 0 -0.00128937 1.90735e-06
16 1 0.435523 0.670031 0.0935969 0 -0.000440598 1.90735e-06
17 1 0.914711 0.836648 0.593597 0 -0.0634365 1.90735e-06
18 1 0.414711 0.836648 0.593597 0 -0.0634384 -1.90735e-06
19 1 0.149348 0.959641 0.593597 0 0.0565948 0
20 1 0.649348 0.959641 0.593597 0 0.0565987 3.8147e-06
21 1 0.169908 0.795043 0.0935971 0 -0.073452 -1.90735e-06
22 1 0.669908 0.795043 0.0935971 0 -0.0734482 0
23 1 0.904708 0.916729 0.0935971 0 -0.0226078 -3.8147e-06
24 1 0.404708 0.916729 0.0935969 0 -0.0226192 1.90735e-06
25 1 0.00799216 0.0898387 0.593597 0 0.0227661 0
26 1 0.507993 0.0898387 0.593597 0 0.0227642 0
27 1 0.263353 0.0469253 0.093597 0 -0.0565605 0
28 1 0.763353 0.0469253 0.093597 0 -0.0565662 0
29 1 0.242792 0.211532 0.593597 0 0.0733376 0
30 1 0.742792 0.211532 0.593597 0 0.0733318 0
31 1 0.99799 0.169918 0.093597 0 0.0636158 0
32 1 0.49799 0.169918 0.093597 0 0.0636139 0
ITEM: TIMESTEP
2
ITEM: NUMBER OF ATOMS
32
ITEM: BOX BOUNDS xy xz yz pp pp pp
-4.7826766967773438e-03 7.1992481350898743e+00 7.9991644620895386e-01
-3.7661075592041016e-02 2.2120539069175720e+01 0.0000000000000000e+00
-1.1393904685974121e-02 5.1938598752021790e+00 0.0000000000000000e+00
ITEM: ATOMS id type xs ys zs fx fy fz
1 1 0.977175 0.336561 0.593597 0 0.0356102 -3.8147e-06
2 1 0.477175 0.336561 0.593597 0 0.0356045 1.90735e-06
3 1 0.232365 0.295015 0.0935973 0 0.0437622 0
4 1 0.732365 0.295014 0.0935972 0 0.0437737 3.8147e-06
5 1 0.211559 0.461582 0.593597 0 0.000331879 -3.8147e-06
6 1 0.711559 0.461583 0.593597 0 0.000326157 0
7 1 0.966755 0.419984 0.0935971 0 0.00105858 0
8 1 0.466755 0.419984 0.0935971 0 0.00105286 -1.90735e-06
9 1 0.945944 0.586595 0.593597 0 -0.00114441 -5.72205e-06
10 1 0.445944 0.586595 0.593597 0 -0.0011425 7.62939e-06
11 1 0.180335 0.71156 0.593597 0 -0.0437603 -1.14441e-05
12 1 0.680335 0.711561 0.593597 0 -0.043766 0
13 1 0.935524 0.670017 0.093597 0 -0.0356922 7.62939e-06
14 1 0.20114 0.544998 0.0935968 0 -0.000398636 5.72205e-06
15 1 0.70114 0.544997 0.0935974 0 -0.000391006 -3.8147e-06
16 1 0.435524 0.670017 0.093597 0 -0.0356922 3.8147e-06
17 1 0.914899 0.835137 0.593597 0 0.0162888 -3.8147e-06
18 1 0.4149 0.835137 0.593597 0 0.0162964 1.90735e-06
19 1 0.149245 0.960467 0.593597 0 0.00915146 -1.90735e-06
20 1 0.649245 0.960467 0.593597 0 0.00914192 -3.8147e-06
21 1 0.170131 0.793258 0.0935969 0 -0.0120888 3.8147e-06
22 1 0.670131 0.793258 0.0935971 0 -0.0120964 -5.72205e-06
23 1 0.904897 0.915214 0.0935967 0 0.00337601 5.72205e-06
24 1 0.404898 0.915214 0.0935971 0 0.00339317 0
25 1 0.00780256 0.0913566 0.593597 0 -0.00341225 0
26 1 0.507803 0.0913566 0.593597 0 -0.00340462 0
27 1 0.263456 0.0461013 0.093597 0 -0.00900269 0
28 1 0.763456 0.0461011 0.093597 0 -0.00898933 3.8147e-06
29 1 0.24257 0.213315 0.593597 0 0.0121708 0
30 1 0.74257 0.213315 0.593597 0 0.0121784 0
31 1 0.9978 0.171434 0.093597 0 -0.0162716 0
32 1 0.497801 0.171434 0.093597 0 -0.016264 0
ITEM: TIMESTEP
3
ITEM: NUMBER OF ATOMS
32
ITEM: BOX BOUNDS xy xz yz pp pp pp
-4.7826766967773438e-03 7.1992481350898743e+00 7.9991644620895386e-01
-3.7661075592041016e-02 2.2120539069175720e+01 0.0000000000000000e+00
-1.1393904685974121e-02 5.1938598752021790e+00 0.0000000000000000e+00
ITEM: ATOMS id type xs ys zs fx fy fz
1 1 0.977061 0.337471 0.593597 0 0.00719833 3.8147e-06
2 1 0.477062 0.337471 0.593597 0 0.00720406 7.62939e-06
3 1 0.232225 0.296129 0.0935973 0 -0.00430489 -3.8147e-06
4 1 0.732225 0.296129 0.0935976 0 -0.00430679 -9.53674e-06
5 1 0.211557 0.461599 0.593597 0 0.0153084 1.90735e-06
6 1 0.711557 0.461599 0.593597 0 0.0153027 1.90735e-06
7 1 0.966753 0.42 0.0935971 0 0.0293751 -3.8147e-06
8 1 0.466753 0.42 0.0935969 0 0.0293751 1.90735e-06
9 1 0.945946 0.586577 0.593597 0 -0.0293922 5.72205e-06
10 1 0.445947 0.586577 0.593598 0 -0.0294075 -5.72205e-06
11 1 0.180474 0.710447 0.593596 0 0.0042572 1.90735e-05
12 1 0.680474 0.710447 0.593597 0 0.0042572 3.8147e-06
13 1 0.935638 0.669104 0.0935978 0 -0.00715637 -1.52588e-05
14 1 0.201143 0.544978 0.0935973 0 -0.0153694 -5.72205e-06
15 1 0.701143 0.544978 0.093597 0 -0.0153618 3.8147e-06
16 1 0.435639 0.669104 0.0935974 0 -0.00714493 -5.72205e-06
17 1 0.914899 0.835144 0.593597 0 -0.00213051 1.90735e-06
18 1 0.414899 0.835144 0.593597 0 -0.00212669 0
19 1 0.149188 0.960924 0.593597 0 -0.0131397 3.8147e-06
20 1 0.649188 0.960923 0.593597 0 -0.0131264 0
21 1 0.17023 0.792467 0.0935973 0 -0.00297737 -9.53674e-06
22 1 0.67023 0.792467 0.0935965 0 -0.00296974 3.8147e-06
23 1 0.904938 0.914891 0.0935972 0 -0.00419617 0
24 1 0.404938 0.914891 0.0935971 0 -0.00420952 -3.8147e-06
25 1 0.00776216 0.0916801 0.593597 0 0.00435448 5.72205e-06
26 1 0.507763 0.0916803 0.593597 0 0.00433922 3.8147e-06
27 1 0.263512 0.0456489 0.093597 0 0.0131054 -1.90735e-06
28 1 0.763512 0.045649 0.0935974 0 0.0130939 -7.62939e-06
29 1 0.242471 0.214107 0.593597 0 0.00293922 0
30 1 0.742471 0.214107 0.593597 0 0.00293732 3.8147e-06
31 1 0.997801 0.171429 0.093597 0 0.00214195 0
32 1 0.497801 0.171429 0.093597 0 0.00213051 0
ITEM: TIMESTEP
4
ITEM: NUMBER OF ATOMS
32
ITEM: BOX BOUNDS xy xz yz pp pp pp
-4.7826766967773438e-03 7.1992481350898743e+00 7.9991644620895386e-01
-3.7661075592041016e-02 2.2120539069175720e+01 0.0000000000000000e+00
-1.1393904685974121e-02 5.1938598752021790e+00 0.0000000000000000e+00
ITEM: ATOMS id type xs ys zs fx fy fz
1 1 0.977008 0.337901 0.593597 0 0.00284767 -3.8147e-06
2 1 0.477008 0.337901 0.593598 0 0.00284767 -1.71661e-05
3 1 0.232194 0.296383 0.093597 0 -0.000268936 7.62939e-06
4 1 0.732194 0.296383 0.0935969 0 -0.000274658 7.62939e-06
5 1 0.211517 0.461922 0.593597 0 -0.00601196 5.72205e-06
6 1 0.711517 0.461922 0.593597 0 -0.00600624 -9.53674e-06
7 1 0.966676 0.420614 0.0935968 0 0.00135612 3.8147e-06
8 1 0.466677 0.420614 0.093597 0 0.00136185 5.72205e-06
9 1 0.946023 0.585962 0.593597 0 -0.00138092 -3.8147e-06
10 1 0.446024 0.585961 0.593597 0 -0.0013752 -5.72205e-06
11 1 0.180506 0.710192 0.593598 0 0.000246048 -1.14441e-05
12 1 0.680506 0.710192 0.593597 0 0.000249863 -7.62939e-06
13 1 0.935692 0.668674 0.0935967 0 -0.00285912 1.33514e-05
14 1 0.201183 0.544653 0.093597 0 0.00601768 1.14441e-05
15 1 0.701183 0.544653 0.0935973 0 0.00600624 -7.62939e-06
16 1 0.435692 0.668674 0.093597 0 -0.00286484 7.62939e-06
17 1 0.914904 0.835102 0.593597 0 -0.0097599 -1.90735e-06
18 1 0.414904 0.835102 0.593597 0 -0.00977707 -1.14441e-05
19 1 0.149205 0.960792 0.593597 0 -0.00129509 0
20 1 0.649205 0.960792 0.593597 0 -0.0012989 -1.90735e-06
21 1 0.170268 0.792161 0.0935965 0 -0.00112534 1.14441e-05
22 1 0.670268 0.792161 0.0935966 0 -0.00113106 7.62939e-06
23 1 0.904961 0.914704 0.0935974 0 0.00390244 -5.72205e-06
24 1 0.404961 0.914704 0.0935968 0 0.00389481 3.8147e-06
25 1 0.00773843 0.0918701 0.593598 0 -0.00393295 -5.72205e-06
26 1 0.507739 0.09187 0.593597 0 -0.00392342 -5.72205e-06
27 1 0.263496 0.0457814 0.0935968 0 0.00133896 5.72205e-06
28 1 0.763496 0.0457814 0.0935969 0 0.00133705 3.8147e-06
29 1 0.242432 0.214412 0.593597 0 0.0011673 0
30 1 0.742432 0.214412 0.593597 0 0.00117111 -7.62939e-06
31 1 0.997796 0.171472 0.093597 0 0.00977516 5.72205e-06
32 1 0.497796 0.171472 0.093597 0 0.00976562 5.72205e-06
ITEM: TIMESTEP
5
ITEM: NUMBER OF ATOMS
32
ITEM: BOX BOUNDS xy xz yz pp pp pp
-4.7826766967773438e-03 7.1992481350898743e+00 7.9991644620895386e-01
-3.7661075592041016e-02 2.2120539069175720e+01 0.0000000000000000e+00
-1.1393904685974121e-02 5.1938598752021790e+00 0.0000000000000000e+00
ITEM: ATOMS id type xs ys zs fx fy fz
1 1 0.976994 0.338007 0.593597 0 -0.00216484 5.72205e-06
2 1 0.476995 0.338007 0.593596 0 -0.00215721 1.33514e-05
3 1 0.232191 0.296407 0.0935976 0 0.0049839 -1.33514e-05
4 1 0.732191 0.296407 0.0935974 0 0.00498962 -1.90735e-06
5 1 0.211527 0.46184 0.593597 0 -0.000795364 3.8147e-06
6 1 0.711527 0.46184 0.593596 0 -0.000793457 5.72205e-06
7 1 0.966664 0.420712 0.093597 0 -0.000711441 -1.90735e-06
8 1 0.466664 0.420712 0.0935975 0 -0.000713348 -7.62939e-06
9 1 0.946035 0.585863 0.593597 0 0.000699997 7.62939e-06
10 1 0.446036 0.585863 0.593597 0 0.000701904 9.53674e-06
11 1 0.180509 0.710167 0.593597 0 -0.00497818 1.14441e-05
12 1 0.680509 0.710167 0.593597 0 -0.00498962 1.52588e-05
13 1 0.935705 0.668567 0.0935977 0 0.00216675 -1.33514e-05
14 1 0.201173 0.544735 0.0935979 0 0.000785828 -1.33514e-05
15 1 0.701173 0.544735 0.0935966 0 0.000785828 1.90735e-06
16 1 0.435705 0.668567 0.0935976 0 0.00216103 -1.71661e-05
17 1 0.914929 0.834904 0.593597 0 -0.000638962 7.62939e-06
18 1 0.414929 0.834903 0.593596 0 -0.000638962 1.52588e-05
19 1 0.14921 0.960751 0.593597 0 -0.00350571 3.8147e-06
20 1 0.64921 0.960751 0.593597 0 -0.0035038 1.90735e-06
21 1 0.170275 0.792104 0.0935974 0 0.000654221 -9.53674e-06
22 1 0.670275 0.792103 0.0935973 0 0.000656128 -1.14441e-05
23 1 0.904954 0.91476 0.0935969 0 -0.00213814 -5.72205e-06
24 1 0.404954 0.91476 0.0935971 0 -0.00213623 -3.8147e-06
25 1 0.00774544 0.0918139 0.593597 0 0.00216866 7.62939e-06
26 1 0.507746 0.091814 0.593597 0 0.00216675 5.72205e-06
27 1 0.26349 0.0458233 0.0935973 0 0.00349426 -7.62939e-06
28 1 0.76349 0.0458232 0.0935971 0 0.0035038 -1.90735e-06
29 1 0.242425 0.214471 0.593597 0 -0.000665665 7.62939e-06
30 1 0.742425 0.214471 0.593597 0 -0.000665665 7.62939e-06
31 1 0.997771 0.171671 0.0935975 0 0.000638962 -1.14441e-05
32 1 0.497771 0.171671 0.0935975 0 0.000638962 -1.14441e-05
ITEM: TIMESTEP
6
ITEM: NUMBER OF ATOMS
32
ITEM: BOX BOUNDS xy xz yz pp pp pp
-4.7826766967773438e-03 7.1992481350898743e+00 7.9991644620895386e-01
-3.7661075592041016e-02 2.2120539069175720e+01 0.0000000000000000e+00
-1.1393904685974121e-02 5.1938598752021790e+00 0.0000000000000000e+00
ITEM: ATOMS id type xs ys zs fx fy fz
1 1 0.976996 0.337996 0.593597 0 -0.0019722 0
2 1 0.476996 0.337997 0.593597 0 -0.00198174 -3.8147e-06
3 1 0.232176 0.296527 0.0935965 0 0.00101089 7.62939e-06
4 1 0.732176 0.296527 0.0935975 0 0.0010128 -3.8147e-06
5 1 0.211533 0.461793 0.593598 0 0.00144005 -1.33514e-05
6 1 0.711533 0.461793 0.593597 0 0.00144005 0
7 1 0.966662 0.42073 0.093597 0 0.00142097 5.72205e-06
8 1 0.466662 0.420731 0.0935969 0 0.00142288 5.72205e-06
9 1 0.946038 0.585844 0.593598 0 -0.00142288 -1.71661e-05
10 1 0.446038 0.585844 0.593598 0 -0.00142288 -9.53674e-06
11 1 0.180524 0.710048 0.593598 0 -0.00101089 -1.14441e-05
12 1 0.680524 0.710047 0.593598 0 -0.000995636 -1.52588e-05
13 1 0.935704 0.668578 0.0935968 0 0.0019722 1.33514e-05
14 1 0.201167 0.544782 0.093597 0 -0.00144958 7.62939e-06
15 1 0.701167 0.544782 0.0935966 0 -0.00144005 1.14441e-05
16 1 0.435704 0.668578 0.0935962 0 0.00197601 2.09808e-05
17 1 0.914939 0.834819 0.593597 0 -0.000516891 -1.14441e-05
18 1 0.41494 0.834819 0.593597 0 -0.000511169 -7.62939e-06
19 1 0.149221 0.960658 0.593598 0 0.00136757 -1.33514e-05
20 1 0.649221 0.960658 0.593597 0 0.00136757 -9.53674e-06
21 1 0.170276 0.792098 0.0935968 0 -0.000812531 1.14441e-05
22 1 0.670276 0.792098 0.0935964 0 -0.000804901 1.52588e-05
23 1 0.904958 0.914732 0.0935962 0 0.00091362 1.14441e-05
24 1 0.404958 0.914732 0.0935968 0 0.00091362 3.8147e-06
25 1 0.00774188 0.0918424 0.593598 0 -0.000907898 -9.53674e-06
26 1 0.507742 0.0918425 0.593597 0 -0.000907898 -7.62939e-06
27 1 0.263479 0.0459161 0.0935967 0 -0.00137138 1.71661e-05
28 1 0.763479 0.0459162 0.093597 0 -0.00137138 1.90735e-06
29 1 0.242424 0.214477 0.593598 0 0.000808716 -1.52588e-05
30 1 0.742424 0.214477 0.593597 0 0.000797272 -5.72205e-06
31 1 0.99776 0.171756 0.0935966 0 0.000513077 1.14441e-05
32 1 0.497761 0.171755 0.0935966 0 0.000522614 9.53674e-06
ITEM: TIMESTEP
7
ITEM: NUMBER OF ATOMS
32
ITEM: BOX BOUNDS xy xz yz pp pp pp
-4.7826766967773438e-03 7.1992481350898743e+00 7.9991644620895386e-01
-3.7661075592041016e-02 2.2120539069175720e+01 0.0000000000000000e+00
-1.1393904685974121e-02 5.1938598752021790e+00 0.0000000000000000e+00
ITEM: ATOMS id type xs ys zs fx fy fz
1 1 0.976999 0.337967 0.593597 0 0.00034523 -3.8147e-06
2 1 0.477 0.337968 0.593597 0 0.000339508 0
3 1 0.232172 0.29656 0.0935968 0 0.000200272 0
4 1 0.732172 0.29656 0.0935972 0 0.000177383 3.8147e-06
5 1 0.211531 0.461805 0.593597 0 -0.000328064 0
6 1 0.711531 0.461805 0.593597 0 -0.000331879 7.62939e-06
7 1 0.966659 0.420753 0.0935973 0 0.000459671 0
8 1 0.466659 0.420753 0.0935972 0 0.000457764 -1.90735e-06
9 1 0.946041 0.585821 0.593597 0 -0.000448227 9.53674e-06
10 1 0.446041 0.585821 0.593597 0 -0.000450134 1.90735e-06
11 1 0.180528 0.710015 0.593597 0 -0.000198364 5.72205e-06
12 1 0.680528 0.710015 0.593597 0 -0.00019455 -1.90735e-06
13 1 0.9357 0.668607 0.0935974 0 -0.00034523 -5.72205e-06
14 1 0.201169 0.544769 0.0935973 0 0.000322342 -5.72205e-06
15 1 0.701169 0.544769 0.0935973 0 0.000326157 -1.90735e-06
16 1 0.435701 0.668607 0.0935972 0 -0.000341415 -3.8147e-06
17 1 0.914942 0.834798 0.593597 0 6.10352e-05 0
18 1 0.414942 0.834798 0.593597 0 6.67572e-05 7.62939e-06
19 1 0.149221 0.960662 0.593597 0 0.000494003 7.62939e-06
20 1 0.649221 0.960662 0.593596 0 0.000494003 9.53674e-06
21 1 0.170277 0.792086 0.0935974 0 0.000284195 -9.53674e-06
22 1 0.670277 0.792086 0.0935972 0 0.00028038 -1.90735e-06
23 1 0.904956 0.91474 0.0935968 0 -0.000202179 0
24 1 0.404957 0.91474 0.093597 0 -0.000198364 -9.53674e-06
25 1 0.00774288 0.0918344 0.593597 0 0.000190735 1.90735e-06
26 1 0.507743 0.0918345 0.593597 0 0.000183105 9.53674e-06
27 1 0.263479 0.0459119 0.0935977 0 -0.000478745 -1.14441e-05
28 1 0.763479 0.045912 0.0935971 0 -0.000486374 -7.62939e-06
29 1 0.242423 0.214489 0.593597 0 -0.000274658 0
30 1 0.742423 0.214489 0.593597 0 -0.000282288 3.8147e-06
31 1 0.997758 0.171776 0.0935971 0 -6.67572e-05 -1.90735e-06
32 1 0.497758 0.171776 0.093597 0 -5.53131e-05 -1.90735e-06
ITEM: TIMESTEP
8
ITEM: NUMBER OF ATOMS
32
ITEM: BOX BOUNDS xy xz yz pp pp pp
-4.7826766967773438e-03 7.1992481350898743e+00 7.9991644620895386e-01
-3.7661075592041016e-02 2.2120539069175720e+01 0.0000000000000000e+00
-1.1393904685974121e-02 5.1938598752021790e+00 0.0000000000000000e+00
ITEM: ATOMS id type xs ys zs fx fy fz
1 1 0.976999 0.337972 0.593597 0 6.10352e-05 3.8147e-06
2 1 0.476999 0.337972 0.593597 0 6.10352e-05 -5.72205e-06
3 1 0.232171 0.296568 0.0935969 0 1.90735e-06 -1.90735e-06
4 1 0.732171 0.296567 0.0935976 0 2.86102e-05 -5.72205e-06
5 1 0.211532 0.4618 0.593597 0 -9.91821e-05 0
6 1 0.711532 0.4618 0.593597 0 -0.000102997 -1.33514e-05
7 1 0.966657 0.420766 0.0935973 0 0.000123978 1.90735e-06
8 1 0.466658 0.420766 0.093597 0 0.000118256 3.8147e-06
9 1 0.946042 0.585809 0.593597 0 -0.000127792 -5.72205e-06
10 1 0.446043 0.585809 0.593597 0 -0.000131607 -5.72205e-06
11 1 0.180529 0.710007 0.593597 0 3.8147e-06 -7.62939e-06
12 1 0.680529 0.710007 0.593597 0 -3.8147e-06 0
13 1 0.935701 0.668603 0.093597 0 -6.67572e-05 5.72205e-06
14 1 0.201168 0.544775 0.0935968 0 0.000110626 1.14441e-05
15 1 0.701168 0.544775 0.0935972 0 9.91821e-05 3.8147e-06
16 1 0.435701 0.668603 0.093597 0 -6.29425e-05 7.62939e-06
17 1 0.914942 0.834797 0.593597 0 0.000139236 0
18 1 0.414942 0.834797 0.593598 0 0.000141144 -1.90735e-05
19 1 0.14922 0.960673 0.593597 0 -0.000143051 -1.14441e-05
20 1 0.64922 0.960673 0.593597 0 -0.000148773 -1.14441e-05
21 1 0.170277 0.79209 0.0935966 0 -0.000211716 9.53674e-06
22 1 0.670277 0.79209 0.0935971 0 -0.000202179 1.90735e-06
23 1 0.904957 0.914737 0.0935968 0 -0.00012207 1.90735e-06
24 1 0.404957 0.914737 0.0935961 0 -0.000112534 2.28882e-05
25 1 0.00774248 0.0918376 0.593597 0 0.000125885 -1.14441e-05
26 1 0.507743 0.0918376 0.593598 0 0.000127792 -1.71661e-05
27 1 0.263481 0.0459011 0.0935967 0 0.000146866 1.14441e-05
28 1 0.763481 0.0459011 0.0935964 0 0.000144958 1.71661e-05
29 1 0.242423 0.214484 0.593597 0 0.00019455 1.90735e-06
30 1 0.742424 0.214484 0.593597 0 0.000202179 5.72205e-06
31 1 0.997758 0.171777 0.093597 0 -0.000143051 -1.90735e-06
32 1 0.497758 0.171777 0.0935969 0 -0.000152588 7.62939e-06
ITEM: TIMESTEP
9
ITEM: NUMBER OF ATOMS
32
ITEM: BOX BOUNDS xy xz yz pp pp pp
-4.7826766967773438e-03 7.1992481350898743e+00 7.9991644620895386e-01
-3.7661075592041016e-02 2.2120539069175720e+01 0.0000000000000000e+00
-1.1393904685974121e-02 5.1938598752021790e+00 0.0000000000000000e+00
ITEM: ATOMS id type xs ys zs fx fy fz
1 1 0.976999 0.337972 0.593597 0 6.10352e-05 3.8147e-06
2 1 0.476999 0.337972 0.593597 0 6.10352e-05 -5.72205e-06
3 1 0.232171 0.296568 0.0935969 0 1.90735e-06 -1.90735e-06
4 1 0.732171 0.296567 0.0935976 0 2.86102e-05 -5.72205e-06
5 1 0.211532 0.4618 0.593597 0 -9.91821e-05 0
6 1 0.711532 0.4618 0.593597 0 -0.000102997 -1.33514e-05
7 1 0.966657 0.420766 0.0935973 0 0.000123978 1.90735e-06
8 1 0.466658 0.420766 0.093597 0 0.000118256 3.8147e-06
9 1 0.946042 0.585809 0.593597 0 -0.000127792 -5.72205e-06
10 1 0.446043 0.585809 0.593597 0 -0.000131607 -5.72205e-06
11 1 0.180529 0.710007 0.593597 0 3.8147e-06 -7.62939e-06
12 1 0.680529 0.710007 0.593597 0 -3.8147e-06 0
13 1 0.935701 0.668603 0.093597 0 -6.67572e-05 5.72205e-06
14 1 0.201168 0.544775 0.0935968 0 0.000110626 1.14441e-05
15 1 0.701168 0.544775 0.0935972 0 9.91821e-05 3.8147e-06
16 1 0.435701 0.668603 0.093597 0 -6.29425e-05 7.62939e-06
17 1 0.914942 0.834797 0.593597 0 0.000139236 0
18 1 0.414942 0.834797 0.593598 0 0.000141144 -1.90735e-05
19 1 0.14922 0.960673 0.593597 0 -0.000143051 -1.14441e-05
20 1 0.64922 0.960673 0.593597 0 -0.000148773 -1.14441e-05
21 1 0.170277 0.79209 0.0935966 0 -0.000211716 9.53674e-06
22 1 0.670277 0.79209 0.0935971 0 -0.000202179 1.90735e-06
23 1 0.904957 0.914737 0.0935968 0 -0.00012207 1.90735e-06
24 1 0.404957 0.914737 0.0935961 0 -0.000112534 2.28882e-05
25 1 0.00774248 0.0918376 0.593597 0 0.000125885 -1.14441e-05
26 1 0.507743 0.0918376 0.593598 0 0.000127792 -1.71661e-05
27 1 0.263481 0.0459011 0.0935967 0 0.000146866 1.14441e-05
28 1 0.763481 0.0459011 0.0935964 0 0.000144958 1.71661e-05
29 1 0.242423 0.214484 0.593597 0 0.00019455 1.90735e-06
30 1 0.742424 0.214484 0.593597 0 0.000202179 5.72205e-06
31 1 0.997758 0.171777 0.093597 0 -0.000143051 -1.90735e-06
32 1 0.497758 0.171777 0.0935969 0 -0.000152588 7.62939e-06
