ITEM: TIMESTEP
0
ITEM: NUMBER OF ATOMS
48
ITEM: BOX BOUNDS xy xz yz pp pp pp
-4.5644139647483826e+00 8.6109705567359924e+00 2.5110912919044495e+00
-1.0506033897399902e-02 9.6185076832771301e+00 -4.5498571395874023e+00
-2.6944518089294434e-02 1.9544072151184082e+01 3.6519104242324829e-01
ITEM: ATOMS id type xs ys zs fx fy fz
1 1 0.945952 0.165578 0.0319985 0 0 2.02399
2 1 0.49853 0.0752984 0.0528317 0 0 -0.112419
3 1 0.523296 0.123911 0.656998 0 0 -0.00139081
4 1 0.706811 0.950298 0.927832 0 0 -2.02399
5 1 0.391342 0.158632 0.802832 0 0 0.000869751
6 1 0.154233 0.040578 0.906998 0 0 0.112419
7 1 0.838764 0.248911 0.781998 0 0 0.00227284
8 1 0.892358 0.207245 0.406998 0 0 0.001284
9 1 0.0758737 0.0336318 0.677832 0 0 -0.00535882
10 1 0.760405 0.241965 0.552832 0 0 -0.00128365
11 1 0.813999 0.200298 0.177832 0 0 -0.00227249
12 1 0.576889 0.0822446 0.281998 0 0 0.00535905
13 1 0.261421 0.290578 0.156998 0 0 -0.000870109
14 1 0.444936 0.116965 0.427832 0 0 0.000270009
15 1 0.945952 0.498911 0.0319984 0 0 2.02399
16 1 0.49853 0.408632 0.0528317 0 0 -0.112419
17 1 0.523296 0.457245 0.656998 0 0 -0.00139105
18 1 0.706811 0.283632 0.927832 0 0 -2.02399
19 1 0.391342 0.491965 0.802832 0 0 0.000869751
20 1 0.154233 0.373911 0.906998 0 0 0.112419
21 1 0.838764 0.582245 0.781998 0 0 0.00227201
22 1 0.207827 0.332245 0.531998 0 0 -0.000269055
23 1 0.892358 0.540578 0.406998 0 0 0.001284
24 1 0.0758737 0.366965 0.677832 0 0 -0.00535882
25 1 0.760405 0.575298 0.552832 0 0 -0.00128412
26 1 0.129467 0.325298 0.302832 0 0 0.00139046
27 1 0.813999 0.533632 0.177832 0 0 -0.00227284
28 1 0.576889 0.415578 0.281998 0 0 0.00535893
29 1 0.261421 0.623911 0.156998 0 0 -0.000870228
30 1 0.444936 0.450298 0.427832 0 0 0.000269413
31 1 0.945952 0.832245 0.0319985 0 0 2.02399
32 1 0.49853 0.741965 0.0528317 0 0 -0.112419
33 1 0.523296 0.790578 0.656998 0 0 -0.00139081
34 1 0.706811 0.616965 0.927832 0 0 -2.02399
35 1 0.391342 0.825298 0.802832 0 0 0.00086987
36 1 0.154233 0.707245 0.906998 0 0 0.112419
37 1 0.838764 0.915578 0.781998 0 0 0.00227201
38 1 0.207827 0.665578 0.531998 0 0 -0.000270247
39 1 0.892358 0.873911 0.406998 0 0 0.00128424
40 1 0.0758737 0.700298 0.677832 0 0 -0.0053581
41 1 0.760405 0.908632 0.552832 0 0 -0.00128496
42 1 0.129467 0.658632 0.302832 0 0 0.00139081
43 1 0.813999 0.866965 0.177832 0 0 -0.00227249
44 1 0.576889 0.748911 0.281998 0 0 0.00535893
45 1 0.261421 0.957245 0.156998 0 0 -0.000869989
46 1 0.444936 0.783632 0.427832 0 0 0.000270009
47 1 0.207827 0.998911 0.531998 0 0 -0.000269771
48 1 0.129467 0.991965 0.302832 0 0 0.00139081
ITEM: TIMESTEP
1
ITEM: NUMBER OF ATOMS
48
ITEM: BOX BOUNDS xy xz yz pp pp pp
-4.5644139647483826e+00 8.6109705567359924e+00 2.5110912919044495e+00
-1.0506033897399902e-02 9.6185076832771301e+00 -4.5498571395874023e+00
-2.6944518089294434e-02 1.9544072151184082e+01 3.6519104242324829e-01
ITEM: ATOMS id type xs ys zs fx fy fz
1 1 0.949837 0.165377 0.037108 0 0 0.970068
2 1 0.498314 0.0753096 0.0525479 0 0 -0.135565
3 1 0.523293 0.123911 0.656995 0 0 -0.00590706
4 1 0.702926 0.9505 0.922722 0 0 -0.970068
5 1 0.391344 0.158632 0.802834 0 0 -0.0750668
6 1 0.154449 0.0405668 0.907282 0 0 0.135565
7 1 0.838769 0.248911 0.782004 0 0 -0.0497
8 1 0.892361 0.207244 0.407002 0 0 5.73397e-05
9 1 0.0758634 0.0336323 0.677818 0 0 -0.0097847
10 1 0.760402 0.241965 0.552828 0 0 -5.74589e-05
11 1 0.813994 0.200299 0.177826 0 0 0.0497001
12 1 0.5769 0.0822441 0.282012 0 0 0.00978482
13 1 0.261419 0.290578 0.156996 0 0 0.0750663
14 1 0.444937 0.116965 0.427832 0 0 -0.000583053
15 1 0.949837 0.49871 0.037108 0 0 0.970069
16 1 0.498314 0.408643 0.0525479 0 0 -0.135565
17 1 0.523293 0.457245 0.656995 0 0 -0.00590706
18 1 0.702926 0.283833 0.922722 0 0 -0.970068
19 1 0.391344 0.491965 0.802834 0 0 -0.0750669
20 1 0.154449 0.3739 0.907282 0 0 0.135565
21 1 0.838769 0.582244 0.782004 0 0 -0.0497007
22 1 0.207826 0.332245 0.531998 0 0 0.000583529
23 1 0.892361 0.540578 0.407002 0 0 5.68628e-05
24 1 0.0758634 0.366966 0.677818 0 0 -0.00978386
25 1 0.760402 0.575299 0.552828 0 0 -5.75781e-05
26 1 0.12947 0.325298 0.302835 0 0 0.00590682
27 1 0.813994 0.533632 0.177826 0 0 0.0496997
28 1 0.5769 0.415577 0.282012 0 0 0.0097847
29 1 0.261419 0.623911 0.156996 0 0 0.0750662
30 1 0.444937 0.450298 0.427832 0 0 -0.000583529
31 1 0.949837 0.832043 0.037108 0 0 0.970068
32 1 0.498314 0.741976 0.0525479 0 0 -0.135565
33 1 0.523293 0.790578 0.656995 0 0 -0.00590706
34 1 0.702926 0.617167 0.922722 0 0 -0.970068
35 1 0.391344 0.825298 0.802834 0 0 -0.0750663
36 1 0.154449 0.707233 0.907282 0 0 0.135565
37 1 0.838769 0.915578 0.782004 0 0 -0.0497007
38 1 0.207826 0.665578 0.531998 0 0 0.000583529
39 1 0.892361 0.873911 0.407002 0 0 5.79357e-05
40 1 0.0758634 0.700299 0.677818 0 0 -0.00978398
41 1 0.760402 0.908632 0.552828 0 0 -5.81741e-05
42 1 0.12947 0.658632 0.302835 0 0 0.00590718
43 1 0.813994 0.866965 0.177826 0 0 0.0497
44 1 0.5769 0.748911 0.282012 0 0 0.00978482
45 1 0.261419 0.957245 0.156996 0 0 0.075066
46 1 0.444937 0.783632 0.427832 0 0 -0.000583172
47 1 0.207826 0.998911 0.531998 0 0 0.000583172
48 1 0.12947 0.991965 0.302835 0 0 0.00590706
ITEM: TIMESTEP
2
ITEM: NUMBER OF ATOMS
48
ITEM: BOX BOUNDS xy xz yz pp pp pp
-4.5644139647483826e+00 8.6109705567359924e+00 2.5110912919044495e+00
-1.0506033897399902e-02 9.6185076832771301e+00 -4.5498571395874023e+00
-2.6944518089294434e-02 1.9544072151184082e+01 3.6519104242324829e-01
ITEM: ATOMS id type xs ys zs fx fy fz
1 1 0.953722 0.165175 0.0422176 0 0 0.175843
2 1 0.497771 0.0753377 0.0518339 0 0 -0.130265
3 1 0.523269 0.123913 0.656964 0 0 -0.0114821
4 1 0.699041 0.950701 0.917613 0 0 -0.175843
5 1 0.391044 0.158647 0.802439 0 0 -0.148901
6 1 0.154992 0.0405386 0.907996 0 0 0.130265
7 1 0.83857 0.248921 0.781742 0 0 -0.105016
8 1 0.892361 0.207244 0.407002 0 0 0.000485897
9 1 0.0758242 0.0336343 0.677767 0 0 -0.0173244
10 1 0.760402 0.241965 0.552828 0 0 -0.000485897
11 1 0.814193 0.200288 0.178088 0 0 0.105016
12 1 0.576939 0.082242 0.282064 0 0 0.0173242
13 1 0.26172 0.290562 0.157392 0 0 0.148902
14 1 0.444934 0.116965 0.427829 0 0 0.000400662
15 1 0.953722 0.498508 0.0422176 0 0 0.175843
16 1 0.497771 0.408671 0.0518339 0 0 -0.130265
17 1 0.523269 0.457246 0.656964 0 0 -0.011482
18 1 0.699041 0.284035 0.917613 0 0 -0.175843
19 1 0.391043 0.491981 0.802439 0 0 -0.148902
20 1 0.154992 0.373872 0.907996 0 0 0.130265
21 1 0.83857 0.582255 0.781742 0 0 -0.105016
22 1 0.207829 0.332245 0.532001 0 0 -0.000400186
23 1 0.892361 0.540578 0.407002 0 0 0.000485659
24 1 0.0758242 0.366968 0.677767 0 0 -0.0173244
25 1 0.760402 0.575299 0.552828 0 0 -0.000485897
26 1 0.129494 0.325297 0.302866 0 0 0.0114824
27 1 0.814193 0.533622 0.178088 0 0 0.105016
28 1 0.576939 0.415575 0.282064 0 0 0.0173242
29 1 0.26172 0.623896 0.157392 0 0 0.148901
30 1 0.444934 0.450298 0.427829 0 0 0.000400424
31 1 0.953722 0.831842 0.0422176 0 0 0.175843
32 1 0.497771 0.742004 0.0518339 0 0 -0.130265
33 1 0.523269 0.790579 0.656964 0 0 -0.0114822
34 1 0.699041 0.617368 0.917613 0 0 -0.175843
35 1 0.391044 0.825314 0.802439 0 0 -0.148901
36 1 0.154992 0.707205 0.907996 0 0 0.130265
37 1 0.83857 0.915588 0.781742 0 0 -0.105016
38 1 0.207829 0.665578 0.532001 0 0 -0.00040102
39 1 0.892361 0.873911 0.407002 0 0 0.000486374
40 1 0.0758242 0.700301 0.677767 0 0 -0.0173239
41 1 0.760402 0.908632 0.552828 0 0 -0.000486612
42 1 0.129494 0.65863 0.302866 0 0 0.0114824
43 1 0.814193 0.866955 0.178088 0 0 0.105016
44 1 0.576939 0.748909 0.282064 0 0 0.0173247
45 1 0.26172 0.957229 0.157392 0 0 0.148901
46 1 0.444934 0.783632 0.427829 0 0 0.000400662
47 1 0.207829 0.998911 0.532001 0 0 -0.000400424
48 1 0.129494 0.991964 0.302866 0 0 0.0114824
ITEM: TIMESTEP
3
ITEM: NUMBER OF ATOMS
48
ITEM: BOX BOUNDS xy xz yz pp pp pp
-4.5644139647483826e+00 8.6109705567359924e+00 2.5110912919044495e+00
-1.0506033897399902e-02 9.6185076832771301e+00 -4.5498571395874023e+00
-2.6944518089294434e-02 1.9544072151184082e+01 3.6519104242324829e-01
ITEM: ATOMS id type xs ys zs fx fy fz
1 1 0.956054 0.165054 0.0452858 0 0 -0.108273
2 1 0.496043 0.0754273 0.0495609 0 0 -0.00334823
3 1 0.523117 0.123921 0.656764 0 0 -0.0514702
4 1 0.696709 0.950822 0.914544 0 0 0.108273
5 1 0.389068 0.15875 0.79984 0 0 -0.0576137
6 1 0.15672 0.040449 0.910269 0 0 0.00334835
7 1 0.837176 0.248994 0.77991 0 0 -0.0410551
8 1 0.892367 0.207244 0.40701 0 0 0.00899589
9 1 0.0755944 0.0336462 0.677464 0 0 -0.0545813
10 1 0.760396 0.241966 0.55282 0 0 -0.00899553
11 1 0.815586 0.200216 0.17992 0 0 0.0410552
12 1 0.577169 0.0822301 0.282366 0 0 0.0545812
13 1 0.263695 0.29046 0.15999 0 0 0.0576133
14 1 0.44494 0.116965 0.427836 0 0 0.0105144
15 1 0.956054 0.498387 0.0452858 0 0 -0.108273
16 1 0.496043 0.408761 0.0495609 0 0 -0.00334823
17 1 0.523117 0.457254 0.656764 0 0 -0.0514708
18 1 0.696709 0.284156 0.914544 0 0 0.108273
19 1 0.389068 0.492083 0.79984 0 0 -0.057613
20 1 0.15672 0.373782 0.910269 0 0 0.00334799
21 1 0.837177 0.582327 0.77991 0 0 -0.0410548
22 1 0.207823 0.332245 0.531994 0 0 -0.0105144
23 1 0.892367 0.540577 0.40701 0 0 0.00899601
24 1 0.0755944 0.36698 0.677464 0 0 -0.054581
25 1 0.760396 0.575299 0.55282 0 0 -0.00899589
26 1 0.129646 0.325289 0.303067 0 0 0.0514702
27 1 0.815586 0.533549 0.17992 0 0 0.041055
28 1 0.577169 0.415563 0.282366 0 0 0.0545813
29 1 0.263695 0.623793 0.15999 0 0 0.0576134
30 1 0.44494 0.450298 0.427836 0 0 0.010514
31 1 0.956054 0.831721 0.0452858 0 0 -0.108273
32 1 0.496043 0.742094 0.0495609 0 0 -0.00334811
33 1 0.523117 0.790587 0.656764 0 0 -0.0514702
34 1 0.696709 0.617489 0.914544 0 0 0.108273
35 1 0.389068 0.825416 0.79984 0 0 -0.0576136
36 1 0.15672 0.707116 0.910269 0 0 0.00334775
37 1 0.837176 0.91566 0.77991 0 0 -0.0410548
38 1 0.207823 0.665578 0.531994 0 0 -0.0105137
39 1 0.892367 0.873911 0.40701 0 0 0.00899577
40 1 0.0755944 0.700313 0.677464 0 0 -0.0545813
41 1 0.760396 0.908632 0.55282 0 0 -0.00899518
42 1 0.129646 0.658622 0.303067 0 0 0.0514697
43 1 0.815586 0.866883 0.17992 0 0 0.0410551
44 1 0.577169 0.748897 0.282366 0 0 0.0545809
45 1 0.263695 0.957127 0.15999 0 0 0.0576135
46 1 0.44494 0.783632 0.427836 0 0 0.0105141
47 1 0.207823 0.998912 0.531994 0 0 -0.0105147
48 1 0.129646 0.991956 0.303067 0 0 0.0514703
ITEM: TIMESTEP
4
ITEM: NUMBER OF ATOMS
48
ITEM: BOX BOUNDS xy xz yz pp pp pp
-4.5644139647483826e+00 8.6109705567359924e+00 2.5110912919044495e+00
-1.0506033897399902e-02 9.6185076832771301e+00 -4.5498571395874023e+00
-2.6944518089294434e-02 1.9544072151184082e+01 3.6519104242324829e-01
ITEM: ATOMS id type xs ys zs fx fy fz
1 1 0.955541 0.165081 0.0446103 0 0 0.0261414
2 1 0.495576 0.0754516 0.0489464 0 0 0.0513784
3 1 0.522557 0.12395 0.656026 0 0 -0.0470301
4 1 0.697222 0.950796 0.91522 0 0 -0.0261414
5 1 0.387988 0.158806 0.79842 0 0 0.0219421
6 1 0.157187 0.0404248 0.910884 0 0 -0.0513786
7 1 0.836411 0.249033 0.778903 0 0 0.0137615
8 1 0.89246 0.207239 0.407133 0 0 0.0180134
9 1 0.074983 0.0336779 0.67666 0 0 -0.0460434
10 1 0.760303 0.24197 0.552698 0 0 -0.0180134
11 1 0.816352 0.200176 0.180927 0 0 -0.0137615
12 1 0.57778 0.0821984 0.28317 0 0 0.0460438
13 1 0.264775 0.290404 0.16141 0 0 -0.0219421
14 1 0.445048 0.116959 0.427978 0 0 0.0202771
15 1 0.955541 0.498414 0.0446103 0 0 0.0261413
16 1 0.495576 0.408785 0.0489464 0 0 0.0513786
17 1 0.522557 0.457283 0.656026 0 0 -0.04703
18 1 0.697222 0.284129 0.91522 0 0 -0.0261415
19 1 0.387988 0.492139 0.79842 0 0 0.0219424
20 1 0.157187 0.373758 0.910884 0 0 -0.0513785
21 1 0.836411 0.582367 0.778903 0 0 0.0137615
22 1 0.207715 0.33225 0.531852 0 0 -0.0202773
23 1 0.89246 0.540573 0.407133 0 0 0.0180135
24 1 0.074983 0.367011 0.67666 0 0 -0.0460435
25 1 0.760303 0.575304 0.552698 0 0 -0.0180132
26 1 0.130207 0.32526 0.303804 0 0 0.0470296
27 1 0.816352 0.53351 0.180927 0 0 -0.0137613
28 1 0.57778 0.415532 0.28317 0 0 0.046043
29 1 0.264775 0.623737 0.16141 0 0 -0.0219423
30 1 0.445048 0.450293 0.427978 0 0 0.0202776
31 1 0.955541 0.831747 0.0446103 0 0 0.0261414
32 1 0.495576 0.742118 0.0489464 0 0 0.0513787
33 1 0.522557 0.790616 0.656026 0 0 -0.0470303
34 1 0.697222 0.617462 0.91522 0 0 -0.0261415
35 1 0.387988 0.825472 0.79842 0 0 0.0219423
36 1 0.157187 0.707091 0.910884 0 0 -0.0513785
37 1 0.836411 0.9157 0.778903 0 0 0.0137616
38 1 0.207715 0.665584 0.531852 0 0 -0.0202769
39 1 0.89246 0.873906 0.407133 0 0 0.0180132
40 1 0.074983 0.700345 0.67666 0 0 -0.0460435
41 1 0.760303 0.908637 0.552698 0 0 -0.0180135
42 1 0.130206 0.658593 0.303804 0 0 0.04703
43 1 0.816352 0.866843 0.180927 0 0 -0.0137615
44 1 0.57778 0.748865 0.28317 0 0 0.0460432
45 1 0.264775 0.957071 0.16141 0 0 -0.021942
46 1 0.445048 0.783626 0.427978 0 0 0.0202774
47 1 0.207715 0.998917 0.531852 0 0 -0.0202773
48 1 0.130206 0.991927 0.303804 0 0 0.0470301
ITEM: TIMESTEP
5
ITEM: NUMBER OF ATOMS
48
ITEM: BOX BOUNDS xy xz yz pp pp pp
-4.5644139647483826e+00 8.6109705567359924e+00 2.5110912919044495e+00
-1.0506033897399902e-02 9.6185076832771301e+00 -4.5498571395874023e+00
-2.6944518089294434e-02 1.9544072151184082e+01 3.6519104242324829e-01
ITEM: ATOMS id type xs ys zs fx fy fz
1 1 0.955667 0.165074 0.0447769 0 0 0.0168576
2 1 0.496199 0.0754192 0.0497666 0 0 0.0202147
3 1 0.521303 0.124015 0.654378 0 0 0.0126648
4 1 0.697096 0.950802 0.915053 0 0 -0.0168576
5 1 0.387647 0.158823 0.797971 0 0 -0.00546312
6 1 0.156564 0.0404571 0.910064 0 0 -0.0202147
7 1 0.836135 0.249048 0.77854 0 0 -0.0176806
8 1 0.892856 0.207219 0.407653 0 0 0.0144316
9 1 0.0737125 0.0337438 0.674989 0 0 0.0170213
10 1 0.759907 0.241991 0.552177 0 0 -0.014432
11 1 0.816628 0.200162 0.18129 0 0 0.0176809
12 1 0.579051 0.0821326 0.284841 0 0 -0.0170214
13 1 0.265116 0.290386 0.16186 0 0 0.005463
14 1 0.445496 0.116936 0.428568 0 0 0.0169898
15 1 0.955667 0.498408 0.0447769 0 0 0.016858
16 1 0.496199 0.408753 0.0497666 0 0 0.0202149
17 1 0.521303 0.457348 0.654378 0 0 0.0126654
18 1 0.697096 0.284135 0.915053 0 0 -0.0168576
19 1 0.387647 0.492157 0.797971 0 0 -0.00546372
20 1 0.156564 0.37379 0.910064 0 0 -0.0202149
21 1 0.836135 0.582381 0.77854 0 0 -0.0176809
22 1 0.207267 0.332274 0.531262 0 0 -0.0169896
23 1 0.892856 0.540552 0.407653 0 0 0.0144315
24 1 0.0737125 0.367077 0.674989 0 0 0.0170218
25 1 0.759907 0.575324 0.552177 0 0 -0.014432
26 1 0.13146 0.325195 0.305452 0 0 -0.0126646
27 1 0.816628 0.533495 0.18129 0 0 0.0176804
28 1 0.579051 0.415466 0.284841 0 0 -0.0170212
29 1 0.265116 0.62372 0.16186 0 0 0.00546324
30 1 0.445496 0.450269 0.428568 0 0 0.0169896
31 1 0.955667 0.831741 0.0447769 0 0 0.0168575
32 1 0.496199 0.742086 0.0497666 0 0 0.0202146
33 1 0.521303 0.790681 0.654378 0 0 0.0126653
34 1 0.697096 0.617469 0.915053 0 0 -0.0168579
35 1 0.387647 0.82549 0.797971 0 0 -0.00546324
36 1 0.156564 0.707124 0.910064 0 0 -0.0202147
37 1 0.836135 0.915714 0.77854 0 0 -0.0176808
38 1 0.207267 0.665607 0.531262 0 0 -0.0169905
39 1 0.892856 0.873885 0.407653 0 0 0.0144316
40 1 0.0737125 0.70041 0.674989 0 0 0.0170215
41 1 0.759907 0.908658 0.552177 0 0 -0.0144317
42 1 0.13146 0.658528 0.305452 0 0 -0.0126644
43 1 0.816628 0.866829 0.18129 0 0 0.0176805
44 1 0.579051 0.748799 0.284841 0 0 -0.0170208
45 1 0.265116 0.957053 0.16186 0 0 0.00546324
46 1 0.445496 0.783603 0.428568 0 0 0.0169898
47 1 0.207267 0.99894 0.531262 0 0 -0.0169897
48 1 0.13146 0.991862 0.305452 0 0 -0.0126649
ITEM: TIMESTEP
6
ITEM: NUMBER OF ATOMS
48
ITEM: BOX BOUNDS xy xz yz pp pp pp
-4.5644139647483826e+00 8.6109705567359924e+00 2.5110912919044495e+00
-1.0506033897399902e-02 9.6185076832771301e+00 -4.5498571395874023e+00
-2.6944518089294434e-02 1.9544072151184082e+01 3.6519104242324829e-01
ITEM: ATOMS id type xs ys zs fx fy fz
1 1 0.955865 0.165064 0.0450368 0 0 -0.00818908
2 1 0.496487 0.0754043 0.0501448 0 0 0.00426471
3 1 0.521307 0.124014 0.654383 0 0 0.000148058
4 1 0.696898 0.950812 0.914793 0 0 0.00818884
5 1 0.38755 0.158828 0.797844 0 0 -0.00565398
6 1 0.156276 0.0404721 0.909685 0 0 -0.00426483
7 1 0.835912 0.249059 0.778248 0 0 -0.0104934
8 1 0.893056 0.207208 0.407917 0 0 -0.00692058
9 1 0.0737619 0.0337412 0.675054 0 0 0.00213552
10 1 0.759707 0.242001 0.551914 0 0 0.00691998
11 1 0.81685 0.20015 0.181583 0 0 0.0104933
12 1 0.579001 0.0821351 0.284776 0 0 -0.00213552
13 1 0.265213 0.290381 0.161986 0 0 0.00565422
14 1 0.445729 0.116924 0.428875 0 0 -0.00566173
15 1 0.955865 0.498397 0.0450368 0 0 -0.00818944
16 1 0.496487 0.408738 0.0501449 0 0 0.00426459
17 1 0.521307 0.457348 0.654383 0 0 0.000147462
18 1 0.696898 0.284146 0.914793 0 0 0.00818908
19 1 0.38755 0.492162 0.797844 0 0 -0.0056541
20 1 0.156276 0.373805 0.909685 0 0 -0.00426483
21 1 0.835912 0.582393 0.778248 0 0 -0.0104933
22 1 0.207034 0.332286 0.530955 0 0 0.00566161
23 1 0.893056 0.540542 0.407917 0 0 -0.0069201
24 1 0.0737619 0.367075 0.675054 0 0 0.0021354
25 1 0.759707 0.575335 0.551914 0 0 0.00692022
26 1 0.131456 0.325195 0.305447 0 0 -0.000147581
27 1 0.81685 0.533484 0.181583 0 0 0.0104936
28 1 0.579001 0.415468 0.284776 0 0 -0.00213516
29 1 0.265213 0.623715 0.161986 0 0 0.00565445
30 1 0.445729 0.450257 0.428875 0 0 -0.00566173
31 1 0.955865 0.831731 0.0450368 0 0 -0.00818896
32 1 0.496487 0.742071 0.0501449 0 0 0.00426459
33 1 0.521307 0.790681 0.654383 0 0 0.000147462
34 1 0.696898 0.617479 0.914793 0 0 0.00818932
35 1 0.38755 0.825495 0.797844 0 0 -0.0056541
36 1 0.156276 0.707139 0.909685 0 0 -0.00426459
37 1 0.835912 0.915726 0.778248 0 0 -0.0104933
38 1 0.207034 0.665619 0.530955 0 0 0.00566196
39 1 0.893056 0.873875 0.407917 0 0 -0.00692022
40 1 0.0737619 0.700408 0.675054 0 0 0.00213516
41 1 0.759707 0.908668 0.551914 0 0 0.0069201
42 1 0.131456 0.658529 0.305447 0 0 -0.00014782
43 1 0.81685 0.866817 0.181583 0 0 0.0104935
44 1 0.579001 0.748802 0.284776 0 0 -0.00213552
45 1 0.265213 0.957048 0.161986 0 0 0.00565398
46 1 0.445729 0.783591 0.428875 0 0 -0.00566185
47 1 0.207034 0.998952 0.530955 0 0 0.0056622
48 1 0.131456 0.991862 0.305447 0 0 -0.0001477
ITEM: TIMESTEP
7
ITEM: NUMBER OF ATOMS
48
ITEM: BOX BOUNDS xy xz yz pp pp pp
-4.5644139647483826e+00 8.6109705567359924e+00 2.5110912919044495e+00
-1.0506033897399902e-02 9.6185076832771301e+00 -4.5498571395874023e+00
-2.6944518089294434e-02 1.9544072151184082e+01 3.6519104242324829e-01
ITEM: ATOMS id type xs ys zs fx fy fz
1 1 0.955809 0.165067 0.0449631 0 0 0.00478494
2 1 0.496573 0.0753999 0.0502584 0 0 0.00189137
3 1 0.521309 0.124014 0.654385 0 0 -0.00278664
4 1 0.696954 0.95081 0.914867 0 0 -0.00478482
5 1 0.387477 0.158832 0.797748 0 0 0.00109327
6 1 0.15619 0.0404765 0.909572 0 0 -0.00189126
7 1 0.835771 0.249067 0.778062 0 0 -8.83341e-05
8 1 0.893014 0.207211 0.407861 0 0 -0.00336277
9 1 0.0737913 0.0337397 0.675093 0 0 -0.00200176
10 1 0.759749 0.241999 0.55197 0 0 0.00336337
11 1 0.816992 0.200143 0.181769 0 0 8.84533e-05
12 1 0.578972 0.0821366 0.284737 0 0 0.00200152
13 1 0.265286 0.290378 0.162082 0 0 -0.00109363
14 1 0.445705 0.116925 0.428843 0 0 -0.00299942
15 1 0.955809 0.4984 0.0449631 0 0 0.00478506
16 1 0.496573 0.408733 0.0502584 0 0 0.00189126
17 1 0.521309 0.457348 0.654385 0 0 -0.00278664
18 1 0.696954 0.284143 0.914867 0 0 -0.00478494
19 1 0.387477 0.492165 0.797748 0 0 0.00109339
20 1 0.15619 0.37381 0.909572 0 0 -0.00189126
21 1 0.835771 0.5824 0.778062 0 0 -8.83341e-05
22 1 0.207058 0.332284 0.530988 0 0 0.00299966
23 1 0.893014 0.540544 0.407861 0 0 -0.00336313
24 1 0.0737913 0.367073 0.675093 0 0 -0.00200212
25 1 0.759749 0.575332 0.55197 0 0 0.00336325
26 1 0.131454 0.325195 0.305445 0 0 0.00278676
27 1 0.816992 0.533476 0.181769 0 0 8.83341e-05
28 1 0.578972 0.41547 0.284737 0 0 0.00200176
29 1 0.265286 0.623711 0.162082 0 0 -0.00109363
30 1 0.445705 0.450259 0.428843 0 0 -0.00299966
31 1 0.955809 0.831734 0.0449631 0 0 0.00478494
32 1 0.496573 0.742067 0.0502584 0 0 0.00189137
33 1 0.521309 0.790681 0.654385 0 0 -0.00278664
34 1 0.696954 0.617476 0.914867 0 0 -0.0047847
35 1 0.387477 0.825499 0.797748 0 0 0.00109315
36 1 0.15619 0.707143 0.909572 0 0 -0.00189137
37 1 0.835771 0.915733 0.778062 0 0 -8.83341e-05
38 1 0.207058 0.665618 0.530988 0 0 0.00299954
39 1 0.893014 0.873877 0.407861 0 0 -0.00336325
40 1 0.0737913 0.700406 0.675093 0 0 -0.00200188
41 1 0.759749 0.908666 0.55197 0 0 0.00336325
42 1 0.131454 0.658529 0.305445 0 0 0.00278711
43 1 0.816992 0.86681 0.181769 0 0 8.84533e-05
44 1 0.578972 0.748803 0.284737 0 0 0.002002
45 1 0.265286 0.957044 0.162082 0 0 -0.00109363
46 1 0.445705 0.783592 0.428843 0 0 -0.00299978
47 1 0.207058 0.998951 0.530988 0 0 0.00299919
48 1 0.131454 0.991862 0.305445 0 0 0.00278652
ITEM: TIMESTEP
8
ITEM: NUMBER OF ATOMS
48
ITEM: BOX BOUNDS xy xz yz pp pp pp
-4.5644139647483826e+00 8.6109705567359924e+00 2.5110912919044495e+00
-1.0506033897399902e-02 9.6185076832771301e+00 -4.5498571395874023e+00
-2.6944518089294434e-02 1.9544072151184082e+01 3.6519104242324829e-01
ITEM: ATOMS id type xs ys zs fx fy fz
1 1 0.955841 0.165065 0.0450058 0 0 0.000251293
2 1 0.496604 0.0753983 0.0502984 0 0 0.000164032
3 1 0.521285 0.124016 0.654354 0 0 -0.000766397
4 1 0.696922 0.950811 0.914824 0 0 -0.000251293
5 1 0.387475 0.158832 0.797745 0 0 -0.000352144
6 1 0.156159 0.0404781 0.909532 0 0 -0.000163794
7 1 0.835747 0.249068 0.77803 0 0 -0.000109792
8 1 0.892977 0.207213 0.407813 0 0 0.000611901
9 1 0.0737787 0.0337404 0.675076 0 0 -0.000540018
10 1 0.759786 0.241997 0.552017 0 0 -0.00061214
11 1 0.817016 0.200142 0.1818 0 0 0.000109196
12 1 0.578984 0.082136 0.284754 0 0 0.000540137
13 1 0.265288 0.290377 0.162085 0 0 0.000352144
14 1 0.445675 0.116927 0.428803 0 0 0.000688076
15 1 0.955842 0.498399 0.0450058 0 0 0.000251412
16 1 0.496604 0.408732 0.0502984 0 0 0.000164032
17 1 0.521285 0.457349 0.654354 0 0 -0.000766039
18 1 0.696922 0.284145 0.914824 0 0 -0.000251055
19 1 0.387475 0.492166 0.797745 0 0 -0.000352025
20 1 0.156159 0.373811 0.909532 0 0 -0.000163913
21 1 0.835747 0.582401 0.77803 0 0 -0.000109792
22 1 0.207088 0.332283 0.531027 0 0 -0.000688434
23 1 0.892977 0.540546 0.407813 0 0 0.00061202
24 1 0.0737787 0.367074 0.675076 0 0 -0.00053966
25 1 0.759786 0.575331 0.552017 0 0 -0.000611782
26 1 0.131478 0.325194 0.305476 0 0 0.000766158
27 1 0.817016 0.533475 0.1818 0 0 0.000109792
28 1 0.578984 0.415469 0.284754 0 0 0.000540137
29 1 0.265288 0.623711 0.162085 0 0 0.000351906
30 1 0.445675 0.45026 0.428803 0 0 0.000688434
31 1 0.955841 0.831732 0.0450058 0 0 0.000251174
32 1 0.496604 0.742065 0.0502984 0 0 0.000163913
33 1 0.521285 0.790682 0.654354 0 0 -0.000766158
34 1 0.696922 0.617478 0.914824 0 0 -0.000251651
35 1 0.387475 0.825499 0.797745 0 0 -0.000352025
36 1 0.156159 0.707145 0.909532 0 0 -0.000163794
37 1 0.835747 0.915734 0.77803 0 0 -0.000110149
38 1 0.207088 0.665616 0.531027 0 0 -0.000688434
39 1 0.892977 0.873879 0.407813 0 0 0.000612259
40 1 0.0737787 0.700407 0.675076 0 0 -0.00053966
41 1 0.759786 0.908664 0.552017 0 0 -0.000611901
42 1 0.131478 0.658527 0.305476 0 0 0.000766158
43 1 0.817016 0.866809 0.1818 0 0 0.000109673
44 1 0.578984 0.748803 0.284754 0 0 0.00053978
45 1 0.265288 0.957044 0.162085 0 0 0.000352025
46 1 0.445675 0.783593 0.428803 0 0 0.000688195
47 1 0.207088 0.99895 0.531027 0 0 -0.000688076
48 1 0.131478 0.991861 0.305476 0 0 0.000766277
ITEM: TIMESTEP
9
ITEM: NUMBER OF ATOMS
48
ITEM: BOX BOUNDS xy xz yz pp pp pp
-4.5644139647483826e+00 8.6109705567359924e+00 2.5110912919044495e+00
-1.0506033897399902e-02 9.6185076832771301e+00 -4.5498571395874023e+00
-2.6944518089294434e-02 1.9544072151184082e+01 3.6519104242324829e-01
ITEM: ATOMS id type xs ys zs fx fy fz
1 1 0.95585 0.165065 0.0450176 0 0 -0.000805616
2 1 0.49661 0.0753979 0.0503071 0 0 -0.000138879
3 1 0.521264 0.124017 0.654326 0 0 -7.86781e-06
4 1 0.696913 0.950812 0.914813 0 0 0.000805378
5 1 0.387466 0.158833 0.797733 0 0 -0.000597
6 1 0.156153 0.0404784 0.909523 0 0 0.000138402
7 1 0.835743 0.249068 0.778024 0 0 -0.000675082
8 1 0.89299 0.207212 0.407829 0 0 -0.000150919
9 1 0.0737643 0.0337411 0.675057 0 0 -0.000210166
10 1 0.759773 0.241998 0.552001 0 0 0.000151277
11 1 0.81702 0.200142 0.181806 0 0 0.000676513
12 1 0.578999 0.0821352 0.284773 0 0 0.000209689
13 1 0.265297 0.290377 0.162097 0 0 0.000597596
14 1 0.445689 0.116926 0.428822 0 0 -0.000119925
15 1 0.95585 0.498398 0.0450175 0 0 -0.000805855
16 1 0.49661 0.408731 0.0503071 0 0 -0.000139356
17 1 0.521264 0.45735 0.654326 0 0 -8.22544e-06
18 1 0.696913 0.284145 0.914813 0 0 0.00080502
19 1 0.387466 0.492166 0.797733 0 0 -0.000597119
20 1 0.156153 0.373812 0.909523 0 0 0.000138998
21 1 0.835743 0.582401 0.778024 0 0 -0.00067544
22 1 0.207074 0.332284 0.531008 0 0 0.000120163
23 1 0.89299 0.540545 0.407829 0 0 -0.000151038
24 1 0.0737643 0.367074 0.675057 0 0 -0.000210524
25 1 0.759773 0.575331 0.552001 0 0 0.000150919
26 1 0.131499 0.325193 0.305504 0 0 7.27177e-06
27 1 0.81702 0.533475 0.181806 0 0 0.000675678
28 1 0.578999 0.415469 0.284773 0 0 0.000209689
29 1 0.265297 0.62371 0.162097 0 0 0.000597954
30 1 0.445689 0.450259 0.428822 0 0 -0.000120401
31 1 0.95585 0.831731 0.0450175 0 0 -0.000805259
32 1 0.49661 0.742065 0.0503071 0 0 -0.000138998
33 1 0.521264 0.790683 0.654326 0 0 -7.86781e-06
34 1 0.696913 0.617478 0.914813 0 0 0.000806332
35 1 0.387466 0.825499 0.797733 0 0 -0.000597239
36 1 0.156153 0.707145 0.909523 0 0 0.000138521
37 1 0.835743 0.915735 0.778024 0 0 -0.000674725
38 1 0.207074 0.665617 0.531008 0 0 0.00012064
39 1 0.89299 0.873879 0.407829 0 0 -0.000151396
40 1 0.0737643 0.700408 0.675057 0 0 -0.000210524
41 1 0.759773 0.908664 0.552001 0 0 0.000151038
42 1 0.131499 0.658526 0.305504 0 0 7.7486e-06
43 1 0.81702 0.866808 0.181806 0 0 0.000674963
44 1 0.578999 0.748802 0.284773 0 0 0.000210166
45 1 0.265297 0.957044 0.162097 0 0 0.000597596
46 1 0.445689 0.783593 0.428822 0 0 -0.000120044
47 1 0.207074 0.99895 0.531008 0 0 0.000120282
48 1 0.131499 0.99186 0.305504 0 0 7.62939e-06
ITEM: TIMESTEP
10
ITEM: NUMBER OF ATOMS
48
ITEM: BOX BOUNDS xy xz yz pp pp pp
-4.5644139647483826e+00 8.6109705567359924e+00 2.5110912919044495e+00
-1.0506033897399902e-02 9.6185076832771301e+00 -4.5498571395874023e+00
-2.6944518089294434e-02 1.9544072151184082e+01 3.6519104242324829e-01
ITEM: ATOMS id type xs ys zs fx fy fz
1 1 0.955845 0.165065 0.045011 0 0 0.000348926
2 1 0.496611 0.0753979 0.050308 0 0 4.29153e-05
3 1 0.521257 0.124017 0.654318 0 0 6.67572e-05
4 1 0.696918 0.950811 0.914819 0 0 -0.000348568
5 1 0.387458 0.158833 0.797722 0 0 -7.99894e-05
6 1 0.156152 0.0404785 0.909522 0 0 -4.3273e-05
7 1 0.835735 0.249068 0.778014 0 0 -0.000235319
8 1 0.892992 0.207212 0.407832 0 0 -0.000197887
9 1 0.0737578 0.0337415 0.675049 0 0 -0.00011301
10 1 0.759771 0.241998 0.551998 0 0 0.000198007
11 1 0.817028 0.200141 0.181816 0 0 0.000235677
12 1 0.579005 0.0821349 0.284781 0 0 0.000112891
13 1 0.265305 0.290377 0.162108 0 0 8.01086e-05
14 1 0.445693 0.116926 0.428827 0 0 -0.000204206
15 1 0.955845 0.498398 0.045011 0 0 0.000348926
16 1 0.496611 0.408731 0.050308 0 0 4.31538e-05
17 1 0.521257 0.45735 0.654318 0 0 6.67572e-05
18 1 0.696918 0.284145 0.914819 0 0 -0.000348926
19 1 0.387458 0.492167 0.797722 0 0 -8.01086e-05
20 1 0.156152 0.373812 0.909522 0 0 -4.33922e-05
21 1 0.835735 0.582402 0.778014 0 0 -0.0002352
22 1 0.20707 0.332284 0.531003 0 0 0.000204563
23 1 0.892992 0.540545 0.407832 0 0 -0.000198126
24 1 0.0737578 0.367075 0.675049 0 0 -0.000113368
25 1 0.759771 0.575331 0.551998 0 0 0.00019753
26 1 0.131506 0.325193 0.305512 0 0 -6.65188e-05
27 1 0.817028 0.533475 0.181816 0 0 0.000235081
28 1 0.579005 0.415468 0.284781 0 0 0.000112891
29 1 0.265305 0.62371 0.162108 0 0 8.01086e-05
30 1 0.445693 0.450259 0.428827 0 0 -0.000204206
31 1 0.955845 0.831732 0.045011 0 0 0.000348806
32 1 0.496611 0.742065 0.050308 0 0 4.35114e-05
33 1 0.521257 0.790684 0.654318 0 0 6.67572e-05
34 1 0.696918 0.617478 0.914819 0 0 -0.000348687
35 1 0.387458 0.8255 0.797722 0 0 -8.02279e-05
36 1 0.156152 0.707145 0.909522 0 0 -4.33922e-05
37 1 0.835735 0.915735 0.778014 0 0 -0.0002352
38 1 0.20707 0.665617 0.531003 0 0 0.000204444
39 1 0.892992 0.873878 0.407832 0 0 -0.000197887
40 1 0.0737578 0.700408 0.675049 0 0 -0.00011301
41 1 0.759771 0.908665 0.551998 0 0 0.000197768
42 1 0.131506 0.658526 0.305512 0 0 -6.67572e-05
43 1 0.817028 0.866808 0.181816 0 0 0.000235438
44 1 0.579005 0.748802 0.284781 0 0 0.00011313
45 1 0.265305 0.957043 0.162108 0 0 7.98702e-05
46 1 0.445693 0.783592 0.428827 0 0 -0.000203967
47 1 0.20707 0.998951 0.531003 0 0 0.000203848
48 1 0.131506 0.991859 0.305512 0 0 -6.6638e-05
ITEM: TIMESTEP
11
ITEM: NUMBER OF ATOMS
48
ITEM: BOX BOUNDS xy xz yz pp pp pp
-4.5644139647483826e+00 8.6109705567359924e+00 2.5110912919044495e+00
-1.0506033897399902e-02 9.6185076832771301e+00 -4.5498571395874023e+00
-2.6944518089294434e-02 1.9544072151184082e+01 3.6519104242324829e-01
ITEM: ATOMS id type xs ys zs fx fy fz
1 1 0.955849 0.165065 0.0450154 0 0 4.37498e-05
2 1 0.496612 0.0753979 0.050309 0 0 6.33001e-05
3 1 0.521257 0.124017 0.654317 0 0 3.12328e-05
4 1 0.696914 0.950812 0.914815 0 0 -4.39882e-05
5 1 0.387455 0.158833 0.797718 0 0 -1.09673e-05
6 1 0.156151 0.0404785 0.909521 0 0 -6.29425e-05
7 1 0.83573 0.249069 0.778007 0 0 -2.28882e-05
8 1 0.89299 0.207212 0.40783 0 0 6.77109e-05
9 1 0.0737547 0.0337416 0.675045 0 0 3.25441e-05
10 1 0.759773 0.241998 0.552001 0 0 -6.79493e-05
11 1 0.817033 0.200141 0.181823 0 0 2.2769e-05
12 1 0.579008 0.0821347 0.284786 0 0 -3.24249e-05
13 1 0.265308 0.290376 0.162112 0 0 1.00136e-05
14 1 0.445691 0.116926 0.428824 0 0 4.50611e-05
15 1 0.955849 0.498398 0.0450154 0 0 4.37498e-05
16 1 0.496612 0.408731 0.050309 0 0 6.29425e-05
17 1 0.521257 0.45735 0.654317 0 0 3.09944e-05
18 1 0.696914 0.284145 0.914815 0 0 -4.36306e-05
19 1 0.387455 0.492167 0.797718 0 0 -1.09673e-05
20 1 0.156151 0.373812 0.909521 0 0 -6.28233e-05
21 1 0.83573 0.582402 0.778007 0 0 -2.2769e-05
22 1 0.207072 0.332284 0.531006 0 0 -4.51803e-05
23 1 0.89299 0.540545 0.40783 0 0 6.81877e-05
24 1 0.0737547 0.367075 0.675045 0 0 3.24249e-05
25 1 0.759773 0.575331 0.552001 0 0 -6.74725e-05
26 1 0.131506 0.325193 0.305513 0 0 -3.11136e-05