ITEM: TIMESTEP
0
ITEM: NUMBER OF ATOMS
32
ITEM: BOX BOUNDS xy xz yz pp pp pp
-4.0532350540161133e-03 6.4008854031562805e+00 0.0000000000000000e+00
-9.1640949249267578e-03 1.0367991089820862e+01 0.0000000000000000e+00
-4.7960281372070312e-02 2.0773346722126007e+01 4.8383958339691162e+00
ITEM: ATOMS id type xs ys zs fx fy fz
1 1 0.999986 0.613963 0.0597509 0 0 0.0802193
2 1 0.499986 0.613963 0.0597509 0 0 0.0802193
3 1 0.249986 0.113963 0.0597519 0 0 0.0801983
4 1 0.749986 0.113963 0.0597519 0 0 0.0801983
5 1 0.999986 0.395587 0.309753 0 0 3.43323e-05
6 1 0.249986 0.339123 0.184753 0 0 -0.0028038
7 1 0.749986 0.339123 0.184753 0 0 -0.0028038
8 1 0.499986 0.395587 0.309753 0 0 3.43323e-05
9 1 0.999986 0.839121 0.184753 0 0 -0.00277328
10 1 0.249986 0.895587 0.309753 0 0 -7.62939e-06
11 1 0.499986 0.839121 0.184753 0 0 -0.00277328
12 1 0.749986 0.895587 0.309753 0 0 -7.62939e-06
13 1 0.999986 0.177188 0.559749 0 0 6.67572e-05
14 1 0.499986 0.177188 0.559749 0 0 6.67572e-05
15 1 0.249986 0.677186 0.55975 0 0 5.34058e-05
16 1 0.749986 0.677186 0.55975 0 0 5.34058e-05
17 1 0.249986 0.120736 0.434752 0 0 -6.67572e-05
18 1 0.749986 0.120736 0.434752 0 0 -6.67572e-05
19 1 0.999986 0.620736 0.434752 0 0 -4.19617e-05
20 1 0.499986 0.620736 0.434752 0 0 -4.19617e-05
21 1 0.999986 0.958792 0.809748 0 0 0.00278664
22 1 0.249986 0.902333 0.684748 0 0 -1.90735e-05
23 1 0.499986 0.958792 0.809748 0 0 0.00278664
24 1 0.749986 0.902333 0.684748 0 0 -1.90735e-05
25 1 0.999986 0.402332 0.684749 0 0 -3.8147e-05
26 1 0.249986 0.458793 0.809748 0 0 0.00279617
27 1 0.749986 0.458793 0.809748 0 0 0.00279617
28 1 0.499986 0.402332 0.684749 0 0 -3.8147e-05
29 1 0.249986 0.683949 0.934749 0 0 -0.0801926
30 1 0.749986 0.683949 0.934749 0 0 -0.0801926
31 1 0.999986 0.183949 0.93475 0 0 -0.0802116
32 1 0.499986 0.183949 0.93475 0 0 -0.0802116
ITEM: TIMESTEP
1
ITEM: NUMBER OF ATOMS
32
ITEM: BOX BOUNDS xy xz yz pp pp pp
-4.0532350540161133e-03 6.4008854031562805e+00 0.0000000000000000e+00
-9.1640949249267578e-03 1.0367991089820862e+01 0.0000000000000000e+00
-4.7960281372070312e-02 2.0773346722126007e+01 4.8383958339691162e+00
ITEM: ATOMS id type xs ys zs fx fy fz
1 1 0.999986 0.613138 0.060696 0 0 -0.00242615
2 1 0.499986 0.613138 0.060696 0 0 -0.00242615
3 1 0.249986 0.113137 0.0606968 0 0 -0.00242996
4 1 0.749986 0.113137 0.0606968 0 0 -0.00242996
5 1 0.999986 0.395586 0.309753 0 0 0.000770569
6 1 0.249986 0.339152 0.18472 0 0 0.0220909
7 1 0.749986 0.339152 0.18472 0 0 0.0220909
8 1 0.499986 0.395586 0.309753 0 0 0.000770569
9 1 0.999986 0.83915 0.18472 0 0 0.0220928
10 1 0.249986 0.895587 0.309753 0 0 0.000766754
11 1 0.499986 0.83915 0.18472 0 0 0.0220928
12 1 0.749986 0.895587 0.309753 0 0 0.000766754
13 1 0.999986 0.177188 0.55975 0 0 0.000141144
14 1 0.499986 0.177188 0.55975 0 0 0.000141144
15 1 0.249986 0.677186 0.55975 0 0 0.000137329
16 1 0.749986 0.677186 0.55975 0 0 0.000137329
17 1 0.249986 0.120737 0.434751 0 0 -0.000148773
18 1 0.749986 0.120737 0.434751 0 0 -0.000148773
19 1 0.999986 0.620736 0.434751 0 0 -0.000139236
20 1 0.499986 0.620736 0.434751 0 0 -0.000139236
21 1 0.999986 0.958764 0.809781 0 0 -0.022089
22 1 0.249986 0.902333 0.684748 0 0 -0.000764847
23 1 0.499986 0.958764 0.809781 0 0 -0.022089
24 1 0.749986 0.902333 0.684748 0 0 -0.000764847
25 1 0.999986 0.402332 0.684748 0 0 -0.000774384
26 1 0.249986 0.458764 0.809781 0 0 -0.0220814
27 1 0.749986 0.458764 0.809781 0 0 -0.0220814
28 1 0.499986 0.402332 0.684748 0 0 -0.000774384
29 1 0.249986 0.684774 0.933805 0 0 0.00243378
30 1 0.749986 0.684774 0.933805 0 0 0.00243378
31 1 0.999986 0.184774 0.933805 0 0 0.00242043
32 1 0.499986 0.184774 0.933805 0 0 0.00242043
ITEM: TIMESTEP
2
ITEM: NUMBER OF ATOMS
32
ITEM: BOX BOUNDS xy xz yz pp pp pp
-4.0532350540161133e-03 6.4008854031562805e+00 0.0000000000000000e+00
-9.1640949249267578e-03 1.0367991089820862e+01 0.0000000000000000e+00
-4.7960281372070312e-02 2.0773346722126007e+01 4.8383958339691162e+00
ITEM: ATOMS id type xs ys zs fx fy fz
1 1 0.999986 0.613001 0.0608531 0 0 -0.00310326
2 1 0.499986 0.613001 0.0608531 0 0 -0.00310326
3 1 0.249986 0.113 0.0608537 0 0 -0.00312042
4 1 0.749986 0.113 0.0608537 0 0 -0.00312042
5 1 0.999986 0.395571 0.309771 0 0 0.01194
6 1 0.249986 0.33872 0.185214 0 0 0.000627518
7 1 0.749986 0.33872 0.185214 0 0 0.000627518
8 1 0.499986 0.395571 0.309771 0 0 0.01194
9 1 0.999986 0.838718 0.185214 0 0 0.000616074
10 1 0.249986 0.895571 0.309771 0 0 0.0119381
11 1 0.499986 0.838718 0.185214 0 0 0.000616074
12 1 0.749986 0.895571 0.309771 0 0 0.0119381
13 1 0.999986 0.177185 0.559754 0 0 -0.00131607
14 1 0.499986 0.177185 0.559754 0 0 -0.00131607
15 1 0.249986 0.677183 0.559754 0 0 -0.00131989
16 1 0.749986 0.677183 0.559754 0 0 -0.00131989
17 1 0.249986 0.12074 0.434748 0 0 0.00131607
18 1 0.749986 0.12074 0.434748 0 0 0.00131607
19 1 0.999986 0.620739 0.434748 0 0 0.00130844
20 1 0.499986 0.620739 0.434748 0 0 0.00130844
21 1 0.999986 0.959195 0.809287 0 0 -0.000631332
22 1 0.249986 0.902348 0.684731 0 0 -0.0119324
23 1 0.499986 0.959195 0.809287 0 0 -0.000631332
24 1 0.749986 0.902348 0.684731 0 0 -0.0119324
25 1 0.999986 0.402348 0.684731 0 0 -0.0119209
26 1 0.249986 0.459195 0.809287 0 0 -0.000637054
27 1 0.749986 0.459195 0.809287 0 0 -0.000637054
28 1 0.499986 0.402348 0.684731 0 0 -0.0119209
29 1 0.249986 0.684911 0.933648 0 0 0.00311661
30 1 0.749986 0.684911 0.933648 0 0 0.00311661
31 1 0.999986 0.184912 0.933648 0 0 0.00311852
32 1 0.499986 0.184912 0.933648 0 0 0.00311852
ITEM: TIMESTEP
3
ITEM: NUMBER OF ATOMS
32
ITEM: BOX BOUNDS xy xz yz pp pp pp
-4.0532350540161133e-03 6.4008854031562805e+00 0.0000000000000000e+00
-9.1640949249267578e-03 1.0367991089820862e+01 0.0000000000000000e+00
-4.7960281372070312e-02 2.0773346722126007e+01 4.8383958339691162e+00
ITEM: ATOMS id type xs ys zs fx fy fz
1 1 0.999986 0.613032 0.0608174 0 0 0.00424767
2 1 0.499986 0.613032 0.0608174 0 0 0.00424767
3 1 0.249986 0.113032 0.0608176 0 0 0.00425911
4 1 0.749986 0.113032 0.0608176 0 0 0.00425911
5 1 0.999986 0.395295 0.310087 0 0 0.000255585
6 1 0.249986 0.338582 0.185372 0 0 -0.000814438
7 1 0.749986 0.338582 0.185372 0 0 -0.000814438
8 1 0.499986 0.395295 0.310087 0 0 0.000255585
9 1 0.999986 0.83858 0.185372 0 0 -0.000816345
10 1 0.249986 0.895296 0.310087 0 0 0.000261307
11 1 0.499986 0.83858 0.185372 0 0 -0.000816345
12 1 0.749986 0.895296 0.310087 0 0 0.000261307
13 1 0.999986 0.177214 0.55972 0 0 -0.00618553
14 1 0.499986 0.177214 0.55972 0 0 -0.00618553
15 1 0.249986 0.677212 0.55972 0 0 -0.00618172
16 1 0.749986 0.677212 0.55972 0 0 -0.00618172
17 1 0.249986 0.120711 0.434781 0 0 0.00618935
18 1 0.749986 0.120711 0.434781 0 0 0.00618935
19 1 0.999986 0.62071 0.434781 0 0 0.00618172
20 1 0.499986 0.62071 0.434781 0 0 0.00618172
21 1 0.999986 0.959333 0.809129 0 0 0.00082016
22 1 0.249986 0.902624 0.684415 0 0 -0.000246048
23 1 0.499986 0.959333 0.809129 0 0 0.00082016
24 1 0.749986 0.902624 0.684415 0 0 -0.000246048
25 1 0.999986 0.402623 0.684415 0 0 -0.00028038
26 1 0.249986 0.459333 0.809129 0 0 0.000823975
27 1 0.749986 0.459333 0.809129 0 0 0.000823975
28 1 0.499986 0.402623 0.684415 0 0 -0.00028038
29 1 0.249986 0.68488 0.933684 0 0 -0.00424576
30 1 0.749986 0.68488 0.933684 0 0 -0.00424576
31 1 0.999986 0.18488 0.933684 0 0 -0.00426865
32 1 0.499986 0.18488 0.933684 0 0 -0.00426865
ITEM: TIMESTEP
4
ITEM: NUMBER OF ATOMS
32
ITEM: BOX BOUNDS xy xz yz pp pp pp
-4.0532350540161133e-03 6.4008854031562805e+00 0.0000000000000000e+00
-9.1640949249267578e-03 1.0367991089820862e+01 0.0000000000000000e+00
-4.7960281372070312e-02 2.0773346722126007e+01 4.8383958339691162e+00
ITEM: ATOMS id type xs ys zs fx fy fz
1 1 0.999986 0.612981 0.0608755 0 0 0.000200272
2 1 0.499986 0.612981 0.0608755 0 0 0.000200272
3 1 0.249986 0.112981 0.0608757 0 0 0.00018692
4 1 0.749986 0.112981 0.0608757 0 0 0.00018692
5 1 0.999986 0.395227 0.310164 0 0 -0.00069046
6 1 0.249986 0.338561 0.185396 0 0 0.00139427
7 1 0.749986 0.338561 0.185396 0 0 0.00139427
8 1 0.499986 0.395227 0.310164 0 0 -0.00069046
9 1 0.999986 0.838559 0.185396 0 0 0.00140381
10 1 0.249986 0.895228 0.310164 0 0 -0.000699997
11 1 0.499986 0.838559 0.185396 0 0 0.00140381
12 1 0.749986 0.895228 0.310164 0 0 -0.000699997
13 1 0.999986 0.177305 0.559616 0 0 -9.15527e-05
14 1 0.499986 0.177305 0.559616 0 0 -9.15527e-05
15 1 0.249986 0.677303 0.559616 0 0 -9.53674e-05
16 1 0.749986 0.677303 0.559616 0 0 -9.53674e-05
17 1 0.249986 0.12062 0.434886 0 0 0.000101089
18 1 0.749986 0.12062 0.434886 0 0 0.000101089
19 1 0.999986 0.620619 0.434885 0 0 0.000104904
20 1 0.499986 0.620619 0.434885 0 0 0.000104904
21 1 0.999986 0.959354 0.809105 0 0 -0.00138092
22 1 0.249986 0.902691 0.684338 0 0 0.000663757
23 1 0.499986 0.959354 0.809105 0 0 -0.00138092
24 1 0.749986 0.902691 0.684338 0 0 0.000663757
25 1 0.999986 0.402691 0.684338 0 0 0.000686646
26 1 0.249986 0.459354 0.809105 0 0 -0.00138664
27 1 0.749986 0.459354 0.809105 0 0 -0.00138664
28 1 0.499986 0.402691 0.684338 0 0 0.000686646
29 1 0.249986 0.68493 0.933626 0 0 -0.000205994
30 1 0.749986 0.68493 0.933626 0 0 -0.000205994
31 1 0.999986 0.184931 0.933626 0 0 -0.000190735
32 1 0.499986 0.184931 0.933626 0 0 -0.000190735
ITEM: TIMESTEP
5
ITEM: NUMBER OF ATOMS
32
ITEM: BOX BOUNDS xy xz yz pp pp pp
-4.0532350540161133e-03 6.4008854031562805e+00 0.0000000000000000e+00
-9.1640949249267578e-03 1.0367991089820862e+01 0.0000000000000000e+00
-4.7960281372070312e-02 2.0773346722126007e+01 4.8383958339691162e+00
ITEM: ATOMS id type xs ys zs fx fy fz
1 1 0.999986 0.612976 0.060881 0 0 0.000297546
2 1 0.499986 0.612976 0.060881 0 0 0.000297546
3 1 0.249986 0.112976 0.060881 0 0 0.000299454
4 1 0.749986 0.112976 0.060881 0 0 0.000299454
5 1 0.999986 0.395234 0.310156 0 0 0.000377655
6 1 0.249986 0.338541 0.185419 0 0 0.000205994
7 1 0.749986 0.338541 0.185419 0 0 0.000205994
8 1 0.499986 0.395234 0.310156 0 0 0.000377655
9 1 0.999986 0.83854 0.185419 0 0 0.000200272
10 1 0.249986 0.895235 0.310156 0 0 0.000391006
11 1 0.499986 0.83854 0.185419 0 0 0.000200272
12 1 0.749986 0.895235 0.310156 0 0 0.000391006
13 1 0.999986 0.17731 0.55961 0 0 0.000476837
14 1 0.499986 0.17731 0.55961 0 0 0.000476837
15 1 0.249986 0.677308 0.55961 0 0 0.000478745
16 1 0.749986 0.677308 0.55961 0 0 0.000478745
17 1 0.249986 0.120614 0.434891 0 0 -0.00047493
18 1 0.749986 0.120614 0.434891 0 0 -0.00047493
19 1 0.999986 0.620614 0.434891 0 0 -0.000480652
20 1 0.499986 0.620614 0.434891 0 0 -0.000480652
21 1 0.999986 0.959374 0.809082 0 0 -0.000207901
22 1 0.249986 0.902685 0.684345 0 0 -0.000383377
23 1 0.499986 0.959374 0.809082 0 0 -0.000207901
24 1 0.749986 0.902685 0.684345 0 0 -0.000383377
25 1 0.999986 0.402685 0.684345 0 0 -0.000383377
26 1 0.249986 0.459374 0.809082 0 0 -0.000217438
27 1 0.749986 0.459374 0.809082 0 0 -0.000217438
28 1 0.499986 0.402685 0.684345 0 0 -0.000383377
29 1 0.249986 0.684935 0.93362 0 0 -0.000291824
30 1 0.749986 0.684935 0.93362 0 0 -0.000291824
31 1 0.999986 0.184936 0.93362 0 0 -0.00028801
32 1 0.499986 0.184936 0.93362 0 0 -0.00028801
ITEM: TIMESTEP
6
ITEM: NUMBER OF ATOMS
32
ITEM: BOX BOUNDS xy xz yz pp pp pp
-4.0532350540161133e-03 6.4008854031562805e+00 0.0000000000000000e+00
-9.1640949249267578e-03 1.0367991089820862e+01 0.0000000000000000e+00
-4.7960281372070312e-02 2.0773346722126007e+01 4.8383958339691162e+00
ITEM: ATOMS id type xs ys zs fx fy fz
1 1 0.999986 0.612971 0.0608872 0 0 -5.72205e-06
2 1 0.499986 0.612971 0.0608872 0 0 -5.72205e-06
3 1 0.249986 0.112971 0.0608872 0 0 7.62939e-06
4 1 0.749986 0.112971 0.0608872 0 0 7.62939e-06
5 1 0.999986 0.39523 0.310161 0 0 0.000179291
6 1 0.249986 0.338534 0.185427 0 0 2.67029e-05
7 1 0.749986 0.338534 0.185427 0 0 2.67029e-05
8 1 0.499986 0.39523 0.310161 0 0 0.000179291
9 1 0.999986 0.838532 0.185427 0 0 3.62396e-05
10 1 0.249986 0.89523 0.310161 0 0 0.000188828
11 1 0.499986 0.838532 0.185427 0 0 3.62396e-05
12 1 0.749986 0.89523 0.310161 0 0 0.000188828
13 1 0.999986 0.177304 0.559617 0 0 -0.000177383
14 1 0.499986 0.177304 0.559617 0 0 -0.000177383
15 1 0.249986 0.677302 0.559617 0 0 -0.000181198
16 1 0.749986 0.677302 0.559617 0 0 -0.000181198
17 1 0.249986 0.12062 0.434884 0 0 0.000179291
18 1 0.749986 0.12062 0.434884 0 0 0.000179291
19 1 0.999986 0.62062 0.434884 0 0 0.000169754
20 1 0.499986 0.62062 0.434884 0 0 0.000169754
21 1 0.999986 0.959381 0.809074 0 0 -4.00543e-05
22 1 0.249986 0.902689 0.68434 0 0 -0.000171661
23 1 0.499986 0.959381 0.809074 0 0 -4.00543e-05
24 1 0.749986 0.902689 0.68434 0 0 -0.000171661
25 1 0.999986 0.402689 0.68434 0 0 -0.000179291
26 1 0.249986 0.459381 0.809074 0 0 -3.05176e-05
27 1 0.749986 0.459381 0.809074 0 0 -3.05176e-05
28 1 0.499986 0.402689 0.68434 0 0 -0.000179291
29 1 0.249986 0.68494 0.933614 0 0 7.62939e-06
30 1 0.749986 0.68494 0.933614 0 0 7.62939e-06
31 1 0.999986 0.184941 0.933614 0 0 -9.53674e-06
32 1 0.499986 0.184941 0.933614 0 0 -9.53674e-06
ITEM: TIMESTEP
7
ITEM: NUMBER OF ATOMS
32
ITEM: BOX BOUNDS xy xz yz pp pp pp
-4.0532350540161133e-03 6.4008854031562805e+00 0.0000000000000000e+00
-9.1640949249267578e-03 1.0367991089820862e+01 0.0000000000000000e+00
-4.7960281372070312e-02 2.0773346722126007e+01 4.8383958339691162e+00
ITEM: ATOMS id type xs ys zs fx fy fz
1 1 0.999986 0.612969 0.0608888 0 0 -3.43323e-05
2 1 0.499986 0.612969 0.0608888 0 0 -3.43323e-05
3 1 0.249986 0.112969 0.0608893 0 0 -6.29425e-05
4 1 0.749986 0.112969 0.0608893 0 0 -6.29425e-05
5 1 0.999986 0.395223 0.310169 0 0 -1.90735e-05
6 1 0.249986 0.338531 0.185431 0 0 8.2016e-05
7 1 0.749986 0.338531 0.185431 0 0 8.2016e-05
8 1 0.499986 0.395223 0.310169 0 0 -1.90735e-05
9 1 0.999986 0.838529 0.185431 0 0 8.01086e-05
10 1 0.249986 0.895223 0.310169 0 0 -4.19617e-05
11 1 0.499986 0.838529 0.185431 0 0 8.01086e-05
12 1 0.749986 0.895223 0.310169 0 0 -4.19617e-05
13 1 0.999986 0.177307 0.559613 0 0 -3.05176e-05
14 1 0.499986 0.177307 0.559613 0 0 -3.05176e-05
15 1 0.249986 0.677306 0.559613 0 0 -3.05176e-05
16 1 0.749986 0.677306 0.559613 0 0 -3.05176e-05
17 1 0.249986 0.120617 0.434889 0 0 3.05176e-05
18 1 0.749986 0.120617 0.434889 0 0 3.05176e-05
19 1 0.999986 0.620617 0.434888 0 0 5.34058e-05
20 1 0.499986 0.620617 0.434888 0 0 5.34058e-05
21 1 0.999986 0.959384 0.80907 0 0 -6.29425e-05
22 1 0.249986 0.902696 0.684333 0 0 5.72205e-06
23 1 0.499986 0.959384 0.80907 0 0 -6.29425e-05
24 1 0.749986 0.902696 0.684333 0 0 5.72205e-06
25 1 0.999986 0.402696 0.684333 0 0 1.14441e-05
26 1 0.249986 0.459384 0.809071 0 0 -7.43866e-05
27 1 0.749986 0.459384 0.809071 0 0 -7.43866e-05
28 1 0.499986 0.402696 0.684333 0 0 1.14441e-05
29 1 0.249986 0.684942 0.933613 0 0 3.05176e-05
30 1 0.749986 0.684942 0.933613 0 0 3.05176e-05
31 1 0.999986 0.184943 0.933612 0 0 6.29425e-05
32 1 0.499986 0.184943 0.933612 0 0 6.29425e-05
ITEM: TIMESTEP
8
ITEM: NUMBER OF ATOMS
32
ITEM: BOX BOUNDS xy xz yz pp pp pp
-4.0532350540161133e-03 6.4008854031562805e+00 0.0000000000000000e+00
-9.1640949249267578e-03 1.0367991089820862e+01 0.0000000000000000e+00
-4.7960281372070312e-02 2.0773346722126007e+01 4.8383958339691162e+00
ITEM: ATOMS id type xs ys zs fx fy fz
1 1 0.999986 0.612969 0.0608888 0 0 -3.43323e-05
2 1 0.499986 0.612969 0.0608888 0 0 -3.43323e-05
3 1 0.249986 0.112969 0.0608893 0 0 -6.29425e-05
4 1 0.749986 0.112969 0.0608893 0 0 -6.29425e-05
5 1 0.999986 0.395223 0.310169 0 0 -1.90735e-05
6 1 0.249986 0.338531 0.185431 0 0 8.2016e-05
7 1 0.749986 0.338531 0.185431 0 0 8.2016e-05
8 1 0.499986 0.395223 0.310169 0 0 -1.90735e-05
9 1 0.999986 0.838529 0.185431 0 0 8.01086e-05
10 1 0.249986 0.895223 0.310169 0 0 -4.19617e-05
11 1 0.499986 0.838529 0.185431 0 0 8.01086e-05
12 1 0.749986 0.895223 0.310169 0 0 -4.19617e-05
13 1 0.999986 0.177307 0.559613 0 0 -3.05176e-05
14 1 0.499986 0.177307 0.559613 0 0 -3.05176e-05
15 1 0.249986 0.677306 0.559613 0 0 -3.05176e-05
16 1 0.749986 0.677306 0.559613 0 0 -3.05176e-05
17 1 0.249986 0.120617 0.434889 0 0 3.05176e-05
18 1 0.749986 0.120617 0.434889 0 0 3.05176e-05
19 1 0.999986 0.620617 0.434888 0 0 5.34058e-05
20 1 0.499986 0.620617 0.434888 0 0 5.34058e-05
21 1 0.999986 0.959384 0.80907 0 0 -6.29425e-05
22 1 0.249986 0.902696 0.684333 0 0 5.72205e-06
23 1 0.499986 0.959384 0.80907 0 0 -6.29425e-05
24 1 0.749986 0.902696 0.684333 0 0 5.72205e-06
25 1 0.999986 0.402696 0.684333 0 0 1.14441e-05
26 1 0.249986 0.459384 0.809071 0 0 -7.43866e-05
27 1 0.749986 0.459384 0.809071 0 0 -7.43866e-05
28 1 0.499986 0.402696 0.684333 0 0 1.14441e-05
29 1 0.249986 0.684942 0.933613 0 0 3.05176e-05
30 1 0.749986 0.684942 0.933613 0 0 3.05176e-05
31 1 0.999986 0.184943 0.933612 0 0 6.29425e-05
32 1 0.499986 0.184943 0.933612 0 0 6.29425e-05
