ITEM: TIMESTEP
0
ITEM: NUMBER OF ATOMS
56
ITEM: BOX BOUNDS xy xz yz pp pp pp
-2.8802781701087952e+00 1.2156271994113922e+01 8.9406967163085938e-07
-8.2894563674926758e-03 5.5346975326538086e+00 -2.9091069102287292e+00
-4.5665502548217773e-03 1.9024526596069336e+01 -5.9604644775390625e-08
ITEM: ATOMS id type xs ys zs fx fy fz
1 1 0.583377 0.999993 0.132369 0 0.0365105 0.306587
2 1 0.333376 0.166674 0.132369 0 -0.0365047 0.306591
3 1 0.256649 1 0.275226 0 -0.00594139 0.00299454
4 1 0.0066486 0.166667 0.275226 0 0.00595856 0.00299454
5 1 0.929894 1 0.418084 0 -7.62939e-05 -0.00152969
6 1 0.0833752 0.999993 0.132369 0 0.0365067 0.306581
7 1 0.996725 0.500035 0.0609392 0 0.816664 0.784952
8 1 0.833375 0.166674 0.132369 0 -0.036499 0.306561
9 1 0.746724 0.666632 0.0609392 0 -0.816673 0.784924
10 1 0.756648 1 0.275226 0 -0.00594711 0.00299263
11 1 0.679896 0.166667 0.418084 0 8.2016e-05 -0.0015316
12 1 0.603143 3.67832e-07 0.560938 0 -0.000385284 0.00153732
13 1 0.353143 0.166667 0.560938 0 0.000391006 0.00153732
14 1 0.27638 1 0.703795 0 -0.000804901 0.00227165
15 1 0.0263792 0.166667 0.703795 0 0.000810623 0.00226593
16 1 0.949637 0.999999 0.846658 0 -0.00764275 -0.0234222
17 1 0.67002 0.499999 0.203795 0 -0.00765228 0.0234184
18 1 0.50665 0.166667 0.275226 0 0.00595474 0.00300217
19 1 0.42002 0.666668 0.203795 0 0.00763893 0.0234127
20 1 0.429895 1 0.418084 0 -7.24792e-05 -0.0015316
21 1 0.343278 0.5 0.346658 0 -0.000810623 -0.00227165
22 1 0.179894 0.166667 0.418084 0 7.43866e-05 -0.00153351
23 1 0.0932766 0.666667 0.346658 0 0.000802994 -0.00226784
24 1 0.103142 3.50169e-07 0.560938 0 -0.000377655 0.00153923
25 1 0.016514 0.5 0.489515 0 -0.000389099 -0.00153542
26 1 0.853141 0.166667 0.560938 0 0.000391006 0.00153732
27 1 0.766514 0.666667 0.489515 0 0.000387192 -0.00154305
28 1 0.496726 0.500035 0.0609392 0 0.816624 0.78492
29 1 0.246726 0.666632 0.0609392 0 -0.816629 0.784933
30 1 0.170019 0.499999 0.203795 0 -0.00764656 0.023407
31 1 0.920018 0.666668 0.203795 0 0.00763893 0.0234089
32 1 0.843276 0.5 0.346658 0 -0.000810623 -0.00226402
33 1 0.699639 0.166668 0.846658 0 0.00764465 -0.0234032
34 1 0.622932 3.5121e-05 0.989514 0 0.816677 -0.78496
35 1 0.372931 0.166632 0.989514 0 -0.816628 -0.784931
36 1 0.776381 1 0.703795 0 -0.000808716 0.00226593
37 1 0.689763 0.5 0.632369 0 -8.39233e-05 0.00153732
38 1 0.526381 0.166667 0.703795 0 0.000806808 0.00226212
39 1 0.439763 0.666668 0.632369 0 7.43866e-05 0.00152969
40 1 0.449638 0.999999 0.846658 0 -0.00764275 -0.0234108
41 1 0.363008 0.5 0.775226 0 -0.00594521 -0.002985
42 1 0.199637 0.166668 0.846658 0 0.00764847 -0.0234146
43 1 0.113007 0.666667 0.775226 0 0.00594139 -0.00300026
44 1 0.122931 3.50854e-05 0.989514 0 0.816626 -0.784931
45 1 0.0362807 0.499993 0.918084 0 0.0365067 -0.306581
46 1 0.593278 0.666667 0.346658 0 0.000806808 -0.00226593
47 1 0.516515 0.5 0.489515 0 -0.000391006 -0.00153542
48 1 0.266515 0.666667 0.489515 0 0.000389099 -0.00153732
49 1 0.189762 0.5 0.632369 0 -7.82013e-05 0.00153351
50 1 0.939761 0.666667 0.632369 0 7.05719e-05 0.0015316
51 1 0.863007 0.5 0.775226 0 -0.00594711 -0.00299835
52 1 0.872933 0.166632 0.989514 0 -0.816668 -0.784922
53 1 0.786282 0.666674 0.918084 0 -0.0365105 -0.306553
54 1 0.613008 0.666667 0.775226 0 0.00595093 -0.00299454
55 1 0.536282 0.499993 0.918084 0 0.0364952 -0.30658
56 1 0.286281 0.666674 0.918084 0 -0.0365067 -0.306595
ITEM: TIMESTEP
1
ITEM: NUMBER OF ATOMS
56
ITEM: BOX BOUNDS xy xz yz pp pp pp
-2.8802781701087952e+00 1.2156271994113922e+01 8.9406967163085938e-07
-8.2894563674926758e-03 5.5346975326538086e+00 -2.9091069102287292e+00
-4.5665502548217773e-03 1.9024526596069336e+01 -5.9604644775390625e-08
ITEM: ATOMS id type xs ys zs fx fy fz
1 1 0.58385 1.0008 0.134341 0 0.107208 0.0614452
2 1 0.333849 0.165868 0.134341 0 -0.107214 0.0614529
3 1 0.256654 0.999869 0.275246 0 -0.0130424 0.0455627
4 1 0.00665322 0.166799 0.275246 0 0.0130348 0.045557
5 1 0.929892 0.999998 0.418074 0 -0.000261307 0.000205994
6 1 0.0838484 1.0008 0.134341 0 0.107225 0.0614586
7 1 0.997936 0.518076 0.0659902 0 0.196905 0.0543079
8 1 0.833848 0.165868 0.134341 0 -0.107229 0.0614452
9 1 0.747936 0.648591 0.06599 0 -0.196894 0.0542984
10 1 0.756653 0.999868 0.275246 0 -0.0130482 0.0455589
11 1 0.679893 0.166669 0.418074 0 0.000263214 0.000209808
12 1 0.603145 -8.1433e-06 0.560948 0 -0.000207901 0.000991821
13 1 0.353145 0.166675 0.560948 0 0.000207901 0.000984192
14 1 0.276383 0.999982 0.703809 0 -0.00253296 -0.00353432
15 1 0.0263827 0.166685 0.703809 0 0.00255013 -0.00354004
16 1 0.949601 0.99983 0.846507 0 -0.0283642 -0.14843
17 1 0.670056 0.49983 0.203946 0 -0.0283661 0.14843
18 1 0.506655 0.166799 0.275246 0 0.0130539 0.045557
19 1 0.420056 0.666837 0.203946 0 0.0283642 0.148424
20 1 0.429893 0.999998 0.418074 0 -0.000261307 0.000207901
21 1 0.343274 0.499982 0.346643 0 -0.0025444 0.00353622
22 1 0.179892 0.166669 0.418074 0 0.000263214 0.000211716
23 1 0.0932731 0.666685 0.346643 0 0.00254059 0.00353622
24 1 0.103144 -7.99242e-06 0.560948 0 -0.000211716 0.000984192
25 1 0.0165117 0.499992 0.489505 0 -0.000209808 -0.000986099
26 1 0.853144 0.166675 0.560948 0 0.000207901 0.00097847
27 1 0.766511 0.666675 0.489505 0 0.000205994 -0.000976562
28 1 0.497938 0.518075 0.0659899 0 0.196898 0.0543137
29 1 0.247937 0.648592 0.06599 0 -0.196901 0.0543118
30 1 0.170055 0.49983 0.203946 0 -0.0283737 0.14842
31 1 0.920055 0.666837 0.203946 0 0.0283756 0.148422
32 1 0.843273 0.499982 0.346644 0 -0.00253868 0.00353622
33 1 0.699603 0.166837 0.846507 0 0.0283718 -0.148424
34 1 0.621721 0.0180759 0.984463 0 0.196898 -0.0543041
35 1 0.37172 0.148592 0.984463 0 -0.196903 -0.0543156
36 1 0.776384 0.999982 0.703809 0 -0.00253296 -0.0035305
37 1 0.689766 0.499998 0.632378 0 -0.000265121 -0.000204086
38 1 0.526384 0.166685 0.703809 0 0.00254059 -0.0035305
39 1 0.439765 0.666669 0.632378 0 0.000257492 -0.000204086
40 1 0.449602 0.99983 0.846507 0 -0.028368 -0.148417
41 1 0.363003 0.499869 0.775207 0 -0.013052 -0.0455647
42 1 0.199601 0.166837 0.846507 0 0.0283699 -0.148426
43 1 0.113002 0.666799 0.775207 0 0.0130501 -0.045557
44 1 0.121719 0.0180748 0.984463 0 0.196903 -0.0543156
45 1 0.0358074 0.500799 0.916111 0 0.10721 -0.0614452
46 1 0.593274 0.666685 0.346643 0 0.00254822 0.00353432
47 1 0.516513 0.499992 0.489505 0 -0.000217438 -0.000984192
48 1 0.266513 0.666675 0.489505 0 0.000209808 -0.000988007
49 1 0.189764 0.499998 0.632379 0 -0.000265121 -0.00021553
50 1 0.939764 0.666669 0.632378 0 0.000263214 -0.00021553
51 1 0.863002 0.499869 0.775207 0 -0.0130558 -0.0455647
52 1 0.871721 0.148591 0.984463 0 -0.196896 -0.0542984
53 1 0.785809 0.665868 0.916112 0 -0.107225 -0.0614395
54 1 0.613004 0.666799 0.775207 0 0.0130424 -0.045557
55 1 0.535809 0.500799 0.916111 0 0.107227 -0.0614586
56 1 0.285808 0.665868 0.916111 0 -0.107214 -0.0614567
ITEM: TIMESTEP
2
ITEM: NUMBER OF ATOMS
56
ITEM: BOX BOUNDS xy xz yz pp pp pp
-2.8802781701087952e+00 1.2156271994113922e+01 8.9406967163085938e-07
-8.2894563674926758e-03 5.5346975326538086e+00 -2.9091069102287292e+00
-4.5665502548217773e-03 1.9024526596069336e+01 -5.9604644775390625e-08
ITEM: ATOMS id type xs ys zs fx fy fz
1 1 0.584171 1.00881 0.135679 0 0.0417805 -0.00871849
2 1 0.33417 0.157855 0.135679 0 -0.0417786 -0.00871849
3 1 0.256892 0.998894 0.276238 0 -0.00567818 0.0510483
4 1 0.00689113 0.167773 0.276238 0 0.00568581 0.0510464
5 1 0.929893 0.999978 0.418079 0 -0.00475502 0.0217571
6 1 0.0841694 1.00881 0.135679 0 0.0417709 -0.00871849
7 1 0.99822 0.532792 0.0671725 0 -0.0125427 -0.100628
8 1 0.834169 0.157854 0.135679 0 -0.0417614 -0.0087204
9 1 0.74822 0.633876 0.0671721 0 0.0125313 -0.100611
10 1 0.756891 0.998893 0.276238 0 -0.00566292 0.0510349
11 1 0.679894 0.166689 0.418079 0 0.00475121 0.0217628
12 1 0.603151 -2.36813e-05 0.56097 0 -0.000637054 -0.00221825
13 1 0.35315 0.166691 0.56097 0 0.000637054 -0.0022049
14 1 0.276365 0.999793 0.703732 0 -0.0130539 -0.0732098
15 1 0.0263642 0.166876 0.703732 0 0.0130348 -0.0732021
16 1 0.948826 0.99771 0.843276 0 0.0256557 0.000253677
17 1 0.670831 0.49771 0.207177 0 0.0256672 -0.000253677
18 1 0.506892 0.167774 0.276238 0 0.00566101 0.0510426
19 1 0.420831 0.668957 0.207177 0 -0.0256615 -0.000236511
20 1 0.429894 0.999978 0.418079 0 -0.00475121 0.021759
21 1 0.343292 0.499792 0.34672 0 -0.0130367 0.0732059
22 1 0.179893 0.166689 0.418079 0 0.00475311 0.021759
23 1 0.0932916 0.666875 0.34672 0 0.0130329 0.0731907
24 1 0.103149 -2.38156e-05 0.56097 0 -0.000631332 -0.00221825
25 1 0.0165065 0.499976 0.489483 0 -0.000637054 0.0022049
26 1 0.853149 0.166691 0.56097 0 0.000631332 -0.00221443
27 1 0.766506 0.666691 0.489483 0 0.000637054 0.00220299
28 1 0.498221 0.532791 0.0671724 0 -0.0125523 -0.100624
29 1 0.248221 0.633876 0.0671724 0 0.0125446 -0.10062
30 1 0.17083 0.49771 0.207177 0 0.025692 -0.000232697
31 1 0.92083 0.668958 0.207177 0 -0.0256901 -0.000234604
32 1 0.843291 0.499792 0.346721 0 -0.0130482 0.0732021
33 1 0.698827 0.168957 0.843276 0 -0.0256863 0.00025177
34 1 0.621437 0.0327916 0.98328 0 -0.0125332 0.100626
35 1 0.371436 0.133876 0.98328 0 0.0125523 0.100618
36 1 0.776366 0.999793 0.703732 0 -0.013052 -0.0732059
37 1 0.689764 0.499978 0.632374 0 -0.00475502 -0.0217514
38 1 0.526366 0.166875 0.703732 0 0.0130424 -0.0732002
39 1 0.439764 0.666688 0.632374 0 0.00475311 -0.0217609
40 1 0.448827 0.99771 0.843276 0 0.0256844 0.000236511
41 1 0.362765 0.498893 0.774215 0 -0.00566483 -0.0510387
42 1 0.198826 0.168957 0.843276 0 -0.025671 0.000238419
43 1 0.112765 0.667774 0.774215 0 0.00566292 -0.051054
44 1 0.121436 0.0327909 0.98328 0 -0.0125523 0.100626
45 1 0.0354866 0.508812 0.914774 0 0.0417862 0.00871849
46 1 0.593293 0.666876 0.34672 0 0.013031 0.0732117
47 1 0.516508 0.499976 0.489483 0 -0.000617981 0.00221443
48 1 0.266507 0.666691 0.489483 0 0.000635147 0.00221443
49 1 0.189763 0.499978 0.632374 0 -0.00474167 -0.0217609
50 1 0.939763 0.666689 0.632374 0 0.00475502 -0.0217533
51 1 0.862764 0.498893 0.774215 0 -0.0056572 -0.0510387
52 1 0.871438 0.133876 0.983281 0 0.012537 0.100615
53 1 0.785488 0.657854 0.914774 0 -0.0417671 0.00870895
54 1 0.612766 0.667774 0.774215 0 0.00567627 -0.0510445
55 1 0.535488 0.508813 0.914773 0 0.0417728 0.00872803
56 1 0.285487 0.657855 0.914773 0 -0.0417786 0.00871468
ITEM: TIMESTEP
3
ITEM: NUMBER OF ATOMS
56
ITEM: BOX BOUNDS xy xz yz pp pp pp
-2.8802781701087952e+00 1.2156271994113922e+01 8.9406967163085938e-07
-8.2894563674926758e-03 5.5346975326538086e+00 -2.9091069102287292e+00
-4.5665502548217773e-03 1.9024526596069336e+01 -5.9604644775390625e-08
ITEM: ATOMS id type xs ys zs fx fy fz
1 1 0.584215 1.01397 0.135863 0 -0.0218334 0.0367622
2 1 0.334214 0.152692 0.135863 0 0.0218315 0.0367584
3 1 0.257211 0.998223 0.277568 0 0.00490189 0.00510979
4 1 0.00721019 0.168444 0.277568 0 -0.00489426 0.00511742
5 1 0.930001 0.999634 0.418532 0 -0.00440979 0.0333767
6 1 0.0842135 1.01398 0.135863 0 -0.021841 0.0367584
7 1 0.997796 0.535913 0.0654064 0 0.0244141 0.0188217
8 1 0.834213 0.152692 0.135863 0 0.0218277 0.0367641
9 1 0.747796 0.630754 0.0654063 0 -0.0244045 0.0188007
10 1 0.75721 0.998224 0.277567 0 0.00488472 0.00513268
11 1 0.680003 0.167033 0.418532 0 0.00440788 0.0333614
12 1 0.603141 -7.33146e-05 0.56093 0 -0.00761032 -0.0245419
13 1 0.35314 0.16674 0.56093 0 0.00760841 -0.0245571
14 1 0.275995 0.998811 0.702192 0 -0.0019722 -0.0168514
15 1 0.0259947 0.167857 0.702192 0 0.00197792 -0.0168438
16 1 0.948616 0.99896 0.842399 0 0.0350266 0.0453873
17 1 0.671042 0.498961 0.208053 0 0.0350094 -0.0453911
18 1 0.507212 0.168444 0.277568 0 -0.00488472 0.00511932
19 1 0.421041 0.667706 0.208054 0 -0.0350151 -0.0454006
20 1 0.430003 0.999635 0.418532 0 -0.00440025 0.0333824
21 1 0.343662 0.498811 0.348261 0 -0.00197601 0.0168514
22 1 0.180002 0.167033 0.418532 0 0.00440216 0.0333767
23 1 0.093661 0.667855 0.348261 0 0.00198174 0.0168667
24 1 0.10314 -7.31189e-05 0.560929 0 -0.00761986 -0.0245647
25 1 0.0165161 0.499927 0.489523 0 -0.0076046 0.0245609
26 1 0.853139 0.16674 0.560929 0 0.00762749 -0.0245514
27 1 0.766516 0.66674 0.489523 0 0.00760841 0.0245552
28 1 0.497798 0.535911 0.0654064 0 0.0244122 0.0188179
29 1 0.247797 0.630755 0.0654065 0 -0.0244045 0.0188084
30 1 0.17104 0.498962 0.208054 0 0.0349998 -0.045393
31 1 0.92104 0.667706 0.208054 0 -0.034996 -0.0454044
32 1 0.843661 0.498811 0.348261 0 -0.00198174 0.0168381
33 1 0.698617 0.167705 0.8424 0 -0.0349998 0.045393
34 1 0.621861 0.0359132 0.985046 0 0.0244064 -0.0188141
35 1 0.37186 0.130756 0.985046 0 -0.0244141 -0.0188046
36 1 0.775996 0.998811 0.702192 0 -0.00197601 -0.0168457
37 1 0.689656 0.499634 0.631921 0 -0.00439644 -0.0333786
38 1 0.525996 0.167856 0.702192 0 0.00197411 -0.0168533
39 1 0.439655 0.667032 0.631921 0 0.00440598 -0.0333767
40 1 0.448617 0.998962 0.842399 0 0.0350056 0.0453873
41 1 0.362446 0.498223 0.772885 0 0.00488853 -0.00511932
42 1 0.198616 0.167706 0.842399 0 -0.0350208 0.0453949
43 1 0.112445 0.668444 0.772885 0 -0.00487709 -0.00510788
44 1 0.121859 0.0359113 0.985046 0 0.0244122 -0.0188065
45 1 0.0354424 0.513976 0.91459 0 -0.0218506 -0.0367832
46 1 0.593662 0.667856 0.348261 0 0.00197601 0.0168343
47 1 0.516517 0.499927 0.489523 0 -0.0076313 0.024559
48 1 0.266517 0.666741 0.489523 0 0.00761604 0.0245552
49 1 0.189654 0.499635 0.631921 0 -0.00440788 -0.0333767
50 1 0.939654 0.667033 0.631921 0 0.00439262 -0.0333843
51 1 0.862445 0.498224 0.772885 0 0.00488663 -0.00510979
52 1 0.871861 0.130754 0.985047 0 -0.0244064 -0.0188026
53 1 0.785444 0.652692 0.91459 0 0.0218353 -0.0367641
54 1 0.612447 0.668444 0.772885 0 -0.00488853 -0.0051136
55 1 0.535444 0.513976 0.91459 0 -0.0218391 -0.0367661
56 1 0.285443 0.652692 0.914589 0 0.0218353 -0.0367451
ITEM: TIMESTEP
4
ITEM: NUMBER OF ATOMS
56
ITEM: BOX BOUNDS xy xz yz pp pp pp
-2.8802781701087952e+00 1.2156271994113922e+01 8.9406967163085938e-07
-8.2894563674926758e-03 5.5346975326538086e+00 -2.9091069102287292e+00
-4.5665502548217773e-03 1.9024526596069336e+01 -5.9604644775390625e-08
ITEM: ATOMS id type xs ys zs fx fy fz
1 1 0.584391 1.01439 0.136598 0 -0.0114994 0.0112591
2 1 0.334391 0.152276 0.136598 0 0.0115032 0.0112591
3 1 0.257344 0.998299 0.278121 0 0.00854111 0.00555229
4 1 0.00734283 0.168369 0.278121 0 -0.00855255 0.00555038
5 1 0.930185 0.999239 0.419297 0 -0.00445366 0.000165939
6 1 0.0843897 1.01439 0.136598 0 -0.0114746 0.0112572
7 1 0.997732 0.538521 0.0651398 0 0.00177956 -0.010664
8 1 0.834389 0.152276 0.136598 0 0.0114861 0.0112629
9 1 0.747732 0.628147 0.0651394 0 -0.00178909 -0.0106506
10 1 0.757342 0.998298 0.278121 0 0.00853348 0.00553131
11 1 0.680187 0.167428 0.419297 0 0.00445366 0.000169754
12 1 0.60303 -0.000567322 0.560468 0 -0.00584602 -0.00196457
13 1 0.35303 0.167234 0.560468 0 0.00583839 -0.00196266
14 1 0.275794 0.998348 0.701352 0 0.00618172 0.0216579
15 1 0.0257933 0.168319 0.701352 0 -0.00618362 0.0216427
16 1 0.948742 1.00159 0.842925 0 0.00449753 -0.00688171
17 1 0.670916 0.501587 0.207528 0 0.00450134 0.00688362
18 1 0.507344 0.168369 0.27812 0 -0.00854492 0.00554085
19 1 0.420915 0.66508 0.207528 0 -0.00449562 0.00688171
20 1 0.430186 0.99924 0.419297 0 -0.00446892 0.000165939
21 1 0.343863 0.498348 0.349101 0 0.00618553 -0.0216579
22 1 0.180185 0.167427 0.419298 0 0.00445557 0.000167847
23 1 0.0938625 0.668318 0.349101 0 -0.00616837 -0.0216465
24 1 0.103029 -0.00056761 0.560467 0 -0.00581741 -0.00193596
25 1 0.0166269 0.499433 0.489985 0 -0.00584793 0.00194931
26 1 0.853028 0.167235 0.560467 0 0.00582123 -0.00195503
27 1 0.766627 0.667234 0.489985 0 0.00584793 0.00195312
28 1 0.497734 0.538518 0.0651397 0 0.00178909 -0.0106583
29 1 0.247733 0.628148 0.0651397 0 -0.00180626 -0.0106411
30 1 0.170914 0.501588 0.207528 0 0.00448418 0.00687218
31 1 0.920914 0.66508 0.207528 0 -0.0044899 0.00688553
32 1 0.843862 0.498348 0.3491 0 0.00619698 -0.0216389
33 1 0.698743 0.16508 0.842925 0 -0.0044899 -0.00688744
34 1 0.621925 0.038521 0.985313 0 0.00179291 0.0106544
35 1 0.371924 0.128148 0.985313 0 -0.00179672 0.0106564
36 1 0.775795 0.998348 0.701352 0 0.00618362 0.0216541
37 1 0.689472 0.499239 0.631156 0 -0.00445747 -0.000179291
38 1 0.525795 0.168319 0.701352 0 -0.00617027 0.0216484
39 1 0.439472 0.667427 0.631155 0 0.00446129 -0.000175476
40 1 0.448743 1.00159 0.842925 0 0.00448799 -0.00687408
41 1 0.362314 0.498298 0.772332 0 0.00854301 -0.0055542
42 1 0.198742 0.16508 0.842925 0 -0.00448608 -0.00687408
43 1 0.112313 0.668369 0.772332 0 -0.00855446 -0.00554657
44 1 0.121923 0.0385189 0.985313 0 0.00180054 0.0106449
45 1 0.0352661 0.51439 0.913855 0 -0.0115013 -0.0112438
46 1 0.593864 0.668319 0.3491 0 -0.0061779 -0.0216446
47 1 0.516628 0.499432 0.489985 0 -0.00582314 0.00195312
48 1 0.266628 0.667235 0.489985 0 0.00582314 0.00196266
49 1 0.189471 0.49924 0.631155 0 -0.00446892 -0.000165939
50 1 0.93947 0.667427 0.631155 0 0.00446892 -0.00015831
51 1 0.862313 0.498298 0.772332 0 0.0085392 -0.00555229
52 1 0.871925 0.128147 0.985313 0 -0.001791 0.0106506
53 1 0.785268 0.652276 0.913855 0 0.0114975 -0.0112457
54 1 0.612314 0.668369 0.772332 0 -0.00854874 -0.00554848
55 1 0.535267 0.514391 0.913855 0 -0.0114822 -0.0112591
56 1 0.285267 0.652276 0.913855 0 0.0114918 -0.0112667
ITEM: TIMESTEP
5
ITEM: NUMBER OF ATOMS
56
ITEM: BOX BOUNDS xy xz yz pp pp pp
-2.8802781701087952e+00 1.2156271994113922e+01 8.9406967163085938e-07
-8.2894563674926758e-03 5.5346975326538086e+00 -2.9091069102287292e+00
-4.5665502548217773e-03 1.9024526596069336e+01 -5.9604644775390625e-08
ITEM: ATOMS id type xs ys zs fx fy fz
1 1 0.584466 1.01367 0.13691 0 -0.0011425 0.00304222
2 1 0.334466 0.153 0.13691 0 0.00113106 0.00304985
3 1 0.257386 0.998884 0.278298 0 0.00374413 0.0017395
4 1 0.00738548 0.167783 0.278298 0 -0.00374413 0.00173378
5 1 0.930209 0.998889 0.419396 0 -0.0014801 -0.00469971
6 1 0.0844647 1.01367 0.13691 0 -0.00115776 0.0030365
7 1 0.997674 0.538966 0.0648972 0 0.00100136 -0.00480461
8 1 0.834464 0.152999 0.13691 0 0.00114632 0.00304794
9 1 0.747674 0.627702 0.064897 0 -0.000988007 -0.00480843
10 1 0.757385 0.998883 0.278298 0 0.00376129 0.00175285
11 1 0.68021 0.167777 0.419396 0 0.00149155 -0.00469971
12 1 0.603007 -0.00102296 0.560372 0 -0.000246048 0.0112686
13 1 0.353007 0.167689 0.560372 0 0.000253677 0.0112705
14 1 0.275871 0.998707 0.701673 0 0.00142479 -0.00265694
15 1 0.0258702 0.16796 0.701673 0 -0.00141716 -0.00265694
16 1 0.948725 1.00222 0.842855 0 -0.00548172 0.00597382
17 1 0.670932 0.502217 0.207598 0 -0.00547218 -0.00597
18 1 0.507387 0.167784 0.278298 0 -0.00374794 0.00175285
19 1 0.420932 0.664451 0.207598 0 0.00546837 -0.00596809
20 1 0.43021 0.99889 0.419396 0 -0.0014782 -0.00470161
21 1 0.343786 0.498708 0.34878 0 0.00140572 0.00265503
22 1 0.180209 0.167777 0.419396 0 0.00149155 -0.00471306
23 1 0.0937856 0.66796 0.34878 0 -0.00142097 0.00265503
24 1 0.103006 -0.00102138 0.560372 0 -0.00028038 0.0112514
25 1 0.0166499 0.498977 0.490081 0 -0.00025177 -0.0112572
26 1 0.853005 0.167689 0.560372 0 0.000270844 0.011261
27 1 0.76665 0.66769 0.490081 0 0.00025177 -0.0112572
28 1 0.497676 0.538963 0.0648972 0 0.000988007 -0.00480843
29 1 0.247675 0.627702 0.0648975 0 -0.000965118 -0.00482941
30 1 0.170931 0.502217 0.207598 0 -0.00546265 -0.00596428
31 1 0.920931 0.664451 0.207598 0 0.00546646 -0.00597763
32 1 0.843785 0.498708 0.34878 0 0.00140762 0.0026474
33 1 0.698727 0.16445 0.842855 0 0.00547218 0.00597191
34 1 0.621983 0.0389662 0.985556 0 0.000982285 0.00480652
35 1 0.371982 0.127702 0.985556 0 -0.000988007 0.00480461
36 1 0.775872 0.998707 0.701673 0 0.00142097 -0.00266647
37 1 0.689449 0.49889 0.631057 0 -0.00148964 0.00470734
38 1 0.525872 0.16796 0.701673 0 -0.00142097 -0.00265694
39 1 0.439448 0.667777 0.631057 0 0.00148582 0.00471497
40 1 0.448726 1.00222 0.842855 0 -0.00546837 0.00597763
41 1 0.362271 0.498884 0.772154 0 0.00374413 -0.00174713
42 1 0.198725 0.164451 0.842855 0 0.00546455 0.00596237
43 1 0.11227 0.667783 0.772155 0 -0.00373077 -0.00174332
44 1 0.121982 0.0389647 0.985556 0 0.000963211 0.00482559
45 1 0.0351912 0.513666 0.913543 0 -0.00112152 -0.00304985
46 1 0.593787 0.66796 0.34878 0 -0.00141525 0.00264931
47 1 0.516651 0.498978 0.490081 0 -0.000278473 -0.0112686
48 1 0.266651 0.667689 0.490081 0 0.000265121 -0.0112686
49 1 0.189447 0.49889 0.631057 0 -0.00148201 0.00471497
50 1 0.939447 0.667777 0.631057 0 0.00147629 0.00469589
51 1 0.86227 0.498884 0.772155 0 0.00374794 -0.00174141
52 1 0.871983 0.127702 0.985556 0 -0.000988007 0.00481415
53 1 0.785193 0.653 0.913543 0 0.00113297 -0.00305557
54 1 0.612272 0.667784 0.772155 0 -0.00374222 -0.00173759
55 1 0.535193 0.513669 0.913542 0 -0.00113869 -0.00303841
56 1 0.285192 0.653 0.913542 0 0.00114059 -0.0030365
ITEM: TIMESTEP
6
ITEM: NUMBER OF ATOMS
56
ITEM: BOX BOUNDS xy xz yz pp pp pp
-2.8802781701087952e+00 1.2156271994113922e+01 8.9406967163085938e-07
-8.2894563674926758e-03 5.5346975326538086e+00 -2.9091069102287292e+00
-4.5665502548217773e-03 1.9024526596069336e+01 -5.9604644775390625e-08
ITEM: ATOMS id type xs ys zs fx fy fz
1 1 0.584493 1.01346 0.137021 0 -0.000343323 -0.000606537
2 1 0.334492 0.153206 0.137022 0 0.000358582 -0.000617981
3 1 0.257402 0.999209 0.278362 0 -0.00242996 -0.00144958
4 1 0.00740068 0.167458 0.278362 0 0.00244522 -0.00143814
5 1 0.930195 0.998738 0.419339 0 0.00195122 0.00251579
6 1 0.0844914 1.01346 0.137022 0 -0.000339508 -0.000602722
7 1 0.997644 0.539109 0.0647709 0 0.00206184 -0.00156593
8 1 0.834491 0.153206 0.137022 0 0.000354767 -0.000623703
9 1 0.747644 0.627558 0.0647708 0 -0.00205994 -0.00157356
10 1 0.7574 0.999209 0.278362 0 -0.00243187 -0.00144386
11 1 0.680197 0.16793 0.419339 0 -0.00195503 0.00252533
12 1 0.603047 -0.00112674 0.560536 0 2.28882e-05 -9.34601e-05
13 1 0.353046 0.167794 0.560536 0 -2.28882e-05 -8.96454e-05
14 1 0.275876 0.998858 0.701693 0 -0.000101089 0.00167656
15 1 0.025875 0.16781 0.701693 0 0.000101089 0.00168228
16 1 0.948745 1.00203 0.842939 0 -0.00119972 0.00263405
17 1 0.670912 0.502035 0.207514 0 -0.00121307 -0.00263596
18 1 0.507402 0.167458 0.278362 0 0.00243187 -0.00143623
19 1 0.420912 0.664632 0.207514 0 0.00120544 -0.00263977
20 1 0.430196 0.998738 0.419339 0 0.0019455 0.00250626
21 1 0.343782 0.498858 0.34876 0 -9.34601e-05 -0.00166893
22 1 0.180195 0.167929 0.419339 0 -0.00195312 0.0025177
23 1 0.0937808 0.66781 0.34876 0 8.7738e-05 -0.00167847
24 1 0.103045 -0.00112671 0.560536 0 2.86102e-05 -8.7738e-05
25 1 0.0166104 0.498873 0.489916 0 2.67029e-05 9.53674e-05
26 1 0.853045 0.167794 0.560536 0 -3.24249e-05 -9.53674e-05
27 1 0.76661 0.667794 0.489917 0 -3.24249e-05 8.2016e-05
28 1 0.497645 0.539107 0.0647709 0 0.00205994 -0.00156784
29 1 0.247645 0.62756 0.064771 0 -0.00206947 -0.0015583
30 1 0.170911 0.502035 0.207514 0 -0.00120735 -0.00263786
31 1 0.920911 0.664632 0.207514 0 0.00119781 -0.00263214
32 1 0.84378 0.498858 0.34876 0 -9.72748e-05 -0.00166321
33 1 0.698747 0.164632 0.842939 0 0.00120354 0.00263405
34 1 0.622013 0.0391092 0.985682 0 0.00206566 0.00157356
35 1 0.372012 0.127559 0.985682 0 -0.00205994 0.00158501
36 1 0.775877 0.998858 0.701693 0 -0.000104904 0.00167274
37 1 0.689462 0.498737 0.631114 0 0.00196648 -0.00251579
38 1 0.525876 0.16781 0.701693 0 9.53674e-05 0.00167084
39 1 0.439462 0.667929 0.631114 0 -0.00195312 -0.00251389
40 1 0.448746 1.00204 0.842939 0 -0.00121307 0.00261879
41 1 0.362256 0.499209 0.772091 0 -0.00242805 0.0014534
42 1 0.198745 0.164632 0.842939 0 0.00120926 0.00264168
43 1 0.112255 0.667459 0.772091 0 0.00242233 0.00143623
44 1 0.122012 0.0391066 0.985682 0 0.00206566 0.00154877
45 1 0.0351645 0.513461 0.913431 0 -0.000362396 0.000617981
46 1 0.593782 0.667809 0.34876 0 9.53674e-05 -0.00167274
47 1 0.516612 0.498873 0.489917 0 4.3869e-05 9.15527e-05
48 1 0.266611 0.667794 0.489917 0 -3.24249e-05 8.7738e-05
49 1 0.189461 0.498738 0.631114 0 0.00195503 -0.00252533
50 1 0.939461 0.667929 0.631114 0 -0.00195503 -0.00252151
51 1 0.862255 0.499209 0.772091 0 -0.00243568 0.00144196
52 1 0.872014 0.127558 0.985682 0 -0.00206375 0.00156784
53 1 0.785166 0.653206 0.913431 0 0.000347137 0.000621796
54 1 0.612256 0.667459 0.772091 0 0.00244713 0.00143623
55 1 0.535166 0.513462 0.913431 0 -0.000350952 0.000610352
56 1 0.285165 0.653206 0.913431 0 0.00034523 0.000610352
ITEM: TIMESTEP
7
ITEM: NUMBER OF ATOMS
56
ITEM: BOX BOUNDS xy xz yz pp pp pp
-2.8802781701087952e+00 1.2156271994113922e+01 8.9406967163085938e-07
-8.2894563674926758e-03 5.5346975326538086e+00 -2.9091069102287292e+00
-4.5665502548217773e-03 1.9024526596069336e+01 -5.9604644775390625e-08
ITEM: ATOMS id type xs ys zs fx fy fz
1 1 0.584495 1.01338 0.137031 0 0.000368118 -0.000488281
2 1 0.334494 0.153287 0.137031 0 -0.000383377 -0.000473022
3 1 0.257396 0.999056 0.278337 0 -0.000490189 0.000320435
4 1 0.00739476 0.167612 0.278337 0 0.0004673 0.00030899
5 1 0.930208 0.998886 0.419394 0 -0.000179291 -0.0013485
6 1 0.0844936 1.01338 0.137031 0 0.000371933 -0.000507355
7 1 0.997627 0.539336 0.0646991 0 0.000696182 -0.000679016
8 1 0.834493 0.153287 0.13703 0 -0.000387192 -0.000478745
9 1 0.747626 0.627332 0.0646987 0 -0.00069046 -0.000673294
10 1 0.757394 0.999056 0.278337 0 -0.000488281 0.000328064
11 1 0.68021 0.167781 0.419395 0 0.000162125 -0.00136185
12 1 0.603055 -0.00114849 0.560572 0 0.000928879 -0.000169754
13 1 0.353055 0.167815 0.560572 0 -0.000911713 -0.000181198
14 1 0.275888 0.998883 0.701744 0 -0.000497818 0.00113487
15 1 0.0258872 0.167785 0.701744 0 0.000495911 0.00112343
16 1 0.948767 1.00188 0.84303 0 0.000730515 -0.000247955
17 1 0.67089 0.501879 0.207423 0 0.000745773 0.00025177
18 1 0.507396 0.167611 0.278337 0 0.000494003 0.000307083
19 1 0.42089 0.664787 0.207423 0 -0.000738144 0.00025177
20 1 0.430209 0.998885 0.419394 0 -0.000150681 -0.00133133
21 1 0.34377 0.498883 0.348709 0 -0.000505447 -0.00114441
22 1 0.180209 0.167781 0.419394 0 0.000154495 -0.00134468
23 1 0.0937687 0.667783 0.348709 0 0.000513077 -0.00114059
24 1 0.103054 -0.00114828 0.560572 0 0.000911713 -0.000160217
25 1 0.016602 0.498852 0.489881 0 0.000909805 0.000162125
26 1 0.853053 0.167815 0.560571 0 -0.000907898 -0.000146866
27 1 0.766602 0.667815 0.489881 0 -0.000909805 0.000177383
28 1 0.497628 0.539333 0.064699 0 0.000701904 -0.000667572
29 1 0.247628 0.627333 0.0646993 0 -0.000692368 -0.000696182
30 1 0.170889 0.50188 0.207423 0 0.000745773 0.00025177
31 1 0.920889 0.664786 0.207423 0 -0.000722885 0.00025177
32 1 0.843768 0.498883 0.34871 0 -0.000499725 -0.00115585
33 1 0.698769 0.164787 0.84303 0 -0.0007267 -0.000249863
34 1 0.62203 0.0393358 0.985754 0 0.000701904 0.000673294
35 1 0.37203 0.127333 0.985754 0 -0.000709534 0.000652313
36 1 0.775889 0.998883 0.701743 0 -0.000490189 0.00114632
37 1 0.689449 0.498887 0.631059 0 -0.00018692 0.00134277
38 1 0.525888 0.167784 0.701743 0 0.000511169 0.0011425
39 1 0.439449 0.667781 0.631059 0 0.000167847 0.00133705
40 1 0.448768 1.00188 0.84303 0 0.00075531 -0.000228882
41 1 0.362262 0.499056 0.772116 0 -0.000492096 -0.000326157
42 1 0.198767 0.164787 0.84303 0 -0.000741959 -0.000267029
43 1 0.112261 0.667611 0.772116 0 0.000492096 -0.000301361
44 1 0.122029 0.0393331 0.985753 0 0.000688553 0.000705719
45 1 0.0351624 0.513379 0.913422 0 0.000387192 0.000465393
46 1 0.59377 0.667784 0.348709 0 0.000499725 -0.00113487
47 1 0.516603 0.498852 0.489881 0 0.000879288 0.000167847
48 1 0.266603 0.667815 0.489881 0 -0.000894547 0.000167847
49 1 0.189448 0.498886 0.631058 0 -0.000165939 0.00136185
50 1 0.939447 0.667781 0.631058 0 0.000177383 0.0013504
51 1 0.862261 0.499055 0.772116 0 -0.000480652 -0.000314713
52 1 0.872031 0.127332 0.985754 0 -0.000692368 0.000675201
53 1 0.785164 0.653286 0.913423 0 -0.00038147 0.000482559
54 1 0.612262 0.667613 0.772116 0 0.000465393 -0.00030899
55 1 0.535164 0.513382 0.913422 0 0.000368118 0.000494003
56 1 0.285163 0.653286 0.913422 0 -0.00037384 0.000494003
ITEM: TIMESTEP
8
ITEM: NUMBER OF ATOMS
56
ITEM: BOX BOUNDS xy xz yz pp pp pp
-2.8802781701087952e+00 1.2156271994113922e+01 8.9406967163085938e-07
-8.2894563674926758e-03 5.5346975326538086e+00 -2.9091069102287292e+00
-4.5665502548217773e-03 1.9024526596069336e+01 -5.9604644775390625e-08
ITEM: ATOMS id type xs ys zs fx fy fz
1 1 0.584493 1.0134 0.137022 0 0.000591278 0.000640869
2 1 0.334492 0.153271 0.137022 0 -0.000585556 0.000619888
3 1 0.257396 0.999002 0.27834 0 0.000375748 -0.000759125
4 1 0.00739549 0.167665 0.27834 0 -0.000375748 -0.000749588
5 1 0.930203 0.998892 0.419374 0 -0.000242233 -0.000324249
6 1 0.0844914 1.0134 0.137022 0 0.000600815 0.000644684
7 1 0.997621 0.539414 0.064676 0 0.000352859 0.000198364
8 1 0.834491 0.15327 0.137022 0 -0.000585556 0.000654221
9 1 0.747621 0.627255 0.0646758 0 -0.000358582 0.000213623
10 1 0.757395 0.999002 0.27834 0 0.000368118 -0.000774384
11 1 0.680205 0.167774 0.419374 0 0.000246048 -0.000333786
12 1 0.603055 -0.00108677 0.560573 0 0.000318527 4.95911e-05
13 1 0.353055 0.167755 0.560573 0 -0.000329971 4.76837e-05
14 1 0.275895 0.998852 0.701773 0 -0.000120163 -0.000307083
15 1 0.0258942 0.167816 0.701773 0 0.000112534 -0.000289917
16 1 0.948768 1.00191 0.843037 0 6.67572e-05 0.000486374
17 1 0.670889 0.501911 0.207416 0 5.72205e-05 -0.000497818
18 1 0.507397 0.167666 0.27834 0 -0.000377655 -0.000757217
19 1 0.420888 0.664756 0.207416 0 -5.72205e-05 -0.000482559
20 1 0.430205 0.998894 0.419374 0 -0.000261307 -0.00034523
21 1 0.343762 0.498852 0.34868 0 -0.000102997 0.00030899
22 1 0.180204 0.167773 0.419374 0 0.000257492 -0.000337601
23 1 0.0937616 0.667816 0.34868 0 0.000110626 0.000307083
24 1 0.103054 -0.00108773 0.560573 0 0.000329971 2.47955e-05
25 1 0.0166017 0.498912 0.48988 0 0.000337601 -4.19617e-05
26 1 0.853054 0.167755 0.560573 0 -0.000333786 3.05176e-05
27 1 0.766601 0.667755 0.48988 0 -0.000333786 -4.3869e-05
28 1 0.497623 0.539411 0.0646762 0 0.000347137 0.000213623
29 1 0.247622 0.627255 0.0646759 0 -0.000370026 0.000234604
30 1 0.170888 0.501912 0.207416 0 5.91278e-05 -0.000490189
31 1 0.920887 0.664756 0.207416 0 -5.72205e-05 -0.000499725
32 1 0.843761 0.498852 0.34868 0 -0.000112534 0.000310898