ITEM: TIMESTEP
0
ITEM: NUMBER OF ATOMS
32
ITEM: BOX BOUNDS xy xz yz pp pp pp
-4.7826766967773438e-03 8.4791144728660583e+00 2.0797827839851379e+00
-3.7661075592041016e-02 2.2120539069175720e+01 0.0000000000000000e+00
-1.1393904685974121e-02 5.1938598752021790e+00 0.0000000000000000e+00
ITEM: ATOMS id type xs ys zs fx fy fz
1 1 0.909919 0.336542 0.593597 0 0.000844955 5.72205e-06
2 1 0.409919 0.336542 0.593597 0 0.000841141 5.72205e-06
3 1 0.1734 0.295033 0.0935973 0 -0.00159836 -3.8147e-06
4 1 0.6734 0.295033 0.0935973 0 -0.00159454 -1.90735e-06
5 1 0.119325 0.461543 0.593597 0 0.000907898 0
6 1 0.619325 0.461543 0.593597 0 0.000911713 5.72205e-06
7 1 0.882803 0.420037 0.0935973 0 -0.0013752 -7.62939e-06
8 1 0.382804 0.420037 0.0935973 0 -0.0013752 -3.8147e-06
9 1 0.828729 0.586543 0.593597 0 0.00131607 0
10 1 0.32873 0.586543 0.593597 0 0.00131416 0
11 1 0.0381365 0.711539 0.593597 0 0.00169373 7.62939e-06
12 1 0.538136 0.711539 0.593597 0 0.00169373 5.72205e-06
13 1 0.801613 0.670042 0.0935972 0 -0.00107765 -3.8147e-06
14 1 0.0922074 0.545043 0.0935972 0 -0.00101471 0
15 1 0.592207 0.545043 0.0935972 0 -0.00101089 0
16 1 0.301613 0.670042 0.0935972 0 -0.00108147 -7.62939e-06
17 1 0.747543 0.836533 0.593597 0 0.0104599 0
18 1 0.247544 0.836533 0.593597 0 0.0104599 0
19 1 0.956949 0.961533 0.593597 0 -0.320625 0
20 1 0.456949 0.961533 0.593597 0 -0.320625 1.90735e-06
21 1 0.0110207 0.795035 0.0935971 0 0.00139809 0
22 1 0.511021 0.795035 0.0935971 0 0.00139618 -1.90735e-06
23 1 0.720427 0.920032 0.0935971 0 -0.533434 -3.8147e-06
24 1 0.220427 0.920032 0.0935971 0 -0.533432 0
25 1 0.99111 0.0865377 0.593597 0 0.533182 0
26 1 0.49111 0.0865377 0.593597 0 0.533188 0
27 1 0.25459 0.045031 0.093597 0 0.32099 0
28 1 0.75459 0.045031 0.093597 0 0.320986 1.90735e-06
29 1 0.200515 0.211541 0.593597 0 -0.00143051 0
30 1 0.700515 0.211541 0.593597 0 -0.0014286 0
31 1 0.963995 0.170031 0.093597 0 -0.0102386 0
32 1 0.463995 0.170031 0.093597 0 -0.0102406 0
ITEM: TIMESTEP
1
ITEM: NUMBER OF ATOMS
32
ITEM: BOX BOUNDS xy xz yz pp pp pp
-4.7826766967773438e-03 8.4791144728660583e+00 2.0797827839851379e+00
-3.7661075592041016e-02 2.2120539069175720e+01 0.0000000000000000e+00
-1.1393904685974121e-02 5.1938598752021790e+00 0.0000000000000000e+00
ITEM: ATOMS id type xs ys zs fx fy fz
1 1 0.909917 0.33655 0.593597 0 0.000118256 -1.90735e-06
2 1 0.409917 0.33655 0.593597 0 0.000120163 -1.90735e-06
3 1 0.173404 0.295019 0.0935972 0 0.000476837 0
4 1 0.673404 0.295019 0.0935972 0 0.000476837 0
5 1 0.119322 0.46155 0.593597 0 0.00132751 1.90735e-06
6 1 0.619322 0.46155 0.593597 0 0.00133133 -1.90735e-06
7 1 0.882807 0.420026 0.093597 0 -0.0018177 1.90735e-06
8 1 0.382808 0.420026 0.0935972 0 -0.00181961 3.8147e-06
9 1 0.828726 0.586555 0.593597 0 0.00176811 5.72205e-06
10 1 0.328726 0.586555 0.593597 0 0.0017662 1.90735e-06
11 1 0.0381318 0.711553 0.593597 0 -0.000404358 -3.8147e-06
12 1 0.538132 0.711553 0.593597 0 -0.000404358 -1.90735e-06
13 1 0.801615 0.670033 0.0935971 0 -0.00028038 0
14 1 0.0922102 0.545034 0.0935972 0 -0.00146866 -5.72205e-06
15 1 0.59221 0.545034 0.0935972 0 -0.00147438 0
16 1 0.301616 0.670033 0.0935969 0 -0.000278473 1.90735e-06
17 1 0.747515 0.836621 0.593597 0 -0.0940762 1.90735e-06
18 1 0.247515 0.836621 0.593597 0 -0.0940742 3.8147e-06
19 1 0.95783 0.95882 0.593597 0 0.071022 3.8147e-06
20 1 0.45783 0.95882 0.593597 0 0.071022 -1.90735e-06
21 1 0.0110169 0.795046 0.0935971 0 -0.106276 -5.72205e-06
22 1 0.511017 0.795046 0.093597 0 -0.106276 1.90735e-06
23 1 0.721892 0.915519 0.093597 0 -0.0499115 0
24 1 0.221893 0.915519 0.0935971 0 -0.0499115 -3.8147e-06
25 1 0.989645 0.0910486 0.593597 0 0.0500927 3.8147e-06
26 1 0.489645 0.0910486 0.593597 0 0.050087 0
27 1 0.253708 0.0477467 0.093597 0 -0.071022 0
28 1 0.753708 0.0477466 0.0935971 0 -0.0710297 -3.8147e-06
29 1 0.200518 0.211529 0.593597 0 0.106186 0
30 1 0.700518 0.211529 0.593597 0 0.106182 0
31 1 0.964023 0.169945 0.093597 0 0.0942707 0
32 1 0.464023 0.169945 0.093597 0 0.0942764 0
ITEM: TIMESTEP
2
ITEM: NUMBER OF ATOMS
32
ITEM: BOX BOUNDS xy xz yz pp pp pp
-4.7826766967773438e-03 8.4791144728660583e+00 2.0797827839851379e+00
-3.7661075592041016e-02 2.2120539069175720e+01 0.0000000000000000e+00
-1.1393904685974121e-02 5.1938598752021790e+00 0.0000000000000000e+00
ITEM: ATOMS id type xs ys zs fx fy fz
1 1 0.909915 0.336554 0.593597 0 0.0542583 1.90735e-06
2 1 0.409916 0.336554 0.593597 0 0.0542583 5.72205e-06
3 1 0.173401 0.295028 0.0935971 0 0.0678596 1.90735e-06
4 1 0.673401 0.295028 0.0935972 0 0.0678596 -1.90735e-06
5 1 0.119311 0.461584 0.593597 0 0.000114441 -5.72205e-06
6 1 0.619311 0.461585 0.593597 0 0.000106812 3.8147e-06
7 1 0.882822 0.419979 0.0935972 0 0.00121117 0
8 1 0.382823 0.419979 0.0935975 0 0.00121307 -7.62939e-06
9 1 0.828711 0.5866 0.593598 0 -0.00126457 -1.33514e-05
10 1 0.328711 0.5866 0.593597 0 -0.00125504 -5.72205e-06
11 1 0.0381342 0.711546 0.593597 0 -0.0678558 0
12 1 0.538134 0.711546 0.593597 0 -0.0678558 1.90735e-06
13 1 0.801618 0.670025 0.093597 0 -0.0543327 3.8147e-06
14 1 0.0922225 0.544996 0.0935966 0 -0.000207901 1.33514e-05
15 1 0.592223 0.544996 0.0935972 0 -0.000202179 1.90735e-06
16 1 0.301619 0.670025 0.0935971 0 -0.0543346 0
17 1 0.748261 0.834323 0.593597 0 0.0303631 -1.90735e-06
18 1 0.248261 0.834323 0.593597 0 0.0303574 -3.8147e-06
19 1 0.957428 0.960059 0.593597 0 -8.2016e-05 -5.72205e-06
20 1 0.457428 0.960059 0.593597 0 -8.2016e-05 0
21 1 0.0118654 0.792434 0.0935965 0 -0.010458 0
22 1 0.511865 0.792434 0.0935972 0 -0.0104542 -1.90735e-06
23 1 0.722565 0.913446 0.0935969 0 -0.0210266 3.8147e-06
24 1 0.222566 0.913446 0.0935967 0 -0.0210228 1.14441e-05
25 1 0.98897 0.0931256 0.593597 0 0.0209255 -7.62939e-06
26 1 0.488971 0.0931255 0.593597 0 0.020937 0
27 1 0.25411 0.0465077 0.093597 0 0.000307083 -1.90735e-06
28 1 0.75411 0.0465075 0.0935967 0 0.000310898 3.8147e-06
29 1 0.199671 0.214139 0.593597 0 0.0105267 0
30 1 0.699671 0.214139 0.593597 0 0.0105343 0
31 1 0.963275 0.172248 0.093597 0 -0.0303497 5.72205e-06
32 1 0.463275 0.172248 0.093597 0 -0.0303593 -1.90735e-06
ITEM: TIMESTEP
3
ITEM: NUMBER OF ATOMS
32
ITEM: BOX BOUNDS xy xz yz pp pp pp
-4.7826766967773438e-03 8.4791144728660583e+00 2.0797827839851379e+00
-3.7661075592041016e-02 2.2120539069175720e+01 0.0000000000000000e+00
-1.1393904685974121e-02 5.1938598752021790e+00 0.0000000000000000e+00
ITEM: ATOMS id type xs ys zs fx fy fz
1 1 0.909495 0.337847 0.593597 0 0.0137444 1.90735e-06
2 1 0.409496 0.337847 0.593598 0 0.0137424 -1.90735e-06
3 1 0.172876 0.296647 0.0935973 0 -0.00292778 0
4 1 0.672876 0.296647 0.093597 0 -0.0029335 1.90735e-06
5 1 0.119306 0.461599 0.593597 0 0.0225277 7.62939e-06
6 1 0.619306 0.461599 0.593597 0 0.0225315 -1.90735e-06
7 1 0.882818 0.419992 0.0935972 0 0.0430832 -7.62939e-06
8 1 0.382819 0.419992 0.0935969 0 0.0430908 5.72205e-06
9 1 0.828716 0.586585 0.593596 0 -0.0431423 9.53674e-06
10 1 0.328716 0.586586 0.593597 0 -0.0431499 7.62939e-06
11 1 0.0386596 0.709928 0.593597 0 0.00288582 0
12 1 0.53866 0.709928 0.593597 0 0.00288582 -3.8147e-06
13 1 0.802039 0.668728 0.0935974 0 -0.0137291 -7.62939e-06
14 1 0.0922282 0.544979 0.0935977 0 -0.0225601 -1.14441e-05
15 1 0.592228 0.544979 0.0935974 0 -0.0225658 -5.72205e-06
16 1 0.30204 0.668728 0.0935971 0 -0.0137177 0
17 1 0.748279 0.834268 0.593597 0 -0.00739098 -1.90735e-06
18 1 0.248279 0.834268 0.593597 0 -0.00738525 -3.8147e-06
19 1 0.957292 0.960477 0.593597 0 0.00214577 5.72205e-06
20 1 0.457292 0.960477 0.593597 0 0.0021553 1.90735e-06
21 1 0.0122336 0.7913 0.0935963 0 -0.0160217 1.14441e-05
22 1 0.512234 0.7913 0.0935971 0 -0.0160255 1.90735e-06
23 1 0.722956 0.912243 0.0935973 0 0.0264587 -5.72205e-06
24 1 0.222956 0.912243 0.0935977 0 0.0264587 -5.72205e-06
25 1 0.98858 0.0943272 0.593597 0 -0.026268 9.53674e-06
26 1 0.48858 0.0943274 0.593597 0 -0.0262756 -3.8147e-06
27 1 0.254244 0.0460954 0.0935968 0 -0.0022049 -1.90735e-06
28 1 0.754244 0.0460952 0.0935969 0 -0.00220108 3.8147e-06
29 1 0.199302 0.215274 0.593597 0 0.0159836 1.90735e-06
30 1 0.699302 0.215274 0.593597 0 0.0159817 3.8147e-06
31 1 0.963256 0.172305 0.0935976 0 0.00741386 -1.14441e-05
32 1 0.463257 0.172305 0.0935968 0 0.00741005 0
ITEM: TIMESTEP
4
ITEM: NUMBER OF ATOMS
32
ITEM: BOX BOUNDS xy xz yz pp pp pp
-4.7826766967773438e-03 8.4791144728660583e+00 2.0797827839851379e+00
-3.7661075592041016e-02 2.2120539069175720e+01 0.0000000000000000e+00
-1.1393904685974121e-02 5.1938598752021790e+00 0.0000000000000000e+00
ITEM: ATOMS id type xs ys zs fx fy fz
1 1 0.909268 0.338547 0.593597 0 0.00834846 -5.72205e-06
2 1 0.409268 0.338547 0.593598 0 0.00834846 -3.8147e-06
3 1 0.172721 0.297124 0.0935974 0 0.00108337 1.90735e-06
4 1 0.672721 0.297124 0.0935971 0 0.00108719 3.8147e-06
5 1 0.11916 0.46205 0.593597 0 -0.00530434 -1.90735e-06
6 1 0.61916 0.46205 0.593597 0 -0.00530052 -3.8147e-06
7 1 0.882539 0.420851 0.0935966 0 0.00709152 9.53674e-06
8 1 0.38254 0.420851 0.0935972 0 0.00708008 1.90735e-06
9 1 0.828995 0.585725 0.593597 0 -0.00711632 0
10 1 0.328996 0.585725 0.593597 0 -0.0071125 0
11 1 0.0388146 0.709451 0.593597 0 -0.00109291 7.62939e-06
12 1 0.538815 0.709451 0.593597 0 -0.00109291 0
13 1 0.802267 0.668028 0.0935969 0 -0.00833321 0
14 1 0.0923754 0.544525 0.0935972 0 0.00527954 0
15 1 0.592375 0.544525 0.093597 0 0.00527954 -1.90735e-06
16 1 0.302267 0.668028 0.0935971 0 -0.00834084 0
17 1 0.748333 0.834103 0.593597 0 -0.00550652 0
18 1 0.248333 0.834103 0.593597 0 -0.00550842 7.62939e-06
19 1 0.957233 0.960658 0.593597 0 -0.0162067 1.90735e-06
20 1 0.457233 0.960658 0.593597 0 -0.0162086 1.90735e-06
21 1 0.0124584 0.790608 0.0935972 0 0.0094986 -7.62939e-06
22 1 0.512458 0.790608 0.0935972 0 0.00950241 -1.90735e-06
23 1 0.722915 0.91237 0.093597 0 -0.00725365 1.90735e-06
24 1 0.222915 0.912371 0.0935976 0 -0.00726128 -9.53674e-06
25 1 0.98862 0.0942033 0.593597 0 0.00723457 -7.62939e-06
26 1 0.488621 0.0942034 0.593597 0 0.00723076 1.90735e-06
27 1 0.254303 0.0459155 0.0935966 0 0.0162354 5.72205e-06
28 1 0.754303 0.0459153 0.0935973 0 0.0162334 0
29 1 0.199078 0.215966 0.593597 0 -0.00944519 -5.72205e-06
30 1 0.699078 0.215966 0.593597 0 -0.00945091 -7.62939e-06
31 1 0.963202 0.172471 0.0935968 0 0.00549507 7.62939e-06
32 1 0.463203 0.172471 0.0935967 0 0.00550652 3.8147e-06
ITEM: TIMESTEP
5
ITEM: NUMBER OF ATOMS
32
ITEM: BOX BOUNDS xy xz yz pp pp pp
-4.7826766967773438e-03 8.4791144728660583e+00 2.0797827839851379e+00
-3.7661075592041016e-02 2.2120539069175720e+01 0.0000000000000000e+00
-1.1393904685974121e-02 5.1938598752021790e+00 0.0000000000000000e+00
ITEM: ATOMS id type xs ys zs fx fy fz
1 1 0.909195 0.338771 0.593597 0 -0.00311089 3.8147e-06
2 1 0.409195 0.338771 0.593597 0 -0.00310135 0
3 1 0.172694 0.297206 0.0935975 0 0.00380325 -3.8147e-06
4 1 0.672694 0.297205 0.0935974 0 0.00380325 -3.8147e-06
5 1 0.119167 0.46203 0.593597 0 -0.00359344 1.90735e-06
6 1 0.619167 0.46203 0.593597 0 -0.00360298 3.8147e-06
7 1 0.882466 0.421077 0.0935971 0 -0.000473022 -1.90735e-06
8 1 0.382466 0.421077 0.0935973 0 -0.000471115 -3.8147e-06
9 1 0.829069 0.585498 0.593597 0 0.000461578 -1.90735e-06
10 1 0.329069 0.585498 0.593597 0 0.000459671 -3.8147e-06
11 1 0.0388412 0.709369 0.593597 0 -0.00380325 -3.8147e-06
12 1 0.538841 0.709369 0.593597 0 -0.00379944 -1.90735e-06
13 1 0.80234 0.667803 0.0935968 0 0.0031147 5.72205e-06
14 1 0.0923689 0.544545 0.0935971 0 0.00359344 0
15 1 0.592369 0.544545 0.0935968 0 0.00359726 3.8147e-06
16 1 0.30234 0.667803 0.0935971 0 0.00310326 1.90735e-06
17 1 0.748368 0.833995 0.593597 0 -0.00652504 -1.90735e-06
18 1 0.248368 0.833995 0.593597 0 -0.0065155 -5.72205e-06
19 1 0.957307 0.960432 0.593597 0 -0.00118256 -1.90735e-06
20 1 0.457307 0.960432 0.593597 0 -0.00119019 0
21 1 0.0124413 0.79066 0.0935968 0 -0.00191498 3.8147e-06
22 1 0.512441 0.79066 0.0935971 0 -0.00192451 1.90735e-06
23 1 0.722946 0.912275 0.093597 0 0.00549698 1.90735e-06
24 1 0.222946 0.912276 0.0935969 0 0.00549316 3.8147e-06
25 1 0.988589 0.0942985 0.593597 0 -0.00549507 7.62939e-06
26 1 0.48859 0.0942985 0.593597 0 -0.00548744 5.72205e-06
27 1 0.254229 0.0461423 0.0935969 0 0.00119209 -1.90735e-06
28 1 0.754229 0.0461422 0.0935974 0 0.001194 -5.72205e-06
29 1 0.199094 0.215914 0.593597 0 0.00192261 5.72205e-06
30 1 0.699094 0.215914 0.593597 0 0.00192261 1.90735e-06
31 1 0.963167 0.172579 0.0935972 0 0.00651741 -7.62939e-06
32 1 0.463168 0.172579 0.093597 0 0.0065155 -3.8147e-06
ITEM: TIMESTEP
6
ITEM: NUMBER OF ATOMS
32
ITEM: BOX BOUNDS xy xz yz pp pp pp
-4.7826766967773438e-03 8.4791144728660583e+00 2.0797827839851379e+00
-3.7661075592041016e-02 2.2120539069175720e+01 0.0000000000000000e+00
-1.1393904685974121e-02 5.1938598752021790e+00 0.0000000000000000e+00
ITEM: ATOMS id type xs ys zs fx fy fz
1 1 0.909195 0.338771 0.593597 0 -0.00357819 0
2 1 0.409196 0.338771 0.593597 0 -0.00359535 0
3 1 0.172654 0.297331 0.0935971 0 0.00296402 0
4 1 0.672654 0.297331 0.093597 0 0.00296211 0
5 1 0.119199 0.461931 0.593597 0 0.00108719 -1.90735e-06
6 1 0.619199 0.461931 0.593597 0 0.00109673 -3.8147e-06
7 1 0.882444 0.421144 0.0935971 0 0.000495911 1.90735e-06
8 1 0.382444 0.421144 0.093597 0 0.00050354 3.8147e-06
9 1 0.829091 0.58543 0.593597 0 -0.000492096 5.72205e-06
10 1 0.329091 0.58543 0.593597 0 -0.000501633 1.90735e-06
11 1 0.0388819 0.709244 0.593597 0 -0.00296974 1.90735e-06
12 1 0.538882 0.709244 0.593597 0 -0.00296783 5.72205e-06
13 1 0.802339 0.667804 0.0935974 0 0.00357437 -7.62939e-06
14 1 0.092337 0.544644 0.0935971 0 -0.00109482 0
15 1 0.592337 0.544644 0.0935971 0 -0.00109291 -1.90735e-06
16 1 0.30234 0.667804 0.0935973 0 0.00358582 -1.90735e-06
17 1 0.748434 0.833792 0.593597 0 0.000463486 1.14441e-05
18 1 0.248434 0.833792 0.593597 0 0.000453949 1.90735e-06
19 1 0.957342 0.960323 0.593597 0 -0.000608444 -1.90735e-06
20 1 0.457342 0.960323 0.593597 0 -0.000598907 0
21 1 0.0124511 0.79063 0.0935971 0 0.000816345 -5.72205e-06
22 1 0.512451 0.79063 0.0935973 0 0.000827789 -5.72205e-06
23 1 0.722911 0.912382 0.0935973 0 -0.00238991 -5.72205e-06
24 1 0.222911 0.912382 0.0935971 0 -0.00238419 1.90735e-06
25 1 0.988624 0.0941919 0.593598 0 0.0024147 -1.71661e-05
26 1 0.488624 0.094192 0.593597 0 0.00239372 -9.53674e-06
27 1 0.254193 0.0462516 0.0935968 0 0.000583649 5.72205e-06
28 1 0.754193 0.0462515 0.0935968 0 0.000597 9.53674e-06
29 1 0.199084 0.215944 0.593597 0 -0.000831604 -5.72205e-06
30 1 0.699084 0.215944 0.593597 0 -0.000822067 0
31 1 0.963101 0.172782 0.0935965 0 -0.000448227 9.53674e-06
32 1 0.463102 0.172782 0.0935967 0 -0.000444412 7.62939e-06
ITEM: TIMESTEP
7
ITEM: NUMBER OF ATOMS
32
ITEM: BOX BOUNDS xy xz yz pp pp pp
-4.7826766967773438e-03 8.4791144728660583e+00 2.0797827839851379e+00
-3.7661075592041016e-02 2.2120539069175720e+01 0.0000000000000000e+00
-1.1393904685974121e-02 5.1938598752021790e+00 0.0000000000000000e+00
ITEM: ATOMS id type xs ys zs fx fy fz
1 1 0.909215 0.338711 0.593597 0 -0.000165939 -3.8147e-06
2 1 0.409215 0.338711 0.593597 0 -0.00015831 0
3 1 0.172631 0.2974 0.0935971 0 6.48499e-05 -1.90735e-06
4 1 0.672631 0.2974 0.093597 0 6.48499e-05 1.90735e-06
5 1 0.119198 0.461933 0.593597 0 -0.00066185 1.90735e-06
6 1 0.619198 0.461933 0.593597 0 -0.000658035 -1.90735e-06
7 1 0.882438 0.421163 0.0935972 0 0.000362396 -1.90735e-06
8 1 0.382438 0.421163 0.0935972 0 0.000354767 1.90735e-06
9 1 0.829097 0.585411 0.593597 0 -0.000356674 -1.90735e-06
10 1 0.329097 0.585411 0.593597 0 -0.000358582 -1.90735e-06
11 1 0.0389044 0.709174 0.593597 0 -6.29425e-05 -1.90735e-06
12 1 0.538904 0.709175 0.593597 0 -6.10352e-05 -1.90735e-06
13 1 0.80232 0.667863 0.093597 0 0.000150681 0
14 1 0.0923377 0.544642 0.093597 0 0.000663757 1.90735e-06
15 1 0.592338 0.544642 0.0935971 0 0.000663757 1.90735e-06
16 1 0.302321 0.667863 0.0935972 0 0.000152588 0
17 1 0.748442 0.833766 0.593597 0 -0.000192642 -7.62939e-06
18 1 0.248442 0.833767 0.593597 0 -0.000192642 1.90735e-06
19 1 0.957351 0.960295 0.593597 0 0.00115395 0
20 1 0.457351 0.960295 0.593597 0 0.00113678 0
21 1 0.0124484 0.790639 0.0935967 0 0.000240326 5.72205e-06
22 1 0.512448 0.790639 0.0935969 0 0.000238419 1.90735e-06
23 1 0.722918 0.91236 0.0935969 0 -0.000137329 5.72205e-06
24 1 0.222918 0.91236 0.0935973 0 -0.000131607 -3.8147e-06
25 1 0.988617 0.0942144 0.593597 0 0.000127792 7.62939e-06
26 1 0.488617 0.0942143 0.593597 0 0.000135422 3.8147e-06
27 1 0.254185 0.046279 0.0935972 0 -0.00112915 -3.8147e-06
28 1 0.754185 0.0462791 0.0935974 0 -0.0011425 -5.72205e-06
29 1 0.199087 0.215936 0.593597 0 -0.000238419 7.62939e-06
30 1 0.699087 0.215936 0.593597 0 -0.000244141 3.8147e-06
31 1 0.963093 0.172808 0.0935971 0 0.000192642 -9.53674e-06
32 1 0.463093 0.172808 0.0935971 0 0.000188828 0
ITEM: TIMESTEP
8
ITEM: NUMBER OF ATOMS
32
ITEM: BOX BOUNDS xy xz yz pp pp pp
-4.7826766967773438e-03 8.4791144728660583e+00 2.0797827839851379e+00
-3.7661075592041016e-02 2.2120539069175720e+01 0.0000000000000000e+00
-1.1393904685974121e-02 5.1938598752021790e+00 0.0000000000000000e+00
ITEM: ATOMS id type xs ys zs fx fy fz
1 1 0.909217 0.338703 0.593597 0 1.90735e-06 0
2 1 0.409218 0.338703 0.593597 0 -3.8147e-06 -1.90735e-06
3 1 0.172629 0.297407 0.0935969 0 -8.01086e-05 3.8147e-06
4 1 0.672629 0.297407 0.0935972 0 -7.62939e-05 0
5 1 0.119202 0.46192 0.593597 0 -0.000198364 -1.90735e-06
6 1 0.619202 0.46192 0.593597 0 -0.000202179 1.90735e-06
7 1 0.882435 0.421172 0.0935971 0 0.00021553 1.90735e-06
8 1 0.382435 0.421172 0.0935973 0 0.000217438 -1.90735e-06
9 1 0.8291 0.585402 0.593597 0 -0.000217438 1.90735e-06
10 1 0.3291 0.585402 0.593597 0 -0.000211716 1.14441e-05
11 1 0.0389067 0.709167 0.593597 0 8.01086e-05 1.90735e-06
12 1 0.538907 0.709168 0.593597 0 7.24792e-05 0
13 1 0.802318 0.667871 0.0935969 0 7.62939e-06 0
14 1 0.0923334 0.544655 0.0935972 0 0.000190735 -3.8147e-06
15 1 0.592333 0.544655 0.0935972 0 0.000190735 -5.72205e-06
16 1 0.302318 0.667871 0.0935972 0 3.8147e-06 -3.8147e-06
17 1 0.748444 0.833761 0.593597 0 0.00030899 9.53674e-06
18 1 0.248444 0.833761 0.593597 0 0.00030899 0
19 1 0.957344 0.960316 0.593597 0 -0.00015831 0
20 1 0.457344 0.960316 0.593597 0 -0.000146866 -1.90735e-06
21 1 0.0124466 0.790644 0.0935972 0 -7.05719e-05 -3.8147e-06
22 1 0.512447 0.790644 0.093597 0 -7.24792e-05 -1.90735e-06
23 1 0.72292 0.912355 0.0935974 0 -0.000244141 -3.8147e-06
24 1 0.22292 0.912356 0.093597 0 -0.000246048 0
25 1 0.988615 0.0942188 0.593597 0 0.000242233 -7.62939e-06
26 1 0.488616 0.0942188 0.593597 0 0.000240326 -1.90735e-06
27 1 0.254191 0.0462586 0.0935969 0 0.000152588 5.72205e-06
28 1 0.754191 0.0462585 0.0935969 0 0.000152588 1.90735e-06
29 1 0.199089 0.21593 0.593598 0 7.24792e-05 -1.33514e-05
30 1 0.699089 0.21593 0.593597 0 7.05719e-05 -1.90735e-06
31 1 0.963091 0.172814 0.0935963 0 -0.000303268 1.14441e-05
32 1 0.463091 0.172814 0.0935972 0 -0.000297546 3.8147e-06
ITEM: TIMESTEP
9
ITEM: NUMBER OF ATOMS
32
ITEM: BOX BOUNDS xy xz yz pp pp pp
-4.7826766967773438e-03 8.4791144728660583e+00 2.0797827839851379e+00
-3.7661075592041016e-02 2.2120539069175720e+01 0.0000000000000000e+00
-1.1393904685974121e-02 5.1938598752021790e+00 0.0000000000000000e+00
ITEM: ATOMS id type xs ys zs fx fy fz
1 1 0.909217 0.338703 0.593597 0 1.90735e-06 0
2 1 0.409218 0.338703 0.593597 0 -3.8147e-06 -1.90735e-06
3 1 0.172629 0.297407 0.0935969 0 -8.01086e-05 3.8147e-06
4 1 0.672629 0.297407 0.0935972 0 -7.62939e-05 0
5 1 0.119202 0.46192 0.593597 0 -0.000198364 -1.90735e-06
6 1 0.619202 0.46192 0.593597 0 -0.000202179 1.90735e-06
7 1 0.882435 0.421172 0.0935971 0 0.00021553 1.90735e-06
8 1 0.382435 0.421172 0.0935973 0 0.000217438 -1.90735e-06
9 1 0.8291 0.585402 0.593597 0 -0.000217438 1.90735e-06
10 1 0.3291 0.585402 0.593597 0 -0.000211716 1.14441e-05
11 1 0.0389067 0.709167 0.593597 0 8.01086e-05 1.90735e-06
12 1 0.538907 0.709168 0.593597 0 7.24792e-05 0
13 1 0.802318 0.667871 0.0935969 0 7.62939e-06 0
14 1 0.0923334 0.544655 0.0935972 0 0.000190735 -3.8147e-06
15 1 0.592333 0.544655 0.0935972 0 0.000190735 -5.72205e-06
16 1 0.302318 0.667871 0.0935972 0 3.8147e-06 -3.8147e-06
17 1 0.748444 0.833761 0.593597 0 0.00030899 9.53674e-06
18 1 0.248444 0.833761 0.593597 0 0.00030899 0
19 1 0.957344 0.960316 0.593597 0 -0.00015831 0
20 1 0.457344 0.960316 0.593597 0 -0.000146866 -1.90735e-06
21 1 0.0124466 0.790644 0.0935972 0 -7.05719e-05 -3.8147e-06
22 1 0.512447 0.790644 0.093597 0 -7.24792e-05 -1.90735e-06
23 1 0.72292 0.912355 0.0935974 0 -0.000244141 -3.8147e-06
24 1 0.22292 0.912356 0.093597 0 -0.000246048 0
25 1 0.988615 0.0942188 0.593597 0 0.000242233 -7.62939e-06
26 1 0.488616 0.0942188 0.593597 0 0.000240326 -1.90735e-06
27 1 0.254191 0.0462586 0.0935969 0 0.000152588 5.72205e-06
28 1 0.754191 0.0462585 0.0935969 0 0.000152588 1.90735e-06
29 1 0.199089 0.21593 0.593598 0 7.24792e-05 -1.33514e-05
30 1 0.699089 0.21593 0.593597 0 7.05719e-05 -1.90735e-06
31 1 0.963091 0.172814 0.0935963 0 -0.000303268 1.14441e-05
32 1 0.463091 0.172814 0.0935972 0 -0.000297546 3.8147e-06
