ITEM: TIMESTEP
0
ITEM: NUMBER OF ATOMS
32
ITEM: BOX BOUNDS xy xz yz pp pp pp
-2.4071335792541504e-03 6.3992393016815186e+00 0.0000000000000000e+00
-9.1621279716491699e-03 6.7737517952919006e+00 0.0000000000000000e+00
5.4966151714324951e-02 2.0670420289039612e+01 1.2441585063934326e+00
ITEM: ATOMS id type xs ys zs fx fy fz
1 1 0.999986 0.652865 0.0597547 0 0 0.872284
2 1 0.499986 0.652865 0.0597547 0 0 0.872284
3 1 0.249986 0.152866 0.0597528 0 0 0.872555
4 1 0.749986 0.152866 0.0597528 0 0 0.872555
5 1 0.999986 0.59672 0.309759 0 0 0.00733376
6 1 0.249986 0.458884 0.184759 0 0 0.00631905
7 1 0.749986 0.458884 0.184759 0 0 0.00631905
8 1 0.499986 0.59672 0.309759 0 0 0.00733376
9 1 0.999986 0.958885 0.184758 0 0 0.00638771
10 1 0.249986 0.0967192 0.309758 0 0 0.00738525
11 1 0.499986 0.958885 0.184758 0 0 0.00638771
12 1 0.749986 0.0967192 0.309758 0 0 0.00738525
13 1 0.999986 0.540548 0.559748 0 0 0.000699997
14 1 0.499986 0.540548 0.559748 0 0 0.000699997
15 1 0.249986 0.0405486 0.559748 0 0 0.000684738
16 1 0.749986 0.0405486 0.559748 0 0 0.000684738
17 1 0.249986 0.402731 0.434754 0 0 -0.000692368
18 1 0.749986 0.402731 0.434754 0 0 -0.000692368
19 1 0.999986 0.902732 0.434754 0 0 -0.000707626
20 1 0.499986 0.902732 0.434754 0 0 -0.000707626
21 1 0.999986 0.484385 0.809743 0 0 -0.00637817
22 1 0.249986 0.346556 0.684743 0 0 -0.00737572
23 1 0.499986 0.484385 0.809743 0 0 -0.00637817
24 1 0.749986 0.346556 0.684743 0 0 -0.00737572
25 1 0.999986 0.846556 0.684742 0 0 -0.00734329
26 1 0.249986 0.984386 0.809742 0 0 -0.00634766
27 1 0.749986 0.984386 0.809742 0 0 -0.00634766
28 1 0.499986 0.846556 0.684742 0 0 -0.00734329
29 1 0.249986 0.290402 0.934748 0 0 -0.87254
30 1 0.749986 0.290402 0.934748 0 0 -0.87254
31 1 0.999986 0.790402 0.934746 0 0 -0.872265
32 1 0.499986 0.790402 0.934746 0 0 -0.872265
ITEM: TIMESTEP
1
ITEM: NUMBER OF ATOMS
32
ITEM: BOX BOUNDS xy xz yz pp pp pp
-2.4071335792541504e-03 6.3992393016815186e+00 0.0000000000000000e+00
-9.1621279716491699e-03 6.7737517952919006e+00 0.0000000000000000e+00
5.4966151714324951e-02 2.0670420289039612e+01 1.2441585063934326e+00
ITEM: ATOMS id type xs ys zs fx fy fz
1 1 0.999986 0.651776 0.0646039 0 0 0.112869
2 1 0.499986 0.651776 0.0646039 0 0 0.112869
3 1 0.249986 0.151776 0.0646035 0 0 0.11286
4 1 0.749986 0.151776 0.0646035 0 0 0.11286
5 1 0.999986 0.596711 0.3098 0 0 0.00684357
6 1 0.249986 0.458876 0.184794 0 0 0.171999
7 1 0.749986 0.458876 0.184794 0 0 0.171999
8 1 0.499986 0.596711 0.3098 0 0 0.00684357
9 1 0.999986 0.958877 0.184793 0 0 0.172073
10 1 0.249986 0.09671 0.309799 0 0 0.00688744
11 1 0.499986 0.958877 0.184793 0 0 0.172073
12 1 0.749986 0.09671 0.309799 0 0 0.00688744
13 1 0.999986 0.540547 0.559751 0 0 -0.00284386
14 1 0.499986 0.540547 0.559751 0 0 -0.00284386
15 1 0.249986 0.0405478 0.559751 0 0 -0.00285339
16 1 0.749986 0.0405478 0.559751 0 0 -0.00285339
17 1 0.249986 0.402732 0.43475 0 0 0.00283241
18 1 0.749986 0.402732 0.43475 0 0 0.00283241
19 1 0.999986 0.902733 0.43475 0 0 0.00283432
20 1 0.499986 0.902733 0.43475 0 0 0.00283432
21 1 0.999986 0.484393 0.809708 0 0 -0.172052
22 1 0.249986 0.346566 0.684702 0 0 -0.00688744
23 1 0.499986 0.484393 0.809708 0 0 -0.172052
24 1 0.749986 0.346566 0.684702 0 0 -0.00688744
25 1 0.999986 0.846565 0.684702 0 0 -0.00684738
26 1 0.249986 0.984394 0.809707 0 0 -0.172001
27 1 0.749986 0.984394 0.809707 0 0 -0.172001
28 1 0.499986 0.846565 0.684702 0 0 -0.00684738
29 1 0.249986 0.291492 0.929897 0 0 -0.112852
30 1 0.749986 0.291492 0.929897 0 0 -0.112852
31 1 0.999986 0.791491 0.929897 0 0 -0.112862
32 1 0.499986 0.791491 0.929897 0 0 -0.112862
ITEM: TIMESTEP
2
ITEM: NUMBER OF ATOMS
32
ITEM: BOX BOUNDS xy xz yz pp pp pp
-2.4071335792541504e-03 6.3992393016815186e+00 0.0000000000000000e+00
-9.1621279716491699e-03 6.7737517952919006e+00 0.0000000000000000e+00
5.4966151714324951e-02 2.0670420289039612e+01 1.2441585063934326e+00
ITEM: ATOMS id type xs ys zs fx fy fz
1 1 0.999986 0.651258 0.06691 0 0 -0.0289993
2 1 0.499986 0.651258 0.06691 0 0 -0.0289993
3 1 0.249986 0.151259 0.0669094 0 0 -0.0289593
4 1 0.749986 0.151259 0.0669094 0 0 -0.0289593
5 1 0.999986 0.596679 0.30994 0 0 0.117599
6 1 0.249986 0.458087 0.188309 0 0 0.0108528
7 1 0.749986 0.458087 0.188309 0 0 0.0108528
8 1 0.499986 0.596679 0.30994 0 0 0.117599
9 1 0.999986 0.958087 0.188309 0 0 0.0108128
10 1 0.249986 0.0966783 0.30994 0 0 0.11762
11 1 0.499986 0.958087 0.188309 0 0 0.0108128
12 1 0.749986 0.0966783 0.30994 0 0 0.11762
13 1 0.999986 0.54056 0.559693 0 0 -0.00323296
14 1 0.499986 0.54056 0.559693 0 0 -0.00323296
15 1 0.249986 0.0405609 0.559693 0 0 -0.00322723
16 1 0.749986 0.0405609 0.559693 0 0 -0.00322723
17 1 0.249986 0.402719 0.434808 0 0 0.00323105
18 1 0.749986 0.402719 0.434808 0 0 0.00323105
19 1 0.999986 0.90272 0.434808 0 0 0.00323105
20 1 0.499986 0.90272 0.434808 0 0 0.00323105
21 1 0.999986 0.485183 0.806192 0 0 -0.0108242
22 1 0.249986 0.346597 0.684562 0 0 -0.11763
23 1 0.499986 0.485183 0.806192 0 0 -0.0108242
24 1 0.749986 0.346597 0.684562 0 0 -0.11763
25 1 0.999986 0.846596 0.684562 0 0 -0.117622
26 1 0.249986 0.985183 0.806193 0 0 -0.0108471
27 1 0.749986 0.985183 0.806193 0 0 -0.0108471
28 1 0.499986 0.846596 0.684562 0 0 -0.117622
29 1 0.249986 0.29201 0.927591 0 0 0.0289822
30 1 0.749986 0.29201 0.927591 0 0 0.0289822
31 1 0.999986 0.792009 0.927591 0 0 0.0290127
32 1 0.499986 0.792009 0.927591 0 0 0.0290127
ITEM: TIMESTEP
3
ITEM: NUMBER OF ATOMS
32
ITEM: BOX BOUNDS xy xz yz pp pp pp
-2.4071335792541504e-03 6.3992393016815186e+00 0.0000000000000000e+00
-9.1621279716491699e-03 6.7737517952919006e+00 0.0000000000000000e+00
5.4966151714324951e-02 2.0670420289039612e+01 1.2441585063934326e+00
ITEM: ATOMS id type xs ys zs fx fy fz
1 1 0.999986 0.651203 0.0671544 0 0 -0.000139236
2 1 0.499986 0.651203 0.0671544 0 0 -0.000139236
3 1 0.249986 0.151203 0.0671545 0 0 -0.000144958
4 1 0.749986 0.151203 0.0671545 0 0 -0.000144958
5 1 0.999986 0.59613 0.312387 0 0 0.00141335
6 1 0.249986 0.457751 0.189803 0 0 -0.00087738
7 1 0.749986 0.457751 0.189803 0 0 -0.00087738
8 1 0.499986 0.59613 0.312387 0 0 0.00141335
9 1 0.999986 0.957752 0.189803 0 0 -0.000873566
10 1 0.249986 0.0961285 0.312388 0 0 0.00136948
11 1 0.499986 0.957752 0.189803 0 0 -0.000873566
12 1 0.749986 0.0961285 0.312388 0 0 0.00136948
13 1 0.999986 0.54058 0.559606 0 0 -0.0744381
14 1 0.499986 0.54058 0.559606 0 0 -0.0744381
15 1 0.249986 0.0405804 0.559606 0 0 -0.0744076
16 1 0.749986 0.0405804 0.559606 0 0 -0.0744076
17 1 0.249986 0.4027 0.434895 0 0 0.0744209
18 1 0.749986 0.4027 0.434895 0 0 0.0744209
19 1 0.999986 0.902701 0.434895 0 0 0.0744152
20 1 0.499986 0.902701 0.434895 0 0 0.0744152
21 1 0.999986 0.485518 0.804698 0 0 0.000883102
22 1 0.249986 0.347147 0.682114 0 0 -0.00137138
23 1 0.499986 0.485518 0.804698 0 0 0.000883102
24 1 0.749986 0.347147 0.682114 0 0 -0.00137138
25 1 0.999986 0.847146 0.682114 0 0 -0.0014019
26 1 0.249986 0.985519 0.804699 0 0 0.000879288
27 1 0.749986 0.985519 0.804699 0 0 0.000879288
28 1 0.499986 0.847146 0.682114 0 0 -0.0014019
29 1 0.249986 0.292065 0.927347 0 0 0.000150681
30 1 0.749986 0.292065 0.927347 0 0 0.000150681
31 1 0.999986 0.792064 0.927347 0 0 0.00012207
32 1 0.499986 0.792064 0.927347 0 0 0.00012207
ITEM: TIMESTEP
4
ITEM: NUMBER OF ATOMS
32
ITEM: BOX BOUNDS xy xz yz pp pp pp
-2.4071335792541504e-03 6.3992393016815186e+00 0.0000000000000000e+00
-9.1621279716491699e-03 6.7737517952919006e+00 0.0000000000000000e+00
5.4966151714324951e-02 2.0670420289039612e+01 1.2441585063934326e+00
ITEM: ATOMS id type xs ys zs fx fy fz
1 1 0.999986 0.651193 0.0671993 0 0 0.00527573
2 1 0.499986 0.651193 0.0671993 0 0 0.00527573
3 1 0.249986 0.151193 0.0671995 0 0 0.00524521
4 1 0.749986 0.151193 0.0671995 0 0 0.00524521
5 1 0.999986 0.596022 0.312869 0 0 0.00544167
6 1 0.249986 0.45769 0.190077 0 0 -0.00166702
7 1 0.749986 0.45769 0.190077 0 0 -0.00166702
8 1 0.499986 0.596022 0.312869 0 0 0.00544167
9 1 0.999986 0.95769 0.190077 0 0 -0.00167465
10 1 0.249986 0.0960204 0.312869 0 0 0.00543404
11 1 0.499986 0.95769 0.190077 0 0 -0.00167465
12 1 0.749986 0.0960204 0.312869 0 0 0.00543404
13 1 0.999986 0.54077 0.558759 0 0 -0.00494957
14 1 0.499986 0.54077 0.558759 0 0 -0.00494957
15 1 0.249986 0.0407707 0.558759 0 0 -0.00497437
16 1 0.749986 0.0407707 0.558759 0 0 -0.00497437
17 1 0.249986 0.402509 0.435742 0 0 0.00494194
18 1 0.749986 0.402509 0.435742 0 0 0.00494194
19 1 0.999986 0.90251 0.435742 0 0 0.00497055
20 1 0.499986 0.90251 0.435742 0 0 0.00497055
21 1 0.999986 0.48558 0.804424 0 0 0.00167274
22 1 0.249986 0.347255 0.681632 0 0 -0.0054245
23 1 0.499986 0.48558 0.804424 0 0 0.00167274
24 1 0.749986 0.347255 0.681632 0 0 -0.0054245
25 1 0.999986 0.847254 0.681632 0 0 -0.00543022
26 1 0.249986 0.98558 0.804424 0 0 0.00166321
27 1 0.749986 0.98558 0.804424 0 0 0.00166321
28 1 0.499986 0.847254 0.681632 0 0 -0.00543022
29 1 0.249986 0.292075 0.927302 0 0 -0.00524902
30 1 0.749986 0.292075 0.927302 0 0 -0.00524902
31 1 0.999986 0.792074 0.927302 0 0 -0.00527573
32 1 0.499986 0.792074 0.927302 0 0 -0.00527573
ITEM: TIMESTEP
5
ITEM: NUMBER OF ATOMS
32
ITEM: BOX BOUNDS xy xz yz pp pp pp
-2.4071335792541504e-03 6.3992393016815186e+00 0.0000000000000000e+00
-9.1621279716491699e-03 6.7737517952919006e+00 0.0000000000000000e+00
5.4966151714324951e-02 2.0670420289039612e+01 1.2441585063934326e+00
ITEM: ATOMS id type xs ys zs fx fy fz
1 1 0.999986 0.651179 0.067263 0 0 -0.00180244
2 1 0.499986 0.651179 0.067263 0 0 -0.00180244
3 1 0.249986 0.151179 0.0672629 0 0 -0.00178909
4 1 0.749986 0.151179 0.0672629 0 0 -0.00178909
5 1 0.999986 0.596007 0.312934 0 0 0.00217438
6 1 0.249986 0.457694 0.190057 0 0 0.00415039
7 1 0.749986 0.457694 0.190057 0 0 0.00415039
8 1 0.499986 0.596007 0.312934 0 0 0.00217438
9 1 0.999986 0.957695 0.190057 0 0 0.0041523
10 1 0.249986 0.0960056 0.312935 0 0 0.00216484
11 1 0.499986 0.957695 0.190057 0 0 0.0041523
12 1 0.749986 0.0960056 0.312935 0 0 0.00216484
13 1 0.999986 0.540783 0.558699 0 0 -0.000951767
14 1 0.499986 0.540783 0.558699 0 0 -0.000951767
15 1 0.249986 0.0407842 0.558699 0 0 -0.000934601
16 1 0.749986 0.0407842 0.558699 0 0 -0.000934601
17 1 0.249986 0.402496 0.435802 0 0 0.000953674
18 1 0.749986 0.402496 0.435802 0 0 0.000953674
19 1 0.999986 0.902497 0.435803 0 0 0.000947952
20 1 0.499986 0.902497 0.435803 0 0 0.000947952
21 1 0.999986 0.485575 0.804444 0 0 -0.00415421
22 1 0.249986 0.34727 0.681567 0 0 -0.00216866
23 1 0.499986 0.485575 0.804444 0 0 -0.00415421
24 1 0.749986 0.34727 0.681567 0 0 -0.00216866
25 1 0.999986 0.847269 0.681567 0 0 -0.00217247
26 1 0.249986 0.985576 0.804444 0 0 -0.00416183
27 1 0.749986 0.985576 0.804444 0 0 -0.00416183
28 1 0.499986 0.847269 0.681567 0 0 -0.00217247
29 1 0.249986 0.292089 0.927239 0 0 0.00179291
30 1 0.749986 0.292089 0.927239 0 0 0.00179291
31 1 0.999986 0.792088 0.927238 0 0 0.00179863
32 1 0.499986 0.792088 0.927238 0 0 0.00179863
ITEM: TIMESTEP
6
ITEM: NUMBER OF ATOMS
32
ITEM: BOX BOUNDS xy xz yz pp pp pp
-2.4071335792541504e-03 6.3992393016815186e+00 0.0000000000000000e+00
-9.1621279716491699e-03 6.7737517952919006e+00 0.0000000000000000e+00
5.4966151714324951e-02 2.0670420289039612e+01 1.2441585063934326e+00
ITEM: ATOMS id type xs ys zs fx fy fz
1 1 0.999986 0.65118 0.0672585 0 0 0.0018177
2 1 0.499986 0.65118 0.0672585 0 0 0.0018177
3 1 0.249986 0.15118 0.0672584 0 0 0.00182152
4 1 0.749986 0.15118 0.0672585 0 0 0.00182152
5 1 0.999986 0.595985 0.313031 0 0 0.000577927
6 1 0.249986 0.457674 0.190148 0 0 0.000995636
7 1 0.749986 0.457674 0.190148 0 0 0.000995636
8 1 0.499986 0.595985 0.313031 0 0 0.000577927
9 1 0.999986 0.957674 0.190148 0 0 0.000993729
10 1 0.249986 0.0959841 0.313031 0 0 0.000597
11 1 0.499986 0.957674 0.190148 0 0 0.000993729
12 1 0.749986 0.0959841 0.313031 0 0 0.000597
13 1 0.999986 0.540797 0.558637 0 0 0.0022831
14 1 0.499986 0.540797 0.558637 0 0 0.0022831
15 1 0.249986 0.040798 0.558637 0 0 0.00227928
16 1 0.749986 0.040798 0.558637 0 0 0.00227928
17 1 0.249986 0.402482 0.435864 0 0 -0.00226593
18 1 0.749986 0.402482 0.435864 0 0 -0.00226593
19 1 0.999986 0.902483 0.435865 0 0 -0.00229454
20 1 0.499986 0.902483 0.435865 0 0 -0.00229454
21 1 0.999986 0.485596 0.804353 0 0 -0.000999451
22 1 0.249986 0.347291 0.681471 0 0 -0.000587463
23 1 0.499986 0.485596 0.804353 0 0 -0.000999451
24 1 0.749986 0.347291 0.681471 0 0 -0.000587463
25 1 0.999986 0.847291 0.681471 0 0 -0.000593185
26 1 0.249986 0.985596 0.804353 0 0 -0.000976562
27 1 0.749986 0.985596 0.804353 0 0 -0.000976562
28 1 0.499986 0.847291 0.681471 0 0 -0.000593185
29 1 0.249986 0.292088 0.927243 0 0 -0.00182533
30 1 0.749986 0.292088 0.927243 0 0 -0.00182533
31 1 0.999986 0.792087 0.927243 0 0 -0.00182343
32 1 0.499986 0.792087 0.927243 0 0 -0.00182343
ITEM: TIMESTEP
7
ITEM: NUMBER OF ATOMS
32
ITEM: BOX BOUNDS xy xz yz pp pp pp
-2.4071335792541504e-03 6.3992393016815186e+00 0.0000000000000000e+00
-9.1621279716491699e-03 6.7737517952919006e+00 0.0000000000000000e+00
5.4966151714324951e-02 2.0670420289039612e+01 1.2441585063934326e+00
ITEM: ATOMS id type xs ys zs fx fy fz
1 1 0.999986 0.651175 0.0672813 0 0 0.000593185
2 1 0.499986 0.651175 0.0672813 0 0 0.000593185
3 1 0.249986 0.151175 0.0672813 0 0 0.000595093
4 1 0.749986 0.151175 0.0672813 0 0 0.000595093
5 1 0.999986 0.595979 0.313057 0 0 -0.000812531
6 1 0.249986 0.457667 0.190179 0 0 0.000572205
7 1 0.749986 0.457667 0.190179 0 0 0.000572205
8 1 0.499986 0.595979 0.313057 0 0 -0.000812531
9 1 0.999986 0.957667 0.190179 0 0 0.000574112
10 1 0.249986 0.0959781 0.313057 0 0 -0.000814438
11 1 0.499986 0.957667 0.190179 0 0 0.000574112
12 1 0.749986 0.0959781 0.313057 0 0 -0.000814438
13 1 0.999986 0.540793 0.558655 0 0 -0.000440598
14 1 0.499986 0.540793 0.558655 0 0 -0.000440598
15 1 0.249986 0.0407941 0.558655 0 0 -0.00044632
16 1 0.749986 0.0407941 0.558655 0 0 -0.00044632
17 1 0.249986 0.402486 0.435847 0 0 0.000450134
18 1 0.749986 0.402486 0.435847 0 0 0.000450134
19 1 0.999986 0.902487 0.435847 0 0 0.000444412
20 1 0.499986 0.902487 0.435847 0 0 0.000444412
21 1 0.999986 0.485603 0.804322 0 0 -0.00056076
22 1 0.249986 0.347297 0.681444 0 0 0.000799179
23 1 0.499986 0.485603 0.804322 0 0 -0.00056076
24 1 0.749986 0.347297 0.681444 0 0 0.000799179
25 1 0.999986 0.847297 0.681444 0 0 0.00082016
26 1 0.249986 0.985603 0.804322 0 0 -0.000585556
27 1 0.749986 0.985603 0.804322 0 0 -0.000585556
28 1 0.499986 0.847297 0.681444 0 0 0.00082016
29 1 0.249986 0.292093 0.92722 0 0 -0.000600815
30 1 0.749986 0.292093 0.92722 0 0 -0.000600815
31 1 0.999986 0.792092 0.92722 0 0 -0.000587463
32 1 0.499986 0.792092 0.92722 0 0 -0.000587463
ITEM: TIMESTEP
8
ITEM: NUMBER OF ATOMS
32
ITEM: BOX BOUNDS xy xz yz pp pp pp
-2.4071335792541504e-03 6.3992393016815186e+00 0.0000000000000000e+00
-9.1621279716491699e-03 6.7737517952919006e+00 0.0000000000000000e+00
5.4966151714324951e-02 2.0670420289039612e+01 1.2441585063934326e+00
ITEM: ATOMS id type xs ys zs fx fy fz
1 1 0.999986 0.651173 0.0672905 0 0 7.62939e-06
2 1 0.499986 0.651173 0.0672905 0 0 7.62939e-06
3 1 0.249986 0.151173 0.0672905 0 0 3.8147e-06
4 1 0.749986 0.151173 0.0672905 0 0 3.8147e-06
5 1 0.999986 0.595981 0.313052 0 0 2.09808e-05
6 1 0.249986 0.457665 0.190189 0 0 0
7 1 0.749986 0.457665 0.190189 0 0 0
8 1 0.499986 0.595981 0.313052 0 0 2.09808e-05
9 1 0.999986 0.957665 0.190189 0 0 -5.72205e-06
10 1 0.249986 0.0959793 0.313052 0 0 2.28882e-05
11 1 0.499986 0.957665 0.190189 0 0 -5.72205e-06
12 1 0.749986 0.0959793 0.313052 0 0 2.28882e-05
13 1 0.999986 0.540794 0.558652 0 0 3.05176e-05
14 1 0.499986 0.540794 0.558652 0 0 3.05176e-05
15 1 0.249986 0.0407947 0.558652 0 0 2.28882e-05
16 1 0.749986 0.0407947 0.558652 0 0 2.28882e-05
17 1 0.249986 0.402485 0.43585 0 0 -4.3869e-05
18 1 0.749986 0.402485 0.43585 0 0 -4.3869e-05
19 1 0.999986 0.902486 0.43585 0 0 -2.28882e-05
20 1 0.499986 0.902486 0.43585 0 0 -2.28882e-05
21 1 0.999986 0.485605 0.804312 0 0 -7.62939e-06
22 1 0.249986 0.347296 0.68145 0 0 -9.53674e-06
23 1 0.499986 0.485605 0.804312 0 0 -7.62939e-06
24 1 0.749986 0.347296 0.68145 0 0 -9.53674e-06
25 1 0.999986 0.847295 0.68145 0 0 -1.90735e-05
26 1 0.249986 0.985605 0.804312 0 0 1.71661e-05
27 1 0.749986 0.985605 0.804312 0 0 1.71661e-05
28 1 0.499986 0.847295 0.68145 0 0 -1.90735e-05
29 1 0.249986 0.292095 0.927211 0 0 -9.53674e-06
30 1 0.749986 0.292095 0.927211 0 0 -9.53674e-06
31 1 0.999986 0.792094 0.927211 0 0 -7.62939e-06
32 1 0.499986 0.792094 0.927211 0 0 -7.62939e-06
ITEM: TIMESTEP
9
ITEM: NUMBER OF ATOMS
32
ITEM: BOX BOUNDS xy xz yz pp pp pp
-2.4071335792541504e-03 6.3992393016815186e+00 0.0000000000000000e+00
-9.1621279716491699e-03 6.7737517952919006e+00 0.0000000000000000e+00
5.4966151714324951e-02 2.0670420289039612e+01 1.2441585063934326e+00
ITEM: ATOMS id type xs ys zs fx fy fz
1 1 0.999986 0.651173 0.0672907 0 0 -5.72205e-06
2 1 0.499986 0.651173 0.0672907 0 0 -5.72205e-06
3 1 0.249986 0.151173 0.0672907 0 0 -9.53674e-06
4 1 0.749986 0.151173 0.0672907 0 0 -9.53674e-06
5 1 0.999986 0.59598 0.313052 0 0 7.62939e-06
6 1 0.249986 0.457665 0.190189 0 0 5.72205e-06
7 1 0.749986 0.457665 0.190189 0 0 5.72205e-06
8 1 0.499986 0.59598 0.313052 0 0 7.62939e-06
9 1 0.999986 0.957665 0.190189 0 0 0
10 1 0.249986 0.0959793 0.313052 0 0 9.53674e-06
11 1 0.499986 0.957665 0.190189 0 0 0
12 1 0.749986 0.0959793 0.313052 0 0 9.53674e-06
13 1 0.999986 0.540794 0.558652 0 0 3.8147e-06
14 1 0.499986 0.540794 0.558652 0 0 3.8147e-06
15 1 0.249986 0.0407947 0.558652 0 0 1.90735e-06
16 1 0.749986 0.0407947 0.558652 0 0 1.90735e-06
17 1 0.249986 0.402485 0.435849 0 0 -3.8147e-06
18 1 0.749986 0.402485 0.435849 0 0 -3.8147e-06
19 1 0.999986 0.902486 0.435849 0 0 -1.90735e-06
20 1 0.499986 0.902486 0.435849 0 0 -1.90735e-06
21 1 0.999986 0.485605 0.804312 0 0 -3.8147e-06
22 1 0.249986 0.347296 0.68145 0 0 -7.62939e-06
23 1 0.499986 0.485605 0.804312 0 0 -3.8147e-06
24 1 0.749986 0.347296 0.68145 0 0 -7.62939e-06
25 1 0.999986 0.847295 0.68145 0 0 -1.14441e-05
26 1 0.249986 0.985605 0.804312 0 0 3.8147e-06
27 1 0.749986 0.985605 0.804312 0 0 3.8147e-06
28 1 0.499986 0.847295 0.68145 0 0 -1.14441e-05
29 1 0.249986 0.292095 0.927211 0 0 1.14441e-05
30 1 0.749986 0.292095 0.927211 0 0 1.14441e-05
31 1 0.999986 0.792094 0.927211 0 0 0
32 1 0.499986 0.792094 0.927211 0 0 0
ITEM: TIMESTEP
10
ITEM: NUMBER OF ATOMS
32
ITEM: BOX BOUNDS xy xz yz pp pp pp
-2.4071335792541504e-03 6.3992393016815186e+00 0.0000000000000000e+00
-9.1621279716491699e-03 6.7737517952919006e+00 0.0000000000000000e+00
5.4966151714324951e-02 2.0670420289039612e+01 1.2441585063934326e+00
ITEM: ATOMS id type xs ys zs fx fy fz
1 1 0.999986 0.651173 0.0672907 0 0 -5.72205e-06
2 1 0.499986 0.651173 0.0672907 0 0 -5.72205e-06
3 1 0.249986 0.151173 0.0672907 0 0 -9.53674e-06
4 1 0.749986 0.151173 0.0672907 0 0 -9.53674e-06
5 1 0.999986 0.59598 0.313052 0 0 7.62939e-06
6 1 0.249986 0.457665 0.190189 0 0 5.72205e-06
7 1 0.749986 0.457665 0.190189 0 0 5.72205e-06
8 1 0.499986 0.59598 0.313052 0 0 7.62939e-06
9 1 0.999986 0.957665 0.190189 0 0 0
10 1 0.249986 0.0959793 0.313052 0 0 9.53674e-06
11 1 0.499986 0.957665 0.190189 0 0 0
12 1 0.749986 0.0959793 0.313052 0 0 9.53674e-06
13 1 0.999986 0.540794 0.558652 0 0 3.8147e-06
14 1 0.499986 0.540794 0.558652 0 0 3.8147e-06
15 1 0.249986 0.0407947 0.558652 0 0 1.90735e-06
16 1 0.749986 0.0407947 0.558652 0 0 1.90735e-06
17 1 0.249986 0.402485 0.435849 0 0 -3.8147e-06
18 1 0.749986 0.402485 0.435849 0 0 -3.8147e-06
19 1 0.999986 0.902486 0.435849 0 0 -1.90735e-06
20 1 0.499986 0.902486 0.435849 0 0 -1.90735e-06
21 1 0.999986 0.485605 0.804312 0 0 -3.8147e-06
22 1 0.249986 0.347296 0.68145 0 0 -7.62939e-06
23 1 0.499986 0.485605 0.804312 0 0 -3.8147e-06
24 1 0.749986 0.347296 0.68145 0 0 -7.62939e-06
25 1 0.999986 0.847295 0.68145 0 0 -1.14441e-05
26 1 0.249986 0.985605 0.804312 0 0 3.8147e-06
27 1 0.749986 0.985605 0.804312 0 0 3.8147e-06
28 1 0.499986 0.847295 0.68145 0 0 -1.14441e-05
29 1 0.249986 0.292095 0.927211 0 0 1.14441e-05
30 1 0.749986 0.292095 0.927211 0 0 1.14441e-05
31 1 0.999986 0.792094 0.927211 0 0 0
32 1 0.499986 0.792094 0.927211 0 0 0
