ITEM: TIMESTEP
0
ITEM: NUMBER OF ATOMS
32
ITEM: BOX BOUNDS xy xz yz pp pp pp
-2.1013021469116211e-03 7.6759803891181946e+00 1.2793300747871399e+00
-4.1524946689605713e-02 2.2124402940273285e+01 -0.0000000000000000e+00
-1.4066457748413086e-02 5.1965324282646179e+00 0.0000000000000000e+00
ITEM: ATOMS id type xs ys zs fx fy fz
1 1 0.951912 0.336621 0.593597 0 0.00135529 -1.19209e-07
2 1 0.451912 0.336621 0.593597 0 0.00135589 -4.76837e-07
3 1 0.210243 0.294954 0.093597 0 0.00187552 7.15256e-07
4 1 0.710243 0.294954 0.0935971 0 0.00187421 3.57628e-07
5 1 0.17692 0.461621 0.593597 0 -4.3273e-05 3.57628e-07
6 1 0.67692 0.461621 0.593597 0 -4.37498e-05 1.19209e-07
7 1 0.935251 0.419954 0.0935971 0 -9.09567e-05 -4.76837e-07
8 1 0.435251 0.419954 0.0935971 0 -9.11951e-05 0
9 1 0.901928 0.586621 0.593597 0 8.59499e-05 -3.57628e-07
10 1 0.401928 0.586621 0.593597 0 8.57115e-05 -7.15256e-07
11 1 0.126936 0.711621 0.593597 0 -0.00187564 -1.19209e-06
12 1 0.626937 0.711621 0.593597 0 -0.0018754 -1.19209e-06
13 1 0.885267 0.669954 0.093597 0 -0.00136101 1.3113e-06
14 1 0.160259 0.544954 0.0935971 0 4.48227e-05 1.19209e-07
15 1 0.660259 0.544954 0.0935971 0 4.51803e-05 -1.19209e-07
16 1 0.385267 0.669954 0.093597 0 -0.00136065 1.43051e-06
17 1 0.851945 0.83662 0.593597 0 0.0101388 2.38419e-07
18 1 0.351945 0.83662 0.593597 0 0.0101377 -2.38419e-07
19 1 0.076953 0.96162 0.593597 0 -0.373359 -1.19209e-07
20 1 0.576953 0.96162 0.593597 0 -0.373358 -1.19209e-07
21 1 0.110275 0.794954 0.093597 0 0.00376308 2.38419e-07
22 1 0.610275 0.794954 0.0935971 0 0.00376403 3.57628e-07
23 1 0.835284 0.919954 0.0935971 0 -0.604548 -5.96046e-07
24 1 0.335284 0.919954 0.093597 0 -0.604549 7.15256e-07
25 1 0.00189554 0.0866205 0.593597 0 0.604554 -9.53674e-07
26 1 0.501895 0.0866205 0.593597 0 0.604553 -7.15256e-07
27 1 0.260226 0.0449538 0.093597 0 0.373356 8.34465e-07
28 1 0.760226 0.0449538 0.093597 0 0.373357 4.76837e-07
29 1 0.226904 0.211621 0.593597 0 -0.0037626 -4.76837e-07
30 1 0.726904 0.211621 0.593597 0 -0.00376308 -3.57628e-07
31 1 0.985234 0.169954 0.093597 0 -0.0101322 7.15256e-07
32 1 0.485234 0.169954 0.0935971 0 -0.0101318 2.38419e-07
ITEM: TIMESTEP
1
ITEM: NUMBER OF ATOMS
32
ITEM: BOX BOUNDS xy xz yz pp pp pp
-2.1013021469116211e-03 7.6759803891181946e+00 1.2793300747871399e+00
-4.1524946689605713e-02 2.2124402940273285e+01 -0.0000000000000000e+00
-1.4066457748413086e-02 5.1965324282646179e+00 0.0000000000000000e+00
ITEM: ATOMS id type xs ys zs fx fy fz
1 1 0.95191 0.336631 0.593597 0 0.00277936 -1.19209e-07
2 1 0.45191 0.336631 0.593597 0 0.00278032 0
3 1 0.21024 0.294968 0.0935971 0 0.0127898 3.57628e-07
4 1 0.71024 0.294968 0.0935971 0 0.0127891 2.38419e-07
5 1 0.17692 0.46162 0.593597 0 0.000346661 2.38419e-07
6 1 0.67692 0.46162 0.593597 0 0.000346422 -1.19209e-07
7 1 0.935251 0.419953 0.0935971 0 -0.00108087 -4.76837e-07
8 1 0.435251 0.419953 0.0935971 0 -0.00108099 -2.38419e-07
9 1 0.901928 0.586621 0.593597 0 0.00107718 0
10 1 0.401928 0.586621 0.593597 0 0.00107706 -3.57628e-07
11 1 0.126939 0.711607 0.593597 0 -0.0127895 -7.15256e-07
12 1 0.626939 0.711607 0.593597 0 -0.012789 -4.76837e-07
13 1 0.885269 0.669944 0.0935971 0 -0.00278223 4.76837e-07
14 1 0.160259 0.544954 0.0935971 0 -0.000347137 -1.19209e-07
15 1 0.660259 0.544954 0.0935971 0 -0.000347257 3.57628e-07
16 1 0.385269 0.669944 0.0935971 0 -0.00278223 7.15256e-07
17 1 0.85193 0.836696 0.593597 0 -0.101729 1.19209e-07
18 1 0.35193 0.836696 0.593597 0 -0.101729 -1.19209e-07
19 1 0.07751 0.958834 0.593597 0 0.0569682 -2.38419e-07
20 1 0.57751 0.958834 0.593597 0 0.056968 0
21 1 0.11027 0.794982 0.093597 0 -0.111104 1.19209e-07
22 1 0.61027 0.794982 0.0935971 0 -0.111105 0
23 1 0.836186 0.915442 0.0935971 0 -0.0792433 -1.19209e-07
24 1 0.336186 0.915442 0.093597 0 -0.0792434 5.96046e-07
25 1 0.000993548 0.0911319 0.593597 0 0.079245 -4.76837e-07
26 1 0.500993 0.0911319 0.593597 0 0.0792452 -1.19209e-07
27 1 0.259669 0.04774 0.093597 0 -0.0569667 4.76837e-07
28 1 0.759669 0.04774 0.093597 0 -0.0569665 1.19209e-07
29 1 0.226909 0.211592 0.593597 0 0.111105 0
30 1 0.726909 0.211592 0.593597 0 0.111105 -3.57628e-07
31 1 0.985249 0.169878 0.093597 0 0.101732 3.57628e-07
32 1 0.485249 0.169878 0.0935971 0 0.101732 -1.19209e-07
ITEM: TIMESTEP
2
ITEM: NUMBER OF ATOMS
32
ITEM: BOX BOUNDS xy xz yz pp pp pp
-2.1013021469116211e-03 7.6759803891181946e+00 1.2793300747871399e+00
-4.1524946689605713e-02 2.2124402940273285e+01 -0.0000000000000000e+00
-1.4066457748413086e-02 5.1965324282646179e+00 0.0000000000000000e+00
ITEM: ATOMS id type xs ys zs fx fy fz
1 1 0.951895 0.336703 0.593597 0 0.0648514 0
2 1 0.451895 0.336703 0.593597 0 0.0648507 -1.19209e-07
3 1 0.210174 0.295297 0.0935971 0 0.0750448 -2.38419e-07
4 1 0.710174 0.295297 0.0935971 0 0.0750456 -1.19209e-07
5 1 0.176918 0.461629 0.593597 0 0.00373912 -5.96046e-07
6 1 0.676918 0.461629 0.593597 0 0.00373912 0
7 1 0.935256 0.419925 0.0935971 0 0.0162216 4.76837e-07
8 1 0.435256 0.419925 0.0935971 0 0.0162216 2.38419e-07
9 1 0.901923 0.586649 0.593597 0 -0.0162209 2.38419e-07
10 1 0.401923 0.586649 0.593597 0 -0.0162203 5.96046e-07
11 1 0.127005 0.711278 0.593597 0 -0.075045 8.34465e-07
12 1 0.627005 0.711278 0.593597 0 -0.0750459 4.76837e-07
13 1 0.885284 0.669872 0.0935971 0 -0.0648513 -7.15256e-07
14 1 0.160261 0.544945 0.0935971 0 -0.00374269 0
15 1 0.660261 0.544945 0.0935971 0 -0.00374317 -4.76837e-07
16 1 0.385284 0.669872 0.0935971 0 -0.0648508 -8.34465e-07
17 1 0.852451 0.834089 0.593597 0 0.0392722 -1.19209e-07
18 1 0.352451 0.834089 0.593597 0 0.0392717 7.15256e-07
19 1 0.0772449 0.96016 0.593597 0 -0.0246036 2.38419e-07
20 1 0.577245 0.96016 0.593597 0 -0.0246035 2.38419e-07
21 1 0.11084 0.792132 0.0935971 0 0.00217426 -2.38419e-07
22 1 0.61084 0.792132 0.0935971 0 0.00217557 -2.38419e-07
23 1 0.836636 0.913188 0.0935971 0 -0.0455396 1.19209e-07
24 1 0.336636 0.913188 0.0935971 0 -0.0455395 -9.53674e-07
25 1 0.000542846 0.0933861 0.593597 0 0.0455403 1.07288e-06
26 1 0.500543 0.0933861 0.593597 0 0.0455403 1.19209e-07
27 1 0.259934 0.046414 0.0935971 0 0.0246066 -1.19209e-07
28 1 0.759934 0.046414 0.0935971 0 0.0246069 -2.38419e-07
29 1 0.226339 0.214443 0.593597 0 -0.00217569 0
30 1 0.726339 0.214443 0.593597 0 -0.00217545 5.96046e-07
31 1 0.984728 0.172485 0.0935971 0 -0.039272 -7.15256e-07
32 1 0.484728 0.172485 0.0935971 0 -0.0392724 -2.38419e-07
ITEM: TIMESTEP
3
ITEM: NUMBER OF ATOMS
32
ITEM: BOX BOUNDS xy xz yz pp pp pp
-2.1013021469116211e-03 7.6759803891181946e+00 1.2793300747871399e+00
-4.1524946689605713e-02 2.2124402940273285e+01 -0.0000000000000000e+00
-1.4066457748413086e-02 5.1965324282646179e+00 0.0000000000000000e+00
ITEM: ATOMS id type xs ys zs fx fy fz
1 1 0.951649 0.337934 0.593597 0 0.0208995 2.38419e-07
2 1 0.451649 0.337934 0.593597 0 0.0208993 -1.19209e-07
3 1 0.209872 0.296806 0.0935971 0 0.0101856 -2.38419e-07
4 1 0.709872 0.296806 0.0935971 0 0.0101856 1.19209e-07
5 1 0.176904 0.461702 0.593597 0 0.016842 1.19209e-07
6 1 0.676904 0.461702 0.593597 0 0.0168418 0
7 1 0.935198 0.420218 0.0935971 0 0.0414889 -2.38419e-07
8 1 0.435198 0.420218 0.0935971 0 0.041489 -1.19209e-07
9 1 0.901981 0.586356 0.593597 0 -0.0414891 -1.19209e-07
10 1 0.401981 0.586356 0.593597 0 -0.0414892 0
11 1 0.127307 0.709769 0.593597 0 -0.0101864 1.19209e-07
12 1 0.627307 0.709769 0.593597 0 -0.0101858 0
13 1 0.88553 0.66864 0.0935971 0 -0.0209004 0
14 1 0.160275 0.544873 0.0935971 0 -0.0168425 0
15 1 0.660275 0.544873 0.0935971 0 -0.0168419 0
16 1 0.38553 0.66864 0.0935971 0 -0.0209007 -2.38419e-07
17 1 0.852483 0.83393 0.593597 0 -0.00513065 -1.19209e-07
18 1 0.352483 0.83393 0.593597 0 -0.00513017 -4.76837e-07
19 1 0.077246 0.960155 0.593597 0 0.0159568 0
20 1 0.577246 0.960155 0.593597 0 0.0159574 -2.38419e-07
21 1 0.111026 0.791199 0.093597 0 -0.0241506 2.38419e-07
22 1 0.611026 0.791199 0.0935971 0 -0.0241508 3.57628e-07
23 1 0.83696 0.911571 0.0935971 0 0.0518975 0
24 1 0.33696 0.911571 0.093597 0 0.0518967 4.76837e-07
25 1 0.000219537 0.0950032 0.593597 0 -0.0518953 -3.57628e-07
26 1 0.500219 0.0950032 0.593597 0 -0.0518962 1.19209e-07
27 1 0.259933 0.0464194 0.0935971 0 -0.0159568 -1.19209e-07
28 1 0.759933 0.0464194 0.093597 0 -0.0159569 1.19209e-07
29 1 0.226153 0.215375 0.593597 0 0.0241513 -1.19209e-07
30 1 0.726153 0.215375 0.593597 0 0.0241513 -2.38419e-07
31 1 0.984696 0.172644 0.093597 0 0.00513065 4.76837e-07
32 1 0.484696 0.172644 0.093597 0 0.00513017 3.57628e-07
ITEM: TIMESTEP
4
ITEM: NUMBER OF ATOMS
32
ITEM: BOX BOUNDS xy xz yz pp pp pp
-2.1013021469116211e-03 7.6759803891181946e+00 1.2793300747871399e+00
-4.1524946689605713e-02 2.2124402940273285e+01 -0.0000000000000000e+00
-1.4066457748413086e-02 5.1965324282646179e+00 0.0000000000000000e+00
ITEM: ATOMS id type xs ys zs fx fy fz
1 1 0.951473 0.338815 0.593597 0 0.00203109 1.19209e-07
2 1 0.451473 0.338815 0.593597 0 0.00203109 1.19209e-07
3 1 0.209711 0.297612 0.0935971 0 -0.00472593 0
4 1 0.709711 0.297612 0.0935971 0 -0.00472629 -3.57628e-07
5 1 0.176838 0.46203 0.593597 0 -0.00345623 2.38419e-07
6 1 0.676838 0.46203 0.593597 0 -0.00345576 2.38419e-07
7 1 0.935027 0.421074 0.0935971 0 0.0114967 -1.19209e-07
8 1 0.435027 0.421074 0.0935971 0 0.0114973 0
9 1 0.902152 0.585501 0.593597 0 -0.0114979 -4.76837e-07
10 1 0.402152 0.585501 0.593597 0 -0.011498 -4.76837e-07
11 1 0.127468 0.708962 0.593597 0 0.00472629 -4.76837e-07
12 1 0.627468 0.708962 0.593597 0 0.00472665 -2.38419e-07
13 1 0.885706 0.667759 0.0935971 0 -0.00203085 3.57628e-07
14 1 0.160341 0.544544 0.0935971 0 0.00345623 2.38419e-07
15 1 0.660341 0.544544 0.0935971 0 0.00345647 -1.19209e-07
16 1 0.385706 0.667759 0.0935971 0 -0.00203121 4.76837e-07
17 1 0.852514 0.833773 0.593597 0 -0.00893843 -1.19209e-07
18 1 0.352514 0.833773 0.593597 0 -0.00893843 -2.38419e-07
19 1 0.0771899 0.960435 0.593597 0 -0.0137713 1.19209e-07
20 1 0.57719 0.960435 0.593597 0 -0.013772 -1.19209e-07
21 1 0.111189 0.790385 0.0935971 0 0.00624478 2.38419e-07
22 1 0.611189 0.790385 0.0935971 0 0.00624406 2.38419e-07
23 1 0.83691 0.911819 0.0935971 0 0.00121343 1.19209e-07
24 1 0.33691 0.911819 0.0935971 0 0.00121379 0
25 1 0.000269035 0.0947556 0.593597 0 -0.00121343 -2.38419e-07
26 1 0.500269 0.0947556 0.593597 0 -0.00121248 -1.19209e-07
27 1 0.259989 0.0461392 0.0935971 0 0.0137711 1.19209e-07
28 1 0.759989 0.0461392 0.093597 0 0.0137713 3.57628e-07
29 1 0.22599 0.216189 0.593597 0 -0.00624478 0
30 1 0.72599 0.216189 0.593597 0 -0.00624418 0
31 1 0.984665 0.172801 0.0935971 0 0.00893807 1.19209e-07
32 1 0.484665 0.172801 0.0935971 0 0.00893891 0
ITEM: TIMESTEP
5
ITEM: NUMBER OF ATOMS
32
ITEM: BOX BOUNDS xy xz yz pp pp pp
-2.1013021469116211e-03 7.6759803891181946e+00 1.2793300747871399e+00
-4.1524946689605713e-02 2.2124402940273285e+01 -0.0000000000000000e+00
-1.4066457748413086e-02 5.1965324282646179e+00 0.0000000000000000e+00
ITEM: ATOMS id type xs ys zs fx fy fz
1 1 0.951456 0.338902 0.593597 0 -0.00339782 -1.19209e-07
2 1 0.451456 0.338902 0.593597 0 -0.00339806 0
3 1 0.209719 0.297571 0.0935971 0 0.00650275 -1.19209e-07
4 1 0.709719 0.297571 0.0935971 0 0.00650287 2.38419e-07
5 1 0.176847 0.461985 0.593597 0 -0.00389457 2.38419e-07
6 1 0.676847 0.461985 0.593597 0 -0.00389433 -3.57628e-07
7 1 0.934975 0.421333 0.0935971 0 -0.00313199 2.38419e-07
8 1 0.434975 0.421333 0.0935971 0 -0.00313234 1.19209e-07
9 1 0.902204 0.585242 0.593597 0 0.00313246 1.19209e-07
10 1 0.402204 0.585242 0.593597 0 0.0031321 2.38419e-07
11 1 0.12746 0.709004 0.593597 0 -0.00650311 3.57628e-07
12 1 0.62746 0.709004 0.593597 0 -0.0065037 0
13 1 0.885723 0.667673 0.0935971 0 0.0033977 -1.19209e-07
14 1 0.160332 0.544589 0.0935971 0 0.00389409 -4.76837e-07
15 1 0.660332 0.544589 0.0935971 0 0.00389445 -1.19209e-07
16 1 0.385723 0.667673 0.0935971 0 0.00339794 -1.19209e-07
17 1 0.852549 0.8336 0.593597 0 -0.00284922 1.19209e-07
18 1 0.352549 0.8336 0.593597 0 -0.00284958 3.57628e-07
19 1 0.0772374 0.960198 0.593597 0 -0.00208688 0
20 1 0.577237 0.960198 0.593597 0 -0.00208628 1.19209e-07
21 1 0.111175 0.790454 0.0935971 0 -4.80413e-05 -2.38419e-07
22 1 0.611175 0.790454 0.0935971 0 -4.75645e-05 -3.57628e-07
23 1 0.836903 0.911855 0.0935971 0 0.00498378 -1.19209e-07
24 1 0.336903 0.911855 0.0935971 0 0.00498366 0
25 1 0.000276261 0.0947195 0.593597 0 -0.0049845 2.38419e-07
26 1 0.500276 0.0947195 0.593597 0 -0.00498486 2.38419e-07
27 1 0.259942 0.0463764 0.0935971 0 0.00208747 0
28 1 0.759942 0.0463764 0.0935971 0 0.00208676 -1.19209e-07
29 1 0.226004 0.21612 0.593597 0 4.85182e-05 1.19209e-07
30 1 0.726004 0.21612 0.593597 0 4.86374e-05 -1.19209e-07
31 1 0.98463 0.172974 0.0935971 0 0.00284994 -2.38419e-07
32 1 0.48463 0.172974 0.0935971 0 0.0028497 -1.19209e-07
ITEM: TIMESTEP
6
ITEM: NUMBER OF ATOMS
32
ITEM: BOX BOUNDS xy xz yz pp pp pp
-2.1013021469116211e-03 7.6759803891181946e+00 1.2793300747871399e+00
-4.1524946689605713e-02 2.2124402940273285e+01 -0.0000000000000000e+00
-1.4066457748413086e-02 5.1965324282646179e+00 0.0000000000000000e+00
ITEM: ATOMS id type xs ys zs fx fy fz
1 1 0.951465 0.338853 0.593597 0 -0.00248897 -2.38419e-07
2 1 0.451466 0.338853 0.593597 0 -0.00248885 0
3 1 0.209694 0.297699 0.0935971 0 0.00132418 5.96046e-07
4 1 0.709694 0.297699 0.0935971 0 0.00132418 -1.19209e-07
5 1 0.176867 0.461888 0.593597 0 0.00156188 -2.38419e-07
6 1 0.676867 0.461888 0.593597 0 0.00156128 2.38419e-07
7 1 0.934974 0.421339 0.0935971 0 0.000898719 1.19209e-07
8 1 0.434974 0.421339 0.0935971 0 0.000898123 1.19209e-07
9 1 0.902205 0.585236 0.593597 0 -0.0008986 0
10 1 0.402205 0.585236 0.593597 0 -0.000898242 -1.19209e-07
11 1 0.127485 0.708876 0.593597 0 -0.0013237 0
12 1 0.627485 0.708876 0.593597 0 -0.0013231 4.76837e-07
13 1 0.885713 0.667721 0.0935971 0 0.00248945 -2.38419e-07
14 1 0.160312 0.544686 0.0935971 0 -0.00156176 1.19209e-07
15 1 0.660313 0.544686 0.0935971 0 -0.001562 -1.19209e-07
16 1 0.385714 0.667721 0.0935971 0 0.00248945 -2.38419e-07
17 1 0.852571 0.83349 0.593597 0 -0.000115991 0
18 1 0.352571 0.83349 0.593597 0 -0.000115752 -3.57628e-07
19 1 0.0772598 0.960086 0.593597 0 -0.000108123 -1.19209e-07
20 1 0.57726 0.960086 0.593597 0 -0.000108242 2.38419e-07
21 1 0.111171 0.790473 0.0935971 0 0.00127065 2.38419e-07
22 1 0.611171 0.790473 0.0935971 0 0.00127029 0
23 1 0.836879 0.911972 0.0935971 0 -0.0016681 0
24 1 0.336879 0.911972 0.0935971 0 -0.00166738 2.38419e-07
25 1 0.000299741 0.0946021 0.593597 0 0.00166869 -1.19209e-07
26 1 0.5003 0.0946021 0.593597 0 0.00166905 -1.19209e-07
27 1 0.259919 0.0464885 0.0935971 0 0.000107408 0
28 1 0.759919 0.0464885 0.0935971 0 0.000108123 -2.38419e-07
29 1 0.226008 0.216102 0.593597 0 -0.00127125 -2.38419e-07
30 1 0.726008 0.216102 0.593597 0 -0.0012722 -1.19209e-07
31 1 0.984608 0.173085 0.0935971 0 0.000115275 1.19209e-07
32 1 0.484608 0.173085 0.0935971 0 0.000115514 1.19209e-07
ITEM: TIMESTEP
7
ITEM: NUMBER OF ATOMS
32
ITEM: BOX BOUNDS xy xz yz pp pp pp
-2.1013021469116211e-03 7.6759803891181946e+00 1.2793300747871399e+00
-4.1524946689605713e-02 2.2124402940273285e+01 -0.0000000000000000e+00
-1.4066457748413086e-02 5.1965324282646179e+00 0.0000000000000000e+00
ITEM: ATOMS id type xs ys zs fx fy fz
1 1 0.951473 0.338815 0.593597 0 -0.000149965 2.38419e-07
2 1 0.451473 0.338815 0.593597 0 -0.000149965 2.38419e-07
3 1 0.209688 0.297728 0.0935971 0 -6.46114e-05 -1.19209e-07
4 1 0.709688 0.297728 0.0935971 0 -6.41346e-05 -2.38419e-07
5 1 0.176864 0.461902 0.593597 0 -0.000414133 -2.38419e-07
6 1 0.676864 0.461902 0.593597 0 -0.000414371 0
7 1 0.934971 0.421352 0.0935971 0 0.000143766 -2.38419e-07
8 1 0.434971 0.421352 0.0935971 0 0.000144005 -2.38419e-07
9 1 0.902208 0.585223 0.593597 0 -0.000143647 0
10 1 0.402208 0.585223 0.593597 0 -0.000144005 -1.19209e-07
11 1 0.127491 0.708847 0.593597 0 6.44922e-05 0
12 1 0.627491 0.708847 0.593597 0 6.41346e-05 0
13 1 0.885706 0.66776 0.0935971 0 0.000149608 0
14 1 0.160315 0.544673 0.0935971 0 0.000414729 2.38419e-07
15 1 0.660315 0.544673 0.0935971 0 0.000414371 1.19209e-07
16 1 0.385706 0.66776 0.0935971 0 0.000149488 0
17 1 0.852573 0.833479 0.593597 0 -0.000339866 0
18 1 0.352573 0.833479 0.593597 0 -0.000339746 2.38419e-07
19 1 0.077262 0.960075 0.593597 0 0.000736833 0
20 1 0.577262 0.960075 0.593597 0 0.000737071 1.19209e-07
21 1 0.111167 0.790492 0.0935971 0 0.000199437 -1.19209e-07
22 1 0.611167 0.790492 0.0935971 0 0.000199676 0
23 1 0.836882 0.911959 0.0935971 0 -2.98023e-06 0
24 1 0.336882 0.911959 0.0935971 0 -3.45707e-06 -2.38419e-07
25 1 0.000297106 0.0946152 0.593597 0 2.74181e-06 -1.19209e-07
26 1 0.500297 0.0946152 0.593597 0 1.54972e-06 -1.19209e-07
27 1 0.259917 0.0464995 0.0935971 0 -0.000736475 0
28 1 0.759917 0.0464995 0.0935971 0 -0.000736594 2.38419e-07
29 1 0.226012 0.216083 0.593597 0 -0.000198841 -1.19209e-07
30 1 0.726012 0.216083 0.593597 0 -0.000198364 2.38419e-07
31 1 0.984606 0.173096 0.0935971 0 0.000339746 1.19209e-07
32 1 0.484606 0.173096 0.0935971 0 0.000339508 1.19209e-07
ITEM: TIMESTEP
8
ITEM: NUMBER OF ATOMS
32
ITEM: BOX BOUNDS xy xz yz pp pp pp
-2.1013021469116211e-03 7.6759803891181946e+00 1.2793300747871399e+00
-4.1524946689605713e-02 2.2124402940273285e+01 -0.0000000000000000e+00
-1.4066457748413086e-02 5.1965324282646179e+00 0.0000000000000000e+00
ITEM: ATOMS id type xs ys zs fx fy fz
1 1 0.951474 0.33881 0.593597 0 -1.64509e-05 -2.38419e-07
2 1 0.451474 0.33881 0.593597 0 -1.60933e-05 -4.76837e-07
3 1 0.209688 0.297729 0.0935971 0 9.53674e-07 -1.19209e-07
4 1 0.709688 0.297729 0.0935971 0 9.53674e-07 5.96046e-07
5 1 0.176865 0.461896 0.593597 0 -0.000198007 -1.19209e-07
6 1 0.676865 0.461896 0.593597 0 -0.000197649 0
7 1 0.934971 0.421355 0.0935971 0 4.17233e-05 1.19209e-07
8 1 0.434971 0.421355 0.0935971 0 4.1604e-05 1.19209e-07
9 1 0.902208 0.585219 0.593597 0 -4.14848e-05 0
10 1 0.402208 0.585219 0.593597 0 -4.13656e-05 1.19209e-07
11 1 0.127491 0.708846 0.593597 0 -9.53674e-07 -2.38419e-07
12 1 0.627491 0.708846 0.593597 0 -1.07288e-06 -3.57628e-07
13 1 0.885705 0.667765 0.0935971 0 1.66893e-05 2.38419e-07
14 1 0.160314 0.544678 0.0935971 0 0.000197411 0
15 1 0.660314 0.544678 0.0935971 0 0.000197649 0
16 1 0.385705 0.667765 0.0935971 0 1.68085e-05 -1.19209e-07
17 1 0.852574 0.833473 0.593597 0 0.000157833 2.38419e-07
18 1 0.352574 0.833473 0.593597 0 0.000157952 -2.38419e-07
19 1 0.0772598 0.960086 0.593597 0 -4.8995e-05 0
20 1 0.57726 0.960086 0.593597 0 -4.93526e-05 0
21 1 0.111167 0.790496 0.0935971 0 -4.88758e-06 0
22 1 0.611167 0.790496 0.0935971 0 -4.76837e-06 2.38419e-07
23 1 0.836882 0.911958 0.0935971 0 -0.000175595 0
24 1 0.336882 0.911958 0.0935971 0 -0.000175834 1.19209e-07
25 1 0.000296917 0.0946162 0.593597 0 0.000176191 0
26 1 0.500297 0.0946162 0.593597 0 0.000177383 1.19209e-07
27 1 0.259919 0.0464886 0.0935971 0 4.82798e-05 0
28 1 0.759919 0.0464886 0.0935971 0 4.82798e-05 -1.19209e-07
29 1 0.226012 0.216078 0.593597 0 3.33786e-06 2.38419e-07
30 1 0.726012 0.216078 0.593597 0 4.17233e-06 -2.38419e-07
31 1 0.984605 0.173102 0.0935971 0 -0.000157237 1.19209e-07
32 1 0.484605 0.173102 0.0935971 0 -0.000157475 0
ITEM: TIMESTEP
9
ITEM: NUMBER OF ATOMS
32
ITEM: BOX BOUNDS xy xz yz pp pp pp
-2.1013021469116211e-03 7.6759803891181946e+00 1.2793300747871399e+00
-4.1524946689605713e-02 2.2124402940273285e+01 -0.0000000000000000e+00
-1.4066457748413086e-02 5.1965324282646179e+00 0.0000000000000000e+00
ITEM: ATOMS id type xs ys zs fx fy fz
1 1 0.951474 0.338809 0.593597 0 -4.30346e-05 0
2 1 0.451474 0.338809 0.593597 0 -4.3273e-05 1.19209e-07
3 1 0.209688 0.297729 0.0935971 0 -1.9908e-05 -1.19209e-07
4 1 0.709688 0.297729 0.0935971 0 -2.01464e-05 -2.38419e-07
5 1 0.176866 0.461893 0.593597 0 5.00679e-06 0
6 1 0.676866 0.461893 0.593597 0 4.64916e-06 0
7 1 0.93497 0.421356 0.0935971 0 4.76837e-05 0
8 1 0.43497 0.421356 0.0935971 0 4.79221e-05 -1.19209e-07
9 1 0.902209 0.585219 0.593597 0 -4.78029e-05 1.19209e-07
10 1 0.402209 0.585219 0.593597 0 -4.80413e-05 1.19209e-07
11 1 0.127491 0.708845 0.593597 0 2.00272e-05 0
12 1 0.627491 0.708845 0.593597 0 2.02656e-05 0
13 1 0.885705 0.667766 0.0935971 0 4.24385e-05 -1.19209e-07
14 1 0.160313 0.544682 0.0935971 0 -4.29153e-06 -2.38419e-07
15 1 0.660313 0.544682 0.0935971 0 -4.88758e-06 0
16 1 0.385705 0.667766 0.0935971 0 4.26769e-05 0
17 1 0.852574 0.833474 0.593597 0 4.26769e-05 -1.19209e-07
18 1 0.352574 0.833474 0.593597 0 4.26769e-05 2.38419e-07
19 1 0.0772597 0.960086 0.593597 0 2.93255e-05 -1.19209e-07
20 1 0.57726 0.960086 0.593597 0 2.90871e-05 0
21 1 0.111167 0.790497 0.0935971 0 -7.34329e-05 1.19209e-07
22 1 0.611167 0.790497 0.0935971 0 -7.36713e-05 -1.19209e-07
23 1 0.836883 0.911956 0.0935971 0 4.11272e-05 2.38419e-07
24 1 0.336883 0.911956 0.0935971 0 4.13656e-05 0
25 1 0.000296389 0.0946188 0.593597 0 -4.17233e-05 2.38419e-07
26 1 0.500296 0.0946188 0.593597 0 -4.20809e-05 -1.19209e-07
27 1 0.259919 0.0464882 0.0935971 0 -2.8491e-05 0
28 1 0.759919 0.0464882 0.0935971 0 -2.87294e-05 0
29 1 0.226013 0.216078 0.593597 0 7.47442e-05 0
30 1 0.726013 0.216078 0.593597 0 7.41482e-05 2.38419e-07
31 1 0.984605 0.1731 0.0935971 0 -4.31538e-05 -2.38419e-07
32 1 0.484605 0.1731 0.0935971 0 -4.31538e-05 1.19209e-07
ITEM: TIMESTEP
10
ITEM: NUMBER OF ATOMS
32
ITEM: BOX BOUNDS xy xz yz pp pp pp
-2.1013021469116211e-03 7.6759803891181946e+00 1.2793300747871399e+00
-4.1524946689605713e-02 2.2124402940273285e+01 -0.0000000000000000e+00
-1.4066457748413086e-02 5.1965324282646179e+00 0.0000000000000000e+00
ITEM: ATOMS id type xs ys zs fx fy fz
1 1 0.951474 0.338808 0.593597 0 1.28746e-05 0
2 1 0.451475 0.338808 0.593597 0 1.29938e-05 1.19209e-07
3 1 0.209688 0.297729 0.0935971 0 1.07288e-06 0
4 1 0.709688 0.297729 0.0935971 0 1.19209e-06 -2.38419e-07
5 1 0.176866 0.461892 0.593597 0 4.64916e-06 1.19209e-07
6 1 0.676866 0.461892 0.593597 0 5.00679e-06 -1.19209e-07
7 1 0.93497 0.421357 0.0935971 0 2.74181e-06 -1.19209e-07
8 1 0.43497 0.421357 0.0935971 0 2.6226e-06 0
9 1 0.902209 0.585218 0.593597 0 -3.21865e-06 0
10 1 0.402209 0.585218 0.593597 0 -2.86102e-06 0
11 1 0.127491 0.708846 0.593597 0 -1.19209e-06 0
12 1 0.627491 0.708846 0.593597 0 -9.53674e-07 0
13 1 0.885704 0.667766 0.0935971 0 -1.2517e-05 0
14 1 0.160313 0.544682 0.0935971 0 -4.88758e-06 0
15 1 0.660313 0.544682 0.0935971 0 -4.52995e-06 2.38419e-07
16 1 0.385705 0.667766 0.0935971 0 -1.27554e-05 0
17 1 0.852574 0.833475 0.593597 0 1.38283e-05 -1.19209e-07
18 1 0.352574 0.833475 0.593597 0 1.38283e-05 -1.19209e-07
19 1 0.0772596 0.960087 0.593597 0 8.34465e-06 1.19209e-07
20 1 0.57726 0.960087 0.593597 0 8.34465e-06 0
21 1 0.111167 0.790496 0.0935971 0 6.07967e-06 1.19209e-07
22 1 0.611167 0.790496 0.0935971 0 5.96046e-06 1.19209e-07
23 1 0.836883 0.911956 0.0935971 0 2.02656e-06 -1.19209e-07
24 1 0.336883 0.911956 0.0935971 0 1.78814e-06 0
25 1 0.000296428 0.0946186 0.593597 0 -1.66893e-06 -1.19209e-07
26 1 0.500296 0.0946186 0.593597 0 -1.66893e-06 1.19209e-07
27 1 0.259919 0.0464878 0.0935971 0 -7.86781e-06 -1.19209e-07
28 1 0.759919 0.0464878 0.0935971 0 -8.70228e-06 1.19209e-07
29 1 0.226012 0.216079 0.593597 0 -6.19888e-06 0
30 1 0.726012 0.216079 0.593597 0 -6.67572e-06 1.19209e-07
31 1 0.984605 0.173099 0.0935971 0 -1.40667e-05 0
32 1 0.484605 0.173099 0.0935971 0 -1.35899e-05 -1.19209e-07
ITEM: TIMESTEP
11
ITEM: NUMBER OF ATOMS
32
ITEM: BOX BOUNDS xy xz yz pp pp pp
-2.1013021469116211e-03 7.6759803891181946e+00 1.2793300747871399e+00
-4.1524946689605713e-02 2.2124402940273285e+01 -0.0000000000000000e+00
-1.4066457748413086e-02 5.1965324282646179e+00 0.0000000000000000e+00
ITEM: ATOMS id type xs ys zs fx fy fz
1 1 0.951474 0.338808 0.593597 0 -9.53674e-07 0
2 1 0.451474 0.338808 0.593597 0 -8.34465e-07 0
3 1 0.209688 0.297729 0.0935971 0 -4.05312e-06 0
4 1 0.709688 0.297729 0.0935971 0 -4.29153e-06 0
5 1 0.176866 0.461892 0.593597 0 2.26498e-06 -2.38419e-07
6 1 0.676866 0.461892 0.593597 0 2.14577e-06 2.38419e-07
7 1 0.93497 0.421357 0.0935971 0 -3.45707e-06 1.19209e-07
8 1 0.43497 0.421357 0.0935971 0 -3.21865e-06 -1.19209e-07
9 1 0.902209 0.585218 0.593597 0 3.69549e-06 1.19209e-07
10 1 0.402209 0.585218 0.593597 0 3.69549e-06 0
11 1 0.127491 0.708846 0.593597 0 3.8147e-06 0
12 1 0.627491 0.708846 0.593597 0 3.8147e-06 1.19209e-07
13 1 0.885705 0.667766 0.0935971 0 5.96046e-07 0
14 1 0.160313 0.544682 0.0935971 0 -2.26498e-06 2.38419e-07
15 1 0.660313 0.544682 0.0935971 0 -2.26498e-06 -3.57628e-07
16 1 0.385705 0.667766 0.0935971 0 7.15256e-07 0
17 1 0.852574 0.833475 0.593597 0 8.34465e-07 4.76837e-07
18 1 0.352573 0.833475 0.593597 0 5.96046e-07 1.19209e-07
19 1 0.0772596 0.960087 0.593597 0 0 0
20 1 0.57726 0.960087 0.593597 0 4.76837e-07 -1.19209e-07
21 1 0.111167 0.790496 0.0935971 0 -1.54972e-06 -2.38419e-07
22 1 0.611167 0.790496 0.0935971 0 -1.66893e-06 -3.57628e-07
23 1 0.836883 0.911956 0.0935971 0 -2.26498e-06 -1.19209e-07
24 1 0.336883 0.911956 0.0935971 0 -1.43051e-06 1.19209e-07
25 1 0.000296437 0.0946186 0.593597 0 1.66893e-06 0
26 1 0.500296 0.0946186 0.593597 0 1.07288e-06 -1.19209e-07
27 1 0.259919 0.0464876 0.0935971 0 -1.19209e-06 1.19209e-07
28 1 0.759919 0.0464876 0.0935971 0 8.34465e-07 -1.19209e-07
29 1 0.226012 0.216079 0.593597 0 2.02656e-06 -1.19209e-07
30 1 0.726012 0.216079 0.593597 0 2.6226e-06 -1.19209e-07
31 1 0.984606 0.173099 0.0935971 0 -3.57628e-07 2.38419e-07
32 1 0.484605 0.173099 0.0935971 0 -1.07288e-06 1.19209e-07
ITEM: TIMESTEP
12
ITEM: NUMBER OF ATOMS
32
ITEM: BOX BOUNDS xy xz yz pp pp pp
-2.1013021469116211e-03 7.6759803891181946e+00 1.2793300747871399e+00
-4.1524946689605713e-02 2.2124402940273285e+01 -0.0000000000000000e+00
-1.4066457748413086e-02 5.1965324282646179e+00 0.0000000000000000e+00
ITEM: ATOMS id type xs ys zs fx fy fz
1 1 0.951474 0.338808 0.593597 0 1.07288e-06 1.19209e-07
2 1 0.451474 0.338808 0.593597 0 8.34465e-07 -2.38419e-07
3 1 0.209688 0.297729 0.0935971 0 -4.76837e-07 -2.38419e-07
4 1 0.709688 0.297729 0.0935971 0 -3.57628e-07 1.19209e-07
5 1 0.176866 0.461893 0.593597 0 -4.76837e-07 3.57628e-07
6 1 0.676866 0.461893 0.593597 0 -7.15256e-07 -3.57628e-07
7 1 0.93497 0.421357 0.0935971 0 -2.26498e-06 -2.38419e-07
8 1 0.43497 0.421357 0.0935971 0 -2.38419e-06 2.38419e-07
9 1 0.902209 0.585218 0.593597 0 2.02656e-06 -1.19209e-07
10 1 0.402209 0.585218 0.593597 0 1.54972e-06 0
11 1 0.127491 0.708846 0.593597 0 7.15256e-07 0
12 1 0.627491 0.708846 0.593597 0 7.15256e-07 -1.19209e-07
13 1 0.885705 0.667766 0.0935971 0 -7.15256e-07 0
14 1 0.160313 0.544682 0.0935971 0 7.15256e-07 -2.38419e-07
15 1 0.660313 0.544682 0.0935971 0 5.96046e-07 4.76837e-07
16 1 0.385705 0.667766 0.0935971 0 -3.57628e-07 0
17 1 0.852574 0.833476 0.593597 0 -1.19209e-06 -9.53674e-07
18 1 0.352573 0.833476 0.593597 0 -7.15256e-07 -3.57628e-07
19 1 0.0772596 0.960087 0.593597 0 1.07288e-06 -1.19209e-07
20 1 0.57726 0.960087 0.593597 0 -8.34465e-07 1.19209e-07
21 1 0.111167 0.790496 0.0935971 0 0 2.38419e-07
22 1 0.611167 0.790496 0.093597 0 5.96046e-07 5.96046e-07
23 1 0.836883 0.911956 0.093597 0 2.26498e-06 7.15256e-07
24 1 0.336883 0.911956 0.0935971 0 -5.96046e-07 -2.38419e-07
25 1 0.000296428 0.0946186 0.593597 0 1.19209e-07 3.57628e-07
26 1 0.500296 0.0946186 0.593597 0 1.66893e-06 2.38419e-07
27 1 0.259919 0.0464875 0.0935971 0 9.53674e-07 -1.19209e-07
28 1 0.759919 0.0464876 0.0935971 0 -2.14577e-06 0
29 1 0.226012 0.216079 0.593597 0 -1.19209e-06 2.38419e-07
30 1 0.726012 0.216079 0.593597 0 -2.02656e-06 0
31 1 0.984606 0.173099 0.0935971 0 7.15256e-07 -2.38419e-07
32 1 0.484605 0.173099 0.0935971 0 8.34465e-07 -2.38419e-07
ITEM: TIMESTEP
13
ITEM: NUMBER OF ATOMS
32
ITEM: BOX BOUNDS xy xz yz pp pp pp
-2.1013021469116211e-03 7.6759803891181946e+00 1.2793300747871399e+00
-4.1524946689605713e-02 2.2124402940273285e+01 -0.0000000000000000e+00
-1.4066457748413086e-02 5.1965324282646179e+00 0.0000000000000000e+00
ITEM: ATOMS id type xs ys zs fx fy fz
1 1 0.951474 0.338808 0.593597 0 -3.57628e-07 -3.57628e-07
2 1 0.451474 0.338808 0.593597 0 -4.76837e-07 -1.19209e-07
3 1 0.209688 0.297729 0.0935971 0 -1.19209e-07 2.38419e-07
4 1 0.709688 0.297729 0.0935971 0 1.19209e-07 2.38419e-07
5 1 0.176866 0.461893 0.593597 0 0 0
6 1 0.676866 0.461893 0.593597 0 0 -3.57628e-07
7 1 0.93497 0.421357 0.0935971 0 -1.19209e-07 2.38419e-07
8 1 0.43497 0.421357 0.0935971 0 -1.19209e-07 1.19209e-07
9 1 0.902209 0.585218 0.593597 0 -1.19209e-07 -1.19209e-07
10 1 0.402209 0.585218 0.593597 0 2.38419e-07 -1.19209e-07
11 1 0.127491 0.708846 0.593597 0 2.38419e-07 2.38419e-07
12 1 0.627491 0.708846 0.593597 0 3.57628e-07 2.38419e-07
13 1 0.885705 0.667766 0.0935971 0 4.76837e-07 -3.57628e-07
14 1 0.160313 0.544682 0.0935971 0 1.19209e-07 0
15 1 0.660313 0.544682 0.0935971 0 0 1.19209e-07
16 1 0.385705 0.667766 0.0935971 0 1.19209e-07 0
17 1 0.852574 0.833476 0.593597 0 3.57628e-07 0
18 1 0.352573 0.833476 0.593597 0 0 0
19 1 0.0772596 0.960087 0.593597 0 -3.57628e-07 3.57628e-07
20 1 0.57726 0.960087 0.593597 0 5.96046e-07 0
21 1 0.111167 0.790496 0.0935971 0 4.76837e-07 1.19209e-07
22 1 0.611167 0.790496 0.0935971 0 1.19209e-07 -1.19209e-07
23 1 0.836883 0.911956 0.0935971 0 -9.53674e-07 -2.38419e-07
24 1 0.336883 0.911956 0.0935971 0 7.15256e-07 -1.19209e-07
25 1 0.000296427 0.0946186 0.593597 0 -4.76837e-07 0
26 1 0.500296 0.0946186 0.593597 0 -9.53674e-07 0
27 1 0.259919 0.0464875 0.0935971 0 -3.57628e-07 0
28 1 0.759919 0.0464876 0.0935971 0 7.15256e-07 1.19209e-07
29 1 0.226012 0.216079 0.593597 0 0 0
30 1 0.726012 0.216079 0.593597 0 -2.38419e-07 0
31 1 0.984606 0.173099 0.0935971 0 -4.76837e-07 -1.19209e-07
32 1 0.484605 0.173099 0.0935971 0 4.76837e-07 0
