ITEM: TIMESTEP
0
ITEM: NUMBER OF ATOMS
56
ITEM: BOX BOUNDS xy xz yz pp pp pp
-6.2833847403526306e+00 1.2203788340091705e+01 0.0000000000000000e+00
-8.4733366966247559e-03 5.5348814725875854e+00 -6.2646962404251099e+00
-2.9168844223022461e-02 1.9049128890037537e+01 0.0000000000000000e+00
ITEM: ATOMS id type xs ys zs fx fy fz
1 1 0.617916 4.41887e-05 0.132366 0 -0.0212574 0.0231171
2 1 0.367917 0.166624 0.132366 0 0.021244 0.0231304
3 1 0.328549 2.39879e-05 0.275225 0 -0.000379562 -0.00224113
4 1 0.0785481 0.166644 0.275225 0 0.000360489 -0.00224113
5 1 0.0391261 1.9421e-05 0.418082 0 0.000211716 -0.00060463
6 1 0.117917 4.41295e-05 0.132366 0 -0.0212593 0.0231438
7 1 0.0125745 0.500074 0.0609403 0 0.108906 0.0763168
8 1 0.867918 0.166623 0.132366 0 0.0212612 0.0231438
9 1 0.762576 0.666593 0.0609403 0 -0.108889 0.0763016
10 1 0.82855 2.39872e-05 0.275225 0 -0.000383377 -0.00223351
11 1 0.789125 0.166647 0.418082 0 -0.000207901 -0.000610352
12 1 0.749693 2.47556e-05 0.560942 0 2.28882e-05 0.000225067
13 1 0.499694 0.166643 0.560942 0 -3.24249e-05 0.00022316
14 1 0.46027 2.39811e-05 0.703801 0 -2.67029e-05 0.000843048
15 1 0.21027 0.166644 0.703801 0 -3.8147e-06 0.000835419
16 1 0.170856 2.63435e-05 0.846651 0 -0.00107002 0.00535965
17 1 0.723251 0.500026 0.203802 0 -0.00104332 -0.00535011
18 1 0.578548 0.166645 0.275225 0 0.000347137 -0.00223732
19 1 0.473253 0.66664 0.203802 0 0.00106621 -0.00535011
20 1 0.539126 2.01694e-05 0.418082 0 0.00019455 -0.000606537
21 1 0.433837 0.500023 0.346651 0 0 -0.000827789
22 1 0.289126 0.166648 0.418082 0 -0.000211716 -0.000608444
23 1 0.183838 0.666642 0.346651 0 4.00543e-05 -0.000846863
24 1 0.249694 2.49573e-05 0.560941 0 1.90735e-05 0.000232697
25 1 0.144413 0.500025 0.489511 0 2.67029e-05 -0.000238419
26 1 0.999695 0.166643 0.560941 0 -3.24249e-05 0.000238419
27 1 0.894414 0.666642 0.489511 0 -2.09808e-05 -0.00021553
28 1 0.512574 0.500073 0.0609404 0 0.1089 0.0762768
29 1 0.262575 0.666593 0.0609403 0 -0.108875 0.0762787
30 1 0.223252 0.500026 0.203802 0 -0.00105286 -0.00535202
31 1 0.973252 0.666641 0.203802 0 0.00104713 -0.00535011
32 1 0.933838 0.500024 0.346651 0 -2.67029e-05 -0.000846863
33 1 0.920855 0.166641 0.846652 0 0.00106812 0.00533104
34 1 0.881533 7.47473e-05 0.989512 0 0.108879 -0.0762901
35 1 0.631533 0.166594 0.989513 0 -0.108896 -0.0762806
36 1 0.960269 2.44315e-05 0.703801 0 -3.24249e-05 0.000841141
37 1 0.85498 0.50002 0.632371 0 0.000207901 0.000589371
38 1 0.71027 0.166643 0.703801 0 9.53674e-06 0.00084877
39 1 0.604981 0.666647 0.632371 0 -0.000202179 0.000606537
40 1 0.670855 2.63314e-05 0.846651 0 -0.00105667 0.0053463
41 1 0.565559 0.500023 0.775228 0 -0.000370026 0.00224495
42 1 0.420855 0.166641 0.846651 0 0.00105858 0.00535393
43 1 0.315559 0.666644 0.775228 0 0.000379562 0.00222588
44 1 0.381533 7.37033e-05 0.989512 0 0.108887 -0.0762825
45 1 0.276191 0.500043 0.918087 0 -0.0212536 -0.0231056
46 1 0.683837 0.666643 0.346651 0 3.8147e-05 -0.000841141
47 1 0.644413 0.500025 0.489511 0 3.05176e-05 -0.000234604
48 1 0.394413 0.666642 0.489511 0 -1.71661e-05 -0.000234604
49 1 0.354981 0.500019 0.632371 0 0.000221252 0.000612259
50 1 0.104982 0.666647 0.63237 0 -0.000190735 0.000627518
51 1 0.0655599 0.500022 0.775228 0 -0.000360489 0.00224304
52 1 0.131531 0.166594 0.989513 0 -0.108904 -0.0763168
53 1 0.0261899 0.666624 0.918087 0 0.0212517 -0.0231609
54 1 0.815559 0.666643 0.775228 0 0.000370026 0.00224686
55 1 0.77619 0.500044 0.918087 0 -0.0212517 -0.0231514
56 1 0.52619 0.666624 0.918087 0 0.0212593 -0.0231247
ITEM: TIMESTEP
1
ITEM: NUMBER OF ATOMS
56
ITEM: BOX BOUNDS xy xz yz pp pp pp
-6.2833847403526306e+00 1.2203788340091705e+01 0.0000000000000000e+00
-8.4733366966247559e-03 5.5348814725875854e+00 -6.2646962404251099e+00
-2.9168844223022461e-02 1.9049128890037537e+01 0.0000000000000000e+00
ITEM: ATOMS id type xs ys zs fx fy fz
1 1 0.618111 -0.00115747 0.132746 0 0.0269413 -0.0033226
2 1 0.368112 0.167824 0.132746 0 -0.026947 -0.00332451
3 1 0.32853 2.53159e-06 0.275188 0 -0.000846863 0.00442123
4 1 0.0785292 0.166665 0.275188 0 0.000843048 0.00442505
5 1 0.039121 3.13891e-05 0.418072 0 1.71661e-05 -0.00135994
6 1 0.118112 -0.00115764 0.132746 0 0.0269527 -0.00333023
7 1 0.013217 0.50623 0.0621938 0 0.0146503 -0.0185547
8 1 0.868113 0.167825 0.132746 0 -0.0269566 -0.00333023
9 1 0.763218 0.660437 0.0621935 0 -0.0146503 -0.0185318
10 1 0.828531 2.31524e-06 0.275188 0 -0.000843048 0.00441742
11 1 0.78912 0.166635 0.418072 0 -3.8147e-06 -0.00136948
12 1 0.749695 2.60495e-05 0.560945 0 0.000133514 0.000534058
13 1 0.499696 0.166641 0.560945 0 -0.000133514 0.00053978
14 1 0.460277 2.24716e-05 0.703815 0 -0.000205994 0.000423431
15 1 0.210277 0.166644 0.703815 0 0.000209808 0.000421524
16 1 0.170901 -3.41438e-05 0.846739 0 -0.00656128 -0.0258198
17 1 0.723206 0.499967 0.203714 0 -0.00657845 0.0258217
18 1 0.578529 0.166664 0.275188 0 0.000846863 0.00442505
19 1 0.473207 0.6667 0.203714 0 0.00656891 0.0258179
20 1 0.539121 3.11671e-05 0.418072 0 2.09808e-05 -0.00136566
21 1 0.43383 0.500023 0.346638 0 -0.000209808 -0.000423431
22 1 0.289121 0.166636 0.418072 0 -1.33514e-05 -0.00136185
23 1 0.18383 0.666645 0.346638 0 0.000200272 -0.000417709
24 1 0.249696 2.60355e-05 0.560945 0 0.000141144 0.000534058
25 1 0.144411 0.500026 0.489507 0 0.000133514 -0.000530243
26 1 0.999697 0.166641 0.560945 0 -0.000131607 0.000545502
27 1 0.894412 0.666641 0.489508 0 -0.000133514 -0.00053215
28 1 0.513216 0.506229 0.0621932 0 0.0146618 -0.0185299
29 1 0.263217 0.660438 0.0621932 0 -0.0146618 -0.0185337
30 1 0.223207 0.499967 0.203714 0 -0.006567 0.0258236
31 1 0.973207 0.6667 0.203714 0 0.00656891 0.0258274
32 1 0.933831 0.500023 0.346638 0 -0.000204086 -0.000419617
33 1 0.9209 0.166701 0.846739 0 0.00656128 -0.0258331
34 1 0.880891 0.00622957 0.988259 0 0.0146637 0.0185337
35 1 0.630891 0.160438 0.98826 0 -0.014658 0.0185337
36 1 0.960276 2.25985e-05 0.703815 0 -0.000204086 0.000427246
37 1 0.854985 0.500031 0.632381 0 9.53674e-06 0.00135612
38 1 0.710277 0.166644 0.703815 0 0.000207901 0.000419617
39 1 0.604986 0.666636 0.632381 0 -2.47955e-05 0.00135612
40 1 0.6709 -3.34012e-05 0.846739 0 -0.00656509 -0.0258198
41 1 0.565578 0.500002 0.775265 0 -0.000839233 -0.00442123
42 1 0.4209 0.166701 0.846739 0 0.006567 -0.0258293
43 1 0.315577 0.666665 0.775264 0 0.000829697 -0.00440788
44 1 0.380891 0.00622896 0.988259 0 0.0146656 0.0185337
45 1 0.275996 0.498842 0.917707 0 0.0269527 0.00333023
46 1 0.68383 0.666645 0.346638 0 0.000198364 -0.000419617
47 1 0.644411 0.500026 0.489507 0 0.000137329 -0.00053978
48 1 0.394411 0.666641 0.489508 0 -0.000127792 -0.000537872
49 1 0.354986 0.500031 0.632381 0 9.53674e-06 0.00135803
50 1 0.104987 0.666636 0.632381 0 -2.28882e-05 0.00136375
51 1 0.0655788 0.500002 0.775265 0 -0.000837326 -0.00443077
52 1 0.130889 0.160437 0.988259 0 -0.0146465 0.0185413
53 1 0.0259949 0.667825 0.917707 0 -0.0269585 0.00333023
54 1 0.815578 0.666664 0.775265 0 0.000843048 -0.00442886
55 1 0.775995 0.498842 0.917707 0 0.026947 0.00334167
56 1 0.525996 0.667825 0.917707 0 -0.0269508 0.0033226
ITEM: TIMESTEP
2
ITEM: NUMBER OF ATOMS
56
ITEM: BOX BOUNDS xy xz yz pp pp pp
-6.2833847403526306e+00 1.2203788340091705e+01 0.0000000000000000e+00
-8.4733366966247559e-03 5.5348814725875854e+00 -6.2646962404251099e+00
-2.9168844223022461e-02 1.9049128890037537e+01 0.0000000000000000e+00
ITEM: ATOMS id type xs ys zs fx fy fz
1 1 0.61811 0.000733666 0.132744 0 0.00670624 0.00645638
2 1 0.368111 0.165933 0.132744 0 -0.00669861 0.00644493
3 1 0.328578 -6.85777e-05 0.275282 0 -0.000593185 0.00466728
4 1 0.0785776 0.166735 0.275283 0 0.000606537 0.00466156
5 1 0.039104 3.51017e-05 0.418039 0 -0.000415802 0.00201416
6 1 0.118111 0.000734382 0.132745 0 0.00670052 0.00644875
7 1 0.0131253 0.5086 0.0620148 0 -0.0038147 -0.000770569
8 1 0.868112 0.165933 0.132744 0 -0.00669861 0.00645638
9 1 0.763127 0.658068 0.0620151 0 0.0038166 -0.000780106
10 1 0.828579 -6.85352e-05 0.275282 0 -0.000598907 0.00466347
11 1 0.789103 0.166633 0.418039 0 0.000404358 0.00201988
12 1 0.749702 3.6849e-05 0.560958 0 -7.05719e-05 -0.000787735
13 1 0.499703 0.16663 0.560959 0 7.05719e-05 -0.00078392
14 1 0.460283 5.90533e-06 0.703828 0 -0.00119781 -0.0086441
15 1 0.210283 0.166661 0.703828 0 0.00119209 -0.0086441
16 1 0.170606 -0.000564255 0.846164 0 0.00677299 0.001894
17 1 0.723501 0.499436 0.204289 0 0.00676346 -0.00189209
18 1 0.578578 0.166735 0.275282 0 0.000595093 0.00465965
19 1 0.473502 0.667231 0.204289 0 -0.00676918 -0.00189018
20 1 0.539104 3.49899e-05 0.418039 0 -0.000408173 0.00201416
21 1 0.433824 0.500007 0.346625 0 -0.00120354 0.0086441
22 1 0.289104 0.166633 0.418039 0 0.00041008 0.00201035
23 1 0.183824 0.666661 0.346625 0 0.00119781 0.00864983
24 1 0.249702 3.73951e-05 0.560958 0 -7.05719e-05 -0.000782013
25 1 0.144404 0.500037 0.489494 0 -7.24792e-05 0.000782013
26 1 0.999704 0.16663 0.560959 0 6.48499e-05 -0.000787735
27 1 0.894406 0.66663 0.489495 0 8.01086e-05 0.000776291
28 1 0.513125 0.508599 0.0620147 0 -0.00381279 -0.000780106
29 1 0.263125 0.658068 0.0620146 0 0.00382423 -0.000764847
30 1 0.223502 0.499436 0.204289 0 0.00676346 -0.00189018
31 1 0.973502 0.667231 0.204289 0 -0.00677109 -0.001894
32 1 0.933825 0.500006 0.346625 0 -0.00119781 0.00865173
33 1 0.920605 0.167231 0.846164 0 -0.00677109 0.0018959
34 1 0.880982 0.00859976 0.988438 0 -0.00382805 0.000772476
35 1 0.630982 0.158068 0.988438 0 0.0038166 0.000770569
36 1 0.960282 6.11917e-06 0.703828 0 -0.00120163 -0.00865173
37 1 0.855002 0.500034 0.632414 0 -0.000408173 -0.00200081
38 1 0.710284 0.16666 0.703828 0 0.00119972 -0.00865173
39 1 0.605003 0.666632 0.632414 0 0.000413895 -0.00200844
40 1 0.670605 -0.000563665 0.846164 0 0.00676537 0.00189781
41 1 0.565529 0.499932 0.77517 0 -0.000600815 -0.0046711
42 1 0.420605 0.167231 0.846164 0 -0.00676537 0.001894
43 1 0.315529 0.666735 0.77517 0 0.000598907 -0.00466537
44 1 0.380983 0.00859938 0.988438 0 -0.0038166 0.00078392
45 1 0.275997 0.500734 0.917709 0 0.00670052 -0.00645828
46 1 0.683824 0.666661 0.346625 0 0.00121117 0.0086441
47 1 0.644404 0.500038 0.489494 0 -7.24792e-05 0.000778198
48 1 0.394404 0.666631 0.489494 0 6.29425e-05 0.000778198
49 1 0.355003 0.500035 0.632414 0 -0.000406265 -0.00200653
50 1 0.105004 0.666632 0.632414 0 0.000411987 -0.00201035
51 1 0.0655304 0.499932 0.77517 0 -0.000597 -0.00466156
52 1 0.13098 0.158068 0.988438 0 0.00380898 0.000772476
53 1 0.0259957 0.665933 0.917708 0 -0.0066967 -0.00645065
54 1 0.815529 0.666735 0.77517 0 0.000597 -0.00467491
55 1 0.775996 0.500734 0.917708 0 0.00670624 -0.00645447
56 1 0.525996 0.665933 0.917708 0 -0.00670433 -0.00644493
ITEM: TIMESTEP
3
ITEM: NUMBER OF ATOMS
56
ITEM: BOX BOUNDS xy xz yz pp pp pp
-6.2833847403526306e+00 1.2203788340091705e+01 0.0000000000000000e+00
-8.4733366966247559e-03 5.5348814725875854e+00 -6.2646962404251099e+00
-2.9168844223022461e-02 1.9049128890037537e+01 0.0000000000000000e+00
ITEM: ATOMS id type xs ys zs fx fy fz
1 1 0.618214 0.00173583 0.132947 0 -0.00430298 0.00112724
2 1 0.368215 0.164931 0.132947 0 0.00430107 0.00115013
3 1 0.32866 -0.000143207 0.275443 0 0.00121117 0.00362396
4 1 0.0786598 0.166811 0.275443 0 -0.00122452 0.00363731
5 1 0.0391341 -9.40503e-06 0.418097 0 -0.000301361 0.00328636
6 1 0.118215 0.00173606 0.132947 0 -0.00430107 0.0011425
7 1 0.0130995 0.508532 0.0619645 0 0.00213051 0.00199318
8 1 0.868216 0.164931 0.132947 0 0.00429726 0.00113297
9 1 0.763101 0.658136 0.0619645 0 -0.00213814 0.00200272
10 1 0.828661 -0.000143746 0.275443 0 0.00121307 0.00363922
11 1 0.789133 0.166676 0.418097 0 0.000328064 0.00329018
12 1 0.74969 3.07772e-05 0.560935 0 -0.000999451 -0.00297165
13 1 0.499691 0.166636 0.560936 0 0.000999451 -0.00297737
14 1 0.460145 -0.00012628 0.703557 0 0.00025177 0.000555038
15 1 0.210145 0.166792 0.703557 0 -0.000246048 0.00056076
16 1 0.170594 9.22701e-05 0.84614 0 0.00235176 -0.00174904
17 1 0.723514 0.500091 0.204313 0 0.00235748 0.00174713
18 1 0.57866 0.16681 0.275443 0 -0.00120544 0.0036335
19 1 0.473515 0.666575 0.204313 0 -0.00234795 0.00175285
20 1 0.539134 -8.6742e-06 0.418097 0 -0.00031662 0.00328636
21 1 0.433963 0.499874 0.346896 0 0.00025177 -0.000562668
22 1 0.289134 0.166676 0.418097 0 0.000314713 0.00329781
23 1 0.183963 0.666793 0.346896 0 -0.000247955 -0.000564575
24 1 0.249691 3.14049e-05 0.560936 0 -0.00100517 -0.00297356
25 1 0.144416 0.500031 0.489517 0 -0.00100136 0.00297546
26 1 0.999692 0.166636 0.560936 0 0.00101471 -0.00297546
27 1 0.894417 0.666637 0.489517 0 0.000991821 0.00297928
28 1 0.513099 0.508532 0.0619641 0 0.0021286 0.00201416
29 1 0.263099 0.658137 0.0619645 0 -0.00213051 0.00198555
30 1 0.223515 0.500092 0.204313 0 0.00235367 0.00174522
31 1 0.973515 0.666574 0.204313 0 -0.00234032 0.00174713
32 1 0.933964 0.499874 0.346896 0 0.000246048 -0.000562668
33 1 0.920592 0.166575 0.846139 0 -0.00234604 -0.00175285
34 1 0.881008 0.00853046 0.988488 0 0.00214767 -0.00199127
35 1 0.631008 0.158136 0.988488 0 -0.00213242 -0.00199318
36 1 0.960144 -0.000126467 0.703557 0 0.000263214 0.000551224
37 1 0.854972 0.499991 0.632356 0 -0.000314713 -0.00330353
38 1 0.710145 0.166793 0.703557 0 -0.000253677 0.000553131
39 1 0.604973 0.666676 0.632356 0 0.000314713 -0.00329781
40 1 0.670593 9.20113e-05 0.84614 0 0.00234985 -0.00175476
41 1 0.565447 0.499856 0.77501 0 0.00121117 -0.00362015
42 1 0.420592 0.166575 0.84614 0 -0.00235367 -0.00174332
43 1 0.315447 0.66681 0.77501 0 -0.00120544 -0.00362778
44 1 0.381009 0.00853136 0.988489 0 0.0021286 -0.00201416
45 1 0.275893 0.501736 0.917506 0 -0.00429535 -0.00113106
46 1 0.683962 0.666794 0.346896 0 -0.000272751 -0.000558853
47 1 0.644416 0.500031 0.489517 0 -0.000997543 0.00298882
48 1 0.394416 0.666636 0.489517 0 0.00100327 0.00298691
49 1 0.354973 0.499991 0.632356 0 -0.00031662 -0.0032959
50 1 0.104974 0.666676 0.632356 0 0.000295639 -0.0032959
51 1 0.0654481 0.499857 0.77501 0 0.00120544 -0.00362587
52 1 0.131006 0.158136 0.988488 0 -0.00213242 -0.00199509
53 1 0.0258917 0.664931 0.917505 0 0.00429344 -0.00114632
54 1 0.815447 0.66681 0.77501 0 -0.00121498 -0.00361252
55 1 0.775892 0.501736 0.917506 0 -0.00431252 -0.0011425
56 1 0.525893 0.664931 0.917506 0 0.00430107 -0.00114632
ITEM: TIMESTEP
4
ITEM: NUMBER OF ATOMS
56
ITEM: BOX BOUNDS xy xz yz pp pp pp
-6.2833847403526306e+00 1.2203788340091705e+01 0.0000000000000000e+00
-8.4733366966247559e-03 5.5348814725875854e+00 -6.2646962404251099e+00
-2.9168844223022461e-02 1.9049128890037537e+01 0.0000000000000000e+00
ITEM: ATOMS id type xs ys zs fx fy fz
1 1 0.618252 0.0015891 0.13302 0 5.72205e-06 -7.62939e-05
2 1 0.368252 0.165078 0.13302 0 -3.8147e-06 -8.39233e-05
3 1 0.328725 -5.61265e-05 0.275569 0 0.00130653 0.000965118
4 1 0.0787243 0.166723 0.275569 0 -0.00130653 0.000959396
5 1 0.0391825 -4.4991e-05 0.418192 0 -0.000799179 0.00069809
6 1 0.118252 0.00158937 0.13302 0 1.33514e-05 -8.01086e-05
7 1 0.0131192 0.508699 0.0620029 0 -0.000150681 -0.001091
8 1 0.868253 0.165078 0.13302 0 -9.53674e-06 -7.24792e-05
9 1 0.763121 0.657969 0.0620031 0 0.000154495 -0.00109291
10 1 0.828726 -5.66316e-05 0.275569 0 0.00130844 0.000951767
11 1 0.789182 0.166714 0.418192 0 0.000787735 0.000686646
12 1 0.74965 -5.60104e-05 0.560857 0 -0.000354767 0.00111008
13 1 0.499651 0.166723 0.560857 0 0.000350952 0.00110435
14 1 0.460121 -0.000133924 0.703512 0 0.00056839 -0.000812531
15 1 0.210121 0.1668 0.703512 0 -0.000564575 -0.000810623
16 1 0.170569 0.000438207 0.846091 0 -0.0023632 -0.00225067
17 1 0.723539 0.500437 0.204362 0 -0.00235558 0.00224876
18 1 0.578724 0.166723 0.275569 0 -0.00131607 0.000961304
19 1 0.47354 0.666229 0.204362 0 0.0023632 0.00224686
20 1 0.539183 -4.53788e-05 0.418192 0 -0.000799179 0.000694275
21 1 0.433986 0.499866 0.346941 0 0.000570297 0.000816345
22 1 0.289182 0.166713 0.418192 0 0.000795364 0.000686646
23 1 0.183986 0.666801 0.346941 0 -0.000558853 0.000810623
24 1 0.24965 -5.58539e-05 0.560857 0 -0.000349045 0.00111008
25 1 0.144456 0.499944 0.489596 0 -0.000349045 -0.00111198
26 1 0.999652 0.166724 0.560857 0 0.00034523 0.00111389
27 1 0.894458 0.666723 0.489596 0 0.000352859 -0.00110435
28 1 0.513119 0.508699 0.062003 0 -0.000160217 -0.00110054
29 1 0.263119 0.65797 0.0620028 0 0.000139236 -0.001091
30 1 0.22354 0.500438 0.204362 0 -0.00235748 0.00224876
31 1 0.97354 0.66623 0.204362 0 0.00235367 0.00225067
32 1 0.933987 0.499866 0.346941 0 0.000564575 0.000804901
33 1 0.920567 0.166229 0.846091 0 0.00235367 -0.00224686
34 1 0.880989 0.00869879 0.98845 0 -0.000156403 0.00109291
35 1 0.630988 0.157969 0.98845 0 0.000152588 0.001091
36 1 0.96012 -0.000133221 0.703511 0 0.000553131 -0.000799179
37 1 0.854923 0.499954 0.632261 0 -0.000787735 -0.000692368
38 1 0.710121 0.1668 0.703511 0 -0.000562668 -0.000801086
39 1 0.604925 0.666713 0.632261 0 0.000795364 -0.000686646
40 1 0.670568 0.000437598 0.846091 0 -0.00235558 -0.00224876
41 1 0.565383 0.499943 0.774884 0 0.00130463 -0.000959396
42 1 0.420568 0.16623 0.846091 0 0.00235558 -0.00225067
43 1 0.315383 0.666723 0.774884 0 -0.00131416 -0.000968933
44 1 0.380989 0.00869833 0.98845 0 -0.000143051 0.00110054
45 1 0.275856 0.501589 0.917433 0 -5.72205e-06 7.05719e-05
46 1 0.683986 0.666801 0.346941 0 -0.000553131 0.000814438
47 1 0.644456 0.499945 0.489596 0 -0.000356674 -0.00111961
48 1 0.394457 0.666723 0.489596 0 0.000356674 -0.00111771
49 1 0.354925 0.499954 0.632261 0 -0.000802994 -0.000688553
50 1 0.104926 0.666711 0.632261 0 0.000812531 -0.000684738
51 1 0.0653838 0.499943 0.774884 0 0.00130844 -0.000968933
52 1 0.130986 0.157968 0.98845 0 0.000156403 0.001091
53 1 0.0258542 0.665077 0.917432 0 0 8.01086e-05
54 1 0.815383 0.666723 0.774884 0 -0.00130463 -0.000968933
55 1 0.775855 0.501589 0.917432 0 1.52588e-05 8.2016e-05
56 1 0.525855 0.665078 0.917433 0 -3.8147e-06 8.96454e-05
ITEM: TIMESTEP
5
ITEM: NUMBER OF ATOMS
56
ITEM: BOX BOUNDS xy xz yz pp pp pp
-6.2833847403526306e+00 1.2203788340091705e+01 0.0000000000000000e+00
-8.4733366966247559e-03 5.5348814725875854e+00 -6.2646962404251099e+00
-2.9168844223022461e-02 1.9049128890037537e+01 0.0000000000000000e+00
ITEM: ATOMS id type xs ys zs fx fy fz
1 1 0.61826 0.00155232 0.133037 0 0.000116348 0.000482559
2 1 0.368261 0.165115 0.133037 0 -0.000116348 0.000482559
3 1 0.328754 8.18743e-05 0.275625 0 -0.000566483 5.34058e-05
4 1 0.0787533 0.166585 0.275625 0 0.00056839 5.14984e-05
5 1 0.0392041 -0.000124911 0.418234 0 0.000139236 8.7738e-05
6 1 0.118261 0.00155329 0.133037 0 0.000106812 0.000471115
7 1 0.0131098 0.508728 0.0619845 0 -0.000188828 0.000732422
8 1 0.868262 0.165114 0.133037 0 -0.000106812 0.000476837
9 1 0.763111 0.65794 0.0619847 0 0.000190735 0.000730515
10 1 0.828755 8.15471e-05 0.275625 0 -0.000576019 6.48499e-05
11 1 0.789203 0.166793 0.418234 0 -0.000146866 9.15527e-05
12 1 0.749654 -0.000109526 0.560865 0 -0.000261307 0.000453949
13 1 0.499655 0.166776 0.560865 0 0.000278473 0.000453949
14 1 0.460105 -8.54565e-05 0.703479 0 -5.34058e-05 -0.000688553
15 1 0.210105 0.166752 0.703479 0 4.19617e-05 -0.00069046
16 1 0.170533 0.000316518 0.846021 0 -0.000383377 0.000217438
17 1 0.723575 0.500316 0.204432 0 -0.00038147 -0.000219345
18 1 0.578753 0.166585 0.275625 0 0.000570297 5.53131e-05
19 1 0.473576 0.666351 0.204432 0 0.000370026 -0.000225067
20 1 0.539204 -0.000125583 0.418234 0 0.000144958 7.82013e-05
21 1 0.434003 0.499915 0.346974 0 -4.76837e-05 0.00069046
22 1 0.289204 0.166793 0.418234 0 -0.000143051 8.96454e-05
23 1 0.184003 0.666754 0.346974 0 4.19617e-05 0.000692368
24 1 0.249655 -0.000108982 0.560865 0 -0.000276566 0.000444412
25 1 0.144452 0.499891 0.489588 0 -0.000268936 -0.000450134
26 1 0.999656 0.166777 0.560865 0 0.000278473 0.000450134
27 1 0.894453 0.666777 0.489588 0 0.000276566 -0.000455856
28 1 0.513109 0.508727 0.0619845 0 -0.000183105 0.0007267
29 1 0.26311 0.65794 0.0619844 0 0.000192642 0.000740051
30 1 0.223576 0.500316 0.204432 0 -0.000368118 -0.000221252
31 1 0.973576 0.666351 0.204432 0 0.00037384 -0.000211716
32 1 0.934004 0.499914 0.346974 0 -4.3869e-05 0.00069809
33 1 0.920531 0.16635 0.84602 0 0.000375748 0.000221252
34 1 0.880998 0.00872768 0.988468 0 -0.000188828 -0.000740051
35 1 0.630998 0.15794 0.988468 0 0.000188828 -0.000728607
36 1 0.960103 -8.58803e-05 0.703479 0 -4.76837e-05 -0.000686646
37 1 0.854902 0.499875 0.632219 0 0.000137329 -8.01086e-05
38 1 0.710105 0.166752 0.703479 0 4.76837e-05 -0.000692368
39 1 0.604903 0.666792 0.632219 0 -0.000143051 -8.7738e-05
40 1 0.670532 0.000316496 0.846021 0 -0.00038147 0.00022316
41 1 0.565354 0.500081 0.774828 0 -0.000562668 -5.72205e-05
42 1 0.420531 0.166351 0.846021 0 0.000377655 0.000211716
43 1 0.315353 0.666585 0.774827 0 0.000570297 -4.76837e-05
44 1 0.380998 0.00872807 0.988468 0 -0.000202179 -0.000728607
45 1 0.275847 0.501552 0.917416 0 0.0001297 -0.000480652
46 1 0.684002 0.666753 0.346974 0 4.95911e-05 0.000684738
47 1 0.644452 0.499891 0.489587 0 -0.000274658 -0.000448227
48 1 0.394452 0.666777 0.489588 0 0.000274658 -0.000448227
49 1 0.354903 0.499874 0.632219 0 0.000141144 -8.58307e-05
50 1 0.104904 0.666792 0.632219 0 -0.000139236 -9.53674e-05
51 1 0.0653546 0.500082 0.774827 0 -0.000572205 -5.91278e-05
52 1 0.130996 0.15794 0.988468 0 0.00018692 -0.000730515
53 1 0.0258457 0.665114 0.917416 0 -0.000114441 -0.000478745
54 1 0.815353 0.666585 0.774828 0 0.000562668 -5.91278e-05
55 1 0.775846 0.501552 0.917416 0 0.000118256 -0.00047493
56 1 0.525847 0.665115 0.917416 0 -0.000112534 -0.000484467
ITEM: TIMESTEP
6
ITEM: NUMBER OF ATOMS
56
ITEM: BOX BOUNDS xy xz yz pp pp pp
-6.2833847403526306e+00 1.2203788340091705e+01 0.0000000000000000e+00
-8.4733366966247559e-03 5.5348814725875854e+00 -6.2646962404251099e+00
-2.9168844223022461e-02 1.9049128890037537e+01 0.0000000000000000e+00
ITEM: ATOMS id type xs ys zs fx fy fz
1 1 0.618266 0.00155714 0.133048 0 7.62939e-06 -0.000106812
2 1 0.368267 0.16511 0.133048 0 -1.52588e-05 -0.000101089
3 1 0.328757 5.43772e-05 0.275632 0 -0.000404358 0.000181198
4 1 0.0787567 0.166613 0.275632 0 0.000411987 0.00018692
5 1 0.0392071 -0.00012264 0.41824 0 8.2016e-05 8.01086e-05
6 1 0.118267 0.00155749 0.133048 0 9.53674e-06 -9.91821e-05
7 1 0.0131167 0.508717 0.0619981 0 -0.000101089 -1.33514e-05
8 1 0.868268 0.16511 0.133049 0 -9.53674e-06 -9.91821e-05
9 1 0.763118 0.657951 0.0619983 0 0.000102997 -7.62939e-06
10 1 0.828758 5.33779e-05 0.275632 0 -0.000402451 0.000173569
11 1 0.789206 0.16679 0.41824 0 -7.24792e-05 9.15527e-05
12 1 0.749659 -0.000133639 0.560875 0 -0.000108719 -0.000232697
13 1 0.49966 0.166801 0.560876 0 0.000102997 -0.000232697
14 1 0.460096 -8.45901e-05 0.703461 0 -0.000175476 0.000108719
15 1 0.210096 0.16675 0.703461 0 0.000179291 0.000102997
16 1 0.170532 0.000276928 0.846018 0 8.7738e-05 -0.000202179
17 1 0.723576 0.500277 0.204435 0 8.58307e-05 0.000211716
18 1 0.578757 0.166612 0.275632 0 0.00041008 0.000190735
19 1 0.473577 0.66639 0.204435 0 -8.39233e-05 0.000213623
20 1 0.539207 -0.000122926 0.41824 0 8.58307e-05 9.15527e-05
21 1 0.434012 0.499916 0.346992 0 -0.000175476 -0.000106812
22 1 0.289207 0.16679 0.41824 0 -7.62939e-05 8.39233e-05
23 1 0.184012 0.666752 0.346992 0 0.000173569 -0.000106812
24 1 0.24966 -0.000134161 0.560875 0 -0.000102997 -0.000228882
25 1 0.144447 0.499866 0.489577 0 -0.000101089 0.000240326
26 1 0.999661 0.166802 0.560876 0 9.15527e-05 -0.000234604
27 1 0.894448 0.666802 0.489577 0 9.91821e-05 0.000236511
28 1 0.513116 0.508717 0.061998 0 -9.91821e-05 -1.90735e-06
29 1 0.263117 0.657951 0.0619981 0 0.000106812 -1.71661e-05
30 1 0.223577 0.500278 0.204435 0 8.01086e-05 0.00021553
31 1 0.973577 0.66639 0.204435 0 -9.15527e-05 0.000202179
32 1 0.934013 0.499916 0.346992 0 -0.000179291 -9.91821e-05
33 1 0.92053 0.166389 0.846018 0 -8.2016e-05 -0.00021553
34 1 0.880991 0.00871685 0.988455 0 -0.000106812 1.71661e-05
35 1 0.630991 0.157951 0.988455 0 0.000106812 5.72205e-06
36 1 0.960094 -8.47103e-05 0.703461 0 -0.000177383 0.000106812
37 1 0.854899 0.499877 0.632213 0 7.62939e-05 -9.34601e-05
38 1 0.710096 0.166751 0.703461 0 0.000173569 0.000101089
39 1 0.6049 0.66679 0.632213 0 -8.01086e-05 -8.58307e-05
40 1 0.670531 0.000277102 0.846018 0 9.15527e-05 -0.000213623
41 1 0.56535 0.500054 0.774821 0 -0.000408173 -0.000185013
42 1 0.42053 0.16639 0.846018 0 -8.7738e-05 -0.000202179
43 1 0.31535 0.666613 0.774821 0 0.000408173 -0.00018692
44 1 0.380991 0.00871636 0.988455 0 -9.72748e-05 1.33514e-05
45 1 0.275841 0.501557 0.917404 0 5.72205e-06 0.000106812
46 1 0.684011 0.666752 0.346992 0 0.000164032 -0.000108719
47 1 0.644447 0.499866 0.489577 0 -8.58307e-05 0.000234604
48 1 0.394447 0.666802 0.489577 0 8.96454e-05 0.000234604
49 1 0.3549 0.499876 0.632213 0 8.96454e-05 -9.34601e-05
50 1 0.104901 0.66679 0.632213 0 -8.58307e-05 -8.58307e-05
51 1 0.0653512 0.500054 0.774821 0 -0.000406265 -0.00018692
52 1 0.130989 0.15795 0.988454 0 0.000102997 7.62939e-06
53 1 0.0258397 0.66511 0.917404 0 -1.33514e-05 0.000101089
54 1 0.81535 0.666612 0.774821 0 0.000411987 -0.000179291
55 1 0.775841 0.501557 0.917404 0 7.62939e-06 9.53674e-05
56 1 0.525841 0.66511 0.917404 0 -1.52588e-05 9.15527e-05
ITEM: TIMESTEP
7
ITEM: NUMBER OF ATOMS
56
ITEM: BOX BOUNDS xy xz yz pp pp pp
-6.2833847403526306e+00 1.2203788340091705e+01 0.0000000000000000e+00
-8.4733366966247559e-03 5.5348814725875854e+00 -6.2646962404251099e+00
-2.9168844223022461e-02 1.9049128890037537e+01 0.0000000000000000e+00
ITEM: ATOMS id type xs ys zs fx fy fz
1 1 0.618266 0.00155868 0.133048 0 -1.52588e-05 1.52588e-05
2 1 0.368267 0.165108 0.133048 0 2.86102e-05 -1.90735e-06
3 1 0.32876 1.76178e-05 0.275637 0 4.76837e-05 9.53674e-06
4 1 0.0787596 0.16665 0.275638 0 -5.14984e-05 9.53674e-06
5 1 0.0392086 -0.000115834 0.418243 0 -9.53674e-05 1.52588e-05
6 1 0.118267 0.00155906 0.133049 0 -2.28882e-05 9.53674e-06
7 1 0.0131179 0.508707 0.0620005 0 1.52588e-05 -2.09808e-05
8 1 0.868268 0.165108 0.133049 0 2.09808e-05 -7.62939e-06
9 1 0.763119 0.657961 0.0620008 0 -1.52588e-05 -1.71661e-05
10 1 0.828761 1.6634e-05 0.275637 0 4.76837e-05 1.33514e-05
11 1 0.789208 0.166784 0.418243 0 8.01086e-05 7.62939e-06
12 1 0.749658 -0.000146813 0.560872 0 4.19617e-05 -4.19617e-05
13 1 0.499659 0.166814 0.560872 0 -5.14984e-05 -3.8147e-05
14 1 0.460095 -9.80237e-05 0.70346 0 -0.000108719 -5.14984e-05
15 1 0.210095 0.166764 0.70346 0 0.000104904 -4.57764e-05
16 1 0.170529 0.00027594 0.846013 0 -4.19617e-05 -5.34058e-05
17 1 0.723579 0.500276 0.20444 0 -4.57764e-05 5.14984e-05
18 1 0.57876 0.16665 0.275638 0 -5.14984e-05 1.90735e-06
19 1 0.47358 0.666391 0.20444 0 4.76837e-05 5.14984e-05
20 1 0.539209 -0.000115749 0.418243 0 -9.72748e-05 9.53674e-06
21 1 0.434012 0.499903 0.346993 0 -0.000108719 4.57764e-05
22 1 0.289209 0.166784 0.418243 0 8.39233e-05 5.72205e-06
23 1 0.184012 0.666765 0.346993 0 0.000112534 4.57764e-05
24 1 0.249658 -0.0001471 0.560872 0 4.95911e-05 -3.8147e-05
25 1 0.144448 0.499854 0.489581 0 3.43323e-05 3.43323e-05
26 1 0.99966 0.166814 0.560872 0 -4.57764e-05 -2.67029e-05
27 1 0.89445 0.666814 0.489581 0 -3.43323e-05 3.43323e-05
28 1 0.513118 0.508707 0.0620006 0 9.53674e-06 -2.86102e-05
29 1 0.263118 0.657961 0.0620005 0 -2.09808e-05 -1.71661e-05
30 1 0.22358 0.500277 0.20444 0 -5.14984e-05 4.19617e-05
31 1 0.97358 0.66639 0.20444 0 5.53131e-05 5.72205e-05
32 1 0.934013 0.499902 0.346993 0 -0.000106812 3.43323e-05
33 1 0.920527 0.166391 0.846013 0 4.3869e-05 -4.57764e-05
34 1 0.88099 0.00870644 0.988452 0 2.28882e-05 1.52588e-05
35 1 0.63099 0.157961 0.988452 0 -1.71661e-05 1.71661e-05
36 1 0.960094 -9.82319e-05 0.70346 0 -0.000106812 -5.53131e-05
37 1 0.854897 0.499884 0.63221 0 -9.34601e-05 -9.53674e-06
38 1 0.710095 0.166764 0.70346 0 0.000112534 -3.8147e-05
39 1 0.604899 0.666783 0.63221 0 9.15527e-05 -5.72205e-06
40 1 0.670528 0.000276448 0.846013 0 -5.14984e-05 -4.95911e-05
41 1 0.565347 0.500017 0.774815 0 4.3869e-05 -1.52588e-05
42 1 0.420528 0.166391 0.846013 0 5.14984e-05 -4.95911e-05
43 1 0.315347 0.66665 0.774815 0 -5.14984e-05 -1.14441e-05
44 1 0.38099 0.00870651 0.988452 0 1.71661e-05 2.09808e-05
45 1 0.275841 0.501559 0.917405 0 -2.28882e-05 1.90735e-06
46 1 0.684012 0.666765 0.346993 0 0.000125885 5.14984e-05
47 1 0.644448 0.499854 0.48958 0 4.19617e-05 3.62396e-05
48 1 0.394448 0.666814 0.489581 0 -3.24249e-05 3.24249e-05
49 1 0.354899 0.499884 0.63221 0 -9.15527e-05 -3.8147e-06
50 1 0.1049 0.666783 0.63221 0 9.53674e-05 -1.33514e-05
51 1 0.0653483 0.500017 0.774815 0 5.14984e-05 -5.72205e-06
52 1 0.130988 0.15796 0.988452 0 -1.52588e-05 1.90735e-05
53 1 0.0258397 0.665108 0.917404 0 1.90735e-05 -1.90735e-06
54 1 0.815347 0.666649 0.774815 0 -5.14984e-05 -9.53674e-06
55 1 0.77584 0.501559 0.917404 0 -2.47955e-05 3.8147e-06
56 1 0.525841 0.665108 0.917404 0 2.67029e-05 1.14441e-05
ITEM: TIMESTEP
8
ITEM: NUMBER OF ATOMS
56
ITEM: BOX BOUNDS xy xz yz pp pp pp
-6.2833847403526306e+00 1.2203788340091705e+01 0.0000000000000000e+00
-8.4733366966247559e-03 5.5348814725875854e+00 -6.2646962404251099e+00
-2.9168844223022461e-02 1.9049128890037537e+01 0.0000000000000000e+00
ITEM: ATOMS id type xs ys zs fx fy fz
1 1 0.618266 0.00155868 0.133048 0 -1.52588e-05 1.52588e-05
2 1 0.368267 0.165108 0.133048 0 2.86102e-05 -1.90735e-06
3 1 0.32876 1.76178e-05 0.275637 0 4.76837e-05 9.53674e-06
4 1 0.0787596 0.16665 0.275638 0 -5.14984e-05 9.53674e-06
5 1 0.0392086 -0.000115834 0.418243 0 -9.53674e-05 1.52588e-05
6 1 0.118267 0.00155906 0.133049 0 -2.28882e-05 9.53674e-06
7 1 0.0131179 0.508707 0.0620005 0 1.52588e-05 -2.09808e-05
8 1 0.868268 0.165108 0.133049 0 2.09808e-05 -7.62939e-06
9 1 0.763119 0.657961 0.0620008 0 -1.52588e-05 -1.71661e-05
10 1 0.828761 1.6634e-05 0.275637 0 4.76837e-05 1.33514e-05
11 1 0.789208 0.166784 0.418243 0 8.01086e-05 7.62939e-06
12 1 0.749658 -0.000146813 0.560872 0 4.19617e-05 -4.19617e-05
13 1 0.499659 0.166814 0.560872 0 -5.14984e-05 -3.8147e-05
14 1 0.460095 -9.80237e-05 0.70346 0 -0.000108719 -5.14984e-05
15 1 0.210095 0.166764 0.70346 0 0.000104904 -4.57764e-05
16 1 0.170529 0.00027594 0.846013 0 -4.19617e-05 -5.34058e-05