ITEM: TIMESTEP
0
ITEM: NUMBER OF ATOMS
48
ITEM: BOX BOUNDS xy xz yz pp pp pp
-4.2594199776649475e+00 8.6109705567359924e+00 2.5110912919044495e+00
-1.0506033897399902e-02 9.6185076832771301e+00 -4.2448631525039673e+00
-2.6944518089294434e-02 1.9544072151184082e+01 3.6519104242324829e-01
ITEM: ATOMS id type xs ys zs fx fy fz
1 1 0.944356 0.165578 0.0319985 0 0 1.4758
2 1 0.495894 0.0752984 0.0528317 0 0 -0.0412369
3 1 0.490524 0.123911 0.656998 0 0 -0.000315666
4 1 0.66053 0.950298 0.927832 0 0 -1.4758
5 1 0.351296 0.158632 0.802832 0 0 0.00394797
6 1 0.108991 0.040578 0.906998 0 0 0.0412365
7 1 0.799757 0.248911 0.781998 0 0 8.32081e-05
8 1 0.872057 0.207245 0.406998 0 0 0.00130415
9 1 0.0420628 0.0336318 0.677832 0 0 -0.00396717
10 1 0.732829 0.241965 0.552832 0 0 -0.00130379
11 1 0.805128 0.200298 0.177832 0 0 -8.28505e-05
12 1 0.562823 0.0822446 0.281998 0 0 0.00396729
13 1 0.253589 0.290578 0.156998 0 0 -0.00394821
14 1 0.423596 0.116965 0.427832 0 0 0.00014925
15 1 0.944356 0.498911 0.0319984 0 0 1.4758
16 1 0.495894 0.408632 0.0528317 0 0 -0.0412369
17 1 0.490524 0.457245 0.656998 0 0 -0.000315905
18 1 0.66053 0.283632 0.927832 0 0 -1.4758
19 1 0.351296 0.491965 0.802832 0 0 0.00394797
20 1 0.108991 0.373911 0.906998 0 0 0.0412363
21 1 0.799758 0.582245 0.781998 0 0 8.27312e-05
22 1 0.18129 0.332245 0.531998 0 0 -0.000148296
23 1 0.872057 0.540578 0.406998 0 0 0.00130415
24 1 0.0420628 0.366965 0.677832 0 0 -0.00396693
25 1 0.732829 0.575298 0.552832 0 0 -0.00130427
26 1 0.114362 0.325298 0.302832 0 0 0.000315428
27 1 0.805128 0.533632 0.177832 0 0 -8.30889e-05
28 1 0.562823 0.415578 0.281998 0 0 0.00396717
29 1 0.253589 0.623911 0.156998 0 0 -0.00394821
30 1 0.423596 0.450298 0.427832 0 0 0.000148654
31 1 0.944356 0.832245 0.0319985 0 0 1.4758
32 1 0.495894 0.741965 0.0528317 0 0 -0.0412366
33 1 0.490524 0.790578 0.656998 0 0 -0.000315666
34 1 0.66053 0.616965 0.927832 0 0 -1.4758
35 1 0.351296 0.825298 0.802832 0 0 0.00394809
36 1 0.108991 0.707245 0.906998 0 0 0.0412366
37 1 0.799758 0.915578 0.781998 0 0 8.2612e-05
38 1 0.18129 0.665578 0.531998 0 0 -0.000149488
39 1 0.872057 0.873911 0.406998 0 0 0.00130439
40 1 0.0420628 0.700298 0.677832 0 0 -0.00396633
41 1 0.732829 0.908632 0.552832 0 0 -0.0013051
42 1 0.114362 0.658632 0.302832 0 0 0.000315785
43 1 0.805128 0.866965 0.177832 0 0 -8.30889e-05
44 1 0.562823 0.748911 0.281998 0 0 0.00396705
45 1 0.253589 0.957245 0.156998 0 0 -0.00394809
46 1 0.423596 0.783632 0.427832 0 0 0.00014925
47 1 0.18129 0.998911 0.531998 0 0 -0.000149012
48 1 0.114362 0.991965 0.302832 0 0 0.000315785
ITEM: TIMESTEP
1
ITEM: NUMBER OF ATOMS
48
ITEM: BOX BOUNDS xy xz yz pp pp pp
-4.2594199776649475e+00 8.6109705567359924e+00 2.5110912919044495e+00
-1.0506033897399902e-02 9.6185076832771301e+00 -4.2448631525039673e+00
-2.6944518089294434e-02 1.9544072151184082e+01 3.6519104242324829e-01
ITEM: ATOMS id type xs ys zs fx fy fz
1 1 0.947986 0.165377 0.037108 0 0 0.644883
2 1 0.495793 0.075304 0.052689 0 0 -0.111707
3 1 0.490523 0.123911 0.656997 0 0 -0.00552976
4 1 0.6569 0.9505 0.922722 0 0 -0.644882
5 1 0.351306 0.158631 0.802845 0 0 -0.0754058
6 1 0.109093 0.0405723 0.907141 0 0 0.111706
7 1 0.799758 0.248911 0.781999 0 0 -0.0529182
8 1 0.87206 0.207244 0.407003 0 0 -6.31809e-05
9 1 0.0420531 0.0336323 0.677818 0 0 -0.00887835
10 1 0.732826 0.241965 0.552827 0 0 6.33001e-05
11 1 0.805128 0.200298 0.177831 0 0 0.052918
12 1 0.562833 0.0822441 0.282012 0 0 0.00887835
13 1 0.25358 0.290578 0.156985 0 0 0.0754056
14 1 0.423596 0.116965 0.427832 0 0 -0.000778079
15 1 0.947986 0.49871 0.037108 0 0 0.644883
16 1 0.495793 0.408637 0.052689 0 0 -0.111707
17 1 0.490523 0.457245 0.656997 0 0 -0.00552988
18 1 0.6569 0.283833 0.922722 0 0 -0.644882
19 1 0.351306 0.491965 0.802845 0 0 -0.0754055
20 1 0.109093 0.373906 0.907141 0 0 0.111706
21 1 0.799758 0.582245 0.781999 0 0 -0.0529188
22 1 0.18129 0.332245 0.531998 0 0 0.000778437
23 1 0.87206 0.540578 0.407003 0 0 -6.31809e-05
24 1 0.0420531 0.366966 0.677818 0 0 -0.00887811
25 1 0.732826 0.575299 0.552827 0 0 6.30617e-05
26 1 0.114363 0.325298 0.302833 0 0 0.00552976
27 1 0.805128 0.533632 0.177831 0 0 0.0529172
28 1 0.562833 0.415577 0.282012 0 0 0.00887823
29 1 0.25358 0.623912 0.156985 0 0 0.0754052
30 1 0.423596 0.450298 0.427832 0 0 -0.000778198
31 1 0.947986 0.832043 0.037108 0 0 0.644883
32 1 0.495793 0.741971 0.052689 0 0 -0.111706
33 1 0.490523 0.790578 0.656997 0 0 -0.00552952
34 1 0.6569 0.617167 0.922722 0 0 -0.644883
35 1 0.351306 0.825298 0.802845 0 0 -0.0754054
36 1 0.109093 0.707239 0.907141 0 0 0.111706
37 1 0.799758 0.915578 0.781999 0 0 -0.0529187
38 1 0.18129 0.665578 0.531998 0 0 0.000778198
39 1 0.87206 0.873911 0.407003 0 0 -6.24657e-05
40 1 0.0420531 0.700299 0.677818 0 0 -0.00887775
41 1 0.732826 0.908632 0.552827 0 0 6.23465e-05
42 1 0.114363 0.658632 0.302833 0 0 0.00552976
43 1 0.805128 0.866965 0.177831 0 0 0.052918
44 1 0.562833 0.748911 0.282012 0 0 0.00887859
45 1 0.25358 0.957245 0.156985 0 0 0.0754055
46 1 0.423596 0.783632 0.427832 0 0 -0.000777721
47 1 0.18129 0.998911 0.531998 0 0 0.000778079
48 1 0.114363 0.991965 0.302833 0 0 0.00552976
ITEM: TIMESTEP
2
ITEM: NUMBER OF ATOMS
48
ITEM: BOX BOUNDS xy xz yz pp pp pp
-4.2594199776649475e+00 8.6109705567359924e+00 2.5110912919044495e+00
-1.0506033897399902e-02 9.6185076832771301e+00 -4.2448631525039673e+00
-2.6944518089294434e-02 1.9544072151184082e+01 3.6519104242324829e-01
ITEM: ATOMS id type xs ys zs fx fy fz
1 1 0.951616 0.165175 0.0422176 0 0 0.0135177
2 1 0.495164 0.0753389 0.0518039 0 0 -0.125761
3 1 0.490492 0.123913 0.656954 0 0 -0.0145171
4 1 0.65327 0.950701 0.917613 0 0 -0.0135175
5 1 0.350882 0.158655 0.802248 0 0 -0.138984
6 1 0.109721 0.0405375 0.908026 0 0 0.125761
7 1 0.79946 0.248928 0.781579 0 0 -0.0963064
8 1 0.872059 0.207244 0.407002 0 0 0.00116527
9 1 0.0420031 0.0336351 0.677748 0 0 -0.0198518
10 1 0.732826 0.241965 0.552828 0 0 -0.00116539
11 1 0.805426 0.200282 0.178251 0 0 0.0963066
12 1 0.562883 0.0822413 0.282083 0 0 0.0198518
13 1 0.254004 0.290555 0.157582 0 0 0.138984
14 1 0.423592 0.116965 0.427826 0 0 0.0012399
15 1 0.951616 0.498508 0.0422176 0 0 0.0135174
16 1 0.495164 0.408672 0.0518039 0 0 -0.125761
17 1 0.490492 0.457246 0.656954 0 0 -0.0145173
18 1 0.65327 0.284035 0.917613 0 0 -0.0135176
19 1 0.350882 0.491988 0.802248 0 0 -0.138984
20 1 0.109721 0.373871 0.908026 0 0 0.125761
21 1 0.79946 0.582261 0.781579 0 0 -0.0963064
22 1 0.181294 0.332244 0.532004 0 0 -0.00123942
23 1 0.872059 0.540578 0.407002 0 0 0.00116527
24 1 0.0420031 0.366968 0.677748 0 0 -0.0198518
25 1 0.732826 0.575299 0.552828 0 0 -0.00116539
26 1 0.114394 0.325297 0.302877 0 0 0.0145167
27 1 0.805426 0.533615 0.178251 0 0 0.0963067
28 1 0.562883 0.415575 0.282083 0 0 0.0198517
29 1 0.254004 0.623888 0.157582 0 0 0.138984
30 1 0.423592 0.450299 0.427826 0 0 0.0012399
31 1 0.951616 0.831842 0.0422176 0 0 0.0135174
32 1 0.495164 0.742006 0.0518039 0 0 -0.125761
33 1 0.490492 0.79058 0.656954 0 0 -0.0145175
34 1 0.65327 0.617368 0.917613 0 0 -0.0135174
35 1 0.350882 0.825321 0.802248 0 0 -0.138984
36 1 0.109721 0.707204 0.908026 0 0 0.125761
37 1 0.79946 0.915595 0.781579 0 0 -0.0963067
38 1 0.181294 0.665578 0.532004 0 0 -0.00123954
39 1 0.872059 0.873911 0.407002 0 0 0.00116551
40 1 0.0420031 0.700302 0.677748 0 0 -0.0198514
41 1 0.732826 0.908632 0.552828 0 0 -0.00116575
42 1 0.114394 0.65863 0.302877 0 0 0.0145172
43 1 0.805426 0.866949 0.178251 0 0 0.0963064
44 1 0.562883 0.748908 0.282083 0 0 0.0198518
45 1 0.254004 0.957222 0.157582 0 0 0.138984
46 1 0.423592 0.783632 0.427826 0 0 0.00123954
47 1 0.181294 0.998911 0.532004 0 0 -0.00123954
48 1 0.114394 0.991963 0.302877 0 0 0.0145175
ITEM: TIMESTEP
3
ITEM: NUMBER OF ATOMS
48
ITEM: BOX BOUNDS xy xz yz pp pp pp
-4.2594199776649475e+00 8.6109705567359924e+00 2.5110912919044495e+00
-1.0506033897399902e-02 9.6185076832771301e+00 -4.2448631525039673e+00
-2.6944518089294434e-02 1.9544072151184082e+01 3.6519104242324829e-01
ITEM: ATOMS id type xs ys zs fx fy fz
1 1 0.951929 0.165158 0.0426591 0 0 0.0796058
2 1 0.493446 0.0754343 0.049385 0 0 0.0141544
3 1 0.490295 0.123924 0.656676 0 0 -0.051952
4 1 0.652956 0.950719 0.917171 0 0 -0.0796059
5 1 0.348992 0.15876 0.799589 0 0 0.0107028
6 1 0.11144 0.0404421 0.910445 0 0 -0.0141548
7 1 0.798151 0.249001 0.779736 0 0 0.0156469
8 1 0.872075 0.207244 0.407025 0 0 0.0109789
9 1 0.0417336 0.03365 0.677368 0 0 -0.0537428
10 1 0.732811 0.241966 0.552806 0 0 -0.0109786
11 1 0.806735 0.200209 0.180094 0 0 -0.0156467
12 1 0.563152 0.0822263 0.282462 0 0 0.0537428
13 1 0.255893 0.29045 0.160242 0 0 -0.0107027
14 1 0.423608 0.116964 0.427849 0 0 0.0125535
15 1 0.951929 0.498491 0.0426591 0 0 0.0796064
16 1 0.493446 0.408768 0.049385 0 0 0.0141544
17 1 0.490295 0.457257 0.656676 0 0 -0.0519515
18 1 0.652956 0.284052 0.917171 0 0 -0.0796057
19 1 0.348992 0.492093 0.799589 0 0 0.0107031
20 1 0.11144 0.373775 0.910445 0 0 -0.014155
21 1 0.798151 0.582334 0.779736 0 0 0.0156467
22 1 0.181278 0.332245 0.531981 0 0 -0.0125538
23 1 0.872075 0.540577 0.407025 0 0 0.0109789
24 1 0.0417336 0.366983 0.677368 0 0 -0.0537426
25 1 0.732811 0.575299 0.552806 0 0 -0.0109788
26 1 0.114591 0.325286 0.303154 0 0 0.0519519
27 1 0.806735 0.533543 0.180094 0 0 -0.0156469
28 1 0.563152 0.41556 0.282462 0 0 0.0537426
29 1 0.255893 0.623783 0.160242 0 0 -0.0107026
30 1 0.423608 0.450298 0.427849 0 0 0.0125532
31 1 0.951929 0.831824 0.0426591 0 0 0.0796062
32 1 0.493446 0.742101 0.049385 0 0 0.0141547
33 1 0.490295 0.790591 0.656676 0 0 -0.0519514
34 1 0.652956 0.617385 0.917171 0 0 -0.0796063
35 1 0.348992 0.825426 0.799589 0 0 0.0107028
36 1 0.11144 0.707109 0.910445 0 0 -0.0141547
37 1 0.798151 0.915667 0.779736 0 0 0.0156468
38 1 0.181278 0.665579 0.531981 0 0 -0.0125532
39 1 0.872075 0.87391 0.407025 0 0 0.0109787
40 1 0.0417336 0.700317 0.677368 0 0 -0.0537428
41 1 0.732811 0.908633 0.552806 0 0 -0.0109787
42 1 0.114591 0.658619 0.303154 0 0 0.0519514
43 1 0.806735 0.866876 0.180094 0 0 -0.0156467
44 1 0.563152 0.748893 0.282462 0 0 0.0537426
45 1 0.255893 0.957117 0.160242 0 0 -0.0107028
46 1 0.423608 0.783631 0.427849 0 0 0.0125533
47 1 0.181278 0.998912 0.531981 0 0 -0.0125535
48 1 0.114591 0.991952 0.303154 0 0 0.0519515
ITEM: TIMESTEP
4
ITEM: NUMBER OF ATOMS
48
ITEM: BOX BOUNDS xy xz yz pp pp pp
-4.2594199776649475e+00 8.6109705567359924e+00 2.5110912919044495e+00
-1.0506033897399902e-02 9.6185076832771301e+00 -4.2448631525039673e+00
-2.6944518089294434e-02 1.9544072151184082e+01 3.6519104242324829e-01
ITEM: ATOMS id type xs ys zs fx fy fz
1 1 0.952845 0.165107 0.0439476 0 0 -0.0410488
2 1 0.493162 0.07545 0.048985 0 0 0.0220921
3 1 0.4897 0.123957 0.655838 0 0 -0.0224851
4 1 0.652041 0.950769 0.915883 0 0 0.0410486
5 1 0.348629 0.15878 0.799077 0 0 -0.00633717
6 1 0.111724 0.0404263 0.910845 0 0 -0.022092
7 1 0.797985 0.24901 0.779504 0 0 -0.0106505
8 1 0.872194 0.207237 0.407193 0 0 0.0166781
9 1 0.041101 0.0336851 0.676478 0 0 -0.0220413
10 1 0.732691 0.241973 0.552638 0 0 -0.016678
11 1 0.806901 0.2002 0.180327 0 0 0.0106504
12 1 0.563785 0.0821912 0.283352 0 0 0.0220413
13 1 0.256257 0.29043 0.160753 0 0 0.00633752
14 1 0.423744 0.116957 0.428041 0 0 0.0185715
15 1 0.952845 0.49844 0.0439476 0 0 -0.041049
16 1 0.493162 0.408783 0.048985 0 0 0.0220921
17 1 0.4897 0.45729 0.655838 0 0 -0.0224851
18 1 0.652041 0.284103 0.915883 0 0 0.0410489
19 1 0.348629 0.492113 0.799077 0 0 -0.00633705
20 1 0.111724 0.37376 0.910845 0 0 -0.0220921
21 1 0.797985 0.582343 0.779504 0 0 -0.0106508
22 1 0.181142 0.332253 0.531789 0 0 -0.0185719
23 1 0.872194 0.54057 0.407193 0 0 0.0166781
24 1 0.041101 0.367018 0.676478 0 0 -0.0220412
25 1 0.732691 0.575306 0.552638 0 0 -0.0166782
26 1 0.115186 0.325253 0.303992 0 0 0.0224855
27 1 0.806901 0.533533 0.180327 0 0 0.0106502
28 1 0.563785 0.415525 0.283352 0 0 0.0220414
29 1 0.256257 0.623763 0.160753 0 0 0.00633729
30 1 0.423744 0.45029 0.428041 0 0 0.0185715
31 1 0.952845 0.831774 0.0439476 0 0 -0.0410488
32 1 0.493162 0.742117 0.048985 0 0 0.022092
33 1 0.4897 0.790624 0.655838 0 0 -0.0224851
34 1 0.652041 0.617436 0.915883 0 0 0.041049
35 1 0.348629 0.825446 0.799077 0 0 -0.00633729
36 1 0.111724 0.707093 0.910845 0 0 -0.0220921
37 1 0.797985 0.915676 0.779504 0 0 -0.0106506
38 1 0.181142 0.665586 0.531789 0 0 -0.0185719
39 1 0.872194 0.873904 0.407193 0 0 0.0166781
40 1 0.0411011 0.700352 0.676478 0 0 -0.0220411
41 1 0.732691 0.908639 0.552638 0 0 -0.016678
42 1 0.115186 0.658586 0.303992 0 0 0.0224856
43 1 0.806901 0.866867 0.180327 0 0 0.0106503
44 1 0.563785 0.748858 0.283352 0 0 0.0220412
45 1 0.256257 0.957097 0.160753 0 0 0.0063374
46 1 0.423744 0.783623 0.428041 0 0 0.0185721
47 1 0.181142 0.99892 0.531789 0 0 -0.0185721
48 1 0.115186 0.991919 0.303992 0 0 0.0224849
ITEM: TIMESTEP
5
ITEM: NUMBER OF ATOMS
48
ITEM: BOX BOUNDS xy xz yz pp pp pp
-4.2594199776649475e+00 8.6109705567359924e+00 2.5110912919044495e+00
-1.0506033897399902e-02 9.6185076832771301e+00 -4.2448631525039673e+00
-2.6944518089294434e-02 1.9544072151184082e+01 3.6519104242324829e-01
ITEM: ATOMS id type xs ys zs fx fy fz
1 1 0.952647 0.165118 0.0436692 0 0 0.000457048
2 1 0.493387 0.0754375 0.0493024 0 0 0.0203692
3 1 0.488965 0.123998 0.654804 0 0 0.00620782
4 1 0.652239 0.950758 0.916161 0 0 -0.00045681
5 1 0.34831 0.158797 0.798628 0 0 -0.00537992
6 1 0.111499 0.0404388 0.910528 0 0 -0.0203692
7 1 0.797704 0.249025 0.779108 0 0 -0.0130823
8 1 0.872555 0.207217 0.4077 0 0 0.00105262
9 1 0.0403531 0.0337266 0.675425 0 0 0.00955164
10 1 0.732331 0.241993 0.55213 0 0 -0.00105345
11 1 0.807182 0.200184 0.180723 0 0 0.0130821
12 1 0.564533 0.0821497 0.284405 0 0 -0.009552
13 1 0.256576 0.290412 0.161202 0 0 0.00537908
14 1 0.424148 0.116934 0.428609 0 0 0.0025543
15 1 0.952647 0.498451 0.0436692 0 0 0.000456572
16 1 0.493387 0.408771 0.0493024 0 0 0.0203694
17 1 0.488965 0.457331 0.654804 0 0 0.00620782
18 1 0.652239 0.284092 0.916161 0 0 -0.000456929
19 1 0.34831 0.492131 0.798628 0 0 -0.00537992
20 1 0.111499 0.373772 0.910528 0 0 -0.0203689
21 1 0.797704 0.582359 0.779108 0 0 -0.013082
22 1 0.180738 0.332275 0.531221 0 0 -0.00255406
23 1 0.872555 0.54055 0.4077 0 0 0.00105286
24 1 0.0403531 0.36706 0.675425 0 0 0.00955176
25 1 0.732331 0.575326 0.55213 0 0 -0.00105274
26 1 0.115921 0.325212 0.305026 0 0 -0.00620759
27 1 0.807182 0.533518 0.180723 0 0 0.0130825
28 1 0.564533 0.415483 0.284405 0 0 -0.00955129
29 1 0.256576 0.623746 0.161202 0 0 0.00537932
30 1 0.424148 0.450268 0.428609 0 0 0.00255442
31 1 0.952647 0.831785 0.0436692 0 0 0.000456572
32 1 0.493387 0.742104 0.0493024 0 0 0.0203695
33 1 0.488965 0.790664 0.654804 0 0 0.0062077
34 1 0.652239 0.617425 0.916161 0 0 -0.000456929
35 1 0.34831 0.825464 0.798628 0 0 -0.00537956
36 1 0.111499 0.707106 0.910528 0 0 -0.0203694
37 1 0.797704 0.915692 0.779108 0 0 -0.013082
38 1 0.180738 0.665609 0.531221 0 0 -0.0025543
39 1 0.872555 0.873884 0.4077 0 0 0.00105298
40 1 0.0403532 0.700393 0.675425 0 0 0.00955141
41 1 0.73233 0.908659 0.55213 0 0 -0.00105286
42 1 0.115921 0.658545 0.305026 0 0 -0.00620806
43 1 0.807182 0.866851 0.180723 0 0 0.0130824
44 1 0.564533 0.748816 0.284405 0 0 -0.00955105
45 1 0.256576 0.957079 0.161202 0 0 0.00537944
46 1 0.424148 0.783601 0.428609 0 0 0.00255418
47 1 0.180738 0.998942 0.531221 0 0 -0.00255394
48 1 0.115921 0.991879 0.305026 0 0 -0.00620747
ITEM: TIMESTEP
6
ITEM: NUMBER OF ATOMS
48
ITEM: BOX BOUNDS xy xz yz pp pp pp
-4.2594199776649475e+00 8.6109705567359924e+00 2.5110912919044495e+00
-1.0506033897399902e-02 9.6185076832771301e+00 -4.2448631525039673e+00
-2.6944518089294434e-02 1.9544072151184082e+01 3.6519104242324829e-01
ITEM: ATOMS id type xs ys zs fx fy fz
1 1 0.952635 0.165119 0.0436523 0 0 0.00470519
2 1 0.493721 0.075419 0.0497724 0 0 0.0045718
3 1 0.48899 0.123996 0.654839 0 0 -0.00412774
4 1 0.652251 0.950758 0.916178 0 0 -0.00470579
5 1 0.348197 0.158804 0.798469 0 0 0.0024519
6 1 0.111165 0.0404574 0.910058 0 0 -0.00457156
7 1 0.797476 0.249038 0.778787 0 0 0.000570178
8 1 0.872606 0.207214 0.407772 0 0 -0.00629973
9 1 0.0404278 0.0337225 0.67553 0 0 -0.00344849
10 1 0.73228 0.241996 0.552058 0 0 0.00630009
11 1 0.807409 0.200172 0.181043 0 0 -0.000570297
12 1 0.564458 0.0821539 0.2843 0 0 0.00344849
13 1 0.256689 0.290406 0.161361 0 0 -0.00245166
14 1 0.424226 0.11693 0.428719 0 0 -0.00600827
15 1 0.952635 0.498452 0.0436523 0 0 0.00470603
16 1 0.493721 0.408752 0.0497724 0 0 0.00457156
17 1 0.48899 0.45733 0.654839 0 0 -0.00412774
18 1 0.652251 0.284091 0.916178 0 0 -0.00470555
19 1 0.348197 0.492137 0.798469 0 0 0.00245166
20 1 0.111165 0.373791 0.910058 0 0 -0.00457168
21 1 0.797476 0.582371 0.778787 0 0 0.000570416
22 1 0.18066 0.33228 0.531112 0 0 0.00600851
23 1 0.872606 0.540547 0.407772 0 0 -0.00629985
24 1 0.0404278 0.367056 0.67553 0 0 -0.00344849
25 1 0.73228 0.575329 0.552058 0 0 0.00630021
26 1 0.115896 0.325213 0.304991 0 0 0.00412714
27 1 0.807409 0.533505 0.181043 0 0 -0.000570178
28 1 0.564458 0.415487 0.2843 0 0 0.00344765
29 1 0.256689 0.623739 0.161361 0 0 -0.00245154
30 1 0.424226 0.450263 0.428719 0 0 -0.00600839
31 1 0.952635 0.831785 0.0436523 0 0 0.00470579
32 1 0.493721 0.742086 0.0497724 0 0 0.00457132
33 1 0.48899 0.790663 0.654839 0 0 -0.00412762
34 1 0.652251 0.617425 0.916178 0 0 -0.00470567
35 1 0.348197 0.82547 0.798469 0 0 0.0024519
36 1 0.111165 0.707124 0.910058 0 0 -0.00457144
37 1 0.797476 0.915705 0.778787 0 0 0.000570536
38 1 0.18066 0.665613 0.531112 0 0 0.00600863
39 1 0.872606 0.873881 0.407772 0 0 -0.00629985
40 1 0.0404278 0.700389 0.67553 0 0 -0.00344837
41 1 0.73228 0.908662 0.552058 0 0 0.00630021
42 1 0.115896 0.658547 0.304991 0 0 0.00412762
43 1 0.807409 0.866838 0.181043 0 0 -0.000570297
44 1 0.564458 0.748821 0.2843 0 0 0.00344765
45 1 0.256689 0.957073 0.161361 0 0 -0.00245154
46 1 0.424226 0.783597 0.428719 0 0 -0.00600851
47 1 0.18066 0.998946 0.531112 0 0 0.00600827
48 1 0.115896 0.99188 0.304991 0 0 0.0041275
ITEM: TIMESTEP
7
ITEM: NUMBER OF ATOMS
48
ITEM: BOX BOUNDS xy xz yz pp pp pp
-4.2594199776649475e+00 8.6109705567359924e+00 2.5110912919044495e+00
-1.0506033897399902e-02 9.6185076832771301e+00 -4.2448631525039673e+00
-2.6944518089294434e-02 1.9544072151184082e+01 3.6519104242324829e-01
ITEM: ATOMS id type xs ys zs fx fy fz
1 1 0.952674 0.165116 0.0437071 0 0 -0.0020864
2 1 0.4938 0.0754146 0.0498835 0 0 -0.000402808
3 1 0.488957 0.123998 0.654793 0 0 -0.000915408
4 1 0.652212 0.95076 0.916123 0 0 0.002087
5 1 0.348205 0.158803 0.79848 0 0 -0.00065434
6 1 0.111086 0.0404618 0.909947 0 0 0.000403166
7 1 0.797454 0.249039 0.778756 0 0 -0.00056076
8 1 0.872558 0.207217 0.407704 0 0 -0.000600815
9 1 0.0404071 0.0337236 0.675501 0 0 -0.000812054
10 1 0.732328 0.241993 0.552126 0 0 0.000600815
11 1 0.807432 0.200171 0.181074 0 0 0.00056076
12 1 0.564479 0.0821527 0.284329 0 0 0.000812292
13 1 0.256681 0.290406 0.16135 0 0 0.00065434
14 1 0.424183 0.116932 0.428659 0 0 -0.00059092
15 1 0.952674 0.49845 0.0437071 0 0 -0.0020864
16 1 0.4938 0.408748 0.0498835 0 0 -0.000402808
17 1 0.488957 0.457332 0.654793 0 0 -0.000915527
18 1 0.652212 0.284093 0.916123 0 0 0.00208616
19 1 0.348205 0.492137 0.79848 0 0 -0.00065434
20 1 0.111086 0.373795 0.909947 0 0 0.000403047
21 1 0.797454 0.582372 0.778756 0 0 -0.00056076
22 1 0.180702 0.332277 0.531171 0 0 0.000591159
23 1 0.872558 0.54055 0.407704 0 0 -0.000601172
24 1 0.0404071 0.367057 0.675501 0 0 -0.000812054
25 1 0.732328 0.575326 0.552126 0 0 0.000600576
26 1 0.115928 0.325211 0.305037 0 0 0.000915289
27 1 0.807432 0.533504 0.181074 0 0 0.000560522
28 1 0.564479 0.415486 0.284329 0 0 0.000811934
29 1 0.256681 0.62374 0.16135 0 0 0.000654101
30 1 0.424183 0.450266 0.428659 0 0 -0.000590682
31 1 0.952674 0.831783 0.0437071 0 0 -0.00208676
32 1 0.4938 0.742081 0.0498835 0 0 -0.000403285
33 1 0.488957 0.790665 0.654793 0 0 -0.000915647
34 1 0.652212 0.617427 0.916123 0 0 0.00208688
35 1 0.348205 0.82547 0.79848 0 0 -0.000654578
36 1 0.111086 0.707128 0.909947 0 0 0.000403166
37 1 0.797454 0.915706 0.778756 0 0 -0.00056076
38 1 0.180702 0.665611 0.531171 0 0 0.000590801
39 1 0.872558 0.873883 0.407704 0 0 -0.000600696
40 1 0.0404071 0.70039 0.675501 0 0 -0.000812173
41 1 0.732328 0.90866 0.552126 0 0 0.000600696
42 1 0.115928 0.658545 0.305037 0 0 0.000915647
43 1 0.807432 0.866837 0.181074 0 0 0.00056088
44 1 0.564479 0.748819 0.284329 0 0 0.000812411
45 1 0.256681 0.957073 0.16135 0 0 0.000653982
46 1 0.424183 0.783599 0.428659 0 0 -0.000590682
47 1 0.180702 0.998944 0.531171 0 0 0.000590682
48 1 0.115928 0.991878 0.305037 0 0 0.000915527
ITEM: TIMESTEP
8
ITEM: NUMBER OF ATOMS
48
ITEM: BOX BOUNDS xy xz yz pp pp pp
-4.2594199776649475e+00 8.6109705567359924e+00 2.5110912919044495e+00
-1.0506033897399902e-02 9.6185076832771301e+00 -4.2448631525039673e+00
-2.6944518089294434e-02 1.9544072151184082e+01 3.6519104242324829e-01
ITEM: ATOMS id type xs ys zs fx fy fz
1 1 0.95266 0.165117 0.043688 0 0 0.000173211
2 1 0.4938 0.0754146 0.0498838 0 0 -4.79221e-05
3 1 0.488949 0.123999 0.654782 0 0 -0.000338197
4 1 0.652225 0.950759 0.916142 0 0 -0.00017345
5 1 0.3482 0.158804 0.798474 0 0 -0.000181794
6 1 0.111086 0.0404618 0.909946 0 0 4.79221e-05
7 1 0.797449 0.249039 0.778749 0 0 -0.000112534
8 1 0.872552 0.207217 0.407696 0 0 0.00028491
9 1 0.0404004 0.033724 0.675492 0 0 -0.000281215
10 1 0.732334 0.241993 0.552135 0 0 -0.000284553
11 1 0.807437 0.20017 0.181081 0 0 0.000112534
12 1 0.564485 0.0821524 0.284339 0 0 0.000281692
13 1 0.256685 0.290406 0.161357 0 0 0.000182152
14 1 0.424177 0.116933 0.428651 0 0 0.000293374
15 1 0.95266 0.49845 0.043688 0 0 0.000172973
16 1 0.4938 0.408748 0.0498838 0 0 -4.82798e-05
17 1 0.488949 0.457332 0.654782 0 0 -0.000338435
18 1 0.652225 0.284093 0.916142 0 0 -0.00017333
19 1 0.3482 0.492137 0.798474 0 0 -0.000181913
20 1 0.111086 0.373795 0.909946 0 0 4.8399e-05
21 1 0.797449 0.582373 0.778749 0 0 -0.000112534
22 1 0.180708 0.332277 0.531179 0 0 -0.000293493
23 1 0.872552 0.54055 0.407696 0 0 0.000284672
24 1 0.0404004 0.367057 0.675492 0 0 -0.000281692
25 1 0.732334 0.575326 0.552135 0 0 -0.000284672
26 1 0.115936 0.325211 0.305048 0 0 0.000338197
27 1 0.807437 0.533504 0.181081 0 0 0.000112772
28 1 0.564485 0.415486 0.284339 0 0 0.000281453
29 1 0.256685 0.623739 0.161357 0 0 0.000182152
30 1 0.424177 0.450266 0.428651 0 0 0.000293612
31 1 0.95266 0.831784 0.043688 0 0 0.000173688
32 1 0.4938 0.742081 0.0498838 0 0 -4.82798e-05
33 1 0.488949 0.790665 0.654782 0 0 -0.000338197
34 1 0.652225 0.617426 0.916142 0 0 -0.000173569
35 1 0.3482 0.82547 0.798474 0 0 -0.000182033
36 1 0.111086 0.707128 0.909946 0 0 4.82798e-05
37 1 0.797449 0.915706 0.778749 0 0 -0.000112891
38 1 0.180708 0.66561 0.531179 0 0 -0.000293851
39 1 0.872552 0.873884 0.407696 0 0 0.000284791
40 1 0.0404004 0.700391 0.675492 0 0 -0.000281096
41 1 0.732334 0.908659 0.552135 0 0 -0.000284672
42 1 0.115936 0.658544 0.305048 0 0 0.000338197
43 1 0.807437 0.866837 0.181081 0 0 0.000112414
44 1 0.564485 0.748819 0.284339 0 0 0.000281572
45 1 0.256685 0.957073 0.161357 0 0 0.000181913
46 1 0.424177 0.783599 0.428651 0 0 0.000293016
47 1 0.180708 0.998944 0.531179 0 0 -0.000293255
48 1 0.115936 0.991878 0.305048 0 0 0.000337958
ITEM: TIMESTEP
9
ITEM: NUMBER OF ATOMS
48
ITEM: BOX BOUNDS xy xz yz pp pp pp
-4.2594199776649475e+00 8.6109705567359924e+00 2.5110912919044495e+00
-1.0506033897399902e-02 9.6185076832771301e+00 -4.2448631525039673e+00
-2.6944518089294434e-02 1.9544072151184082e+01 3.6519104242324829e-01
ITEM: ATOMS id type xs ys zs fx fy fz
1 1 0.952662 0.165117 0.0436908 0 0 0.000162721
2 1 0.493799 0.0754147 0.0498819 0 0 0.000126481
3 1 0.488938 0.123999 0.654767 0 0 5.38826e-05
4 1 0.652223 0.950759 0.916139 0 0 -0.000162482
5 1 0.348194 0.158804 0.798465 0 0 -0.000132084
6 1 0.111087 0.0404617 0.909948 0 0 -0.000126719
7 1 0.797445 0.24904 0.778743 0 0 -0.000192046
8 1 0.872558 0.207217 0.407705 0 0 -0.000111461
9 1 0.0403911 0.0337245 0.675479 0 0 -1.00136e-05
10 1 0.732327 0.241993 0.552125 0 0 0.000111341
11 1 0.807441 0.20017 0.181087 0 0 0.000192165
12 1 0.564495 0.0821518 0.284352 0 0 9.29832e-06
13 1 0.256691 0.290406 0.161365 0 0 0.000131369
14 1 0.424184 0.116932 0.428661 0 0 -7.1764e-05
15 1 0.952662 0.49845 0.0436908 0 0 0.000163794
16 1 0.493799 0.408748 0.0498819 0 0 0.0001266
17 1 0.488938 0.457333 0.654767 0 0 5.4121e-05
18 1 0.652223 0.284093 0.916139 0 0 -0.000162482
19 1 0.348194 0.492137 0.798465 0 0 -0.000132084
20 1 0.111087 0.373795 0.909948 0 0 -0.000127077
21 1 0.797445 0.582373 0.778743 0 0 -0.000192046
22 1 0.180701 0.332277 0.53117 0 0 7.1764e-05
23 1 0.872558 0.54055 0.407705 0 0 -0.000110865
24 1 0.0403911 0.367058 0.675479 0 0 -8.9407e-06
25 1 0.732327 0.575326 0.552125 0 0 0.000111222
26 1 0.115947 0.32521 0.305064 0 0 -5.34058e-05
27 1 0.807441 0.533503 0.181087 0 0 0.00019145
28 1 0.564495 0.415485 0.284352 0 0 9.89437e-06
29 1 0.256691 0.623739 0.161365 0 0 0.000131607
30 1 0.424184 0.450266 0.428661 0 0 -7.21216e-05
31 1 0.952662 0.831784 0.0436908 0 0 0.000161767
32 1 0.493799 0.742081 0.0498819 0 0 0.000126839
33 1 0.488938 0.790666 0.654767 0 0 5.3525e-05
34 1 0.652223 0.617426 0.916139 0 0 -0.000162601
35 1 0.348194 0.825471 0.798465 0 0 -0.000131488
36 1 0.111087 0.707128 0.909948 0 0 -0.000126719
37 1 0.797445 0.915706 0.778743 0 0 -0.000191569
38 1 0.180701 0.665611 0.53117 0 0 7.236e-05
39 1 0.872558 0.873883 0.407705 0 0 -0.000111699
40 1 0.0403911 0.700391 0.675479 0 0 -1.04904e-05
41 1 0.732327 0.90866 0.552125 0 0 0.000111341
42 1 0.115947 0.658544 0.305064 0 0 -5.38826e-05
43 1 0.807441 0.866837 0.181087 0 0 0.000192523
44 1 0.564495 0.748819 0.284352 0 0 9.05991e-06
45 1 0.256691 0.957072 0.161365 0 0 0.000132084
46 1 0.424184 0.783599 0.428661 0 0 -7.12872e-05
47 1 0.180701 0.998944 0.53117 0 0 7.16448e-05
48 1 0.115947 0.991877 0.305064 0 0 -5.3525e-05
ITEM: TIMESTEP
10
ITEM: NUMBER OF ATOMS
48
ITEM: BOX BOUNDS xy xz yz pp pp pp
-4.2594199776649475e+00 8.6109705567359924e+00 2.5110912919044495e+00
-1.0506033897399902e-02 9.6185076832771301e+00 -4.2448631525039673e+00
-2.6944518089294434e-02 1.9544072151184082e+01 3.6519104242324829e-01
ITEM: ATOMS id type xs ys zs fx fy fz
1 1 0.952665 0.165117 0.0436949 0 0 -0.000129819
2 1 0.493801 0.0754146 0.0498845 0 0 4.88758e-05
3 1 0.488937 0.123999 0.654765 0 0 2.26498e-06
4 1 0.652221 0.95076 0.916135 0 0 0.000129938
5 1 0.348191 0.158804 0.798461 0 0 -3.65973e-05
6 1 0.111085 0.0404618 0.909946 0 0 -4.92334e-05
7 1 0.797441 0.24904 0.778738 0 0 -5.06639e-05
8 1 0.872558 0.207217 0.407704 0 0 2.38419e-07
9 1 0.0403895 0.0337246 0.675476 0 0 5.24521e-06
10 1 0.732328 0.241993 0.552126 0 0 -3.57628e-07
11 1 0.807444 0.20017 0.181092 0 0 5.03063e-05
12 1 0.564496 0.0821518 0.284354 0 0 -5.126e-06
13 1 0.256695 0.290406 0.161369 0 0 3.75509e-05
14 1 0.424184 0.116932 0.42866 0 0 -3.57628e-06
15 1 0.952665 0.49845 0.0436949 0 0 -0.000131369
16 1 0.493801 0.408748 0.0498845 0 0 4.94719e-05
17 1 0.488937 0.457333 0.654765 0 0 2.02656e-06
18 1 0.652221 0.284093 0.916135 0 0 0.000129819
19 1 0.348191 0.492137 0.798461 0 0 -3.68357e-05
20 1 0.111085 0.373795 0.909946 0 0 -4.92334e-05
21 1 0.797441 0.582373 0.778738 0 0 -5.07832e-05
22 1 0.180701 0.332277 0.53117 0 0 4.05312e-06
23 1 0.872558 0.54055 0.407704 0 0 0
24 1 0.0403896 0.367058 0.675476 0 0 5.126e-06
25 1 0.732328 0.575326 0.552126 0 0 -3.57628e-07
26 1 0.115948 0.32521 0.305065 0 0 -2.6226e-06
27 1 0.807444 0.533503 0.181092 0 0 5.10216e-05
28 1 0.564496 0.415485 0.284354 0 0 -5.48363e-06
29 1 0.256695 0.623739 0.161369 0 0 3.65973e-05
30 1 0.424184 0.450266 0.42866 0 0 -3.8147e-06
31 1 0.952665 0.831784 0.0436948 0 0 -0.000128865
32 1 0.493801 0.742081 0.0498845 0 0 4.93526e-05
33 1 0.488937 0.790666 0.654765 0 0 2.5034e-06
34 1 0.652221 0.617426 0.916135 0 0 0.000130892
35 1 0.348191 0.825471 0.798461 0 0 -3.73125e-05
36 1 0.111085 0.707128 0.909946 0 0 -4.93526e-05
37 1 0.797441 0.915707 0.778738 0 0 -5.04255e-05
38 1 0.180701 0.665611 0.53117 0 0 4.17233e-06
39 1 0.872558 0.873883 0.407704 0 0 2.38419e-07
40 1 0.0403896 0.700391 0.675476 0 0 5.126e-06
41 1 0.732328 0.90866 0.552126 0 0 -5.96046e-07
42 1 0.115948 0.658544 0.305065 0 0 -1.90735e-06
43 1 0.807444 0.866836 0.181092 0 0 5.01871e-05
44 1 0.564496 0.748818 0.284354 0 0 -5.00679e-06
45 1 0.256695 0.957072 0.161369 0 0 3.6478e-05
46 1 0.424184 0.783599 0.42866 0 0 -4.05312e-06
47 1 0.180701 0.998944 0.53117 0 0 3.69549e-06
48 1 0.115948 0.991877 0.305065 0 0 -1.78814e-06
ITEM: TIMESTEP
11
ITEM: NUMBER OF ATOMS
48
ITEM: BOX BOUNDS xy xz yz pp pp pp
-4.2594199776649475e+00 8.6109705567359924e+00 2.5110912919044495e+00
-1.0506033897399902e-02 9.6185076832771301e+00 -4.2448631525039673e+00
-2.6944518089294434e-02 1.9544072151184082e+01 3.6519104242324829e-01
ITEM: ATOMS id type xs ys zs fx fy fz
1 1 0.952664 0.165117 0.0436938 0 0 6.19888e-06
2 1 0.493801 0.0754146 0.0498853 0 0 4.39882e-05
3 1 0.488937 0.123999 0.654765 0 0 -1.62125e-05
4 1 0.652221 0.950759 0.916136 0 0 -6.07967e-06
5 1 0.348191 0.158804 0.79846 0 0 2.16961e-05
6 1 0.111084 0.0404618 0.909945 0 0 -4.44651e-05
7 1 0.79744 0.24904 0.778737 0 0 1.26362e-05
8 1 0.872558 0.207217 0.407704 0 0 1.12057e-05
9 1 0.0403894 0.0337246 0.675476 0 0 -6.07967e-06
10 1 0.732328 0.241993 0.552126 0 0 -1.16825e-05
11 1 0.807445 0.20017 0.181093 0 0 -1.19209e-05
12 1 0.564496 0.0821518 0.284354 0 0 6.07967e-06
13 1 0.256695 0.290406 0.16137 0 0 -2.18153e-05
14 1 0.424184 0.116932 0.42866 0 0 6.67572e-06
15 1 0.952664 0.49845 0.0436938 0 0 6.31809e-06
16 1 0.493801 0.408748 0.0498853 0 0 4.43459e-05
17 1 0.488937 0.457333 0.654765 0 0 -1.58548e-05
18 1 0.652221 0.284093 0.916136 0 0 -6.31809e-06
19 1 0.348191 0.492137 0.79846 0 0 2.19345e-05
20 1 0.111084 0.373795 0.909945 0 0 -4.45843e-05
21 1 0.79744 0.582373 0.778737 0 0 1.23978e-05
22 1 0.180701 0.332277 0.53117 0 0 -6.31809e-06
23 1 0.872558 0.54055 0.407704 0 0 1.12057e-05
24 1 0.0403894 0.367058 0.675476 0 0 -6.55651e-06
25 1 0.732328 0.575326 0.552126 0 0 -1.13249e-05