LAMMPS (4 May 2022)
clear
units 	metal
dimension	3
boundary	p	p    p
atom_style	atomic
box         tilt large
read_data   input.dat
Reading data file ...
  triclinic box = (0 0 0) to (6.0853224 9.2428106 19.517128) with tilt (2.5049497 -1.459663 0)
  1 by 1 by 1 MPI processor grid
  reading atoms ...
  48 atoms
  read_data CPU = 0.000 seconds
mass            1 24.305
mass            2 65.409
mass            3 88.906
neigh_modify    every 1 delay 0 check no
pair_style deepmd model.pb
Summary of lammps deepmd module ...
  >>> Info of deepmd-kit:
  installed to:       /home/mph/WorkSpace/deepmd-kit/smooth/ws-install/nvnmd/dp-2.1.0/bin
  source:             v2.1.4-40-g112f3b1-dirty
  source branch:       devel
  source commit:      112f3b1
  source commit at:   2022-09-23 14:42:32 +0800
  surpport model ver.:1.1 
  build float prec:   double
  build variant:      cpu
  build with tf inc:  /home/mph/.conda/envs/dp-2.1.0/include;/home/mph/.conda/envs/dp-2.1.0/include
  build with tf lib:  /home/mph/.conda/envs/dp-2.1.0/lib/libtensorflow_cc.so;/home/mph/.conda/envs/dp-2.1.0/lib/libtensorflow_framework.so
  set tf intra_op_parallelism_threads: 0
  set tf inter_op_parallelism_threads: 0
  >>> Info of lammps module:
  use deepmd-kit at:  /home/mph/WorkSpace/deepmd-kit/smooth/ws-install/nvnmd/dp-2.1.0/bin
  source:             v2.1.4-39-gbeadfeb-dirty
  source branch:      devel
  source commit:      beadfeb
  source commit at:   2022-09-16 15:20:44 +0800
  build float prec:   double
  build with tf inc:  /home/mph/.conda/envs/dp-2.1.0/include;/home/mph/.conda/envs/dp-2.1.0/include
  build with tf lib:  /home/mph/.conda/envs/dp-2.1.0/lib/libtensorflow_cc.so;/home/mph/.conda/envs/dp-2.1.0/lib/libtensorflow_framework.so
pair_coeff * *
change_box  all triclinic
Changing box ...
  triclinic box = (0 0 0) to (6.0853224 9.2428106 19.517128) with tilt (2.5049497 -1.459663 0)
compute         mype all pe
# thermo          100
thermo          1
thermo_style    custom step pe pxx pyy pzz pxy pxz pyz lx ly lz vol c_mype
# dump            1 all custom 100 dump.relax id type xs ys zs fx fy fz
dump            1 all custom 1 dump.relax id type xs ys zs fx fy fz
min_style       cg
fix             1 all box/relax iso 0.0
minimize        1.000000e-12 1.000000e-06 5000 500000

CITE-CITE-CITE-CITE-CITE-CITE-CITE-CITE-CITE-CITE-CITE-CITE-CITE

Your simulation uses code contributions which should be cited:

- USER-DEEPMD package:

@article{Wang_ComputPhysCommun_2018_v228_p178,
  author = {Wang, Han and Zhang, Linfeng and Han, Jiequn and E, Weinan},
  doi = {10.1016/j.cpc.2018.03.016},
  url = {https://doi.org/10.1016/j.cpc.2018.03.016},
  year = 2018,
  month = {jul},
  publisher = {Elsevier {BV}},
  volume = 228,
  journal = {Comput. Phys. Commun.},
  title = {{DeePMD-kit: A deep learning package for many-body potential energy representation and molecular dynamics}},
  pages = {178--184}
}

CITE-CITE-CITE-CITE-CITE-CITE-CITE-CITE-CITE-CITE-CITE-CITE-CITE

WARNING: Using 'neigh_modify every 1 delay 0 check yes' setting during minimization (../min.cpp:187)
Generated 0 of 3 mixed pair_coeff terms from geometric mixing rule
Neighbor list info ...
  update every 1 steps, delay 0 steps, check yes
  max neighbors/atom: 2000, page size: 100000
  master list distance cutoff = 8
  ghost atom cutoff = 8
  binsize = 4, bins = 3 3 5
  1 neighbor lists, perpetual/occasional/extra = 1 0 0
  (1) pair deepmd, perpetual
      attributes: full, newton on
      pair build: full/bin/atomonly
      stencil: full/bin/3d
      bin: standard
Per MPI rank memory allocation (min/avg/max) = 5.465 | 5.465 | 5.465 Mbytes
   Step         PotEng          Pxx            Pyy            Pzz            Pxy            Pxz            Pyz             Lx             Ly             Lz           Volume         c_mype    
         0  -71.700695      4227.6283      3198.8814      3891.3976      83.804246      1112.3771      3440.6473      6.0853224      9.2428106      19.517128      1097.7503     -71.700695    
         1  -71.701459      4115.1661      3079.096       3773.2573      81.810001      1107.9061      3441.4505      6.085931       9.2437348      19.519079      1098.0796     -71.701459    
         2  -71.702199      4002.8469      2959.4422      3655.2507      79.809724      1103.4184      3442.231       6.0865396      9.2446591      19.521031      1098.409      -71.702199    
         3  -71.702916      3890.6709      2839.9199      3537.3779      77.80226       1098.9142      3442.9888      6.0871481      9.2455833      19.522983      1098.7385     -71.702916    
         4  -71.703609      3778.6382      2720.5292      3419.6391      75.786445      1094.3935      3443.7238      6.0877567      9.2465075      19.524934      1099.0681     -71.703609    
         5  -71.704278      3666.7484      2601.2709      3302.0343      73.76479       1089.8561      3444.4361      6.0883653      9.2474318      19.526886      1099.3977     -71.704278    
         6  -71.704924      3555.0014      2482.1449      3184.564       71.736288      1085.3035      3445.1255      6.0889738      9.248356       19.528838      1099.7274     -71.704924    
         7  -71.705546      3443.3975      2363.1514      3067.2281      69.699698      1080.735       3445.7919      6.0895824      9.2492802      19.530789      1100.0571     -71.705546    
         8  -71.706144      3331.9361      2244.2911      2950.0269      67.657604      1076.1512      3446.4355      6.0901909      9.2502044      19.532741      1100.387      -71.706144    
         9  -71.706718      3220.6176      2125.5637      2832.9604      65.607591      1071.5519      3447.0561      6.0907995      9.2511287      19.534693      1100.7168     -71.706718    
        10  -71.707269      3109.4415      2006.97        2716.0289      63.552235      1066.9378      3447.6537      6.0914081      9.2520529      19.536645      1101.0468     -71.707269    
        11  -71.707796      2998.4079      1888.51        2599.2325      61.490371      1062.3088      3448.2283      6.0920166      9.2529771      19.538596      1101.3768     -71.707796    
        12  -71.708299      2887.5169      1770.1838      2482.5711      59.420826      1057.665       3448.7797      6.0926252      9.2539014      19.540548      1101.7069     -71.708299    
        13  -71.708779      2776.7681      1651.992       2366.0452      57.346166      1053.0069      3449.308       6.0932338      9.2548256      19.5425        1102.037      -71.708779    
        14  -71.709235      2666.1617      1533.9347      2249.6546      55.265145      1048.334       3449.813       6.0938423      9.2557498      19.544451      1102.3673     -71.709235    
        15  -71.709668      2555.6976      1416.012       2133.3996      53.176729      1043.6476      3450.2947      6.0944509      9.2566741      19.546403      1102.6975     -71.709668    
        16  -71.710077      2445.3754      1298.2246      2017.2804      51.083397      1038.9477      3450.7531      6.0950595      9.2575983      19.548355      1103.0279     -71.710077    
        17  -71.710463      2335.1954      1180.5723      1901.2969      48.982712      1034.2341      3451.1881      6.095668       9.2585225      19.550306      1103.3583     -71.710463    
        18  -71.710826      2225.1573      1063.0557      1785.4494      46.877209      1029.5074      3451.5995      6.0962766      9.2594467      19.552258      1103.6888     -71.710826    
        19  -71.711164      2115.2611      945.675        1669.7379      44.765684      1024.7677      3451.9873      6.0968851      9.260371       19.55421       1104.0193     -71.711164    
        20  -71.71148       2005.5069      828.43013      1554.1622      42.646917      1020.0152      3452.3513      6.0974937      9.2612952      19.556162      1104.3499     -71.71148     
        21  -71.711772      1895.8943      711.32184      1438.7227      40.5234        1015.2503      3452.6914      6.0981023      9.2622194      19.558113      1104.6806     -71.711772    
        22  -71.712041      1786.4235      594.3501       1323.419       38.393807      1010.4726      3453.0074      6.0987108      9.2631437      19.560065      1105.0113     -71.712041    
        23  -71.712287      1677.0945      477.51508      1208.2514      36.256999      1005.6837      3453.2989      6.0993194      9.2640679      19.562017      1105.3421     -71.712287    
        24  -71.712509      1567.907       360.81742      1093.2197      34.115299      1000.8835      3453.5658      6.099928       9.2649921      19.563968      1105.673      -71.712509    
        25  -71.712709      1458.8611      244.25696      978.32353      31.966081      996.07207      3453.8075      6.1005365      9.2659163      19.56592       1106.004      -71.712709    
        26  -71.712885      1349.9568      127.83443      863.56264      29.811588      991.25037      3454.0235      6.1011451      9.2668406      19.567872      1106.335      -71.712885    
        27  -71.713038      1241.194       11.549884      748.93634      27.650206      986.41887      3454.2128      6.1017537      9.2677648      19.569823      1106.666      -71.713038    
        28  -71.713169      1132.573      -104.59658      634.44359      25.480077      981.57834      3454.3741      6.1023622      9.268689       19.571775      1106.9972     -71.713169    
        29  -71.713278      1024.0936     -220.60415      520.08278      23.302629      976.73044      3454.5054      6.1029708      9.2696133      19.573727      1107.3284     -71.713278    
        30  -71.713364      915.75622     -336.47261      405.85067      21.114703      971.87727      3454.6028      6.1035793      9.2705375      19.575678      1107.6596     -71.713364    
        31  -71.713429      807.5618      -452.2016       291.74046      18.910993      967.02237      3454.6585      6.1041879      9.2714617      19.57763       1107.991      -71.713429    
        32  -71.713476      699.51163     -567.78923      177.73551      16.683734      962.17837      3454.6531      6.1047965      9.272386       19.579582      1108.3224     -71.713476    
        33  -71.713515      591.614       -683.23118      63.761979      14.385743      957.39044      3454.5019      6.105405       9.2733102      19.581534      1108.6538     -71.713515    
        34  -71.714115      700.00879     -567.48882      173.20394      13.916724      965.02675      3449.419       6.1047965      9.272386       19.579582      1108.3224     -71.714115    
        35  -71.714179      592.123       -682.92422      59.054541      11.511767      960.34111      3449.0698      6.105405       9.2733102      19.581534      1108.6538     -71.714179    
        36  -71.714699      700.43411     -567.19756      169.06183      11.366168      967.6437       3444.5744      6.1047965      9.272386       19.579582      1108.3224     -71.714699    
        37  -71.714763      592.54158     -682.63625      54.902804      8.9552754      962.95728      3444.217       6.105405       9.2733102      19.581534      1108.6538     -71.714763    
        38  -71.715228      700.79503     -566.91866      165.29913      9.0310857      970.03165      3440.1222      6.1047965      9.272386       19.579582      1108.3224     -71.715228    
        39  -71.715292      592.89568     -682.36065      51.136188      6.6177183      965.34141      3439.7628      6.105405       9.2733102      19.581534      1108.6538     -71.715292    
        40  -71.715715      701.1062      -566.64915      161.82647      6.8599966      972.24399      3435.9684      6.1047965      9.272386       19.579582      1108.3224     -71.715715    
        41  -71.715779      593.20039     -682.09421      47.660018      4.4443571      967.55007      3435.6072      6.105405       9.2733102      19.581534      1108.6538     -71.715779    
        42  -71.71617       701.37763     -566.3871       158.58196      4.8169564      974.31808      3432.0474      6.1047965      9.272386       19.579582      1108.3224     -71.71617     
        43  -71.716234      593.46567     -681.83501      44.41212       2.3991015      969.62069      3431.6844      6.105405       9.2733102      19.581534      1108.6538     -71.716234    
        44  -71.716598      701.61598     -566.1304       155.52265      2.8774507      976.27912      3428.3142      6.1047965      9.272386       19.579582      1108.3224     -71.716598    
        45  -71.716662      593.69807     -681.58095      41.349454      0.45735618     971.57846      3427.9492      6.105405       9.2733102      19.581534      1108.6538     -71.716662    
        46  -71.717004      701.82621     -565.87811      152.6183       1.0240294      978.14533      3424.737       6.1047965      9.272386       19.579582      1108.3224     -71.717004    
        47  -71.717068      593.90258     -681.33118      38.441795     -1.3983109      973.44161      3424.3698      6.105405       9.2733102      19.581534      1108.6538     -71.717068    
        48  -71.717392      702.01218     -565.62966      149.84535     -0.75715807     979.93115      3421.2906      6.1047965      9.272386       19.579582      1108.3224     -71.717392    
        49  -71.717456      594.08298     -681.08512      35.665538     -3.1817577      975.22451      3420.9211      6.105405       9.2733102      19.581534      1108.6538     -71.717456    
        50  -71.717763      702.17667     -565.3841       147.18563     -2.4764852      981.6472       3417.9559      6.1047965      9.272386       19.579582      1108.3224     -71.717763    
        51  -71.717827      594.24204     -680.8418       33.002463     -4.9034141      976.9378       3417.5838      6.105405       9.2733102      19.581534      1108.6538     -71.717827    
        52  -71.71812       702.32203     -565.14089      144.62433     -4.1425193      983.3024       3414.7171      6.1047965      9.272386       19.579582      1108.3224     -71.71812     
        53  -71.718184      594.38208     -680.60074      30.437817     -6.5718041      978.59038      3414.3424      6.105405       9.2733102      19.581534      1108.6538     -71.718184    
        54  -71.718464      702.45018     -564.89981      142.15032     -5.7617275      984.9036       3411.5626      6.1047965      9.272386       19.579582      1108.3224     -71.718464    
        55  -71.718529      594.50502     -680.36176      27.960416     -8.1934372      980.18912      3411.185       6.105405       9.2733102      19.581534      1108.6538     -71.718529    
        56  -71.718798      702.56258     -564.6604       139.75367     -7.339935       986.45668      3408.4816      6.1047965      9.272386       19.579582      1108.3224     -71.718798    
        57  -71.718862      594.61227     -680.12432      25.560315     -9.774124       981.73986      3408.101       6.105405       9.2733102      19.581534      1108.6538     -71.718862    
        58  -71.719121      702.6605      -564.42218      137.42609     -8.8819332      987.96648      3405.4654      6.1047965      9.272386       19.579582      1108.3224     -71.719121    
        59  -71.719186      594.70512     -679.88798      23.229206     -11.318703      983.24742      3405.0814      6.105405       9.2733102      19.581534      1108.6538     -71.719186    
        60  -71.719436      702.74504     -564.1851       135.16093     -10.39176       989.43713      3402.5065      6.1047965      9.272386       19.579582      1108.3224     -71.719436    
        61  -71.719501      594.78465     -679.65274      20.960494     -12.831162      984.71597      3402.1191      6.105405       9.2733102      19.581534      1108.6538     -71.719501    
        62  -71.719742      702.81715     -563.94889      132.95203     -11.87301       990.87236      3399.5984      6.1047965      9.272386       19.579582      1108.3224     -71.719742    
        63  -71.719807      594.8518      -679.41827      18.747924     -14.315139      986.14919      3399.2072      6.105405       9.2733102      19.581534      1108.6538     -71.719807    
        64  -71.720042      702.87754     -563.71308      130.79417     -13.328548      992.27506      3396.7357      6.1047965      9.272386       19.579582      1108.3224     -71.720042    
        65  -71.720107      594.90727     -679.1841       16.586292     -15.773466      987.54998      3396.3406      6.105405       9.2733102      19.581534      1108.6538     -71.720107    
        66  -71.720334      702.92694     -563.47766      128.68276     -14.761221      993.64818      3393.9132      6.1047965      9.272386       19.579582      1108.3224     -71.720334    
        67  -71.720399      594.95179     -678.95033      14.471071     -17.209046      988.92133      3393.514       6.105405       9.2733102      19.581534      1108.6538     -71.720399    
        68  -71.720621      702.96594     -563.24252      126.61396     -16.173377      994.99406      3391.1266      6.1047965      9.272386       19.579582      1108.3224     -71.720621    
        69  -71.720686      594.98593     -678.71674      12.398358     -18.624203      990.26552      3390.7231      6.105405       9.2733102      19.581534      1108.6538     -71.720686    
        70  -71.720901      702.99507     -563.00749      124.58419     -17.567139      996.31485      3388.3721      6.1047965      9.272386       19.579582      1108.3224     -71.720901    
        71  -71.720967      595.01023     -678.48322      10.36457      -20.021066      991.58474      3387.9639      6.105405       9.2733102      19.581534      1108.6538     -71.720967    
        72  -71.721177      703.0147      -562.77224      122.5899      -18.944647      997.61257      3385.6455      6.1047965      9.272386       19.579582      1108.3224     -71.721177    
        73  -71.721243      595.02502     -678.2494       8.366129      -21.401791      992.88097      3385.2324      6.105405       9.2733102      19.581534      1108.6538     -71.721243    
        74  -71.721448      703.02524     -562.53676      120.62846     -20.307574      998.88886      3382.9438      6.1047965      9.272386       19.579582      1108.3224     -71.721448    
        75  -71.721514      595.03073     -678.01529      6.4004297     -22.768078      994.15588      3382.5255      6.105405       9.2733102      19.581534      1108.6538     -71.721514    
        76  -71.721715      703.027       -562.30082      118.6972      -21.657599      1000.1452      3380.2639      6.1047965      9.272386       19.579582      1108.3224     -71.721715    
        77  -71.721781      595.02767     -677.78065      4.4647466     -24.121581      995.41098      3379.8402      6.105405       9.2733102      19.581534      1108.6538     -71.721781    
        78  -71.721977      703.02027     -562.06424      116.79366     -22.996204      1001.3831      3377.603       6.1047965      9.272386       19.579582      1108.3224     -71.721977    
        79  -71.722044      595.01609     -677.54532      2.5566723     -25.463818      996.64769      3377.1734      6.105405       9.2733102      19.581534      1108.6538     -71.722044    
        80  -71.722236      703.00527     -561.82691      114.91562     -24.32488       1002.6039      3374.9583      6.1047965      9.272386       19.579582      1108.3224     -71.722236    
        81  -71.722304      594.99623     -677.30918      0.67395254    -26.796265      997.86736      3374.5226      6.105405       9.2733102      19.581534      1108.6538     -71.722304    
        82  -71.722492      702.98224     -561.58862      113.06083     -25.644962      1003.8087      3372.3272      6.1047965      9.272386       19.579582      1108.3224     -71.722492    
        83  -71.72256       594.96834     -677.07201     -1.1857003     -28.120276      999.07127      3371.8851      6.105405       9.2733102      19.581534      1108.6538     -71.72256     
        84  -71.722745      702.95137     -561.3494       111.22761     -26.957769      1004.9989      3369.7074      6.1047965      9.272386       19.579582      1108.3224     -71.722745    
        85  -71.722813      594.93258     -676.83391     -3.0238878     -29.437202      1000.2606      3369.2584      6.105405       9.2733102      19.581534      1108.6538     -71.722813    
        86  -71.722994      702.91285     -561.10915      109.414       -28.264552      1006.1755      3367.0964      6.1047965      9.272386       19.579582      1108.3224     -71.722994    
        87  -71.723063      594.88914     -676.59469     -4.8426687     -30.748245      1001.4365      3366.6402      6.105405       9.2733102      19.581534      1108.6538     -71.723063    
        88  -71.723241      702.86676     -560.86762      107.61827     -29.566473      1007.3395      3364.4921      6.1047965      9.272386       19.579582      1108.3224     -71.723241    
        89  -71.72331       594.8381      -676.35412     -6.6437862     -32.054662      1002.5999      3364.0282      6.105405       9.2733102      19.581534      1108.6538     -71.72331     
        90  -71.723486      702.81324     -560.62477      105.83889     -30.86472       1008.4919      3361.8921      6.1047965      9.272386       19.579582      1108.3224     -71.723486    
        91  -71.723555      594.77959     -676.11224     -8.4287203     -33.357627      1003.7518      3361.4201      6.105405       9.2733102      19.581534      1108.6538     -71.723555    
        92  -71.723729      702.75236     -560.38042      104.07413     -32.160453      1009.6336      3359.2944      6.1047965      9.272386       19.579582      1108.3224     -71.723729    
        93  -71.723798      594.71365     -675.86874     -10.199285     -34.658264      1004.8931      3358.8138      6.105405       9.2733102      19.581534      1108.6538     -71.723798    
        94  -71.723969      702.68415     -560.13443      102.32256     -33.454731      1010.7655      3356.6967      6.1047965      9.272386       19.579582      1108.3224     -71.723969    
        95  -71.724039      594.64033     -675.62351     -11.95691      -35.957718      1006.0247      3356.207       6.105405       9.2733102      19.581534      1108.6538     -71.724039    
        96  -71.724208      702.60862     -559.88659      100.58267     -34.748759      1011.8883      3354.0968      6.1047965      9.272386       19.579582      1108.3224     -71.724208    
        97  -71.724279      594.55963     -675.3764      -13.703102     -37.257203      1007.1475      3353.5974      6.105405       9.2733102      19.581534      1108.6538     -71.724279    
        98  -71.724446      702.52579     -559.63677      98.853135     -36.043549      1013.0029      3351.4928      6.1047965      9.272386       19.579582      1108.3224     -71.724446    
        99  -71.724517      594.47154     -675.12722     -15.439229     -38.557736      1008.2621      3350.9831      6.105405       9.2733102      19.581534      1108.6538     -71.724517    
       100  -71.724682      702.43561     -559.38477      97.132242     -37.340464      1014.1103      3348.8819      6.1047965      9.272386       19.579582      1108.3224     -71.724682    
       101  -71.724754      594.37602     -674.87581     -17.167        -39.860697      1009.3697      3348.3613      6.105405       9.2733102      19.581534      1108.6538     -71.724754    
       102  -71.724917      702.33803     -559.13042      95.418793     -38.64051       1015.211       3346.2622      6.1047965      9.272386       19.579582      1108.3224     -71.724917    
       103  -71.724989      594.27302     -674.62196     -18.88766      -41.167142      1010.4709      3345.7299      6.105405       9.2733102      19.581534      1108.6538     -71.724989    
       104  -71.725151      702.23303     -558.8736       93.711304     -39.944964      1016.3061      3343.6312      6.1047965      9.272386       19.579582      1108.3224     -71.725151    
       105  -71.725224      594.1625      -674.36557     -20.602709     -42.47835       1011.5665      3343.0866      6.105405       9.2733102      19.581534      1108.6538     -71.725224    
       106  -71.725384      702.12051     -558.61415      92.00847      -41.255002      1017.3962      3340.9866      6.1047965      9.272386       19.579582      1108.3224     -71.725384    
       107  -71.725458      594.04433     -674.10648     -22.313485     -43.795593      1012.6574      3340.4287      6.105405       9.2733102      19.581534      1108.6538     -71.725458    
       108  -71.725617      702.00032     -558.35181      90.308622     -42.572111      1018.4823      3338.3255      6.1047965      9.272386       19.579582      1108.3224     -71.725617    
       109  -71.725692      593.91838     -673.84437     -24.021714     -45.120322      1013.7445      3337.7534      6.105405       9.2733102      19.581534      1108.6538     -71.725692    
       110  -71.72585       701.87234     -558.08636      88.610427     -43.897462      1019.565       3335.6455      6.1047965      9.272386       19.579582      1108.3224     -71.72585     
       111  -71.725925      593.78449     -673.57907     -25.72877      -46.453791      1014.8285      3335.0582      6.105405       9.2733102      19.581534      1108.6538     -71.725925    
       112  -71.726082      701.73639     -557.81755      86.91226      -45.232527      1020.6454      3332.9437      6.1047965      9.272386       19.579582      1108.3224     -71.726082    
       113  -71.726159      593.64247     -673.31031     -27.436292     -47.797511      1015.9103      3332.3401      6.105405       9.2733102      19.581534      1108.6538     -71.726159    
       114  -71.726315      701.59221     -557.54507      85.212473     -46.578947      1021.7243      3330.2168      6.1047965      9.272386       19.579582      1108.3224     -71.726315    
       115  -71.726393      593.49203     -673.03771     -29.146051     -49.153227      1016.9909      3329.5956      6.105405       9.2733102      19.581534      1108.6538     -71.726393    
       116  -71.726548      701.43953     -557.26866      83.509401     -47.938428      1022.8025      3327.4614      6.1047965      9.272386       19.579582      1108.3224     -71.726548    
       117  -71.726627      593.33289     -672.76111     -30.859675     -50.522676      1018.0713      3326.8213      6.105405       9.2733102      19.581534      1108.6538     -71.726627    
       118  -71.726782      701.27802     -556.98798      81.801137     -49.312863      1023.8812      3324.6738      6.1047965      9.272386       19.579582      1108.3224     -71.726782    
       119  -71.726862      593.1647      -672.48004     -32.579202     -51.90781       1019.1524      3324.0132      6.105405       9.2733102      19.581534      1108.6538     -71.726862    
       120  -71.727016      701.10732     -556.70252      80.085595     -50.704254      1024.9614      3321.8498      6.1047965      9.272386       19.579582      1108.3224     -71.727016    
       121  -71.727098      592.98706     -672.194       -34.306864     -53.310758      1020.2353      3321.167       6.105405       9.2733102      19.581534      1108.6538     -71.727098    
       122  -71.727252      700.92701     -556.41188      78.360812     -52.114621      1026.044       3318.9854      6.1047965      9.272386       19.579582      1108.3224     -71.727252    
       123  -71.727335      592.79952     -671.9026      -36.044647     -54.73366       1021.3212      3318.2783      6.105405       9.2733102      19.581534      1108.6538     -71.727335    
       124  -71.727489      700.73657     -556.11551      76.624206     -53.546608      1027.1305      3316.0752      6.1047965      9.272386       19.579582      1108.3224     -71.727489    
       125  -71.727574      592.60152     -671.60528     -37.795217     -56.179247      1022.4113      3315.3418      6.105405       9.2733102      19.581534      1108.6538     -71.727574    
       126  -71.727729      700.53542     -555.81306      74.873426     -55.003011      1028.2221      3313.1136      6.1047965      9.272386       19.579582      1108.3224     -71.727729    
       127  -71.727815      592.39245     -671.30169     -39.561084     -57.650522      1023.5071      3312.3513      6.105405       9.2733102      19.581534      1108.6538     -71.727815    
       128  -71.72797       700.32292     -555.50396      73.105622     -56.486942      1029.3204      3310.0944      6.1047965      9.272386       19.579582      1108.3224     -71.72797     
       129  -71.728059      592.1716      -670.99117     -41.345247     -59.150739      1024.6103      3309.3003      6.105405       9.2733102      19.581534      1108.6538     -71.728059    
       130  -71.728215      700.09824     -555.18749      71.317554     -58.001994      1030.4271      3307.0103      6.1047965      9.272386       19.579582      1108.3224     -71.728215    
       131  -71.728305      591.93807     -670.67297     -43.151192     -60.683746      1025.7226      3306.181       6.105405       9.2733102      19.581534      1108.6538     -71.728305    
       132  -71.728463      699.86044     -554.86283      69.505513     -59.552328      1031.5441      3303.8529      6.1047965      9.272386       19.579582      1108.3224     -71.728463    
       133  -71.728555      591.69084     -670.34618     -44.982833     -62.253951      1026.8459      3302.9845      6.105405       9.2733102      19.581534      1108.6538     -71.728555    
       134  -71.728714      699.60833     -554.52893      67.665233     -61.142787      1032.6734      3300.6124      6.1047965      9.272386       19.579582      1108.3224     -71.728714    
       135  -71.728809      591.42861     -670.0097      -46.84476      -63.866577      1027.9825      3299.7002      6.105405       9.2733102      19.581534      1108.6538     -71.728809    
       136  -71.72897       699.34057     -554.18459      65.791692     -62.77896       1033.8176      3297.2773      6.1047965      9.272386       19.579582      1108.3224     -71.72897     
       137  -71.729068      591.14996     -669.66228     -48.742355     -65.527598      1029.1351      3296.3159      6.105405       9.2733102      19.581534      1108.6538     -71.729068    
       138  -71.729232      699.05559     -553.82856      63.879214     -64.467517      1034.9796      3293.8342      6.1047965      9.272386       19.579582      1108.3224     -71.729232    
       139  -71.729333      590.85312     -669.30261     -50.681627     -67.244217      1030.3067      3292.8171      6.105405       9.2733102      19.581534      1108.6538     -71.729333    
       140  -71.729499      698.75135     -553.45927      61.920955     -66.216563      1036.1629      3290.2667      6.1047965      9.272386       19.579582      1108.3224     -71.729499    
       141  -71.729604      590.53588     -668.92894     -52.670062     -69.025234      1031.5012      3289.186       6.105405       9.2733102      19.581534      1108.6538     -71.729604    
       142  -71.729774      698.42545     -553.07481      59.908667     -68.035904      1037.3715      3286.5549      6.1047965      9.272386       19.579582      1108.3224     -71.729774    
       143  -71.729884      590.19557     -668.53916     -54.716677     -70.881347      1032.723       3285.401       6.105405       9.2733102      19.581534      1108.6538     -71.729884    
       144  -71.730059      698.07478     -552.67265      57.832154     -69.937714      1038.6105      3282.6742      6.1047965      9.272386       19.579582      1108.3224     -71.730059    
       145  -71.730074      589.95515     -668.27046     -56.112582     -72.161016      1033.5521      3282.7906      6.105405       9.2733102      19.581534      1108.6538     -71.730074    
       146  -71.730276      697.79497     -552.36345      56.24246      -71.408327      1039.5587      3279.6681      6.1047965      9.272386       19.579582      1108.3224     -71.730276    
       147  -71.730321      589.63301     -667.92172     -57.917747     -73.83038       1034.6239      3279.3801      6.105405       9.2733102      19.581534      1108.6538     -71.730321    
       148  -71.730527      697.46298     -552.00389      54.415339     -73.118483      1040.641       3276.1733      6.1047965      9.272386       19.579582      1108.3224     -71.730527    
       149  -71.730595      589.26267     -667.52951     -59.921446     -75.707698      1035.8044      3275.5459      6.105405       9.2733102      19.581534      1108.6538     -71.730595    
       150  -71.730806      697.07883     -551.59704      52.375576     -75.053676      1041.8393      3272.22        6.1047965      9.272386       19.579582      1108.3224     -71.730806    
       151  -71.730895      588.84282     -667.0953      -62.107509     -77.786256      1037.0807      3271.3021      6.105405       9.2733102      19.581534      1108.6538     -71.730895    
       152  -71.731114      696.63992     -551.14348      50.135137     -77.212418      1043.1432      3267.8116      6.1047965      9.272386       19.579582      1108.3224     -71.731114    
       153  -71.731219      588.36879     -666.61746     -64.47534      -80.07532       1038.449       3266.6305      6.105405       9.2733102      19.581534      1108.6538     -71.731219    
       154  -71.731449      696.13974     -550.64015      47.689106     -79.611142      1044.5511      3262.9155      6.1047965      9.272386       19.579582      1108.3224     -71.731449    
       155  -71.73157       587.83171     -666.09065     -67.041011     -82.602496      1039.9143      3261.4754      6.105405       9.2733102      19.581534      1108.6538     -71.73157     
       156  -71.731817      695.56612     -550.07907      45.011951     -82.289831      1046.0723      3257.4512      6.1047965      9.272386       19.579582      1108.3224     -71.731817    
       157  -71.731954      587.21667     -665.50457     -69.84017      -85.419094      1041.4908      3255.7337      6.105405       9.2733102      19.581534      1108.6538     -71.731954    
       158  -71.732223      694.89871     -549.44578      42.052875     -85.320318      1047.7277      3251.2742      6.1047965      9.272386       19.579582      1108.3224     -71.732223    
       159  -71.732378      586.49992     -664.84236     -72.933198     -88.609408      1043.2036      3249.2357      6.105405       9.2733102      19.581534      1108.6538     -71.732378    
       160  -71.732681      694.10339     -548.71552      38.723804     -88.825396      1049.5543      3244.1374      6.1047965      9.272386       19.579582      1108.3224     -71.732681    
       161  -71.732857      585.64258     -664.07618     -76.417985     -92.31163       1045.0926      3241.704       6.105405       9.2733102      19.581534      1108.6538     -71.732857    
       162  -71.733211      693.11945     -547.84394      34.870915     -93.022523      1051.6148      3235.6044      6.1047965      9.272386       19.579582      1108.3224     -71.733211    
       163  -71.733412      584.57677     -663.15762     -80.457851     -96.763888      1047.221       3232.6616      6.105405       9.2733102      19.581534      1108.6538     -71.733412    
       164  -71.733855      691.82485     -546.74257      30.199401     -98.343497      1054.0235      3224.8105      6.1047965      9.272386       19.579582      1108.3224     -71.733855    
       165  -71.734085      583.16926     -661.99281     -85.352        -102.42523      1049.6956      3221.1916      6.105405       9.2733102      19.581534      1108.6538     -71.734085    
       166  -71.73471       689.90628     -545.18656      24.004081     -105.87555      1057.0317      3209.5849      6.1047965      9.272386       19.579582      1108.3224     -71.73471     
       167  -71.734971      581.0899      -660.3516      -91.778898     -110.40808      1052.7293      3205.0806      6.105405       9.2733102      19.581534      1108.6538     -71.734971    
       168  -71.736184      685.86656     -542.12057      13.329335     -120.64613      1061.508       3179.941       6.1047965      9.272386       19.579582      1108.3224     -71.736184    
       169  -71.736444      576.81783     -657.18669     -102.47174     -125.68605      1056.9899      3174.482       6.105405       9.2733102      19.581534      1108.6538     -71.736444    
       170  -71.738402      459.40368     -766.37977     -230.70559     -157.50319      1054.091       3116.3228      6.1060136      9.2742344      19.583485      1108.9854     -71.738402    
       171  -71.738652      565.68833     -649.62867     -118.55345     -160.76591      1058.8644      3105.4898      6.105405       9.2733102      19.581534      1108.6538     -71.738652    
       172  -71.738658      641.75226     -568.31689     -38.477391     -159.31922      1062.5301      3105.1399      6.1049773      9.2726605      19.580162      1108.4208     -71.738658    
       173  -71.741067      642.52099     -582.64985     -48.421785     -176.84464      1077.3301      3072.0573      6.1049907      9.2726808      19.580204      1108.4281     -71.741067    
       174  -71.741096      534.26219     -698.48708     -162.49062     -178.92815      1072.3129      3072.5121      6.1055992      9.273605       19.582156      1108.7596     -71.741096    
       175  -71.741182      642.50742     -583.14783     -48.748422     -176.93783      1077.9743      3071.929       6.1049907      9.2726808      19.580204      1108.4281     -71.741182    
       176  -71.741252      534.23037     -699.08668     -162.99612     -178.89896      1073.1658      3072.6116      6.1055992      9.273605       19.582156      1108.7596     -71.741252    
       177  -71.741332      642.48434     -583.65999     -49.292144     -176.77161      1078.79        3072.274       6.1049907      9.2726808      19.580204      1108.4281     -71.741332    
       178  -71.741435      534.27518     -699.65601     -163.74275     -178.5994       1074.1834      3073.2143      6.1055992      9.273605       19.582156      1108.7596     -71.741435    
       179  -71.741518      642.6022      -584.20473     -50.107537     -176.40087      1079.8541      3073.019       6.1049907      9.2726808      19.580204      1108.4281     -71.741518    
       180  -71.741632      534.56467     -700.16788     -164.75968     -178.11062      1075.3795      3074.1784      6.1055992      9.273605       19.582156      1108.7596     -71.741632    
       181  -71.741729      643.06572     -584.70997     -51.304961     -175.80044      1081.2035      3074.2039      6.1049907      9.2726808      19.580204      1108.4281     -71.741729    
       182  -71.741839      535.24206     -700.55585     -166.14865     -177.4129       1076.7685      3075.4944      6.1055992      9.273605       19.582156      1108.7596     -71.741839    
       183  -71.741972      644.18927     -585.0689      -53.190636     -174.81405      1082.9724      3076.029       6.1049907      9.2726808      19.580204      1108.4281     -71.741972    
       184  -71.742078      536.57241     -700.76447     -168.27512     -176.2884       1078.5562      3077.4383      6.1055992      9.273605       19.582156      1108.7596     -71.742078    
       185  -71.742212      645.86637     -585.08822     -55.689134     -173.40925      1084.8626      3078.2895      6.1049907      9.2726808      19.580204      1108.4281     -71.742212    
       186  -71.742339      538.34047     -700.61408     -171.16254     -174.61193      1080.4979      3079.8741      6.1055992      9.273605       19.582156      1108.7596     -71.742339    
       187  -71.742409      647.03182     -584.8486      -57.90323      -172.09486      1086.1744      3079.9848      6.1049907      9.2726808      19.580204      1108.4281     -71.742409    
       188  -71.742611      538.94715     -700.18956     -173.77371     -173.30571      1081.6997      3081.0524      6.1055992      9.273605       19.582156      1108.7596     -71.742611    
       189  -71.742657      647.28813     -584.43836     -60.127769     -171.09444      1087.0879      3080.6704      6.1049907      9.2726808      19.580204      1108.4281     -71.742657    
       190  -71.74288       538.69631     -699.87688     -175.74163     -173.41881      1082.3918      3080.0389      6.1055992      9.273605       19.582156      1108.7596     -71.74288     
       191  -71.742908      647.00977     -584.15731     -61.912703     -171.41381      1087.6971      3079.4026      6.1049907      9.2726808      19.580204      1108.4281     -71.742908    
       192  -71.742996      614.38511     -619.58237     -95.793147     -173.47113      1086.7351      3077.629       6.1051727      9.2729572      19.580788      1108.5272     -71.742996    
       193  -71.742997      647.2338      -584.51133     -61.214755     -172.87592      1088.3347      3077.4399      6.1049882      9.2726771      19.580196      1108.4268     -71.742997    
       194  -71.743034      654.67586     -575.87182     -52.814488     -174.53571      1088.2688      3073.3967      6.1049431      9.2726086      19.580052      1108.4022     -71.743034    
       195  -71.743034      643.78305     -587.50478     -64.277597     -174.74584      1087.7398      3073.4395      6.1050043      9.2727015      19.580248      1108.4355     -71.743034    
       196  -71.743058      643.66237     -588.58777     -63.856092     -175.24671      1088.3392      3073.4735      6.1050053      9.2727031      19.580251      1108.4361     -71.743058    
       197  -71.743058      648.10208     -583.84241     -59.182513     -175.16212      1088.555       3073.4527      6.1049804      9.2726651      19.580171      1108.4225     -71.743058    
       198  -71.743063      647.6023      -584.17993     -60.180272     -174.66233      1088.4076      3073.9562      6.1049837      9.2726703      19.580182      1108.4243     -71.743063    
       199  -71.743063      645.67119     -586.24171     -62.213398     -174.69772      1088.3145      3073.9677      6.1049946      9.2726867      19.580217      1108.4302     -71.743063    
       200  -71.743064      646.3321      -585.73671     -61.726765     -174.28166      1088.4996      3074.8949      6.1049917      9.2726824      19.580208      1108.4287     -71.743064    
       201  -71.743064      647.58272     -584.40416     -60.412026     -174.25809      1088.56        3074.8902      6.1049847      9.2726718      19.580185      1108.4249     -71.743064    
       202  -71.743064      646.34836     -585.51708     -62.047992     -173.92785      1088.4125      3075.2991      6.104992       9.2726828      19.580209      1108.4288     -71.743064    
       203  -71.743064      647.59924     -584.18373     -60.734104     -173.90179      1088.4724      3075.2965      6.1049849      9.2726722      19.580186      1108.425      -71.743064    
       204  -71.743064      646.58482     -585.13931     -62.271459     -173.34055      1088.4106      3076.246       6.1049914      9.2726821      19.580207      1108.4285     -71.743064    
       205  -71.743064      648.56332     -583.02255     -60.189026     -173.30101      1088.508       3076.2421      6.1049803      9.2726651      19.580171      1108.4225     -71.743064    
       206  -71.743065      646.61714     -585.1451      -62.300782     -173.20828      1088.4676      3076.5815      6.1049915      9.2726821      19.580207      1108.4286     -71.743065    
       207  -71.743065      647.29974     -584.4142      -61.578944     -173.1947       1088.5011      3076.5783      6.1049877      9.2726762      19.580194      1108.4265     -71.743065    
       208  -71.743065      646.25221     -585.55251     -62.637705     -173.26034      1088.4638      3076.5383      6.1049935      9.2726851      19.580213      1108.4296     -71.743065    
       209  -71.743065      647.05511     -584.69995     -61.793056     -173.24816      1088.5022      3076.532       6.104989       9.2726783      19.580199      1108.4272     -71.743065    
       210  -71.743065      645.96899     -585.87608     -62.862962     -173.36304      1088.4543      3076.3959      6.104995       9.2726873      19.580218      1108.4304     -71.743065    
       211  -71.743065      647.01048     -584.76182     -61.759387     -173.35099      1088.5049      3076.3794      6.1049891      9.2726784      19.580199      1108.4273     -71.743065    
       212  -71.743065      646.02139     -585.82833     -62.693157     -173.50769      1088.4539      3076.1539      6.1049945      9.2726865      19.580216      1108.4302     -71.743065    
       213  -71.743065      646.99684     -584.78676     -61.659148     -173.49912      1088.501       3076.1343      6.104989       9.2726781      19.580199      1108.4272     -71.743065    
       214  -71.743065      646.14715     -585.70233     -62.442261     -173.66866      1088.4499      3075.8702      6.1049935      9.2726851      19.580213      1108.4296     -71.743065    
       215  -71.743065      646.97063     -584.82407     -61.572593     -173.66069      1088.4895      3075.8534      6.1049889      9.272678       19.580198      1108.4271     -71.743065    
       216  -71.743065      646.34261     -585.49241     -62.140089     -173.80205      1088.4467      3075.62        6.1049922      9.272683       19.580209      1108.4289     -71.743065    
       217  -71.743065      646.95686     -584.83656     -61.490558     -173.79474      1088.476       3075.609       6.1049888      9.2726778      19.580198      1108.427      -71.743065    
       218  -71.743065      646.69977     -585.10668     -61.689748     -173.89727      1088.4526      3075.4259      6.1049901      9.2726797      19.580202      1108.4277     -71.743065    
       219  -71.743065      648.32847     -583.37354     -59.978609     -173.86887      1088.5316      3075.4147      6.1049809      9.2726659      19.580173      1108.4228     -71.743065    
       220  -71.743065      646.73949     -585.09101     -61.621509     -173.9254       1088.4538      3075.3532      6.1049898      9.2726793      19.580201      1108.4276     -71.743065    
       221  -71.743065      644.76743     -587.20669     -63.695176     -173.96181      1088.364       3075.3743      6.1050009      9.2726961      19.580237      1108.4336     -71.743065    
       222  -71.743065      646.75498     -585.12008     -61.589162     -173.91885      1088.4825      3075.4083      6.1049898      9.2726792      19.580201      1108.4276     -71.743065    
       223  -71.743065      645.62973     -586.33192     -62.770262     -173.93974      1088.4318      3075.4183      6.1049961      9.2726889      19.580221      1108.431      -71.743065    
       224  -71.743065      646.78032     -585.12496     -61.551246     -173.91952      1088.4975      3075.4254      6.1049897      9.2726791      19.580201      1108.4275     -71.743065    
       225  -71.743065      645.72473     -586.25328     -62.656014     -173.93998      1088.4493      3075.4309      6.1049957      9.272688       19.58022       1108.4308     -71.743065    
       226  -71.743065      646.78803     -585.13115     -61.530559     -173.9217       1088.5065      3075.4273      6.1049897      9.272679       19.580201      1108.4275     -71.743065    
       227  -71.743065      645.68403     -586.31469     -62.690018     -173.94505      1088.4539      3075.4286      6.1049959      9.2726884      19.580221      1108.4309     -71.743065    
       228  -71.743065      646.76506     -585.17056     -61.548162     -173.92928      1088.5075      3075.4154      6.1049898      9.2726792      19.580201      1108.4276     -71.743065    
       229  -71.743065      644.98228     -587.06277     -63.421139     -173.96813      1088.4146      3075.4003      6.1049998      9.2726943      19.580233      1108.433      -71.743065    
       230  -71.743065      646.74241     -585.17566     -61.566755     -173.94007      1088.4949      3075.3718      6.1049899      9.2726793      19.580201      1108.4276     -71.743065    
       231  -71.743065      646.73444     -585.13735     -61.597834     -173.93229      1088.4755      3075.3625      6.1049899      9.2726793      19.580201      1108.4276     -71.743065    
       232  -71.743065      646.97016     -584.86825     -61.362704     -173.91456      1088.484       3075.3873      6.1049886      9.2726773      19.580197      1108.4269     -71.743065    
       233  -71.743065      646.73458     -585.1211      -61.612245     -173.91886      1088.4729      3075.3889      6.1049899      9.2726793      19.580201      1108.4276     -71.743065    
       234  -71.743065      646.48073     -585.38388     -61.877502     -173.92427      1088.457       3075.3817      6.1049914      9.2726815      19.580206      1108.4284     -71.743065    
       235  -71.743065      646.73228     -585.11536     -61.616633     -173.92108      1088.4678      3075.3791      6.1049899      9.2726793      19.580201      1108.4276     -71.743065    
       236  -71.743065      646.81371     -585.0379      -61.53194      -173.91948      1088.4739      3075.3835      6.1049895      9.2726787      19.5802        1108.4274     -71.743065    
       237  -71.743065      646.74672     -585.11219     -61.605764     -173.92161      1088.4699      3075.3842      6.1049898      9.2726793      19.580201      1108.4276     -71.743065    
       238  -71.743065      646.72873     -585.12821     -61.621633     -173.92065      1088.4699      3075.3841      6.1049899      9.2726794      19.580201      1108.4277     -71.743065    
       239  -71.743065      646.66292     -585.19972     -61.692538     -173.92282      1088.4655      3075.3838      6.1049903      9.27268        19.580203      1108.4279     -71.743065    
       240  -71.743065      646.77035     -585.07664     -61.579262     -173.9209       1088.4688      3075.3802      6.1049897      9.2726791      19.580201      1108.4275     -71.743065    
       241  -71.743065      646.73277     -585.1094      -61.616169     -173.92047      1088.4664      3075.3794      6.1049899      9.2726793      19.580201      1108.4276     -71.743065    
       242  -71.743065      646.71479     -585.12549     -61.631978     -173.91951      1088.4664      3075.3793      6.1049901      9.2726794      19.580201      1108.4277     -71.743065    
       243  -71.743065      646.67505     -585.16958     -61.670395     -173.92088      1088.4646      3075.3796      6.1049903      9.2726798      19.580202      1108.4278     -71.743065    
       244  -71.743065      646.76094     -585.08349     -61.577143     -173.92023      1088.4714      3075.38        6.1049898      9.2726791      19.5802        1108.4275     -71.743065    
       245  -71.743065      646.73755     -585.11353     -61.602746     -173.92143      1088.4705      3075.3806      6.1049899      9.2726793      19.580201      1108.4276     -71.743065    
       246  -71.743065      646.73308     -585.12391     -61.609801     -173.92194      1088.4698      3075.3809      6.1049899      9.2726794      19.580201      1108.4276     -71.743065    
       247  -71.743065      646.73561     -585.10632     -61.608295     -173.92112      1088.4669      3075.378       6.1049899      9.2726793      19.580201      1108.4276     -71.743065    
       248  -71.743065      646.73113     -585.11668     -61.615373     -173.92163      1088.4662      3075.3783      6.1049899      9.2726794      19.580201      1108.4276     -71.743065    
       249  -71.743065      646.73626     -585.10924     -61.605958     -173.92161      1088.4683      3075.3787      6.1049899      9.2726793      19.580201      1108.4276     -71.743065    
       250  -71.743065      646.73468     -585.11074     -61.60985      -173.92167      1088.468       3075.3788      6.1049899      9.2726793      19.580201      1108.4276     -71.743065    
       251  -71.743065      646.7331      -585.11222     -61.613756     -173.92173      1088.4677      3075.3788      6.1049899      9.2726793      19.580201      1108.4276     -71.743065    
       252  -71.743065      646.73143     -585.11362     -61.617495     -173.92172      1088.468       3075.3789      6.1049899      9.2726793      19.580201      1108.4276     -71.743065    
       253  -71.743065      646.6893      -585.15621     -61.661933     -173.92154      1088.4647      3075.3786      6.1049902      9.2726797      19.580202      1108.4278     -71.743065    
       254  -71.743065      646.73072     -585.1107      -61.619801     -173.92138      1088.4665      3075.378       6.1049899      9.2726793      19.580201      1108.4276     -71.743065    
       255  -71.743065      646.74669     -585.09041     -61.606564     -173.92308      1088.4643      3075.3731      6.1049898      9.2726792      19.580201      1108.4276     -71.743065    
       256  -71.743065      646.72878     -585.10651     -61.622589     -173.92343      1088.464       3075.3727      6.1049899      9.2726793      19.580201      1108.4276     -71.743065    
       257  -71.743065      646.72571     -585.12108     -61.626571     -173.92334      1088.4657      3075.3761      6.1049899      9.2726794      19.580201      1108.4277     -71.743065    
       258  -71.743065      646.7273      -585.11962     -61.622649     -173.92328      1088.466       3075.376       6.1049899      9.2726794      19.580201      1108.4277     -71.743065    
       259  -71.743065      646.72896     -585.1182      -61.618921     -173.92329      1088.4657      3075.376       6.1049899      9.2726794      19.580201      1108.4276     -71.743065    
       260  -71.743065      646.73054     -585.11671     -61.615021     -173.92323      1088.466       3075.3759      6.1049899      9.2726794      19.580201      1108.4276     -71.743065    
       261  -71.743065      646.74843     -585.10055     -61.599028     -173.92415      1088.4666      3075.3759      6.1049898      9.2726793      19.580201      1108.4276     -71.743065    
       262  -71.743065      646.74966     -585.09824     -61.595706     -173.92439      1088.4664      3075.3748      6.1049898      9.2726793      19.580201      1108.4276     -71.743065    
       263  -71.743065      646.73033     -585.11605     -61.615709     -173.92481      1088.4653      3075.3746      6.1049899      9.2726794      19.580201      1108.4276     -71.743065    
       264  -71.743065      646.71037     -585.13242     -61.636305     -173.92405      1088.4644      3075.3741      6.1049901      9.2726796      19.580201      1108.4277     -71.743065    
       265  -71.743065      646.72815     -585.11598     -61.620514     -173.92379      1088.4644      3075.3741      6.1049899      9.2726794      19.580201      1108.4276     -71.743065    
       266  -71.743065      646.72973     -585.1145      -61.616612     -173.92373      1088.4648      3075.3741      6.1049899      9.2726794      19.580201      1108.4276     -71.743065    
       267  -71.743065      646.7313      -585.11302     -61.612696     -173.9237       1088.4651      3075.374       6.1049899      9.2726794      19.580201      1108.4276     -71.743065    
       268  -71.743065      646.72987     -585.11475     -61.616647     -173.92503      1088.4646      3075.3739      6.1049899      9.2726794      19.580201      1108.4276     -71.743065    
       269  -71.743065      646.74759     -585.09849     -61.60047      -173.92483      1088.4654      3075.3738      6.1049898      9.2726793      19.580201      1108.4276     -71.743065    
       270  -71.743065      646.76525     -585.08234     -61.584168     -173.92486      1088.4663      3075.3733      6.1049897      9.2726792      19.580201      1108.4275     -71.743065    
       271  -71.743065      646.74124     -585.11098     -61.61073      -173.92667      1088.4644      3075.372       6.1049898      9.2726794      19.580201      1108.4276     -71.743065    
       272  -71.743065      646.73982     -585.11269     -61.614695     -173.92798      1088.4639      3075.372       6.1049898      9.2726794      19.580201      1108.4276     -71.743065    
       273  -71.743065      646.73824     -585.11418     -61.618591     -173.92804      1088.4636      3075.372       6.1049898      9.2726794      19.580201      1108.4276     -71.743065    
       274  -71.743065      646.73815     -585.1141      -61.618428     -173.92797      1088.4643      3075.372       6.1049898      9.2726794      19.580201      1108.4276     -71.743065    
       275  -71.743065      646.73814     -585.11411     -61.618422     -173.92797      1088.4643      3075.372       6.1049898      9.2726794      19.580201      1108.4276     -71.743065    
Loop time of 26.2554 on 1 procs for 275 steps with 48 atoms

217.8% CPU use with 1 MPI tasks x no OpenMP threads

Minimization stats:
  Stopping criterion = energy tolerance
  Energy initial, next-to-last, final = 
     -71.7006945511759  -71.7430648818194  -71.7430648818193
  Force two-norm initial, final = 7.7587449 5.0247511e-06
  Force max component initial, final = 7.7545987 3.8714192e-06
  Final line search alpha, max atom move = 1 3.8714192e-06
  Iterations, force evaluations = 275 360

MPI task timing breakdown:
Section |  min time  |  avg time  |  max time  |%varavg| %total
---------------------------------------------------------------
Pair    | 26.188     | 26.188     | 26.188     |   0.0 | 99.74
Neigh   | 0          | 0          | 0          |   0.0 |  0.00
Comm    | 0.0016261  | 0.0016261  | 0.0016261  |   0.0 |  0.01
Output  | 0.057624   | 0.057624   | 0.057624   |   0.0 |  0.22
Modify  | 0          | 0          | 0          |   0.0 |  0.00
Other   |            | 0.008426   |            |       |  0.03

Nlocal:             48 ave          48 max          48 min
Histogram: 1 0 0 0 0 0 0 0 0 0
Nghost:            840 ave         840 max         840 min
Histogram: 1 0 0 0 0 0 0 0 0 0
Neighs:              0 ave           0 max           0 min
Histogram: 1 0 0 0 0 0 0 0 0 0
FullNghs:         4362 ave        4362 max        4362 min
Histogram: 1 0 0 0 0 0 0 0 0 0

Total # of neighbors = 4362
Ave neighs/atom = 90.875
Neighbor list builds = 0
Dangerous builds not checked
fix             1 all box/relax aniso 0.0
minimize        1.000000e-12 1.000000e-06 5000 500000
WARNING: Using 'neigh_modify every 1 delay 0 check yes' setting during minimization (../min.cpp:187)
Generated 0 of 3 mixed pair_coeff terms from geometric mixing rule
Per MPI rank memory allocation (min/avg/max) = 5.465 | 5.465 | 5.465 Mbytes
   Step         PotEng          Pxx            Pyy            Pzz            Pxy            Pxz            Pyz             Lx             Ly             Lz           Volume         c_mype    
       275  -71.743065      646.73814     -585.11411     -61.618422     -173.92797      1088.4643      3075.372       6.1049898      9.2726794      19.580201      1108.4276     -71.743065    
       276  -71.743156      608.33518     -540.83039     -59.1949       -158.43561      1093.1281      3070.9443      6.1056003      9.2718406      19.580015      1108.4276     -71.743156    
       277  -71.743241      569.67313     -497.55363     -57.029091     -143.07411      1097.7468      3066.5408      6.1062108      9.271016       19.579824      1108.4291     -71.743241    
       278  -71.743319      530.77166     -455.2737      -55.069642     -127.84384      1102.3237      3062.1614      6.1068212      9.2702059      19.579628      1108.4319     -71.743319    
       279  -71.743391      491.65469     -413.96419     -53.262731     -112.74437      1106.8623      3057.8057      6.1074317      9.26941        19.579425      1108.4361     -71.743391    
       280  -71.743457      452.34095     -373.62299     -51.556221     -97.779005      1111.3656      3053.4735      6.1080422      9.2686287      19.579213      1108.4414     -71.743457    
       281  -71.743517      412.85649     -334.23405     -49.883296     -82.946844      1115.8372      3049.1647      6.1086527      9.2678621      19.578989      1108.4478     -71.743517    
       282  -71.743571      373.22228     -295.806       -48.17835      -68.253069      1120.282       3044.8795      6.1092631      9.2671106      19.578753      1108.4553     -71.743571    
       283  -71.74362       333.46416     -258.34314     -46.36446      -53.701711      1124.704       3040.6181      6.1098736      9.2663747      19.5785        1108.4637     -71.74362     
       284  -71.743663      293.60764     -221.87003     -44.354645     -39.3006        1129.1072      3036.3812      6.1104841      9.2656553      19.578227      1108.473      -71.743663    
       285  -71.743701      253.6822      -186.4208      -42.04464      -25.059468      1133.4973      3032.1698      6.1110945      9.2649534      19.577931      1108.483      -71.743701    
       286  -71.743734      213.71741     -152.0619      -39.31034      -10.991309      1137.8817      3027.9858      6.111705       9.2642707      19.577606      1108.4936     -71.743734    
       287  -71.743762      173.75264     -118.89309     -35.984549      2.8794407      1142.2669      3023.8317      6.1123155      9.2636095      19.577246      1108.5048     -71.743762    
       288  -71.743784      133.83109     -87.082682     -31.847311      16.520282      1146.6649      3019.7122      6.1129259      9.2629737      19.57684       1108.5165     -71.743784    
       289  -71.743803      94.020173     -56.899861     -26.554557      29.878389      1151.0915      3015.6343      6.1135364      9.2623689      19.576373      1108.5284     -71.743803    
       290  -71.743817      54.420994     -28.883506     -19.515385      42.850816      1155.5773      3011.6121      6.1141469      9.2618064      19.575819      1108.5404     -71.743817    
       291  -71.743827      15.246598     -4.3902365     -9.3680747      55.185094      1160.1954      3007.6806      6.1147574      9.261313       19.575116      1108.5521     -71.743827    
       292  -71.743834     -11.259407      4.6172907      5.4643655      62.371482      1163.8925      3005.1154      6.1151877      9.2611243      19.574266      1108.5595     -71.743834    
       293  -71.743852      5.2275329     -59.030007      56.406676      48.8783        1172.1196      3006.5567      6.1150683      9.2620515      19.572552      1108.5517     -71.743852    
       294  -71.743859      1.9641196     -25.692365      26.656871      54.646919      1176.3563      3004.8394      6.1150797      9.26113        19.57451       1108.5544     -71.743859    
       295  -71.743859      1.9641196     -25.692365      26.656871      54.646919      1176.3563      3004.8394      6.1150797      9.26113        19.57451       1108.5544     -71.743859    
Loop time of 2.96873 on 1 procs for 20 steps with 48 atoms

221.3% CPU use with 1 MPI tasks x no OpenMP threads

Minimization stats:
  Stopping criterion = linesearch alpha is zero
  Energy initial, next-to-last, final = 
     -71.7430648818193    -71.74385927348    -71.74385927348
  Force two-norm initial, final = 0.60487355 0.026539032
  Force max component initial, final = 0.44743037 0.018449392
  Final line search alpha, max atom move = 1.0586392e-05 1.953125e-07
  Iterations, force evaluations = 20 39

MPI task timing breakdown:
Section |  min time  |  avg time  |  max time  |%varavg| %total
---------------------------------------------------------------
Pair    | 2.9659     | 2.9659     | 2.9659     |   0.0 | 99.91
Neigh   | 0          | 0          | 0          |   0.0 |  0.00
Comm    | 0.00016803 | 0.00016803 | 0.00016803 |   0.0 |  0.01
Output  | 0.0016944  | 0.0016944  | 0.0016944  |   0.0 |  0.06
Modify  | 0          | 0          | 0          |   0.0 |  0.00
Other   |            | 0.0009306  |            |       |  0.03

Nlocal:             48 ave          48 max          48 min
Histogram: 1 0 0 0 0 0 0 0 0 0
Nghost:            840 ave         840 max         840 min
Histogram: 1 0 0 0 0 0 0 0 0 0
Neighs:              0 ave           0 max           0 min
Histogram: 1 0 0 0 0 0 0 0 0 0
FullNghs:         4128 ave        4128 max        4128 min
Histogram: 1 0 0 0 0 0 0 0 0 0

Total # of neighbors = 4128
Ave neighs/atom = 86
Neighbor list builds = 0
Dangerous builds not checked
fix             1 all box/relax tri 0.0
minimize        1.000000e-12 1.000000e-06 5000 500000
WARNING: Using 'neigh_modify every 1 delay 0 check yes' setting during minimization (../min.cpp:187)
Generated 0 of 3 mixed pair_coeff terms from geometric mixing rule
Per MPI rank memory allocation (min/avg/max) = 5.465 | 5.465 | 5.465 Mbytes
   Step         PotEng          Pxx            Pyy            Pzz            Pxy            Pxz            Pyz             Lx             Ly             Lz           Volume         c_mype    
       295  -71.743859      1.9641196     -25.692365      26.656871      54.646919      1176.3563      3004.8394      6.1150797      9.26113        19.57451       1108.5544     -71.743859    
       296  -71.743964      0.90315118    -23.626908      25.796968      53.543902      1174.1114      2995.1001      6.1150805      9.2611133      19.574547      1108.5546     -71.743964    
       297  -71.744069     -0.12527549    -21.621585      24.962016      52.434914      1171.8641      2985.3652      6.1150809      9.2610978      19.574582      1108.5548     -71.744069    
       298  -71.744173     -1.1360333     -19.689251      24.143997      51.322229      1169.6153      2975.6344      6.1150809      9.2610836      19.574617      1108.5551     -71.744173    
       299  -71.744277     -2.1158236     -17.818558      23.347006      50.203517      1167.3637      2965.908       6.1150804      9.2610706      19.574651      1108.5554     -71.744277    
       300  -71.74438      -3.063303      -16.007718      22.575168      49.080136      1165.1105      2956.186       6.1150795      9.2610588      19.574683      1108.5556     -71.74438     
       301  -71.744484     -3.9915671     -14.262738      21.81925       47.952164      1162.8549      2946.4678      6.1150782      9.2610482      19.574715      1108.5559     -71.744484    
       302  -71.744587     -4.8890121     -12.579179      21.084384      46.819392      1160.5966      2936.754       6.1150764      9.2610388      19.574745      1108.5562     -71.744587    
       303  -71.744689     -5.7645936     -10.952228      20.368794      45.683814      1158.3371      2927.0438      6.1150742      9.2610304      19.574775      1108.5565     -71.744689    
       304  -71.744791     -6.6198045     -9.3834554      19.668401      44.545292      1156.0751      2917.3372      6.1150717      9.2610232      19.574804      1108.5568     -71.744791    
       305  -71.744893     -7.4383564     -7.8583882      18.99545       43.401757      1153.8116      2907.6343      6.1150687      9.2610168      19.574832      1108.5571     -71.744893    
       306  -71.744995     -8.2365307     -6.391511       18.337676      42.255283      1151.5457      2897.9351      6.1150654      9.2610116      19.574859      1108.5574     -71.744995    
       307  -71.745096     -9.0114442     -4.9738762      17.698223      41.106344      1149.2777      2888.2391      6.1150617      9.2610073      19.574885      1108.5577     -71.745096    
       308  -71.745197     -9.7630919     -3.6054989      17.077091      39.954936      1147.0076      2878.5464      6.1150576      9.261004       19.57491       1108.558      -71.745197    
       309  -71.745298     -10.488679     -2.2773384      16.47758       38.801611      1144.7364      2868.8567      6.1150532      9.2610015      19.574935      1108.5583     -71.745298    
       310  -71.745398     -11.191        -0.99843328     15.896366      37.645814      1142.4631      2859.1703      6.1150485      9.2609999      19.574959      1108.5586     -71.745398    
       311  -71.745498     -11.880506      0.2344793      15.327599      36.489411      1140.1878      2849.4865      6.1150435      9.2609992      19.574982      1108.5589     -71.745498    
       312  -71.745598     -12.545585      1.4258306      14.77642       35.332202      1137.9105      2839.8057      6.1150381      9.2609993      19.575004      1108.5592     -71.745598    
       313  -71.745697     -13.186168      2.5754413      14.242944      34.17302       1135.6318      2830.128       6.1150324      9.2610003      19.575026      1108.5595     -71.745697    
       314  -71.745796     -13.802169      3.6832516      13.726978      33.01179       1133.3508      2820.4533      6.1150263      9.2610021      19.575046      1108.5598     -71.745796    
       315  -71.745895     -14.402463      4.7540086      13.226585      31.850435      1131.0682      2810.7808      6.11502        9.2610046      19.575067      1108.5601     -71.745895    
       316  -71.745993     -14.978317      5.7831892      12.74375       30.688275      1128.7836      2801.1114      6.1150133      9.2610079      19.575086      1108.5603     -71.745993    
       317  -71.746091     -15.540039      6.7738258      12.272568      29.525929      1126.497       2791.4442      6.1150064      9.261012       19.575105      1108.5606     -71.746091    
       318  -71.746189     -16.087773      7.7261424      11.813097      28.364636      1124.2085      2781.7795      6.1149992      9.2610167      19.575123      1108.561      -71.746189    
       319  -71.746286     -16.608027      8.6455835      11.374269      27.201774      1121.9182      2772.1174      6.1149917      9.2610222      19.575141      1108.5612     -71.746286    
       320  -71.746383     -17.11126       9.5354355      10.950227      26.039207      1119.6261      2762.4572      6.114984       9.2610283      19.575158      1108.5615     -71.746383    
       321  -71.74648      -17.602074      10.38547       10.533971      24.87764       1117.3319      2752.7994      6.114976       9.2610351      19.575174      1108.5618     -71.74648     
       322  -71.746576     -18.076007      11.206134      10.132557      23.717607      1115.0362      2743.1437      6.1149678      9.2610425      19.57519       1108.5621     -71.746576    
       323  -71.746672     -18.532907      11.997193      9.7459172      22.557875      1112.7387      2733.4899      6.1149593      9.2610505      19.575205      1108.5624     -71.746672    
       324  -71.746768     -18.962737      12.761593      9.3752852      21.398188      1110.4391      2723.8386      6.1149505      9.261059       19.57522       1108.5627     -71.746768    
       325  -71.746864     -19.387438      13.492415      9.0143924      20.241473      1108.1382      2714.189       6.1149415      9.2610682      19.575234      1108.5629     -71.746864    
       326  -71.746959     -19.796676      14.192127      8.6643581      19.084999      1105.8353      2704.5413      6.1149324      9.261078       19.575248      1108.5632     -71.746959    
       327  -71.747053     -20.187714      14.86993       8.3283902      17.93049       1103.5307      2694.8954      6.1149229      9.2610883      19.575261      1108.5635     -71.747053    
       328  -71.747148     -20.56343       15.516857      8.003327       16.777462      1101.2243      2685.2515      6.1149133      9.2610991      19.575274      1108.5638     -71.747148    
       329  -71.747242     -20.920939      16.141872      7.6923195      15.626401      1098.9162      2675.6094      6.1149034      9.2611104      19.575286      1108.564      -71.747242    
       330  -71.747336     -21.261669      16.743244      7.3914006      14.476011      1096.6061      2665.9691      6.1148933      9.2611222      19.575298      1108.5643     -71.747336    
       331  -71.747429     -21.59595       17.318494      7.0994469      13.329019      1094.2946      2656.33        6.114883       9.2611345      19.575309      1108.5645     -71.747429    
       332  -71.747523     -21.913506      17.870264      6.8174558      12.183873      1091.9805      2646.6928      6.1148725      9.2611473      19.57532       1108.5648     -71.747523    
       333  -71.747616     -22.212842      18.400114      6.5495013      11.040701      1089.6647      2637.0573      6.1148618      9.2611605      19.575331      1108.565      -71.747616    
       334  -71.747708     -22.507298      18.902355      6.2865839      9.9008779      1087.3473      2627.4232      6.1148509      9.2611742      19.575341      1108.5653     -71.747708    
       335  -71.7478       -22.782225      19.390145      6.0369512      8.7634509      1085.0282      2617.7906      6.1148399      9.2611883      19.575351      1108.5655     -71.7478      
       336  -71.747892     -23.052177      19.850238      5.7921834      7.6293074      1082.7067      2608.1593      6.1148286      9.2612028      19.575361      1108.5658     -71.747892    
       337  -71.747984     -23.302594      20.295883      5.5606878      6.4975624      1080.3836      2598.5296      6.1148172      9.2612177      19.57537       1108.566      -71.747984    
       338  -71.748075     -23.545153      20.722807      5.3372028      5.3695805      1078.0583      2588.9009      6.1148056      9.261233       19.575379      1108.5662     -71.748075    
       339  -71.748166     -23.769743      21.133779      5.1230791      4.2439532      1075.7311      2579.2737      6.1147938      9.2612486      19.575387      1108.5664     -71.748166    
       340  -71.748257     -23.989432      21.517125      4.9139714      3.1216843      1073.4021      2569.648       6.1147819      9.2612647      19.575396      1108.5667     -71.748257    
       341  -71.748347     -24.2014        21.881983      4.712919       2.0044252      1071.0712      2560.0234      6.1147699      9.2612811      19.575403      1108.5669     -71.748347    
       342  -71.748437     -24.392509      22.239859      4.5243762      0.89000077     1068.7386      2550.4001      6.1147576      9.2612978      19.575411      1108.5671     -71.748437    
       343  -71.748527     -24.577318      22.577497      4.3399302     -0.22070896     1066.4036      2540.7778      6.1147452      9.2613149      19.575418      1108.5673     -71.748527    
       344  -71.748616     -24.754335      22.896492      4.1636334     -1.3275706      1064.0671      2531.1567      6.1147327      9.2613323      19.575426      1108.5675     -71.748616    
       345  -71.748705     -24.925192      23.195489      3.9914775     -2.429472       1061.7284      2521.5367      6.11472        9.26135        19.575432      1108.5677     -71.748705    
       346  -71.748794     -25.086946      23.483304      3.8267296     -3.5270985      1059.3882      2511.9176      6.1147073      9.261368       19.575439      1108.568      -71.748794    
       347  -71.748882     -25.242388      23.750882      3.6660587     -4.6210059      1057.0455      2502.2996      6.1146944      9.2613864      19.575445      1108.5682     -71.748882    
       348  -71.74897      -25.388632      24.007198      3.512623      -5.7107052      1054.7008      2492.6824      6.1146814      9.261405       19.575451      1108.5684     -71.74897     
       349  -71.749058     -25.525909      24.252566      3.3666423     -6.7948844      1052.3547      2483.0661      6.1146683      9.2614238      19.575457      1108.5686     -71.749058    
       350  -71.749146     -25.653984      24.486672      3.2278906     -7.8748575      1050.0065      2473.4506      6.1146551      9.2614429      19.575463      1108.5688     -71.749146    
       351  -71.749233     -25.775883      24.700786      3.09325       -8.9498632      1047.656       2463.8364      6.1146417      9.2614623      19.575468      1108.569      -71.749233    
       352  -71.74932      -25.890231      24.902204      2.9620995     -10.020637      1045.3037      2454.2231      6.1146283      9.261482       19.575473      1108.5692     -71.74932     
       353  -71.749406     -25.995363      25.09235       2.8381718     -11.087191      1042.9492      2444.6106      6.1146147      9.2615019      19.575478      1108.5694     -71.749406    
       354  -71.749492     -26.091425      25.271469      2.7215149     -12.14829       1040.5928      2434.9991      6.114601       9.2615221      19.575483      1108.5696     -71.749492    
       355  -71.749578     -26.176963      25.446799      2.6113294     -13.204742      1038.2341      2425.3881      6.1145871      9.2615423      19.575488      1108.5698     -71.749578    
       356  -71.749664     -26.253426      25.611107      2.5084044     -14.255735      1035.8735      2415.7781      6.1145732      9.2615628      19.575492      1108.57       -71.749664    
       357  -71.749749     -26.322237      25.762652      2.4087758     -15.302556      1033.5104      2406.1689      6.1145591      9.2615836      19.575496      1108.5702     -71.749749    
       358  -71.749834     -26.383538      25.901667      2.3124984     -16.343964      1031.1449      2396.5608      6.1145449      9.2616045      19.575501      1108.5703     -71.749834    
       359  -71.749919     -26.444642      26.034424      2.2215657     -17.377997      1028.778       2386.9529      6.1145307      9.2616256      19.575505      1108.5705     -71.749919    
       360  -71.750003     -26.498087      26.15442       2.1339178     -18.407856      1026.4086      2377.3459      6.1145164      9.261647       19.575508      1108.5707     -71.750003    
       361  -71.750087     -26.544011      26.261877      2.0496184     -19.432299      1024.0368      2367.7399      6.114502       9.2616686      19.575512      1108.5709     -71.750087    
       362  -71.750171     -26.57953       26.36577       1.9718337     -20.450845      1021.663       2358.1347      6.1144875      9.2616903      19.575516      1108.571      -71.750171    
       363  -71.750254     -26.619147      26.452687      1.8922513     -21.463776      1019.287       2348.5299      6.1144729      9.2617122      19.575519      1108.5712     -71.750254    
       364  -71.750337     -26.648353      26.536053      1.8191669     -22.4708        1016.909       2338.9259      6.1144583      9.2617342      19.575522      1108.5714     -71.750337    
       365  -71.75042      -26.667146      26.615861      1.7525832     -23.471917      1014.5289      2329.3226      6.1144435      9.2617564      19.575526      1108.5715     -71.75042     
       366  -71.750502     -26.690027      26.67869       1.6841959     -24.467419      1012.1466      2319.7198      6.1144287      9.2617788      19.575529      1108.5717     -71.750502    
       367  -71.750584     -26.7024        26.73788       1.6221398     -25.457084      1009.7615      2310.1178      6.1144138      9.2618014      19.575532      1108.5719     -71.750584    
       368  -71.750666     -26.716122      26.789308      1.5614971     -26.439408      1007.3747      2300.5161      6.1143989      9.261824       19.575535      1108.572      -71.750666    
       369  -71.750748     -26.720992      26.835689      1.503426      -27.415867      1004.9856      2290.9151      6.1143839      9.2618468      19.575537      1108.5722     -71.750748    
       370  -71.750829     -26.726973      26.874         1.4465361     -28.38629       1002.5938      2281.3144      6.1143689      9.2618697      19.57554       1108.5724     -71.750829    
       371  -71.75091      -26.722518      26.908737      1.3961438     -29.350799      1000.1999      2271.7145      6.1143537      9.2618927      19.575543      1108.5725     -71.75091     
       372  -71.75099      -26.707537      26.939843      1.3520635     -30.309456      997.80334      2262.1153      6.1143385      9.2619158      19.575545      1108.5727     -71.75099     
[...]
       707  -71.765292      38.752539      42.412159      1.317831      -0.087358219    2.5716195      8.1948377      6.1130585      9.2644719      19.572591      1108.4792     -71.765292    
       708  -71.765295     -21.788116     -27.532291     -40.228737      1.6778401      1.4629003      9.1470756      6.113479       9.2651759      19.57273       1108.6475     -71.765295    
       709  -71.765302     -26.374328     -33.782263      6.3025508      3.4338332      6.920935       7.7216223      6.1137118      9.265479       19.570772      1108.6151     -71.765302    
       710  -71.765307      37.450422      45.974498      45.587645      2.0763266      7.7093708      6.509249       6.1132736      9.2646087      19.57086       1108.4365     -71.765307    
       711  -71.765315      40.612737      57.91327      -0.27223644     1.21456        2.5236488      7.4274058      6.1130936      9.2641915      19.572817      1108.4648     -71.765315    
       712  -71.76532      -22.818581     -24.813667     -46.82281       1.8842725      0.75496578     8.9469494      6.1134992      9.2650644      19.572987      1108.6524     -71.76532     
       713  -71.765326     -22.147396     -40.488739     -0.91331872     1.5843575      5.4001175      8.285118       6.11364        9.2655332      19.571029      1108.6232     -71.765326    
       714  -71.765329      30.027399      33.927713      41.774577      1.8907295      7.5000082      6.5580379      6.1133457      9.2647274      19.570778      1108.4591     -71.765329    
       715  -71.765339      24.610434      59.739028     -3.4448308      4.1997851      3.558914       6.3140586      6.1133102      9.2640623      19.572735      1108.484      -71.765339    
       716  -71.765344     -27.740719     -23.380434     -47.623476      2.8667885      1.0222211      8.407813       6.1135878      9.2649884      19.572952      1108.6574     -71.765344    
       717  -71.765351     -7.5179655     -39.588609      4.6573763     -0.8656542      4.5694822      8.6957895      6.1135107      9.2655605      19.570994      1108.601      -71.765351    
       718  -71.765355      29.55995       36.166412      37.735248      2.0234938      7.001723       6.3151581      6.1133707      9.2646344      19.570935      1108.4614     -71.765355    
       719  -71.765364     -11.903376      38.839311     -25.394663      7.7094667      3.6987628      5.5962008      6.1136557      9.2641299      19.572892      1108.5636     -71.765364    
       720  -71.765374     -14.955908     -20.611014     -25.026255      1.5460678      2.3051643      8.0684243      6.1135591      9.265056       19.572238      1108.6199     -71.765374    
       721  -71.765378      46.95051       35.977929      53.738371     -0.69176227     7.0660729      6.6276259      6.1132451      9.26474        19.570515      1108.4275     -71.765378    
       722  -71.76539       84.204575      62.641445      122.41041     -2.1803722      12.034299      5.3284932      6.1131399      9.2647502      19.568558      1108.2988     -71.76539     
       723  -71.765414     -15.46763      -40.924953      22.215923      0.85908056     6.8671169      7.1762633      6.1137515      9.2655494      19.57014       1108.5949     -71.765414    
       724  -71.765423     -4.671706       9.8512174     -6.6301138      3.6131107      3.9956286      6.2381174      6.113638       9.2646233      19.571918      1108.5643     -71.765423    
       725  -71.765445      49.342971     -18.056958      18.245216     -8.6062973      0.91522695     9.6563451      6.1130264      9.2653334      19.571351      1108.5062     -71.765445    
       726  -71.765457     -16.705933     -34.831554     -28.19462      -0.072353683    1.1918108      7.8914142      6.113638       9.2651347      19.572134      1108.6377     -71.765457    
       727  -71.765466      5.9567497      42.646985      21.848473      6.2103937      6.8716674      4.0518733      6.1137546      9.2642086      19.571231      1108.4969     -71.765466    
       728  -71.765489     -27.759291      59.146171      19.413123      14.043112      9.9692858      1.1418811      6.1142402      9.2637786      19.571027      1108.5219     -71.765489    
       729  -71.765498     -35.702285     -13.105568     -18.57083       6.0344418      4.3467813      5.0685991      6.1140216      9.2647047      19.571688      1108.6305     -71.765498    
       730  -71.765502      31.474831      7.2908925      23.885797     -2.4608737      3.5233199      6.6870333      6.1134101      9.2648047      19.5711        1108.4983     -71.765502    
       731  -71.765515      63.617147     -40.931931     -6.426335      -14.789702     -4.308694       11.454836      6.1127985      9.265501       19.572215      1108.5339     -71.765515    
       732  -71.765532      9.6855437     -29.335147     -33.613581     -4.6428196     -2.2085154      8.4617889      6.1134101      9.2649786      19.57268       1108.6086     -71.765532    
       733  -71.765534      26.651878      21.436104      16.270808     -0.34438077     3.2732956      5.6125647      6.1135213      9.26447        19.571448      1108.4982     -71.765534    
       734  -71.765537     -26.153324      10.753281      10.366119      7.8103146      7.1207411      3.2013404      6.1141328      9.2644296      19.570877      1108.5719     -71.765537    
       735  -71.765548     -9.459099      -56.95151      -27.215003     -4.121824      -0.6255264      8.2412799      6.1136311      9.2653557      19.571884      1108.6487     -71.765548    
       736  -71.765556      84.758947      43.954886      51.944228     -7.2156666      2.3987096      6.5330167      6.1130376      9.2644296      19.571005      1108.3805     -71.765556    
       737  -71.765569      124.2405       116.29289      79.146164     -5.3451669      3.7047708      4.4134524      6.1128648      9.2635034      19.571157      1108.247      -71.765569    
       738  -71.765592      34.474427      44.554602     -10.472192     -0.18188204    -0.30175613     4.9994052      6.1134763      9.2638761      19.572769      1108.4937     -71.765592    
       739  -71.765595     -11.346799     -13.82986      -32.190499      0.77437961    -0.18912047     5.6801112      6.1138183      9.2645451      19.572436      1108.6169     -71.765595    
       740  -71.765597     -1.2373663     -9.046145       22.111231      1.218444       5.1312487      4.413017       6.1139209      9.2647662      19.570479      1108.5511     -71.765597    
       741  -71.765615     -17.192701      37.438038      17.850261      9.1054518      7.2242317      1.1913187      6.1142518      9.2639095      19.570879      1108.5313     -71.765615    
       742  -71.76562      -27.382116     -40.363506     -36.260603      0.39725568    -0.16129115     5.6993424      6.1139862      9.2648356      19.572086      1108.6623     -71.76562     
       743  -71.765626      24.565653     -51.212861     -24.47996      -9.8250848     -3.9449848      8.7313294      6.1133747      9.265223       19.572185      1108.6034     -71.765626    
       744  -71.76563       54.862577      30.667019      33.724843     -4.188328       2.084568       4.9323499      6.1134351      9.2642969      19.57111       1108.4426     -71.76563     
       745  -71.765632      4.3447489     -12.239745     -11.368629     -1.3834797      0.42240247     5.3233735      6.1137809      9.2645894      19.57179       1108.5789     -71.765632    
       746  -71.765634     -27.216269      21.882346      11.046258      8.8503439      6.7545745      1.2314776      6.1143501      9.2640446      19.570833      1108.5627     -71.765634    
       747  -71.765651     -34.389442     -7.3460858      28.111876      7.3247555      8.3580557      1.382073       6.1144716      9.2645272      19.569748      1108.581      -71.765651    
       748  -71.765655      11.344188      4.9602062      7.7087202     -0.13440006     2.1879354      3.9971002      6.1138601      9.264375       19.57127       1108.5381     -71.765655    
       749  -71.765656     -19.091944     -24.454029     -34.713028      0.64928287    -0.65561444     4.8107542      6.1140037      9.2645284      19.572241      1108.6375     -71.765656    
       750  -71.765664     -54.139383     -30.978481     -98.310982      4.0460177     -4.9647387      4.7146194      6.1142017      9.264169       19.574199      1108.7413     -71.765664    
       751  -71.765678      30.278458      70.801416     -6.6170541      3.1056347      0.32495853     1.9160743      6.1137938      9.2632428      19.572698      1108.4715     -71.765678    
       752  -71.765693      22.046509      17.645533      22.756885     -0.69727129     2.7639686      2.7543301      6.1139132      9.264169       19.570879      1108.5009     -71.765693    
       753  -71.765694     -2.8211584     -6.8398012     -3.942683       0.18314286     1.3453224      3.2364646      6.1140578      9.2643442      19.571357      1108.5752     -71.765694    
       754  -71.765699     -26.79325       41.288468     -15.796028      10.389556      3.5365491      0.049764038    6.1144463      9.2634181      19.571976      1108.5699     -71.765699    
       755  -71.765713      7.3727132     -5.0928786      7.3065279      0.72488321     1.7190088      3.4452724      6.1140358      9.2643442      19.57102       1108.5521     -71.765713    
       756  -71.765717     -63.419763     -29.68958      -71.749218      6.3811871     -1.7960693      2.1136246      6.1145759      9.2640707      19.572937      1108.7259     -71.765717    
       757  -71.765719     -98.04269      -27.266289     -110.85967      10.000547     -3.3351734      0.50436077     6.1148877      9.2636868      19.574029      1108.7983     -71.765719    
       758  -71.76573      -64.927286      31.376386     -75.746592      9.7948892     -1.2003208     -2.1269706      6.1147951      9.2629874      19.573648      1108.6763     -71.76573     
       759  -71.765735      4.1878234      45.374737      0.57116951     1.7210628      1.5573814     -0.93036214     6.114271       9.2633709      19.571691      1108.5163     -71.765735    
       760  -71.765736     -8.2923074     -3.9597937     -11.658054     -1.5864975      0.014480192    1.096415       6.1142576      9.2640558      19.571511      1108.5856     -71.765736    
       761  -71.765737      5.2003421     -2.1135305      5.1081873     -2.760262       0.79366693     1.4379336      6.1141606      9.2641549      19.571045      1108.5535     -71.765737    
       762  -71.76574      -20.541266     -20.459381      14.286864      14.649819      5.5020172      4.480266       6.1144769      9.2644309      19.570121      1108.5915     -71.76574     
       763  -71.765743      29.678938      42.379966      28.125776      19.782287      4.9791843      5.739799       6.1140745      9.2636628      19.57084       1108.4674     -71.765743    
       764  -71.765746      32.605098      45.558743     -20.643835      23.96204      -0.073379509    8.5827464      6.1138763      9.2633685      19.572797      1108.5071     -71.765746    
       765  -71.765749     -15.657897     -21.461376     -52.355797      22.123946     -1.3839527      9.2151602      6.1142001      9.264101       19.572734      1108.6499     -71.765749    
       766  -71.765751     -8.5110349     -24.950686     -1.108339       16.780308      2.9355977      6.7772245      6.1143196      9.2644047      19.570776      1108.597      -71.765751    
       767  -71.765752      7.4398942      2.9227728      12.209646      15.420271      3.4742998      5.4362337      6.1142446      9.2640717      19.570745      1108.5418     -71.765752    
       768  -71.765752     -3.8924645      5.9657144     -8.5774231      11.401129      1.4779238      3.6239154      6.1143188      9.2638623      19.571454      1108.5703     -71.765752    
       769  -71.765753      2.3316067      1.3001114     -3.5250018     -1.9242393     -0.21581219     0.71234055     6.1142661      9.2639393      19.571307      1108.5617     -71.765753    
       770  -71.765753     -3.592926      -2.3501306      6.4356155     -0.10520778     1.4624383      0.49608536     6.1143698      9.2640288      19.570798      1108.5624     -71.765753    
       771  -71.765755     -18.605765     -6.4936464     -11.533443      17.06063       2.6197153      4.5375363      6.1144851      9.2639778      19.571219      1108.601      -71.765755    
       772  -71.765756      11.398745      16.248117      13.437333      16.740109      3.5203906      4.9099454      6.1142723      9.2638348      19.57085       1108.5244     -71.765756    
       773  -71.765757      44.350478      12.084774      23.409656      10.310903      1.3734115      6.4118896      6.1139182      9.2640297      19.570827      1108.4823     -71.765757    
       774  -71.765759      14.939707     -30.565371     -16.112837      7.0488206     -1.994466       6.9777536      6.1140489      9.2643833      19.571554      1108.5894     -71.765759    
       775  -71.765761     -16.48338      -0.13700612    -12.097248      8.7800809      1.0633467      1.3891192      6.1145639      9.2637581      19.571282      1108.5926     -71.765761    
       776  -71.765761     -2.1897324      12.082863      4.683336       6.6025007      1.7774175      0.70677686     6.1144871      9.2636847      19.570932      1108.5501     -71.765761    
       777  -71.765761      2.6693917     -1.6808011      3.84392        2.0602474      0.57540625     1.0246026      6.1143952      9.2639058      19.570892      1108.5576     -71.765761    
       778  -71.765761     -1.1373729     -4.0583669     -1.6242009      1.651409       0.15059407     0.88267637     6.1144163      9.2639014      19.571034      1108.5689     -71.765761    
       779  -71.765761     -0.31091743     0.99649707    -1.4910452      1.19888        0.10912524     0.43475079     6.1144202      9.2638208      19.571092      1108.5633     -71.765761    
       780  -71.765761      1.260055       1.7273416      1.4042822      0.48045857     0.23113101     0.22843342     6.1144148      9.2638264      19.571007      1108.5581     -71.765761    
       781  -71.765761     -0.14551097    -0.90954152     0.73776132    -0.11905656     0.14023083     0.13106735     6.1144239      9.2638584      19.570989      1108.5626     -71.765761    
       782  -71.765761     -1.2345209     -0.67593376    -1.7868899     -0.61575404    -0.12851788    -0.06817501     6.1144293      9.2638359      19.571077      1108.5659     -71.765761    
       783  -71.765761      0.47826337     1.6811655     -0.58052064    -0.96622212    -0.13298647    -0.22482816     6.1144193      9.2638084      19.571076      1108.5607     -71.765761    
       784  -71.765761      2.2829167     -0.51313279     2.8777921     -2.0110339     -0.057984908   -0.33722004     6.1144076      9.2638624      19.570941      1108.5574     -71.765761    
       785  -71.765761     -1.7181342     -4.7280626     -0.45451932    -2.0162739     -0.21707651    -0.35801117     6.1144357      9.2638974      19.570976      1108.5687     -71.765761    
       786  -71.765761     -3.777879       1.7258046     -1.6033473     -0.62251682     0.01037285    -0.7825305      6.1144784      9.2637759      19.571054      1108.5663     -71.765761    
       787  -71.765761      1.1454963      3.6893553      1.7576349     -0.79042526     0.031636787   -0.6038705      6.1144369      9.2637765      19.571003      1108.556      -71.765761    
       788  -71.765761      1.1043595     -0.40407075     0.040812781   -0.90590421    -0.22657936    -0.26054271     6.1144217      9.2638329      19.571027      1108.5613     -71.765761    
       789  -71.765761     -0.45996238    -0.80556665    -0.72838258    -0.50262344    -0.15519662    -0.23459625     6.114437       9.2638308      19.571033      1108.5642     -71.765761    
       790  -71.765761     -0.27787143     0.24914472     0.059920084   -0.24118434    -0.032181297   -0.23298668     6.1144404      9.2638189      19.571014      1108.5623     -71.765761    
       791  -71.765761      0.34521095     0.15295122     0.3235864     -0.13347533    -0.028365017   -0.097835445    6.1144333      9.2638243      19.571011      1108.5615     -71.765761    
       792  -71.765761      0.12978295    -0.24340691    -0.039910066   -0.054897159   -0.045276112   -0.033766592    6.1144336      9.2638284      19.571018      1108.5624     -71.765761    
       793  -71.765761     -0.085781186   -0.01344521    -0.1298011      0.083528122   -0.015120591   -0.0062912389   6.1144364      9.2638237      19.571021      1108.5625     -71.765761    
       794  -71.765761      0.029288454    0.13211134     0.048480883    0.089017343    0.0011258791  -0.0021963543   6.1144361      9.2638227      19.571017      1108.5621     -71.765761    
Loop time of 40.4003 on 1 procs for 499 steps with 48 atoms

216.9% CPU use with 1 MPI tasks x no OpenMP threads

Minimization stats:
  Stopping criterion = energy tolerance
  Energy initial, next-to-last, final = 
       -71.74385927348   -71.765761083761  -71.7657610837846
  Force two-norm initial, final = 1.0166363 0.00012282881
  Force max component initial, final = 0.98365088 9.1382598e-05
  Final line search alpha, max atom move = 1 9.1382598e-05
  Iterations, force evaluations = 499 551

MPI task timing breakdown:
Section |  min time  |  avg time  |  max time  |%varavg| %total
---------------------------------------------------------------
Pair    | 40.293     | 40.293     | 40.293     |   0.0 | 99.73
Neigh   | 0          | 0          | 0          |   0.0 |  0.00
Comm    | 0.0025623  | 0.0025623  | 0.0025623  |   0.0 |  0.01
Output  | 0.090144   | 0.090144   | 0.090144   |   0.0 |  0.22
Modify  | 0          | 0          | 0          |   0.0 |  0.00
Other   |            | 0.01449    |            |       |  0.04

Nlocal:             48 ave          48 max          48 min
Histogram: 1 0 0 0 0 0 0 0 0 0
Nghost:            840 ave         840 max         840 min
Histogram: 1 0 0 0 0 0 0 0 0 0
Neighs:              0 ave           0 max           0 min
Histogram: 1 0 0 0 0 0 0 0 0 0
FullNghs:         4128 ave        4128 max        4128 min
Histogram: 1 0 0 0 0 0 0 0 0 0

Total # of neighbors = 4128
Ave neighs/atom = 86
Neighbor list builds = 0
Dangerous builds not checked
variable        N equal count(all)
variable        V equal vol
variable        E equal "c_mype"
variable        tmplx equal lx
variable        tmply equal ly
variable        Pxx equal pxx
variable        Pyy equal pyy
variable        Pzz equal pzz
variable        Pxy equal pxy
variable        Pxz equal pxz
variable        Pyz equal pyz
variable        Epa equal ${E}/${N}
variable        Epa equal -71.7657610837846/${N}
variable        Epa equal -71.7657610837846/48
variable        Vpa equal ${V}/${N}
variable        Vpa equal 1108.56210889768/${N}
variable        Vpa equal 1108.56210889768/48
variable        AA equal (${tmplx}*${tmply})
variable        AA equal (6.11443608999252*${tmply})
variable        AA equal (6.11443608999252*9.26382267475128)
write_data      min.dat
System init for write_data ...
Generated 0 of 3 mixed pair_coeff terms from geometric mixing rule
print "All done"
All done
print "Total number of atoms = ${N}"
Total number of atoms = 48
print "Final energy per atoms = ${Epa}"
Final energy per atoms = -1.49512002257885
print "Final volume per atoms = ${Vpa}"
Final volume per atoms = 23.0950439353683
print "Final Base area = ${AA}"
Final Base area = 56.6430516937903
print "Final Stress (xx yy zz xy xz yz) = ${Pxx} ${Pyy} ${Pzz} ${Pxy} ${Pxz} ${Pyz}"
ERROR: Compute pressure thermo_press used in variable thermo keyword between runs is not current (../thermo.cpp:1174)
Last command: Final Stress (xx yy zz xy xz yz) = ${Pxx
