Generated by pymatgen.io.lammps.data.LammpsData

900  atoms

  4  atom types

0.000000 26.389650  xlo xhi
0.000000 26.389650  ylo yhi
0.000000 25.403760  zlo zhi

Masses

1   6.941000
2  72.640000
3  30.973762
4  32.065000

Atoms

1    1  1.916284  7.174449  9.578183
2    1  1.916284  7.174449 22.280088
3    1  1.916284 15.970990  9.578183
4    1  1.916284 15.970990 22.280088
5    1  1.916284 24.767505  9.578183
6    1  1.916284 24.767505 22.280088
7    1 10.712799  7.174449  9.578183
8    1 10.712799  7.174449 22.280088
9    1 10.712799 15.970990  9.578183
10   1 10.712799 15.970990 22.280088
11   1 10.712799 24.767505  9.578183
12   1 10.712799 24.767505 22.280088
13   1 19.509393  7.174449  9.578183
14   1 19.509393  7.174449 22.280088
15   1 19.509393 15.970990  9.578183
16   1 19.509393 15.970990 22.280088
17   1 19.509393 24.767505  9.578183
18   1 19.509393 24.767505 22.280088
19   1  1.954048  2.284130 11.680598
20   1  1.954048  2.284130 24.382402
21   1  1.954048 11.080697 11.680598
22   1  1.954048 11.080697 24.382402
23   1  1.954048 19.877212 11.680598
24   1  1.954048 19.877212 24.382402
25   1 10.750589  2.284130 11.680598
26   1 10.750589  2.284130 24.382402
27   1 10.750589 11.080697 11.680598
28   1 10.750589 11.080697 24.382402
29   1 10.750589 19.877212 11.680598
30   1 10.750589 19.877212 24.382402
31   1 19.547104  2.284130 11.680598
32   1 19.547104  2.284130 24.382402
33   1 19.547104 11.080697 11.680598
34   1 19.547104 11.080697 24.382402
35   1 19.547104 19.877212 11.680598
36   1 19.547104 19.877212 24.382402
37   1  2.012184  6.662094  3.195793
38   1  2.012184  6.662094 15.897698
39   1  2.012184 15.458608  3.195793
40   1  2.012184 15.458608 15.897698
41   1  2.012184 24.255202  3.195793
42   1  2.012184 24.255202 15.897698
43   1 10.808699  6.662094  3.195793
44   1 10.808699  6.662094 15.897698
45   1 10.808699 15.458608  3.195793
46   1 10.808699 15.458608 15.897698
47   1 10.808699 24.255202  3.195793
48   1 10.808699 24.255202 15.897698
49   1 19.605293  6.662094  3.195793
50   1 19.605293  6.662094 15.897698
51   1 19.605293 15.458608  3.195793
52   1 19.605293 15.458608 15.897698
53   1 19.605293 24.255202  3.195793
54   1 19.605293 24.255202 15.897698
55   1  2.020787  1.980015  4.671802
56   1  2.020787  1.980015 17.373708
57   1  2.020787 10.776609  4.671802
58   1  2.020787 10.776609 17.373708
59   1  2.020787 19.573098  4.671802
60   1  2.020787 19.573098 17.373708
61   1 10.817408  1.980015  4.671802
62   1 10.817408  1.980015 17.373708
63   1 10.817408 10.776609  4.671802
64   1 10.817408 10.776609 17.373708
65   1 10.817408 19.573098  4.671802
66   1 10.817408 19.573098 17.373708
67   1 19.613896  1.980015  4.671802
68   1 19.613896  1.980015 17.373708
69   1 19.613896 10.776609  4.671802
70   1 19.613896 10.776609 17.373708
71   1 19.613896 19.573098  4.671802
72   1 19.613896 19.573098 17.373708
73   1  2.117453  1.854902  8.257238
74   1  2.117453  1.854902 20.959093
75   1  2.117453 10.651496  8.257238
76   1  2.117453 10.651496 20.959093
77   1  2.117453 19.448011  8.257238
78   1  2.117453 19.448011 20.959093
79   1 10.913994  1.854902  8.257238
80   1 10.913994  1.854902 20.959093
81   1 10.913994 10.651496  8.257238
82   1 10.913994 10.651496 20.959093
83   1 10.913994 19.448011  8.257238
84   1 10.913994 19.448011 20.959093
85   1 19.710588  1.854902  8.257238
86   1 19.710588  1.854902 20.959093
87   1 19.710588 10.651496  8.257238
88   1 19.710588 10.651496 20.959093
89   1 19.710588 19.448011  8.257238
90   1 19.710588 19.448011 20.959093
91   1  2.145822  6.341063  6.163359
92   1  2.145822  6.341063 18.865188
93   1  2.145822 15.137605  6.163359
94   1  2.145822 15.137605 18.865188
95   1  2.145822 23.934199  6.163359
96   1  2.145822 23.934199 18.865188
97   1 10.942389  6.341063  6.163359
98   1 10.942389  6.341063 18.865188
99   1 10.942389 15.137605  6.163359
100  1 10.942389 15.137605 18.865188
101  1 10.942389 23.934199  6.163359
102  1 10.942389 23.934199 18.865188
103  1 19.738904  6.341063  6.163359
104  1 19.738904  6.341063 18.865188
105  1 19.738904 15.137605  6.163359
106  1 19.738904 15.137605 18.865188
107  1 19.738904 23.934199  6.163359
108  1 19.738904 23.934199 18.865188
109  1  2.157829  6.674734  0.085966
110  1  2.157829  6.674734 12.787897
111  1  2.157829 15.471302  0.085966
112  1  2.157829 15.471302 12.787897
113  1  2.157829 24.267790  0.085966
114  1  2.157829 24.267790 12.787897
115  1 10.954396  6.674734  0.085966
116  1 10.954396  6.674734 12.787897
117  1 10.954396 15.471302  0.085966
118  1 10.954396 15.471302 12.787897
119  1 10.954396 24.267790  0.085966
120  1 10.954396 24.267790 12.787897
121  1 19.750911  6.674734  0.085966
122  1 19.750911  6.674734 12.787897
123  1 19.750911 15.471302  0.085966
124  1 19.750911 15.471302 12.787897
125  1 19.750911 24.267790  0.085966
126  1 19.750911 24.267790 12.787897
127  1  2.280224  2.561195  1.985659
128  1  2.280224  2.561195 14.687489
129  1  2.280224 11.357710  1.985659
130  1  2.280224 11.357710 14.687489
131  1  2.280224 20.154303  1.985659
132  1  2.280224 20.154303 14.687489
133  1 11.076792  2.561195  1.985659
134  1 11.076792  2.561195 14.687489
135  1 11.076792 11.357710  1.985659
136  1 11.076792 11.357710 14.687489
137  1 11.076792 20.154303  1.985659
138  1 11.076792 20.154303 14.687489
139  1 19.873307  2.561195  1.985659
140  1 19.873307  2.561195 14.687489
141  1 19.873307 11.357710  1.985659
142  1 19.873307 11.357710 14.687489
143  1 19.873307 20.154303  1.985659
144  1 19.873307 20.154303 14.687489
145  1  4.071976  4.534613  9.525622
146  1  4.071976  4.534613 22.227502
147  1  4.071976 13.331207  9.525622
148  1  4.071976 13.331207 22.227502
149  1  4.071976 22.127695  9.525622
150  1  4.071976 22.127695 22.227502
151  1 12.868491  4.534613  9.525622
152  1 12.868491  4.534613 22.227502
153  1 12.868491 13.331207  9.525622
154  1 12.868491 13.331207 22.227502
155  1 12.868491 22.127695  9.525622
156  1 12.868491 22.127695 22.227502
157  1 21.665111  4.534613  9.525622
158  1 21.665111  4.534613 22.227502
159  1 21.665111 13.331207  9.525622
160  1 21.665111 13.331207 22.227502
161  1 21.665111 22.127695  9.525622
162  1 21.665111 22.127695 22.227502
163  1  4.362209  8.761417  0.640073
164  1  4.362209  8.761417 13.342004
165  1  4.362209 17.558011  0.640073
166  1  4.362209 17.558011 13.342004
167  1  4.362209 26.354499  0.640073
168  1  4.362209 26.354499 13.342004
169  1 13.158803  8.761417  0.640073
170  1 13.158803  8.761417 13.342004
171  1 13.158803 17.558011  0.640073
172  1 13.158803 17.558011 13.342004
173  1 13.158803 26.354499  0.640073
174  1 13.158803 26.354499 13.342004
175  1 21.955292  8.761417  0.640073
176  1 21.955292  8.761417 13.342004
177  1 21.955292 17.558011  0.640073
178  1 21.955292 17.558011 13.342004
179  1 21.955292 26.354499  0.640073
180  1 21.955292 26.354499 13.342004
181  1  4.503420  8.474456  6.975771
182  1  4.503420  8.474456 19.677600
183  1  4.503420 17.270997  6.975771
184  1  4.503420 17.270997 19.677600
185  1  4.503420 26.067591  6.975771
186  1  4.503420 26.067591 19.677600
187  1 13.299988  8.474456  6.975771
188  1 13.299988  8.474456 19.677600
189  1 13.299988 17.270997  6.975771
190  1 13.299988 17.270997 19.677600
191  1 13.299988 26.067591  6.975771
192  1 13.299988 26.067591 19.677600
193  1 22.096503  8.474456  6.975771
194  1 22.096503  8.474456 19.677600
195  1 22.096503 17.270997  6.975771
196  1 22.096503 17.270997 19.677600
197  1 22.096503 26.067591  6.975771
198  1 22.096503 26.067591 19.677600
199  1  6.439180  2.271225 10.878195
200  1  6.439180  2.271225 23.580100
201  1  6.439180 11.067793 10.878195
202  1  6.439180 11.067793 23.580100
203  1  6.439180 19.864308 10.878195
204  1  6.439180 19.864308 23.580100
205  1 15.235695  2.271225 10.878195
206  1 15.235695  2.271225 23.580100
207  1 15.235695 11.067793 10.878195
208  1 15.235695 11.067793 23.580100
209  1 15.235695 19.864308 10.878195
210  1 15.235695 19.864308 23.580100
211  1 24.032289  2.271225 10.878195
212  1 24.032289  2.271225 23.580100
213  1 24.032289 11.067793 10.878195
214  1 24.032289 11.067793 23.580100
215  1 24.032289 19.864308 10.878195
216  1 24.032289 19.864308 23.580100
217  1  6.511620  2.339311  1.660745
218  1  6.511620  2.339311 14.362600
219  1  6.511620 11.135905  1.660745
220  1  6.511620 11.135905 14.362600
221  1  6.511620 19.932393  1.660745
222  1  6.511620 19.932393 14.362600
223  1 15.308187  2.339311  1.660745
224  1 15.308187  2.339311 14.362600
225  1 15.308187 11.135905  1.660745
226  1 15.308187 11.135905 14.362600
227  1 15.308187 19.932393  1.660745
228  1 15.308187 19.932393 14.362600
229  1 24.104702  2.339311  1.660745
230  1 24.104702  2.339311 14.362600
231  1 24.104702 11.135905  1.660745
232  1 24.104702 11.135905 14.362600
233  1 24.104702 19.932393  1.660745
234  1 24.104702 19.932393 14.362600
235  1  6.552735  6.579679  3.607232
236  1  6.552735  6.579679 16.309112
237  1  6.552735 15.376193  3.607232
238  1  6.552735 15.376193 16.309112
239  1  6.552735 24.172787  3.607232
240  1  6.552735 24.172787 16.309112
241  1 15.349302  6.579679  3.607232
242  1 15.349302  6.579679 16.309112
243  1 15.349302 15.376193  3.607232
244  1 15.349302 15.376193 16.309112
245  1 15.349302 24.172787  3.607232
246  1 15.349302 24.172787 16.309112
247  1 24.145791  6.579679  3.607232
248  1 24.145791  6.579679 16.309112
249  1 24.145791 15.376193  3.607232
250  1 24.145791 15.376193 16.309112
251  1 24.145791 24.172787  3.607232
252  1 24.145791 24.172787 16.309112
253  1  6.580048  6.669720  0.115740
254  1  6.580048  6.669720 12.817594
255  1  6.580048 15.466288  0.115740
256  1  6.580048 15.466288 12.817594
257  1  6.580048 24.262803  0.115740
258  1  6.580048 24.262803 12.817594
259  1 15.376589  6.669720  0.115740
260  1 15.376589  6.669720 12.817594
261  1 15.376589 15.466288  0.115740
262  1 15.376589 15.466288 12.817594
263  1 15.376589 24.262803  0.115740
264  1 15.376589 24.262803 12.817594
265  1 24.173210  6.669720  0.115740
266  1 24.173210  6.669720 12.817594
267  1 24.173210 15.466288  0.115740
268  1 24.173210 15.466288 12.817594
269  1 24.173210 24.262803  0.115740
270  1 24.173210 24.262803 12.817594
271  1  6.638660  1.911719  4.482798
272  1  6.638660  1.911719 17.184704
273  1  6.638660 10.708313  4.482798
274  1  6.638660 10.708313 17.184704
275  1  6.638660 19.504801  4.482798
276  1  6.638660 19.504801 17.184704
277  1 15.435201  1.911719  4.482798
278  1 15.435201  1.911719 17.184704
279  1 15.435201 10.708313  4.482798
280  1 15.435201 10.708313 17.184704
281  1 15.435201 19.504801  4.482798
282  1 15.435201 19.504801 17.184704
283  1 24.231795  1.911719  4.482798
284  1 24.231795  1.911719 17.184704
285  1 24.231795 10.708313  4.482798
286  1 24.231795 10.708313 17.184704
287  1 24.231795 19.504801  4.482798
288  1 24.231795 19.504801 17.184704
289  1  6.705452  6.386929  8.785281
290  1  6.705452  6.386929 21.487212
291  1  6.705452 15.183496  8.785281
292  1  6.705452 15.183496 21.487212
293  1  6.705452 23.980011  8.785281
294  1  6.705452 23.980011 21.487212
295  1 15.501993  6.386929  8.785281
296  1 15.501993  6.386929 21.487212
297  1 15.501993 15.183496  8.785281
298  1 15.501993 15.183496 21.487212
299  1 15.501993 23.980011  8.785281
300  1 15.501993 23.980011 21.487212
301  1 24.298587  6.386929  8.785281
302  1 24.298587  6.386929 21.487212
303  1 24.298587 15.183496  8.785281
304  1 24.298587 15.183496 21.487212
305  1 24.298587 23.980011  8.785281
306  1 24.298587 23.980011 21.487212
307  1  6.898043  1.887071  7.948684
308  1  6.898043  1.887071 20.650589
309  1  6.898043 10.683612  7.948684
310  1  6.898043 10.683612 20.650589
311  1  6.898043 19.480206  7.948684
312  1  6.898043 19.480206 20.650589
313  1 15.694611  1.887071  7.948684
314  1 15.694611  1.887071 20.650589
315  1 15.694611 10.683612  7.948684
316  1 15.694611 10.683612 20.650589
317  1 15.694611 19.480206  7.948684
318  1 15.694611 19.480206 20.650589
319  1 24.491205  1.887071  7.948684
320  1 24.491205  1.887071 20.650589
321  1 24.491205 10.683612  7.948684
322  1 24.491205 10.683612 20.650589
323  1 24.491205 19.480206  7.948684
324  1 24.491205 19.480206 20.650589
325  1  8.486331  4.535009  5.411204
326  1  8.486331  4.535009 18.113110
327  1  8.486331 13.331603  5.411204
328  1  8.486331 13.331603 18.113110
329  1  8.486331 22.128091  5.411204
330  1  8.486331 22.128091 18.113110
331  1 17.282898  4.535009  5.411204
332  1 17.282898  4.535009 18.113110
333  1 17.282898 13.331603  5.411204
334  1 17.282898 13.331603 18.113110
335  1 17.282898 22.128091  5.411204
336  1 17.282898 22.128091 18.113110
337  1 26.079387  4.535009  5.411204
338  1 26.079387  4.535009 18.113110
339  1 26.079387 13.331603  5.411204
340  1 26.079387 13.331603 18.113110
341  1 26.079387 22.128091  5.411204
342  1 26.079387 22.128091 18.113110
343  1  8.694123  4.563034 12.090005
344  1  8.694123  4.563034 24.791910
345  1  8.694123 13.359602 12.090005
346  1  8.694123 13.359602 24.791910
347  1  8.694123 22.156090 12.090005
348  1  8.694123 22.156090 24.791910
349  1 17.490691  4.563034 12.090005
350  1 17.490691  4.563034 24.791910
351  1 17.490691 13.359602 12.090005
352  1 17.490691 13.359602 24.791910
353  1 17.490691 22.156090 12.090005
354  1 17.490691 22.156090 24.791910
355  1 26.287205  4.563034 12.090005
356  1 26.287205  4.563034 24.791910
357  1 26.287205 13.359602 12.090005
358  1 26.287205 13.359602 24.791910
359  1 26.287205 22.156090 12.090005
360  1 26.287205 22.156090 24.791910
361  2  4.474893  8.710221 10.350711
362  2  4.474893  8.710221 23.052591
363  2  4.474893 17.506788 10.350711
364  2  4.474893 17.506788 23.052591
365  2  4.474893 26.303303 10.350711
366  2  4.474893 26.303303 23.052591
367  2 13.271408  8.710221 10.350711
368  2 13.271408  8.710221 23.052591
369  2 13.271408 17.506788 10.350711
370  2 13.271408 17.506788 23.052591
371  2 13.271408 26.303303 10.350711
372  2 13.271408 26.303303 23.052591
373  2 22.068002  8.710221 10.350711
374  2 22.068002  8.710221 23.052591
375  2 22.068002 17.506788 10.350711
376  2 22.068002 17.506788 23.052591
377  2 22.068002 26.303303 10.350711
378  2 22.068002 26.303303 23.052591
379  2  8.769677  4.293649  2.321904
380  2  8.769677  4.293649 15.023809
381  2  8.769677 13.090190  2.321904
382  2  8.769677 13.090190 15.023809
383  2  8.769677 21.886810  2.321904
384  2  8.769677 21.886810 15.023809
385  2 17.566191  4.293649  2.321904
386  2 17.566191  4.293649 15.023809
387  2 17.566191 13.090190  2.321904
388  2 17.566191 13.090190 15.023809
389  2 17.566191 21.886810  2.321904
390  2 17.566191 21.886810 15.023809
391  2 26.362812  4.293649  2.321904
392  2 26.362812  4.293649 15.023809
393  2 26.362812 13.090190  2.321904
394  2 26.362812 13.090190 15.023809
395  2 26.362812 21.886810  2.321904
396  2 26.362812 21.886810 15.023809
397  3  0.075079  4.254592  8.685419
398  3  0.075079  4.254592 21.387299
399  3  0.075079 13.051107  8.685419
400  3  0.075079 13.051107 21.387299
401  3  0.075079 21.847701  8.685419
402  3  0.075079 21.847701 21.387299
403  3  8.871620  4.254592  8.685419
404  3  8.871620  4.254592 21.387299
405  3  8.871620 13.051107  8.685419
406  3  8.871620 13.051107 21.387299
407  3  8.871620 21.847701  8.685419
408  3  8.871620 21.847701 21.387299
409  3 17.668187  4.254592  8.685419
410  3 17.668187  4.254592 21.387299
411  3 17.668187 13.051107  8.685419
412  3 17.668187 13.051107 21.387299
413  3 17.668187 21.847701  8.685419
414  3 17.668187 21.847701 21.387299
415  3  4.289506  0.072572  3.950031
416  3  4.289506  0.072572 16.651911
417  3  4.289506  8.869139  3.950031
418  3  4.289506  8.869139 16.651911
419  3  4.289506 17.665707  3.950031
420  3  4.289506 17.665707 16.651911
421  3 13.086100  0.072572  3.950031
422  3 13.086100  0.072572 16.651911
423  3 13.086100  8.869139  3.950031
424  3 13.086100  8.869139 16.651911
425  3 13.086100 17.665707  3.950031
426  3 13.086100 17.665707 16.651911
427  3 21.882588  0.072572  3.950031
428  3 21.882588  0.072572 16.651911
429  3 21.882588  8.869139  3.950031
430  3 21.882588  8.869139 16.651911
431  3 21.882588 17.665707  3.950031
432  3 21.882588 17.665707 16.651911
433  3  4.329090  4.546778 12.617692
434  3  4.329090  4.546778 25.319597
435  3  4.329090 13.343293 12.617692
436  3  4.329090 13.343293 25.319597
437  3  4.329090 22.139887 12.617692
438  3  4.329090 22.139887 25.319597
439  3 13.125605  4.546778 12.617692
440  3 13.125605  4.546778 25.319597
441  3 13.125605 13.343293 12.617692
442  3 13.125605 13.343293 25.319597
443  3 13.125605 22.139887 12.617692
444  3 13.125605 22.139887 25.319597
445  3 21.922199  4.546778 12.617692
446  3 21.922199  4.546778 25.319597
447  3 21.922199 13.343293 12.617692
448  3 21.922199 13.343293 25.319597
449  3 21.922199 22.139887 12.617692
450  3 21.922199 22.139887 25.319597
451  3  8.741783  8.483692  6.370831
452  3  8.741783  8.483692 19.072711
453  3  8.741783 17.280207  6.370831
454  3  8.741783 17.280207 19.072711
455  3  8.741783 26.076801  6.370831
456  3  8.741783 26.076801 19.072711
457  3 17.538297  8.483692  6.370831
458  3 17.538297  8.483692 19.072711
459  3 17.538297 17.280207  6.370831
460  3 17.538297 17.280207 19.072711
461  3 17.538297 26.076801  6.370831
462  3 17.538297 26.076801 19.072711
463  3 26.334891  8.483692  6.370831
464  3 26.334891  8.483692 19.072711
465  3 26.334891 17.280207  6.370831
466  3 26.334891 17.280207 19.072711
467  3 26.334891 26.076801  6.370831
468  3 26.334891 26.076801 19.072711
469  4  0.005911  6.267463  1.272449
470  4  0.005911  6.267463 13.974304
471  4  0.005911 15.064004  1.272449
472  4  0.005911 15.064004 13.974304
473  4  0.005911 23.860598  1.272449
474  4  0.005911 23.860598 13.974304
475  4  8.802452  6.267463  1.272449
476  4  8.802452  6.267463 13.974304
477  4  8.802452 15.064004  1.272449
478  4  8.802452 15.064004 13.974304
479  4  8.802452 23.860598  1.272449
480  4  8.802452 23.860598 13.974304
481  4 17.598994  6.267463  1.272449
482  4 17.598994  6.267463 13.974304
483  4 17.598994 15.064004  1.272449
484  4 17.598994 15.064004 13.974304
485  4 17.598994 23.860598  1.272449
486  4 17.598994 23.860598 13.974304
487  4  0.024094  2.450200  9.701645
488  4  0.024094  2.450200 22.403500
489  4  0.024094 11.246794  9.701645
490  4  0.024094 11.246794 22.403500
491  4  0.024094 20.043309  9.701645
492  4  0.024094 20.043309 22.403500
493  4  8.820635  2.450200  9.701645
494  4  8.820635  2.450200 22.403500
495  4  8.820635 11.246794  9.701645
496  4  8.820635 11.246794 22.403500
497  4  8.820635 20.043309  9.701645
498  4  8.820635 20.043309 22.403500
499  4 17.617203  2.450200  9.701645
500  4 17.617203  2.450200 22.403500
501  4 17.617203 11.246794  9.701645
502  4 17.617203 11.246794 22.403500
503  4 17.617203 20.043309  9.701645
504  4 17.617203 20.043309 22.403500
505  4  0.050483  6.995395  4.950151
506  4  0.050483  6.995395 17.652006
507  4  0.050483 15.791910  4.950151
508  4  0.050483 15.791910 17.652006
509  4  0.050483 24.588504  4.950151
510  4  0.050483 24.588504 17.652006
511  4  8.847025  6.995395  4.950151
512  4  8.847025  6.995395 17.652006
513  4  8.847025 15.791910  4.950151
514  4  8.847025 15.791910 17.652006
515  4  8.847025 24.588504  4.950151
516  4  8.847025 24.588504 17.652006
517  4 17.643592  6.995395  4.950151
518  4 17.643592  6.995395 17.652006
519  4 17.643592 15.791910  4.950151
520  4 17.643592 15.791910 17.652006
521  4 17.643592 24.588504  4.950151
522  4 17.643592 24.588504 17.652006
523  4  0.071569  2.589221  0.857758
524  4  0.071569  2.589221 13.559613
525  4  0.071569 11.385788  0.857758
526  4  0.071569 11.385788 13.559613
527  4  0.071569 20.182303  0.857758
528  4  0.071569 20.182303 13.559613
529  4  8.868110  2.589221  0.857758
530  4  8.868110  2.589221 13.559613
531  4  8.868110 11.385788  0.857758
532  4  8.868110 11.385788 13.559613
533  4  8.868110 20.182303  0.857758
534  4  8.868110 20.182303 13.559613
535  4 17.664704  2.589221  0.857758
536  4 17.664704  2.589221 13.559613
537  4 17.664704 11.385788  0.857758
538  4 17.664704 11.385788 13.559613
539  4 17.664704 20.182303  0.857758
540  4 17.664704 20.182303 13.559613
541  4  1.698359  8.347812  7.464082
542  4  1.698359  8.347812 20.165987
543  4  1.698359 17.144406  7.464082
544  4  1.698359 17.144406 20.165987
545  4  1.698359 25.940894  7.464082
546  4  1.698359 25.940894 20.165987
547  4 10.494900  8.347812  7.464082
548  4 10.494900  8.347812 20.165987
549  4 10.494900 17.144406  7.464082
550  4 10.494900 17.144406 20.165987
551  4 10.494900 25.940894  7.464082
552  4 10.494900 25.940894 20.165987
553  4 19.291494  8.347812  7.464082
554  4 19.291494  8.347812 20.165987
555  4 19.291494 17.144406  7.464082
556  4 19.291494 17.144406 20.165987
557  4 19.291494 25.940894  7.464082
558  4 19.291494 25.940894 20.165987
559  4  1.743063  4.202921  3.691395
560  4  1.743063  4.202921 16.393300
561  4  1.743063 12.999489  3.691395
562  4  1.743063 12.999489 16.393300
563  4  1.743063 21.796004  3.691395
564  4  1.743063 21.796004 16.393300
565  4 10.539604  4.202921  3.691395
566  4 10.539604  4.202921 16.393300
567  4 10.539604 12.999489  3.691395
568  4 10.539604 12.999489 16.393300
569  4 10.539604 21.796004  3.691395
570  4 10.539604 21.796004 16.393300
571  4 19.336198  4.202921  3.691395
572  4 19.336198  4.202921 16.393300
573  4 19.336198 12.999489  3.691395
574  4 19.336198 12.999489 16.393300
575  4 19.336198 21.796004  3.691395
576  4 19.336198 21.796004 16.393300
577  4  1.848542  4.291089  7.621560
578  4  1.848542  4.291089 20.323491
579  4  1.848542 13.087604  7.621560
580  4  1.848542 13.087604 20.323491
581  4  1.848542 21.884198  7.621560
582  4  1.848542 21.884198 20.323491
583  4 10.645110  4.291089  7.621560
584  4 10.645110  4.291089 20.323491
585  4 10.645110 13.087604  7.621560
586  4 10.645110 13.087604 20.323491
587  4 10.645110 21.884198  7.621560
588  4 10.645110 21.884198 20.323491
589  4 19.441598  4.291089  7.621560
590  4 19.441598  4.291089 20.323491
591  4 19.441598 13.087604  7.621560
592  4 19.441598 13.087604 20.323491
593  4 19.441598 21.884198  7.621560
594  4 19.441598 21.884198 20.323491
595  4  2.523880  8.698029 11.497310
596  4  2.523880  8.698029 24.199190
597  4  2.523880 17.494596 11.497310
598  4  2.523880 17.494596 24.199190
599  4  2.523880 26.291111 11.497310
600  4  2.523880 26.291111 24.199190
601  4 11.320395  8.698029 11.497310
602  4 11.320395  8.698029 24.199190
603  4 11.320395 17.494596 11.497310
604  4 11.320395 17.494596 24.199190
605  4 11.320395 26.291111 11.497310
606  4 11.320395 26.291111 24.199190
607  4 20.116989  8.698029 11.497310
608  4 20.116989  8.698029 24.199190
609  4 20.116989 17.494596 11.497310
610  4 20.116989 17.494596 24.199190
611  4 20.116989 26.291111 11.497310
612  4 20.116989 26.291111 24.199190
613  4  2.599169  0.277065  2.788850
614  4  2.599169  0.277065 15.490705
615  4  2.599169  9.073606  2.788850
616  4  2.599169  9.073606 15.490705
617  4  2.599169 17.870200  2.788850
618  4  2.599169 17.870200 15.490705
619  4 11.395711  0.277065  2.788850
620  4 11.395711  0.277065 15.490705
621  4 11.395711  9.073606  2.788850
622  4 11.395711  9.073606 15.490705
623  4 11.395711 17.870200  2.788850
624  4 11.395711 17.870200 15.490705
625  4 20.192305  0.277065  2.788850
626  4 20.192305  0.277065 15.490705
627  4 20.192305  9.073606  2.788850
628  4 20.192305  9.073606 15.490705
629  4 20.192305 17.870200  2.788850
630  4 20.192305 17.870200 15.490705
631  4  2.629359  4.680204 11.443200
632  4  2.629359  4.680204 24.145004
633  4  2.629359 13.476798 11.443200
634  4  2.629359 13.476798 24.145004
635  4  2.629359 22.273287 11.443200
636  4  2.629359 22.273287 24.145004
637  4 11.425900  4.680204 11.443200
638  4 11.425900  4.680204 24.145004
639  4 11.425900 13.476798 11.443200
640  4 11.425900 13.476798 24.145004
641  4 11.425900 22.273287 11.443200
642  4 11.425900 22.273287 24.145004
643  4 20.222494  4.680204 11.443200
644  4 20.222494  4.680204 24.145004
645  4 20.222494 13.476798 11.443200
646  4 20.222494 13.476798 24.145004
647  4 20.222494 22.273287 11.443200
648  4 20.222494 22.273287 24.145004
649  4  4.256677  7.000171  4.812819
650  4  4.256677  7.000171 17.514699
651  4  4.256677 15.796713  4.812819
652  4  4.256677 15.796713 17.514699
653  4  4.256677 24.593307  4.812819
654  4  4.256677 24.593307 17.514699
655  4 13.053192  7.000171  4.812819
656  4 13.053192  7.000171 17.514699
657  4 13.053192 15.796713  4.812819
658  4 13.053192 15.796713 17.514699
659  4 13.053192 24.593307  4.812819
660  4 13.053192 24.593307 17.514699
661  4 21.849812  7.000171  4.812819
662  4 21.849812  7.000171 17.514699
663  4 21.849812 15.796713  4.812819
664  4 21.849812 15.796713 17.514699
665  4 21.849812 24.593307  4.812819
666  4 21.849812 24.593307 17.514699
667  4  4.284228  2.704227  0.803064
668  4  4.284228  2.704227 13.504893
669  4  4.284228 11.500794  0.803064
670  4  4.284228 11.500794 13.504893
671  4  4.284228 20.297309  0.803064
672  4  4.284228 20.297309 13.504893
673  4 13.080795  2.704227  0.803064
674  4 13.080795  2.704227 13.504893
675  4 13.080795 11.500794  0.803064
676  4 13.080795 11.500794 13.504893
677  4 13.080795 20.297309  0.803064
678  4 13.080795 20.297309 13.504893
679  4 21.877310  2.704227  0.803064
680  4 21.877310  2.704227 13.504893
681  4 21.877310 11.500794  0.803064
682  4 21.877310 11.500794 13.504893
683  4 21.877310 20.297309  0.803064
684  4 21.877310 20.297309 13.504893
685  4  4.346243  6.971829  8.930387
686  4  4.346243  6.971829 21.632292
687  4  4.346243 15.768396  8.930387
688  4  4.346243 15.768396 21.632292
689  4  4.346243 24.564911  8.930387
690  4  4.346243 24.564911 21.632292
691  4 13.142811  6.971829  8.930387
692  4 13.142811  6.971829 21.632292
693  4 13.142811 15.768396  8.930387
694  4 13.142811 15.768396 21.632292
695  4 13.142811 24.564911  8.930387
696  4 13.142811 24.564911 21.632292
697  4 21.939405  6.971829  8.930387
698  4 21.939405  6.971829 21.632292
699  4 21.939405 15.768396  8.930387
700  4 21.939405 15.768396 21.632292
701  4 21.939405 24.564911  8.930387
702  4 21.939405 24.564911 21.632292
703  4  4.343552  6.107409  1.236198
704  4  4.343552  6.107409 13.938103
705  4  4.343552 14.904003  1.236198
706  4  4.343552 14.904003 13.938103
707  4  4.343552 23.700492  1.236198
708  4  4.343552 23.700492 13.938103
709  4 13.140093  6.107409  1.236198
710  4 13.140093  6.107409 13.938103
711  4 13.140093 14.904003  1.236198
712  4 13.140093 14.904003 13.938103
713  4 13.140093 23.700492  1.236198
714  4 13.140093 23.700492 13.938103
715  4 21.936687  6.107409  1.236198
716  4 21.936687  6.107409 13.938103
717  4 21.936687 14.904003  1.236198
718  4 21.936687 14.904003 13.938103
719  4 21.936687 23.700492  1.236198
720  4 21.936687 23.700492 13.938103
721  4  4.350571  1.581215  5.342792
722  4  4.350571  1.581215 18.044697
723  4  4.350571 10.377809  5.342792
724  4  4.350571 10.377809 18.044697
725  4  4.350571 19.174297  5.342792
726  4  4.350571 19.174297 18.044697
727  4 13.147113  1.581215  5.342792
728  4 13.147113  1.581215 18.044697
729  4 13.147113 10.377809  5.342792
730  4 13.147113 10.377809 18.044697
731  4 13.147113 19.174297  5.342792
732  4 13.147113 19.174297 18.044697
733  4 21.943706  1.581215  5.342792
734  4 21.943706  1.581215 18.044697
735  4 21.943706 10.377809  5.342792
736  4 21.943706 10.377809 18.044697
737  4 21.943706 19.174297  5.342792
738  4 21.943706 19.174297 18.044697
739  4  4.555381  1.797452  9.128968
740  4  4.555381  1.797452 21.830797
741  4  4.555381 10.593993  9.128968
742  4  4.555381 10.593993 21.830797
743  4  4.555381 19.390587  9.128968
744  4  4.555381 19.390587 21.830797
745  4 13.351896  1.797452  9.128968
746  4 13.351896  1.797452 21.830797
747  4 13.351896 10.593993  9.128968
748  4 13.351896 10.593993 21.830797
749  4 13.351896 19.390587  9.128968
750  4 13.351896 19.390587 21.830797
751  4 22.148490  1.797452  9.128968
752  4 22.148490  1.797452 21.830797
753  4 22.148490 10.593993  9.128968
754  4 22.148490 10.593993 21.830797
755  4 22.148490 19.390587  9.128968
756  4 22.148490 19.390587 21.830797
757  4  6.005202  4.666376 11.417593
758  4  6.005202  4.666376 24.119397
759  4  6.005202 13.462891 11.417593
760  4  6.005202 13.462891 24.119397
761  4  6.005202 22.259511 11.417593
762  4  6.005202 22.259511 24.119397
763  4 14.801796  4.666376 11.417593
764  4 14.801796  4.666376 24.119397
765  4 14.801796 13.462891 11.417593
766  4 14.801796 13.462891 24.119397
767  4 14.801796 22.259511 11.417593
768  4 14.801796 22.259511 24.119397
769  4 23.598311  4.666376 11.417593
770  4 23.598311  4.666376 24.119397
771  4 23.598311 13.462891 11.417593
772  4 23.598311 13.462891 24.119397
773  4 23.598311 22.259511 11.417593
774  4 23.598311 22.259511 24.119397
775  4  6.014940  0.148521  2.803152
776  4  6.014940  0.148521 15.505007
777  4  6.014940  8.945089  2.803152
778  4  6.014940  8.945089 15.505007
779  4  6.014940 17.741603  2.803152
780  4  6.014940 17.741603 15.505007
781  4 14.811508  0.148521  2.803152
782  4 14.811508  0.148521 15.505007
783  4 14.811508  8.945089  2.803152
784  4 14.811508  8.945089 15.505007
785  4 14.811508 17.741603  2.803152
786  4 14.811508 17.741603 15.505007
787  4 23.607996  0.148521  2.803152
788  4 23.607996  0.148521 15.505007
789  4 23.607996  8.945089  2.803152
790  4 23.607996  8.945089 15.505007
791  4 23.607996 17.741603  2.803152
792  4 23.607996 17.741603 15.505007
793  4  6.247618  8.769070 11.688600
794  4  6.247618  8.769070 24.390506
795  4  6.247618 17.565611 11.688600
796  4  6.247618 17.565611 24.390506
797  4  6.247618 26.362205 11.688600
798  4  6.247618 26.362205 24.390506
799  4 15.044212  8.769070 11.688600
800  4 15.044212  8.769070 24.390506
801  4 15.044212 17.565611 11.688600
802  4 15.044212 17.565611 24.390506
803  4 15.044212 26.362205 11.688600
804  4 15.044212 26.362205 24.390506