ITEM: TIMESTEP
0
ITEM: NUMBER OF ATOMS
48
ITEM: BOX BOUNDS xy xz yz pp pp pp
-5.4523898819085250e+00 8.5889536499827912e+00 2.5120357483981479e+00
-2.3252728783138264e-03 9.4515407374878730e+00 -5.4607944132238844e+00
9.2526380721303085e-04 1.9516202358592782e+01 2.0640487290955647e-01
ITEM: ATOMS id type xs ys zs fx fy fz
1 1 0.949914 0.167048 0.0318988 0 0 2.93539
2 1 0.505502 0.074165 0.0529524 0 0 0.159123
3 1 0.627321 0.12485 0.656954 0 0 -0.00767719
4 1 0.84892 0.948828 0.927931 0 0 -2.93538
5 1 0.518244 0.157077 0.80274 0 0 -0.00315332
6 1 0.293332 0.0417114 0.906878 0 0 -0.159124
7 1 0.962543 0.249755 0.781855 0 0 -0.0208251
8 1 0.952756 0.208448 0.407115 0 0 -0.00166162
9 1 0.183159 0.0322453 0.677678 0 0 0.00740587
10 1 0.846077 0.240762 0.552715 0 0 0.00166307
11 1 0.836291 0.199455 0.177975 0 0 0.0208266
12 1 0.615675 0.083631 0.282152 0 0 -0.00740603
13 1 0.280589 0.292133 0.15709 0 0 0.00315355
14 1 0.508613 0.115898 0.427787 0 0 0.000276267
15 1 0.949914 0.500382 0.0318988 0 0 2.93538
16 1 0.505502 0.407498 0.0529524 0 0 0.159123
17 1 0.627321 0.458184 0.656954 0 0 -0.00767704
18 1 0.84892 0.282161 0.927931 0 0 -2.93539
19 1 0.518244 0.49041 0.80274 0 0 -0.00315275
20 1 0.293332 0.375045 0.906878 0 0 -0.159124
21 1 0.962543 0.583088 0.781855 0 0 -0.0208253
22 1 0.29022 0.333312 0.532044 0 0 -0.000275713
23 1 0.952756 0.541781 0.407115 0 0 -0.00166153
24 1 0.183159 0.365579 0.677678 0 0 0.0074052
25 1 0.846077 0.574095 0.552715 0 0 0.00166254
26 1 0.171512 0.324359 0.302876 0 0 0.00767711
27 1 0.836291 0.532788 0.177975 0 0 0.0208256
28 1 0.615675 0.416964 0.282152 0 0 -0.00740567
29 1 0.280589 0.625466 0.15709 0 0 0.00315175
30 1 0.508613 0.449231 0.427787 0 0 0.000275295
31 1 0.949914 0.833715 0.0318988 0 0 2.93538
32 1 0.505502 0.740832 0.0529524 0 0 0.159122
33 1 0.627321 0.791517 0.656954 0 0 -0.00767776
34 1 0.84892 0.615495 0.927931 0 0 -2.93538
35 1 0.518244 0.823743 0.80274 0 0 -0.00315308
36 1 0.293332 0.708378 0.906878 0 0 -0.159124
37 1 0.962543 0.916422 0.781855 0 0 -0.0208253
38 1 0.29022 0.666645 0.532044 0 0 -0.000275688
39 1 0.952756 0.875115 0.407115 0 0 -0.00166172
40 1 0.183159 0.698912 0.677678 0 0 0.00740533
41 1 0.846077 0.907428 0.552715 0 0 0.00166001
42 1 0.171512 0.657693 0.302876 0 0 0.00767947
43 1 0.836291 0.866121 0.177975 0 0 0.0208268
44 1 0.615675 0.750298 0.282152 0 0 -0.00740491
45 1 0.280589 0.9588 0.15709 0 0 0.00315319
46 1 0.508613 0.782564 0.427787 0 0 0.000275823
47 1 0.29022 0.999979 0.532044 0 0 -0.000276291
48 1 0.171512 0.991026 0.302876 0 0 0.00767734
ITEM: TIMESTEP
11
ITEM: NUMBER OF ATOMS
48
ITEM: BOX BOUNDS xy xz yz pp pp pp
-5.4523898819085250e+00 8.5889536499827912e+00 2.5120357483981479e+00
-2.3252728783138264e-03 9.4515407374878730e+00 -5.4607944132238844e+00
9.2526380721303085e-04 1.9516202358592782e+01 2.0640487290955647e-01
ITEM: ATOMS id type xs ys zs fx fy fz
1 1 0.963932 0.166704 0.047319 0 0 0.000159188
2 1 0.50923 0.0740735 0.0570532 0 0 0.000173409
3 1 0.623182 0.124952 0.6524 0 0 -0.000171274
4 1 0.834901 0.949172 0.912511 0 0 -0.000147487
5 1 0.511531 0.157241 0.795355 0 0 3.04051e-05
6 1 0.289604 0.0418029 0.902777 0 0 -0.000173356
7 1 0.95609 0.249914 0.774757 0 0 -0.000402279
8 1 0.953888 0.20842 0.40836 0 0 -0.000389323
9 1 0.17949 0.0323354 0.673642 0 0 -4.38485e-05
10 1 0.844946 0.240789 0.551471 0 0 0.000389761
11 1 0.842744 0.199296 0.185073 0 0 0.000401811
12 1 0.619344 0.083541 0.286189 0 0 4.43226e-05
13 1 0.287303 0.291968 0.164475 0 0 -3.08681e-05
14 1 0.510088 0.115861 0.429409 0 0 -0.000492491
15 1 0.963932 0.500038 0.0473191 0 0 0.000148257
16 1 0.50923 0.407407 0.0570532 0 0 0.000173883
17 1 0.623181 0.458285 0.6524 0 0 -0.000173509
18 1 0.834901 0.282505 0.912511 0 0 -0.000158806
19 1 0.511531 0.490575 0.795355 0 0 3.08098e-05
20 1 0.289604 0.375136 0.902777 0 0 -0.00017415
21 1 0.95609 0.583247 0.774757 0 0 -0.000404008
22 1 0.288746 0.333348 0.530421 0 0 0.00049255
23 1 0.953888 0.541754 0.40836 0 0 -0.000390565
24 1 0.17949 0.365669 0.673642 0 0 -4.40957e-05
25 1 0.844946 0.574123 0.551471 0 0 0.000390228
26 1 0.175652 0.324258 0.30743 0 0 0.000172631
27 1 0.842744 0.532629 0.185073 0 0 0.000404625
28 1 0.619344 0.416874 0.286189 0 0 4.24202e-05
29 1 0.287302 0.625302 0.164475 0 0 -2.72924e-05
30 1 0.510088 0.449195 0.429409 0 0 -0.000489523
31 1 0.963932 0.833371 0.0473191 0 0 0.000147558
32 1 0.50923 0.74074 0.0570532 0 0 0.000172703
33 1 0.623182 0.791619 0.6524 0 0 -0.000171208
34 1 0.834901 0.615839 0.912511 0 0 -0.000148226
35 1 0.511531 0.823908 0.795355 0 0 2.94459e-05
36 1 0.289604 0.70847 0.902777 0 0 -0.000173778
37 1 0.95609 0.91658 0.774757 0 0 -0.000406493
38 1 0.288746 0.666682 0.530421 0 0 0.000489299
39 1 0.953888 0.875087 0.40836 0 0 -0.000391174
40 1 0.17949 0.699002 0.673642 0 0 -4.39045e-05
41 1 0.844946 0.907456 0.55147 0 0 0.000392754
42 1 0.175652 0.657591 0.30743 0 0 0.000172317
43 1 0.842744 0.865963 0.185073 0 0 0.000406052
44 1 0.619344 0.750208 0.286189 0 0 4.31076e-05
45 1 0.287302 0.958635 0.164475 0 0 -2.95632e-05
46 1 0.510088 0.782528 0.429409 0 0 -0.000491574
47 1 0.288746 1.00001 0.530421 0 0 0.000488823
48 1 0.175652 0.990924 0.30743 0 0 0.000172462
