ITEM: TIMESTEP
0
ITEM: NUMBER OF ATOMS
32
ITEM: BOX BOUNDS xy xz yz pp pp pp
-2.4071335792541504e-03 6.3992393016815186e+00 0.0000000000000000e+00
-9.1621279716491699e-03 6.2207924723625183e+00 0.0000000000000000e+00
5.4966151714324951e-02 2.0670420289039612e+01 6.9119918346405029e-01
ITEM: ATOMS id type xs ys zs fx fy fz
1 1 0.999986 0.658831 0.0597547 0 0 0.294809
2 1 0.499986 0.658831 0.0597547 0 0 0.294809
3 1 0.249986 0.158831 0.0597528 0 0 0.295
4 1 0.749986 0.158831 0.0597528 0 0 0.295
5 1 0.999986 0.627645 0.309759 0 0 0.00203323
6 1 0.249986 0.47733 0.184759 0 0 0.00498199
7 1 0.749986 0.47733 0.184759 0 0 0.00498199
8 1 0.499986 0.627645 0.309759 0 0 0.00203323
9 1 0.999986 0.97733 0.184758 0 0 0.00504494
10 1 0.249986 0.127644 0.309758 0 0 0.0021019
11 1 0.499986 0.97733 0.184758 0 0 0.00504494
12 1 0.749986 0.127644 0.309758 0 0 0.0021019
13 1 0.999986 0.59643 0.559748 0 0 0.000339508
14 1 0.499986 0.59643 0.559748 0 0 0.000339508
15 1 0.249986 0.0964308 0.559748 0 0 0.000328064
16 1 0.749986 0.0964308 0.559748 0 0 0.000328064
17 1 0.249986 0.446135 0.434754 0 0 -0.000331879
18 1 0.749986 0.446135 0.434754 0 0 -0.000331879
19 1 0.999986 0.946136 0.434754 0 0 -0.000347137
20 1 0.499986 0.946136 0.434754 0 0 -0.000347137
21 1 0.999986 0.565225 0.809743 0 0 -0.00502586
22 1 0.249986 0.414917 0.684743 0 0 -0.00209618
23 1 0.499986 0.565225 0.809743 0 0 -0.00502586
24 1 0.749986 0.414917 0.684743 0 0 -0.00209618
25 1 0.999986 0.914917 0.684742 0 0 -0.0020504
26 1 0.249986 0.065226 0.809742 0 0 -0.00500679
27 1 0.749986 0.065226 0.809742 0 0 -0.00500679
28 1 0.499986 0.914917 0.684742 0 0 -0.0020504
29 1 0.249986 0.383722 0.934748 0 0 -0.294977
30 1 0.749986 0.383722 0.934748 0 0 -0.294977
31 1 0.999986 0.883722 0.934746 0 0 -0.294804
32 1 0.499986 0.883722 0.934746 0 0 -0.294804
ITEM: TIMESTEP
1
ITEM: NUMBER OF ATOMS
32
ITEM: BOX BOUNDS xy xz yz pp pp pp
-2.4071335792541504e-03 6.3992393016815186e+00 0.0000000000000000e+00
-9.1621279716491699e-03 6.2207924723625183e+00 0.0000000000000000e+00
5.4966151714324951e-02 2.0670420289039612e+01 6.9119918346405029e-01
ITEM: ATOMS id type xs ys zs fx fy fz
1 1 0.999986 0.658484 0.0625363 0 0 -0.0183887
2 1 0.499986 0.658484 0.0625363 0 0 -0.0183887
3 1 0.249986 0.158484 0.0625362 0 0 -0.0184002
4 1 0.749986 0.158484 0.0625362 0 0 -0.0184002
5 1 0.999986 0.627642 0.309779 0 0 0.00318527
6 1 0.249986 0.477324 0.184806 0 0 0.0923767
7 1 0.749986 0.477324 0.184806 0 0 0.0923767
8 1 0.499986 0.627642 0.309779 0 0 0.00318527
9 1 0.999986 0.977324 0.184805 0 0 0.0924244
10 1 0.249986 0.127641 0.309778 0 0 0.00322723
11 1 0.499986 0.977324 0.184805 0 0 0.0924244
12 1 0.749986 0.127641 0.309778 0 0 0.00322723
13 1 0.999986 0.59643 0.559751 0 0 -0.00167084
14 1 0.499986 0.59643 0.559751 0 0 -0.00167084
15 1 0.249986 0.0964304 0.559751 0 0 -0.00166893
16 1 0.749986 0.0964304 0.559751 0 0 -0.00166893
17 1 0.249986 0.446135 0.434751 0 0 0.00165939
18 1 0.749986 0.446135 0.434751 0 0 0.00165939
19 1 0.999986 0.946136 0.434751 0 0 0.0016613
20 1 0.499986 0.946136 0.434751 0 0 0.0016613
21 1 0.999986 0.565231 0.809696 0 0 -0.0924168
22 1 0.249986 0.41492 0.684724 0 0 -0.00322533
23 1 0.499986 0.565231 0.809696 0 0 -0.0924168
24 1 0.749986 0.41492 0.684724 0 0 -0.00322533
25 1 0.999986 0.914919 0.684723 0 0 -0.00319672
26 1 0.249986 0.0652319 0.809695 0 0 -0.0923748
27 1 0.749986 0.0652319 0.809695 0 0 -0.0923748
28 1 0.499986 0.914919 0.684723 0 0 -0.00319672
29 1 0.249986 0.38407 0.931965 0 0 0.0184174
30 1 0.749986 0.38407 0.931965 0 0 0.0184174
31 1 0.999986 0.884069 0.931965 0 0 0.0183907
32 1 0.499986 0.884069 0.931965 0 0 0.0183907
ITEM: TIMESTEP
2
ITEM: NUMBER OF ATOMS
32
ITEM: BOX BOUNDS xy xz yz pp pp pp
-2.4071335792541504e-03 6.3992393016815186e+00 0.0000000000000000e+00
-9.1621279716491699e-03 6.2207924723625183e+00 0.0000000000000000e+00
5.4966151714324951e-02 2.0670420289039612e+01 6.9119918346405029e-01
ITEM: ATOMS id type xs ys zs fx fy fz
1 1 0.999986 0.658423 0.0630215 0 0 -0.0143089
2 1 0.499986 0.658423 0.0630215 0 0 -0.0143089
3 1 0.249986 0.158424 0.0630217 0 0 -0.0143375
4 1 0.749986 0.158424 0.0630217 0 0 -0.0143375
5 1 0.999986 0.627635 0.309838 0 0 0.0510426
6 1 0.249986 0.477126 0.186391 0 0 0.00367546
7 1 0.749986 0.477126 0.186391 0 0 0.00367546
8 1 0.499986 0.627635 0.309838 0 0 0.0510426
9 1 0.999986 0.977127 0.186391 0 0 0.00367546
10 1 0.249986 0.127634 0.309839 0 0 0.0510406
11 1 0.499986 0.977127 0.186391 0 0 0.00367546
12 1 0.749986 0.127634 0.309839 0 0 0.0510406
13 1 0.999986 0.596433 0.559723 0 0 -0.00158501
14 1 0.499986 0.596433 0.559723 0 0 -0.00158501
15 1 0.249986 0.0964338 0.559723 0 0 -0.00157166
16 1 0.749986 0.0964338 0.559723 0 0 -0.00157166
17 1 0.249986 0.446132 0.434778 0 0 0.00156593
18 1 0.749986 0.446132 0.434778 0 0 0.00156593
19 1 0.999986 0.946133 0.434778 0 0 0.00158501
20 1 0.499986 0.946133 0.434778 0 0 0.00158501
21 1 0.999986 0.565429 0.808111 0 0 -0.00367355
22 1 0.249986 0.414927 0.684663 0 0 -0.0510426
23 1 0.499986 0.565429 0.808111 0 0 -0.00367355
24 1 0.749986 0.414927 0.684663 0 0 -0.0510426
25 1 0.999986 0.914927 0.684663 0 0 -0.0510426
26 1 0.249986 0.0654296 0.808111 0 0 -0.00368118
27 1 0.749986 0.0654296 0.808111 0 0 -0.00368118
28 1 0.499986 0.914927 0.684663 0 0 -0.0510426
29 1 0.249986 0.38413 0.931479 0 0 0.0143394
30 1 0.749986 0.38413 0.931479 0 0 0.0143394
31 1 0.999986 0.884129 0.93148 0 0 0.0143185
32 1 0.499986 0.884129 0.93148 0 0 0.0143185
ITEM: TIMESTEP
3
ITEM: NUMBER OF ATOMS
32
ITEM: BOX BOUNDS xy xz yz pp pp pp
-2.4071335792541504e-03 6.3992393016815186e+00 0.0000000000000000e+00
-9.1621279716491699e-03 6.2207924723625183e+00 0.0000000000000000e+00
5.4966151714324951e-02 2.0670420289039612e+01 6.9119918346405029e-01
ITEM: ATOMS id type xs ys zs fx fy fz
1 1 0.999986 0.658442 0.0628744 0 0 0.0163136
2 1 0.499986 0.658442 0.0628744 0 0 0.0163136
3 1 0.249986 0.158442 0.0628742 0 0 0.016346
4 1 0.749986 0.158442 0.0628742 0 0 0.016346
5 1 0.999986 0.627511 0.310828 0 0 0.00245285
6 1 0.249986 0.477066 0.186872 0 0 -0.000865936
7 1 0.749986 0.477066 0.186872 0 0 -0.000865936
8 1 0.499986 0.627511 0.310828 0 0 0.00245285
9 1 0.999986 0.977066 0.186872 0 0 -0.000881195
10 1 0.249986 0.12751 0.310828 0 0 0.00243187
11 1 0.499986 0.977066 0.186872 0 0 -0.000881195
12 1 0.749986 0.12751 0.310828 0 0 0.00243187
13 1 0.999986 0.596438 0.559686 0 0 -0.0287743
14 1 0.499986 0.596438 0.559686 0 0 -0.0287743
15 1 0.249986 0.0964385 0.559686 0 0 -0.0287743
16 1 0.749986 0.0964385 0.559686 0 0 -0.0287743
17 1 0.249986 0.446127 0.434815 0 0 0.0287685
18 1 0.749986 0.446127 0.434815 0 0 0.0287685
19 1 0.999986 0.946128 0.434816 0 0 0.0287666
20 1 0.499986 0.946128 0.434816 0 0 0.0287666
21 1 0.999986 0.565489 0.807629 0 0 0.000883102
22 1 0.249986 0.415051 0.683673 0 0 -0.00242996
23 1 0.499986 0.565489 0.807629 0 0 0.000883102
24 1 0.749986 0.415051 0.683673 0 0 -0.00242996
25 1 0.999986 0.91505 0.683674 0 0 -0.00244522
26 1 0.249986 0.0654897 0.807629 0 0 0.000881195
27 1 0.749986 0.0654897 0.807629 0 0 0.000881195
28 1 0.499986 0.91505 0.683674 0 0 -0.00244522
29 1 0.249986 0.384112 0.931627 0 0 -0.016346
30 1 0.749986 0.384112 0.931627 0 0 -0.016346
31 1 0.999986 0.884111 0.931627 0 0 -0.0163269
32 1 0.499986 0.884111 0.931627 0 0 -0.0163269
ITEM: TIMESTEP
4
ITEM: NUMBER OF ATOMS
32
ITEM: BOX BOUNDS xy xz yz pp pp pp
-2.4071335792541504e-03 6.3992393016815186e+00 0.0000000000000000e+00
-9.1621279716491699e-03 6.2207924723625183e+00 0.0000000000000000e+00
5.4966151714324951e-02 2.0670420289039612e+01 6.9119918346405029e-01
ITEM: ATOMS id type xs ys zs fx fy fz
1 1 0.999986 0.658419 0.0630573 0 0 0.00286674
2 1 0.499986 0.658419 0.0630573 0 0 0.00286674
3 1 0.249986 0.158419 0.0630574 0 0 0.00286674
4 1 0.749986 0.158419 0.0630574 0 0 0.00286674
5 1 0.999986 0.62747 0.311161 0 0 -0.00224876
6 1 0.249986 0.477049 0.187005 0 0 0.007061
7 1 0.749986 0.477049 0.187005 0 0 0.007061
8 1 0.499986 0.62747 0.311161 0 0 -0.00224876
9 1 0.999986 0.97705 0.187006 0 0 0.00704193
10 1 0.249986 0.127469 0.311161 0 0 -0.00223923
11 1 0.499986 0.97705 0.187006 0 0 0.00704193
12 1 0.749986 0.127469 0.311161 0 0 -0.00223923
13 1 0.999986 0.596489 0.559274 0 0 0.000650406
14 1 0.499986 0.596489 0.559274 0 0 0.000650406
15 1 0.249986 0.0964899 0.559274 0 0 0.000631332
16 1 0.749986 0.0964899 0.559274 0 0 0.000631332
17 1 0.249986 0.446076 0.435227 0 0 -0.000642776
18 1 0.749986 0.446076 0.435227 0 0 -0.000642776
19 1 0.999986 0.946077 0.435228 0 0 -0.000644684
20 1 0.499986 0.946077 0.435228 0 0 -0.000644684
21 1 0.999986 0.565506 0.807496 0 0 -0.00703621
22 1 0.249986 0.415092 0.683341 0 0 0.00223351
23 1 0.499986 0.565506 0.807496 0 0 -0.00703621
24 1 0.749986 0.415092 0.683341 0 0 0.00223351
25 1 0.999986 0.915092 0.683341 0 0 0.00224495
26 1 0.249986 0.0655063 0.807496 0 0 -0.00704575
27 1 0.749986 0.0655063 0.807496 0 0 -0.00704575
28 1 0.499986 0.915092 0.683341 0 0 0.00224495
29 1 0.249986 0.384135 0.931444 0 0 -0.00286865
30 1 0.749986 0.384135 0.931444 0 0 -0.00286865
31 1 0.999986 0.884134 0.931444 0 0 -0.00287056
32 1 0.499986 0.884134 0.931444 0 0 -0.00287056
ITEM: TIMESTEP
5
ITEM: NUMBER OF ATOMS
32
ITEM: BOX BOUNDS xy xz yz pp pp pp
-2.4071335792541504e-03 6.3992393016815186e+00 0.0000000000000000e+00
-9.1621279716491699e-03 6.2207924723625183e+00 0.0000000000000000e+00
5.4966151714324951e-02 2.0670420289039612e+01 6.9119918346405029e-01
ITEM: ATOMS id type xs ys zs fx fy fz
1 1 0.999986 0.658412 0.0631134 0 0 0.00128746
2 1 0.499986 0.658412 0.0631134 0 0 0.00128746
3 1 0.249986 0.158412 0.0631135 0 0 0.00127602
4 1 0.749986 0.158412 0.0631135 0 0 0.00127602
5 1 0.999986 0.627472 0.31114 0 0 0.00338554
6 1 0.249986 0.477034 0.187128 0 0 0.00015831
7 1 0.749986 0.477034 0.187128 0 0 0.00015831
8 1 0.499986 0.627472 0.31114 0 0 0.00338554
9 1 0.999986 0.977035 0.187128 0 0 0.000171661
10 1 0.249986 0.127471 0.311141 0 0 0.00336838
11 1 0.499986 0.977035 0.187128 0 0 0.000171661
12 1 0.749986 0.127471 0.311141 0 0 0.00336838
13 1 0.999986 0.59649 0.559264 0 0 0.00215149
14 1 0.499986 0.59649 0.559264 0 0 0.00215149
15 1 0.249986 0.0964912 0.559264 0 0 0.0021534
16 1 0.749986 0.0964912 0.559264 0 0 0.0021534
17 1 0.249986 0.446075 0.435237 0 0 -0.00213814
18 1 0.749986 0.446075 0.435237 0 0 -0.00213814
19 1 0.999986 0.946075 0.435238 0 0 -0.00215912
20 1 0.499986 0.946075 0.435238 0 0 -0.00215912
21 1 0.999986 0.565521 0.807374 0 0 -0.000181198
22 1 0.249986 0.41509 0.683361 0 0 -0.00337601
23 1 0.499986 0.565521 0.807374 0 0 -0.000181198
24 1 0.749986 0.41509 0.683361 0 0 -0.00337601
25 1 0.999986 0.915089 0.683361 0 0 -0.00338936
26 1 0.249986 0.0655215 0.807374 0 0 -0.000169754
27 1 0.749986 0.0655215 0.807374 0 0 -0.000169754
28 1 0.499986 0.915089 0.683361 0 0 -0.00338936
29 1 0.249986 0.384142 0.931388 0 0 -0.00126839
30 1 0.749986 0.384142 0.931388 0 0 -0.00126839
31 1 0.999986 0.884141 0.931388 0 0 -0.00127029
32 1 0.499986 0.884141 0.931388 0 0 -0.00127029
ITEM: TIMESTEP
6
ITEM: NUMBER OF ATOMS
32
ITEM: BOX BOUNDS xy xz yz pp pp pp
-2.4071335792541504e-03 6.3992393016815186e+00 0.0000000000000000e+00
-9.1621279716491699e-03 6.2207924723625183e+00 0.0000000000000000e+00
5.4966151714324951e-02 2.0670420289039612e+01 6.9119918346405029e-01
ITEM: ATOMS id type xs ys zs fx fy fz
1 1 0.999986 0.658408 0.0631421 0 0 -0.000541687
2 1 0.499986 0.658408 0.0631421 0 0 -0.000541687
3 1 0.249986 0.158409 0.063142 0 0 -0.000537872
4 1 0.749986 0.158409 0.063142 0 0 -0.000537872
5 1 0.999986 0.627468 0.311178 0 0 0.00110626
6 1 0.249986 0.47703 0.187158 0 0 0.000322342
7 1 0.749986 0.47703 0.187158 0 0 0.000322342
8 1 0.499986 0.627468 0.311178 0 0 0.00110626
9 1 0.999986 0.977031 0.187157 0 0 0.000320435
10 1 0.249986 0.127467 0.311178 0 0 0.00110626
11 1 0.499986 0.977031 0.187157 0 0 0.000320435
12 1 0.749986 0.127467 0.311178 0 0 0.00110626
13 1 0.999986 0.596487 0.559288 0 0 -0.00147438
14 1 0.499986 0.596487 0.559288 0 0 -0.00147438
15 1 0.249986 0.0964881 0.559288 0 0 -0.00147629
16 1 0.749986 0.0964881 0.559288 0 0 -0.00147629
17 1 0.249986 0.446078 0.435213 0 0 0.00147247
18 1 0.749986 0.446078 0.435213 0 0 0.00147247
19 1 0.999986 0.946079 0.435213 0 0 0.00147057
20 1 0.499986 0.946079 0.435213 0 0 0.00147057
21 1 0.999986 0.565525 0.807344 0 0 -0.000326157
22 1 0.249986 0.415095 0.683324 0 0 -0.00110054
23 1 0.499986 0.565525 0.807344 0 0 -0.000326157
24 1 0.749986 0.415095 0.683324 0 0 -0.00110054
25 1 0.999986 0.915094 0.683324 0 0 -0.00110245
26 1 0.249986 0.0655252 0.807344 0 0 -0.000331879
27 1 0.749986 0.0655252 0.807344 0 0 -0.000331879
28 1 0.499986 0.915094 0.683324 0 0 -0.00110435
29 1 0.249986 0.384145 0.931359 0 0 0.000545502
30 1 0.749986 0.384145 0.931359 0 0 0.000545502
31 1 0.999986 0.884144 0.931359 0 0 0.000547409
32 1 0.499986 0.884144 0.931359 0 0 0.000549316
ITEM: TIMESTEP
7
ITEM: NUMBER OF ATOMS
32
ITEM: BOX BOUNDS xy xz yz pp pp pp
-2.4071335792541504e-03 6.3992393016815186e+00 0.0000000000000000e+00
-9.1621279716491699e-03 6.2207924723625183e+00 0.0000000000000000e+00
5.4966151714324951e-02 2.0670420289039612e+01 6.9119918346405029e-01
ITEM: ATOMS id type xs ys zs fx fy fz
1 1 0.999986 0.658408 0.0631412 0 0 0.000257492
2 1 0.499986 0.658408 0.0631412 0 0 0.000263214
3 1 0.249986 0.158409 0.0631412 0 0 0.000255585
4 1 0.749986 0.158409 0.0631412 0 0 0.000255585
5 1 0.999986 0.627462 0.311222 0 0 -0.000331879
6 1 0.249986 0.477028 0.187179 0 0 0.000349045
7 1 0.749986 0.477028 0.187179 0 0 0.000349045
8 1 0.499986 0.627462 0.311222 0 0 -0.000331879
9 1 0.999986 0.977028 0.187179 0 0 0.00034523
10 1 0.249986 0.127461 0.311222 0 0 -0.000335693
11 1 0.499986 0.977028 0.187179 0 0 0.00034523
12 1 0.749986 0.127461 0.311222 0 0 -0.000335693
13 1 0.999986 0.596491 0.559262 0 0 -0.000291824
14 1 0.499986 0.596491 0.559262 0 0 -0.000291824
15 1 0.249986 0.0964914 0.559262 -1.90735e-06 0 -0.000272751
16 1 0.749986 0.0964914 0.559262 1.90735e-06 0 -0.000272751
17 1 0.249986 0.446074 0.435239 0 0 0.000278473
18 1 0.749986 0.446074 0.435239 0 0 0.000278473
19 1 0.999986 0.946075 0.435239 0 0 0.00028801
20 1 0.499986 0.946075 0.435239 0 0 0.00028801
21 1 0.999986 0.565528 0.807323 0 0 -0.000320435
22 1 0.249986 0.4151 0.68328 0 0 0.000329971
23 1 0.499986 0.565528 0.807323 0 0 -0.000320435
24 1 0.749986 0.4151 0.68328 0 0 0.000329971
25 1 0.999986 0.915099 0.68328 0 0 0.000322342
26 1 0.249986 0.0655279 0.807323 1.90735e-06 0 -0.000314713
27 1 0.749986 0.0655279 0.807323 -1.90735e-06 0 -0.000314713
28 1 0.499986 0.915099 0.68328 0 0 0.000326157
29 1 0.249986 0.384145 0.93136 0 0 -0.00028038
30 1 0.749986 0.384145 0.93136 0 0 -0.00028038
31 1 0.999986 0.884144 0.93136 0 0 -0.000284195
32 1 0.499986 0.884144 0.93136 0 0 -0.000282288
ITEM: TIMESTEP
8
ITEM: NUMBER OF ATOMS
32
ITEM: BOX BOUNDS xy xz yz pp pp pp
-2.4071335792541504e-03 6.3992393016815186e+00 0.0000000000000000e+00
-9.1621279716491699e-03 6.2207924723625183e+00 0.0000000000000000e+00
5.4966151714324951e-02 2.0670420289039612e+01 6.9119918346405029e-01
ITEM: ATOMS id type xs ys zs fx fy fz
1 1 0.999986 0.658408 0.0631412 0 0 0.000257492
2 1 0.499986 0.658408 0.0631412 0 0 0.000263214
3 1 0.249986 0.158409 0.0631412 0 0 0.000255585
4 1 0.749986 0.158409 0.0631412 0 0 0.000255585
5 1 0.999986 0.627462 0.311222 0 0 -0.000331879
6 1 0.249986 0.477028 0.187179 0 0 0.000349045
7 1 0.749986 0.477028 0.187179 0 0 0.000349045
8 1 0.499986 0.627462 0.311222 0 0 -0.000331879
9 1 0.999986 0.977028 0.187179 0 0 0.00034523
10 1 0.249986 0.127461 0.311222 0 0 -0.000335693
11 1 0.499986 0.977028 0.187179 0 0 0.00034523
12 1 0.749986 0.127461 0.311222 0 0 -0.000335693
13 1 0.999986 0.596491 0.559262 0 0 -0.000291824
14 1 0.499986 0.596491 0.559262 0 0 -0.000291824
15 1 0.249986 0.0964914 0.559262 -1.90735e-06 0 -0.000272751
16 1 0.749986 0.0964914 0.559262 1.90735e-06 0 -0.000272751
17 1 0.249986 0.446074 0.435239 0 0 0.000278473
18 1 0.749986 0.446074 0.435239 0 0 0.000278473
19 1 0.999986 0.946075 0.435239 0 0 0.00028801
20 1 0.499986 0.946075 0.435239 0 0 0.00028801
21 1 0.999986 0.565528 0.807323 0 0 -0.000320435
22 1 0.249986 0.4151 0.68328 0 0 0.000329971
23 1 0.499986 0.565528 0.807323 0 0 -0.000320435
24 1 0.749986 0.4151 0.68328 0 0 0.000329971
25 1 0.999986 0.915099 0.68328 0 0 0.000322342
26 1 0.249986 0.0655279 0.807323 1.90735e-06 0 -0.000314713
27 1 0.749986 0.0655279 0.807323 -1.90735e-06 0 -0.000314713
28 1 0.499986 0.915099 0.68328 0 0 0.000326157
29 1 0.249986 0.384145 0.93136 0 0 -0.00028038
30 1 0.749986 0.384145 0.93136 0 0 -0.00028038
31 1 0.999986 0.884144 0.93136 0 0 -0.000284195
32 1 0.499986 0.884144 0.93136 0 0 -0.000282288
