LAMMPS (4 May 2022)
## variable
variable        temp            equal 666
variable        eql_step        equal 500000
variable        rd_seed         equal 3

variable        temp_damp       equal 0.2 # tau_NVT = timestep * 100
variable        t_step          equal 0.002
variable        rlx_step        equal 20000

variable        thermo_freq     equal 100
variable        dump_freq       equal 100

## units
dimension       3
boundary        p p p
units           metal
atom_style      atomic
neighbor        1.0 bin
neigh_modify    every 10 delay 0 check no

## data.lmp, potential
read_data       data.lmp
Reading data file ...
  orthogonal box = (0 0 0) to (26.38965 26.38965 25.40376)
  1 by 1 by 1 MPI processor grid
  reading atoms ...
  900 atoms
  read_data CPU = 0.001 seconds
pair_style      mdpu model.pb
pair_coeff * *

## velocity, timestep
velocity        all create ${temp} ${rd_seed} loop geom
velocity        all create 666 ${rd_seed} loop geom
velocity        all create 666 3 loop geom
timestep        ${t_step}
timestep        0.002

## nvt-relax
fix             equil all nvt temp ${temp} ${temp} ${temp_damp}
fix             equil all nvt temp 666 ${temp} ${temp_damp}
fix             equil all nvt temp 666 666 ${temp_damp}
fix             equil all nvt temp 666 666 0.2
run             ${rlx_step}
run             20000
Generated 0 of 6 mixed pair_coeff terms from geometric mixing rule
Neighbor list info ...
  update every 10 steps, delay 0 steps, check no
  max neighbors/atom: 2000, page size: 100000
  master list distance cutoff = 8
  ghost atom cutoff = 8
  binsize = 4, bins = 7 7 7
  1 neighbor lists, perpetual/occasional/extra = 1 0 0
  (1) pair mdpu, perpetual
      attributes: full, newton on
      pair build: full/bin/atomonly
      stencil: full/bin/3d
      bin: standard
Per MPI rank memory allocation (min/avg/max) = 3.057 | 3.057 | 3.057 Mbytes
   Step          Temp          E_pair         E_mol          TotEng         Press     
         0   666            199.06477      0              276.45721      10130.905    
     20000   659.83245      270.91761      0              347.59336      15616.302    
Loop time of 12.0682 on 1 procs for 20000 steps with 900 atoms

Performance: 286.372 ns/day, 0.084 hours/ns, 1657.245 timesteps/s
53.8% CPU use with 1 MPI tasks x no OpenMP threads

MPI task timing breakdown:
Section |  min time  |  avg time  |  max time  |%varavg| %total
---------------------------------------------------------------
Pair    | 7.7102     | 7.7102     | 7.7102     |   0.0 | 63.89
Neigh   | 4.0689     | 4.0689     | 4.0689     |   0.0 | 33.72
Comm    | 0.14021    | 0.14021    | 0.14021    |   0.0 |  1.16
Output  | 1.735e-05  | 1.735e-05  | 1.735e-05  |   0.0 |  0.00
Modify  | 0.12548    | 0.12548    | 0.12548    |   0.0 |  1.04
Other   |            | 0.02335    |            |       |  0.19

Nlocal:            900 ave         900 max         900 min
Histogram: 1 0 0 0 0 0 0 0 0 0
Nghost:           2792 ave        2792 max        2792 min
Histogram: 1 0 0 0 0 0 0 0 0 0
Neighs:              0 ave           0 max           0 min
Histogram: 1 0 0 0 0 0 0 0 0 0
FullNghs:        97714 ave       97714 max       97714 min
Histogram: 1 0 0 0 0 0 0 0 0 0

Total # of neighbors = 97714
Ave neighs/atom = 108.57111
Neighbor list builds = 2000
Dangerous builds not checked
unfix           equil

## nvt-equal
reset_timestep  0
fix             equil all nvt temp ${temp} ${temp} ${temp_damp}
fix             equil all nvt temp 666 ${temp} ${temp_damp}
fix             equil all nvt temp 666 666 ${temp_damp}
fix             equil all nvt temp 666 666 0.2
fix             com all recenter INIT INIT INIT

## thermo_style
thermo_style    custom step time temp ke etotal press
thermo          ${thermo_freq}
thermo          100
thermo_modify   flush yes
dump            1 all custom ${dump_freq} dump.lammpstraj id type x y z
dump            1 all custom 100 dump.lammpstraj id type x y z
run             500000
Generated 0 of 6 mixed pair_coeff terms from geometric mixing rule
Per MPI rank memory allocation (min/avg/max) = 4.341 | 4.341 | 4.341 Mbytes
   Step          Time           Temp          KinEng         TotEng         Press     
         0   0              659.83245      76.675745      347.59336      15616.302    
       100   0.2            670.38651      77.902177      349.68455      14122.661    
       200   0.4            703.27891      81.724435      354.34882      15994.758    
       300   0.6            700.47304      81.398378      354.43642      14882.3      
       400   0.8            679.22607      78.929377      352.40612      14807.329    
       500   1              654.04251      76.002925      349.48124      14493.917    
       600   1.2            650.81811      75.628234      347.62179      12940.861    
       700   1.4            647.40487      75.231599      348.98916      13627.601    
       800   1.6            688.71696      80.032265      354.95005      14447.205    
       900   1.8            667.61814      77.58048       357.45458      12829.314    
      1000   2              683.09493      79.378958      353.90103      14021.722    
      1100   2.2            664.95361      77.270848      349.94692      11879.15     
      1200   2.4            665.03787      77.28064       349.42141      15284.198    
      1300   2.6            693.89116      80.633532      350.76527      11769.351    
      1400   2.8            655.67919      76.193115      352.43948      13880.173    
      1500   3              714.64203      83.044884      356.58628      15381.152    
      1600   3.2            686.96288      79.828432      355.57232      13610.636    
      1700   3.4            664.91175      77.265984      350.16377      13525.391    
      1800   3.6            648.79688      75.393358      348.81416      14431.216    
      1900   3.8            653.47412      75.936875      350.15162      15120.275    
      2000   4              695.56485      80.828024      353.40357      15819.863    
      2100   4.2            685.89606      79.704463      354.61644      14284.846    
      2200   4.4            676.7289       78.639195      351.30763      14596.181    
      2300   4.6            649.17403      75.437184      347.10728      14951.532    
      2400   4.8            651.93306      75.757797      347.29329      14816.873    
      2500   5              680.90273      79.124214      351.45922      15034.339    
      2600   5.2            683.97576      79.481314      353.42907      15833.007    
      2700   5.4            673.83468      78.302871      352.89894      13358.342    
      2800   5.6            681.513        79.195129      351.24396      12676.744    
      2900   5.8            656.61721      76.302118      351.01262      13937.782    
      3000   6              667.92124      77.615701      351.1696       12948.111    
      3100   6.2            664.94646      77.270017      351.42363      15100.104    
      3200   6.4            674.48411      78.378339      351.92023      15576.505    
      3300   6.6            685.16837      79.619902      352.53159      15123.086    
      3400   6.8            674.99581      78.437801      353.28391      14714.858    
      3500   7              666.45963      77.445854      352.08696      14052.112    
      3600   7.2            682.17946      79.272576      349.69847      11880.898    
      3700   7.4            651.793        75.741521      347.51098      14834.973    
      3800   7.6            650.81214      75.62754       348.32853      12809.534    
      3900   7.8            677.36629      78.713261      353.7089       14763.107    
      4000   8              689.06795      80.073052      354.86774      14144.898    
      4100   8.2            652.17292      75.785669      352.20409      13838.155    
      4200   8.4            630.0583       73.215843      349.74287      16038.525    
      4300   8.6            637.97556      74.135868      348.89861      14417.071    
      4400   8.8            673.22172      78.231642      349.80003      12642.479    
      4500   9              669.5969       77.810421      351.35987      14227.562    
      4600   9.2            656.97302      76.343464      353.00768      17280.946    
      4700   9.4            668.22979      77.651557      356.36917      15458.516    
      4800   9.6            706.74468      82.127174      359.09553      16049.315    
      4900   9.8            666.99096      77.507598      354.13328      16336.308    
      5000   10             706.76547      82.12959       350.87197      11135.3      
      5100   10.2           646.59942      75.138002      349.49286      14483.107    
      5200   10.4           610.51206      70.944475      349.5378       14776.175    
      5300   10.6           673.61082      78.276858      353.95443      12036.346    
      5400   10.8           704.67112      81.886216      356.76916      16048.438    
      5500   11             704.95584      81.919302      354.73728      14640.337    
      5600   11.2           667.807        77.602426      352.58736      13596.425    
      5700   11.4           681.45196      79.188037      351.91118      14023.548    
      5800   11.6           680.71354      79.102229      352.0485       13636.612    
      5900   11.8           655.56065      76.179341      349.98988      15433.638    
      6000   12             634.01836      73.676022      345.55284      13941.018    
      6100   12.2           636.11607      73.919785      345.95693      11950.811    
      6200   12.4           676.97485      78.667774      350.76758      14638.125    
      6300   12.6           677.40124      78.717323      351.87215      13739.701    
      6400   12.8           675.33575      78.477303      352.08463      14549.321    
      6500   13             685.50184      79.658653      351.15477      14504.239    
      6600   13.2           668.698        77.705964      347.51315      13914.459    
      6700   13.4           653.26807      75.912932      344.37625      14398.684    
      6800   13.6           643.63921      74.79401       347.17847      13254.157    
      6900   13.8           680.52029      79.079773      351.06259      16254.44     
      7000   14             652.2564       75.795371      351.69283      13307.659    
      7100   14.2           658.81536      76.557554      351.18258      12975.501    
      7200   14.4           658.13257      76.47821       349.75852      13706.567    
      7300   14.6           642.13731      74.619483      347.9045       11587.581    
      7400   14.8           637.08158      74.031982      349.71832      13032.655    
      7500   15             680.07342      79.027844      354.35634      13792.294    
      7600   15.2           686.76575      79.805525      354.5224       13895.067    
      7700   15.4           667.88972      77.612038      351.58669      12265.027    
      7800   15.6           640.74576      74.457778      347.33554      13350.045    
      7900   15.8           639.12836      74.269828      347.85547      12875.429    
      8000   16             654.03402      76.001938      350.14954      14052.06     
      8100   16.2           685.78642      79.691722      352.32523      13618.887    
      8200   16.4           674.18112      78.343129      351.78532      13766.729    
      8300   16.6           660.50605      76.75402       346.59099      12993.483    
      8400   16.8           677.45617      78.723706      344.96484      13056.847    
      8500   17             676.36494      78.5969        348.18497      15639.262    
      8600   17.2           684.56753      79.550081      351.67317      14475.203    
      8700   17.4           652.48483      75.821915      352.17909      14099.97     
      8800   17.6           663.72539      77.128122      352.4324       14866.821    
      8900   17.8           666.30796      77.42823       352.32303      12144.154    
      9000   18             696.91553      80.984979      351.93923      12680.319    
      9100   18.2           679.84502      79.001303      350.24737      14220.033    
      9200   18.4           658.38053      76.507024      348.05817      13200.67     
      9300   18.6           653.05091      75.887697      347.97812      15533.787    
      9400   18.8           655.36588      76.156708      353.02639      13106.105    
      9500   19             696.09453      80.889574      355.29297      15174.272    
      9600   19.2           665.45856      77.329526      352.58794      14991.875    
      9700   19.4           677.18039      78.69166       350.30784      13257.709    
      9800   19.6           675.0904       78.448792      349.59368      14527.138    
      9900   19.8           665.16559      77.295481      349.53412      15950.713    
     10000   20             654.57451      76.064746      349.71415      13258.44     
     10100   20.2           663.36228      77.085928      350.13452      14319.184    
     10200   20.4           644.70324      74.917657      350.1313       14522.054    
     10300   20.6           679.78981      78.994886      350.76317      14073.937    
     10400   20.8           690.54034      80.244151      354.63344      14949.532    
     10500   21             682.04273      79.256687      357.00666      12702.728    
     10600   21.2           673.96669      78.318212      352.95582      14973.119    
     10700   21.4           670.19137      77.879501      349.71695      14643.991    
     10800   21.6           673.78537      78.297141      349.01844      12908.213    
     10900   21.8           651.22438      75.675445      349.16661      13638.314    
     11000   22             666.08282      77.402067      352.49935      14610.009    
     11100   22.2           707.89351      82.260673      356.61447      16028.597    
     11200   22.4           690.20221      80.204859      353.97646      13244.779    
     11300   22.6           655.81469      76.208861      350.6561       14078.414    
     11400   22.8           666.77729      77.482769      350.46502      13004.334    
     11500   23             671.5911       78.042157      351.26492      12570.633    
     11600   23.2           664.06385      77.167454      351.52641      16159.517    
     11700   23.4           647.59663      75.253882      350.25609      11637.243    
     11800   23.6           645.61299      75.023374      348.21822      13819.172    
     11900   23.8           642.67041      74.681431      347.50418      12530.049    
     12000   24             649.23076      75.443776      349.09607      12694.871    
     12100   24.2           682.5874       79.31998       353.6887       15087.422    
     12200   24.4           677.89832      78.775086      354.75637      12832.117    
     12300   24.6           670.47787      77.912794      352.05434      13903.702    
     12400   24.8           635.22207      73.815898      348.22697      15719.515    
     12500   25             671.85484      78.072805      347.81545      12756.645    
     12600   25.2           672.71539      78.172805      349.739        15800.235    
     12700   25.4           663.42304      77.092988      352.33199      13484.679    
     12800   25.6           658.78582      76.554121      355.05024      13743.153    
     12900   25.8           670.81041      77.951436      353.32074      15573.223    
     13000   26             641.96489      74.599447      347.14425      12384.632    
     13100   26.2           641.47692      74.542743      347.9673       13903.869    
     13200   26.4           646.34254      75.108151      350.96263      14302.229    
     13300   26.6           674.77705      78.412379      352.78836      12869.349    
     13400   26.8           687.43801      79.883645      353.33147      14703.39     
     13500   27             667.86802      77.609516      349.13462      13860.009    
     13600   27.2           666.17251      77.41249       346.77437      11721.527    
     13700   27.4           667.07185      77.516998      349.14711      15395.728    
     13800   27.6           683.74703      79.454735      353.24008      12094.312    
     13900   27.8           665.63229      77.349715      353.54039      14038.821    
     14000   28             669.91543      77.847436      352.01018      13527.101    
     14100   28.2           661.07124      76.819698      350.30825      15489.774    
     14200   28.4           657.25507      76.37624       349.84428      12449.232    
     14300   28.6           678.43275      78.83719       350.21925      13596.191    
     14400   28.8           676.46824      78.608904      351.20904      13137.511    
     14500   29             677.21768      78.695993      353.90778      12315.365    
     14600   29.2           692.59858      80.483328      354.51617      16587.473    
     14700   29.4           661.57636      76.878395      351.21199      14470.974    
     14800   29.6           642.84267      74.70145       348.00552      11977.912    
     14900   29.8           673.05305      78.212043      347.56322      14579.04     
     15000   30             658.88435      76.565571      351.77673      13359.443    
     15100   30.2           692.982        80.527884      354.733        13519.89     
     15200   30.4           686.10042      79.72821       353.24674      15828.177    
     15300   30.6           672.40278      78.136478      351.2161       15376.685    
     15400   30.8           658.29212      76.496751      350.19502      13158.409    
     15500   31             661.77624      76.901623      349.63444      15017.23     
     15600   31.2           654.48382      76.054208      348.65843      13011.744    
     15700   31.4           665.58023      77.343664      349.02277      12765.664    
     15800   31.6           674.06058      78.329122      352.11315      13830.233    
     15900   31.8           687.73972      79.918705      354.73306      15163.581    
     16000   32             678.81477      78.881582      352.37227      16293.633    
     16100   32.2           647.08331      75.194232      348.0399       11836.383    
     16200   32.4           670.58159      77.924847      348.4165       14943.471    
     16300   32.6           690.89435      80.285288      350.34104      16126.345    
     16400   32.8           682.57168      79.318154      352.65447      14326.345    
     16500   33             690.29301      80.21541       354.51757      14627.47     
     16600   33.2           685.88678      79.703384      353.81975      15711.565    
     16700   33.4           656.53146      76.292154      347.60576      12552.683    
     16800   33.6           647.49089      75.241595      346.6346       12965.785    
     16900   33.8           655.7169       76.197497      349.40088      15050.533    
     17000   34             675.04829      78.443898      353.21712      11163.031    
     17100   34.2           674.23494      78.349383      353.8851       14190.493    
     17200   34.4           663.25971      77.074009      352.77787      13279.898    
     17300   34.6           642.71938      74.687123      351.07317      11756.603    
     17400   34.8           611.89583      71.105276      344.54242      13757.982    
     17500   35             630.77854      73.299538      344.19524      11415.648    
     17600   35.2           644.72784      74.920515      348.36977      13937.497    
     17700   35.4           666.40939      77.440017      351.67115      13167.75     
     17800   35.6           664.97666      77.273526      354.17884      13052.5      
     17900   35.8           683.51132      79.427345      354.56017      14893.932    
     18000   36             659.14502      76.595862      350.70097      15946.755    
     18100   36.2           624.08695      72.521944      346.48339      13709.92     
     18200   36.4           668.19663      77.647702      348.12017      13087.675    
     18300   36.6           684.1018       79.495961      350.78118      15671.813    
     18400   36.8           657.86939      76.447627      352.24082      9942.7157    
     18500   37             650.77787      75.623558      351.61661      15327.709    
     18600   37.2           651.4039       75.696306      346.13198      14426.17     
     18700   37.4           656.57738      76.297489      344.82788      12562.547    
     18800   37.6           666.08552      77.402381      348.8333       14142.666    
     18900   37.8           701.42831      81.509386      351.91751      14309.447    
     19000   38             669.62011      77.813118      351.8685       13881.709    
     19100   38.2           659.7248       76.663235      350.11226      13263.597    
     19200   38.4           635.00105      73.790215      344.95218      13876.766    
     19300   38.6           628.98738      73.091397      344.2401       14120.636    
     19400   38.8           660.33805      76.734498      346.94265      13660.651    
     19500   39             646.58032      75.135782      349.101        13599.168    
     19600   39.2           650.33272      75.57183       351.14308      14270.416    
     19700   39.4           676.22826      78.581017      352.92031      14364.885    
     19800   39.6           682.46274      79.305495      352.19923      14246.618    
     19900   39.8           657.67439      76.424967      346.86696      14622.31     
     20000   40             648.54229      75.363773      345.56093      14589.83     
     20100   40.2           650.60914      75.603951      348.80016      12902.038    
     20200   40.4           670.45655      77.910316      351.84021      14996.47     
     20300   40.6           675.68355      78.51772       352.17244      14279.571    
     20400   40.8           667.54471      77.571947      351.5826       14694.945    
     20500   41             651.79325      75.74155       351.09405      15436.516    
     20600   41.2           665.31365      77.312686      350.44558      14231.768    
     20700   41.4           656.16019      76.24901       348.68427      13568.578    
     20800   41.6           632.88409      73.544214      345.17866      13386.14     
     20900   41.8           626.4987       72.8022        346.50161      14531.332    
     21000   42             665.14667      77.293283      351.15405      13473.763    
     21100   42.2           666.79369      77.484674      353.05885      12643.025    
     21200   42.4           664.90104      77.264739      352.55573      15448.231    
     21300   42.6           642.78004      74.694171      349.25086      12097.858    
     21400   42.8           661.40342      76.858299      344.94933      11934.753    
     21500   43             647.7824       75.27547       346.03564      14705.63     
     21600   43.2           661.17488      76.831742      348.80746      13510.676    
     21700   43.4           668.8343       77.721804      350.99038      13872.504    
     21800   43.6           686.90496      79.821702      352.8527       16583.921    
     21900   43.8           668.45483      77.677707      354.97109      12596.662    
     22000   44             708.14329      82.2897        359.36108      16059.281    
     22100   44.2           672.96516      78.20183       356.89066      15294.31     
     22200   44.4           662.02763      76.930835      352.03709      13727.793    
     22300   44.6           653.60897      75.952545      350.29422      14042.903    
     22400   44.8           659.56733      76.644937      349.63247      14493.308    
     22500   45             667.99514      77.624288      349.1839       12440.279    
     22600   45.2           658.64297      76.537521      349.99829      15476.955    
     22700   45.4           673.35441      78.247062      351.90911      15025.453    
     22800   45.6           664.77071      77.249594      352.78966      13092.355    
     22900   45.8           662.44643      76.979501      352.00291      15307.786    
     23000   46             627.44892      72.912621      348.76334      12333.334    
     23100   46.2           669.98738      77.855796      347.3188       14617.435    
     23200   46.4           645.42773      75.001846      350.22836      16232.71     
     23300   46.6           683.22995      79.394648      354.99134      13968.926    
     23400   46.8           671.2943       78.007667      353.83421      15460.544    
     23500   47             679.74697      78.989908      350.79133      13811.831    
     23600   47.2           656.95956      76.3419        348.70564      14560.517    
     23700   47.4           661.65201      76.887186      348.64231      15603.77     
     23800   47.6           657.80302      76.439915      349.28066      12854.571    
     23900   47.8           654.29173      76.031886      350.67885      15647.077    
     24000   48             672.2523       78.118992      351.87885      14326.202    
     24100   48.2           706.15768      82.058962      354.59306      14099.19     
     24200   48.4           686.71161      79.799233      355.33679      15191.744    
     24300   48.6           683.26344      79.398539      351.53767      15340.652    
     24400   48.8           660.52895      76.756681      347.91068      12950.597    
     24500   49             658.05852      76.469605      348.03974      14745.009    
     24600   49.2           688.16898      79.968587      350.05051      14615.533    
     24700   49.4           672.46269      78.14344       354.92691      16755.662    
     24800   49.6           659.68739      76.658888      356.5778       16889.932    
     24900   49.8           688.65065      80.024559      351.96161      15394.961    
     25000   50             659.61099      76.650009      349.56713      14224.387    
     25100   50.2           687.70047      79.914144      349.64179      15448.622    
     25200   50.4           667.63875      77.582874      350.21455      13286.448    
     25300   50.6           660.53289      76.757139      351.19384      12096.277    
     25400   50.8           651.09105      75.659951      352.25487      13584.009    
     25500   51             690.41307      80.229362      353.0954       15128.851    
     25600   51.2           687.96513      79.944898      351.1489       12875.703    
     25700   51.4           656.79836      76.323168      347.17147      13211.734    
     25800   51.6           666.22441      77.418521      346.3317       13011.811    
     25900   51.8           677.71148      78.753374      349.88601      11363.63     
     26000   52             671.43075      78.023523      354.50603      16090.597    
     26100   52.2           683.10262      79.379852      353.45646      12150.874    
     26200   52.4           669.31153      77.77726       350.43807      13961.668    
     26300   52.6           665.71611      77.359454      347.72871      14340.258    
     26400   52.8           643.80824      74.813653      347.1426       13495.609    
     26500   53             663.65288      77.119697      353.42482      15924.206    
     26600   53.2           675.24341      78.466573      354.97545      12078.719    
     26700   53.4           655.41521      76.162439      353.01827      13853.736    
     26800   53.6           661.09501      76.82246       349.27207      15110.917    
     26900   53.8           655.8495       76.212906      347.74131      10991.944    
     27000   54             673.50685      78.264776      350.03277      14050.317    
     27100   54.2           686.07826      79.725636      356.55357      12971.321    
     27200   54.4           696.14741      80.89572       356.33953      14409.417    
     27300   54.6           676.98381      78.668815      352.97671      13554.196    
     27400   54.8           687.37859      79.87674       349.38157      13845.537    
     27500   55             658.37698      76.506611      348.64969      13505.446    
     27600   55.2           668.4876       77.681515      351.14775      15761.661    
     27700   55.4           661.79378      76.903661      352.7081       14907.849    
     27800   55.6           682.43412      79.302168      352.22006      11663.753    
     27900   55.8           666.50511      77.45114       351.05972      12718.789    
     28000   56             656.77922      76.320944      349.88393      14274.776    
     28100   56.2           650.32322      75.570726      348.8955       12899.698    
     28200   56.4           660.293        76.729263      350.54935      14727.333    
     28300   56.6           673.37145      78.249042      353.3635       13876.278    
     28400   56.8           670.96656      77.969582      354.63864      14480.655    
     28500   57             670.89477      77.96124       353.2273       14845.838    
     28600   57.2           678.20206      78.810382      348.18462      15028.888    
     28700   57.4           667.94132      77.618034      346.7466       14240.566    
     28800   57.6           639.5173       74.315025      349.03175      15115.019    
     28900   57.8           683.36931      79.410842      351.97787      14527.373    
     29000   58             668.0674       77.632685      352.52958      14763.758    
     29100   58.2           675.84888      78.536932      351.67029      14219.896    
     29200   58.4           675.467        78.492555      350.13604      13662.664    
     29300   58.6           663.76405      77.132616      346.96676      14775.165    
     29400   58.8           653.61334      75.953054      345.4712       15177.115    
     29500   59             651.26166      75.679777      348.17842      14245.76     
     29600   59.2           668.21822      77.650212      353.11832      16909.272    
     29700   59.4           681.62557      79.208211      354.17641      14602.013    
     29800   59.6           674.20409      78.345799      351.47045      13749.398    
     29900   59.8           635.08742      73.800251      347.379        15632.341    
     30000   60             647.3503       75.225258      347.14539      13632.907    
     30100   60.2           655.96421      76.226236      349.00481      15014.093    
     30200   60.4           652.82169      75.86106       350.32369      16345.71     
     30300   60.6           700.92641      81.451062      351.50916      14343.787    
     30400   60.8           673.39573      78.251864      352.09102      12547.842    
     30500   61             664.18092      77.181058      352.85777      13587.686    
     30600   61.2           664.5106       77.219368      352.361        15088.589    
     30700   61.4           652.29342      75.799672      349.32647      14274.979    
     30800   61.6           681.81398      79.230105      347.64441      13594.667    
     30900   61.8           638.04854      74.144348      347.89572      13749.099    
     31000   62             673.88296      78.308482      352.78577      14564.06     
     31100   62.2           684.95872      79.59554       355.35842      16734.309    
     31200   62.4           681.92093      79.242533      353.20942      16784.288    
     31300   62.6           658.72841      76.547449      349.21019      14178.052    
     31400   62.8           653.27068      75.913234      349.09579      15837.493    
     31500   63             662.9972       77.043504      350.59055      15874.038    
     31600   63.2           671.52023      78.033921      352.87544      14172.739    
     31700   63.4           696.37441      80.922098      356.32274      14032.618    
     31800   63.6           697.46202      81.048484      358.42378      15012.836    
     31900   63.8           662.8495       77.02634       353.15397      15045.167    
     32000   64             635.86154      73.890208      349.50728      13414.75     
     32100   64.2           644.93728      74.944853      349.09642      13588.426    
     32200   64.4           666.19953      77.41563       351.8479       13474.277    
     32300   64.6           672.25536      78.119348      354.70676      13351.368    
     32400   64.8           681.86291      79.235791      357.56572      13402.46     
     32500   65             714.39784      83.016509      360.02284      15281.178    
     32600   65.2           654.50562      76.056741      355.74494      15325.7      
     32700   65.4           662.66547      77.004955      351.95849      12789.791    
     32800   65.6           655.99275      76.229552      350.58147      13979.551    
     32900   65.8           664.0423       77.164949      351.50954      11775.559    
     33000   66             673.06122      78.212992      354.38094      15819.735    
     33100   66.2           699.37493      81.270774      357.95714      14269.897    
     33200   66.4           693.34187      80.569702      354.46661      11286.688    
     33300   66.6           635.6712       73.868089      350.75115      12743.405    
     33400   66.8           662.45204      76.980153      350.10866      14286.415    
     33500   67             667.8849       77.611479      350.71857      13347.133    
     33600   67.2           655.47154      76.168985      353.38863      13201.865    
     33700   67.4           688.63901      80.023207      356.61829      14737.675    
     33800   67.6           690.17459      80.201649      353.5814       14603.651    
     33900   67.8           672.31655      78.126458      348.95309      13127.254    
     34000   68             653.73296      75.966954      348.70723      11477.317    
     34100   68.2           674.45423      78.374866      350.8799       15238.926    
     34200   68.4           673.90079      78.310553      354.39998      12982.882    
     34300   68.6           682.49789      79.309579      356.87287      15725.149    
     34400   68.8           672.34982      78.130324      356.62004      12818.357    
     34500   69             656.12804      76.245273      352.37112      12402.323    
     34600   69.2           675.06574      78.445926      348.83141      14154.793    
     34700   69.4           681.08885      79.145841      348.17551      12182.371    
     34800   69.6           665.33027      77.314618      350.14727      15130.518    
     34900   69.8           673.9692       78.318504      354.75017      12980.97     
     35000   70             674.60709      78.392629      355.16746      15416.864    
     35100   70.2           656.44308      76.281883      352.63784      15162.398    
     35200   70.4           666.59221      77.461262      351.66641      12633.563    
     35300   70.6           660.80952      76.789285      351.60566      14736.606    
     35400   70.8           684.16987      79.503871      351.35529      13131.436    
     35500   71             658.661        76.539616      350.89597      15456.321    
     35600   71.2           644.3334       74.87468       350.43039      14637.286    
     35700   71.4           661.2268       76.837775      350.46621      12721.421    
     35800   71.6           665.86103      77.376295      351.27335      15713.789    
     35900   71.8           685.8738       79.701876      353.60698      13582.308    
     36000   72             679.24801      78.931926      356.05776      14815.388    
     36100   72.2           682.25544      79.281405      353.13439      14233.093    
     36200   72.4           696.74995      80.965738      348.42436      14450.336    
     36300   72.6           652.22332      75.791527      348.13284      13414.226    
     36400   72.8           671.89719      78.077726      351.03197      12773.156    
     36500   73             677.87024      78.771823      353.20904      13560.438    
     36600   73.2           684.36168      79.52616       353.37986      14071.784    
     36700   73.4           665.11446      77.28954       349.65426      13450.126    
     36800   73.6           628.06066      72.983707      345.51311      12380.768    
     36900   73.8           632.80506      73.535029      347.17964      11721.615    
     37000   74             665.13682      77.292137      351.70353      14038.615    
     37100   74.2           682.24718      79.280445      353.83215      12254.072    
     37200   74.4           660.25353      76.724676      353.53788      12406.004    
     37300   74.6           648.35631      75.342161      349.77149      12878.885    
     37400   74.8           630.40178      73.255757      345.61423      13924.062    
     37500   75             639.13601      74.270717      347.25287      11521.237    
     37600   75.2           670.01466      77.858967      350.41984      15206.299    
     37700   75.4           676.95053      78.664948      352.18833      13773.857    
     37800   75.6           680.19412      79.04187       352.57827      16293.506    
     37900   75.8           651.5273       75.710645      349.44206      15320.423    
     38000   76             632.49227      73.498682      343.84497      12366.066    
     38100   76.2           638.46697      74.192971      346.28374      12656.629    
     38200   76.4           650.48805      75.58988       350.28364      12681.258    
     38300   76.6           647.411        75.232311      352.47107      15185.23     
     38400   76.8           665.49573      77.333845      353.29411      13761.17     
     38500   77             663.01381      77.045434      351.87395      14193.83     
     38600   77.2           640.26958      74.402443      347.15618      12825.145    
     38700   77.4           635.17291      73.810186      347.05491      13821.141    
     38800   77.6           649.53573      75.479215      351.38628      14699.431    
     38900   77.8           672.77887      78.180182      352.92287      13910.049    
     39000   78             661.76035      76.899776      353.05107      13740.183    
     39100   78.2           690.2316       80.208273      352.29147      16549.447    
     39200   78.4           637.42307      74.071665      348.88427      13721.004    
     39300   78.6           631.62799      73.398249      345.07015      13998.263    
     39400   78.8           645.01657      74.954067      347.10505      14117.228    
     39500   79             670.92199      77.964403      351.09197      15159.574    
     39600   79.2           664.63085      77.233341      351.84768      13475.608    
     39700   79.4           676.36524      78.596934      352.32257      14308.204    
     39800   79.6           661.78842      76.903037      352.73953      15319.543    
     39900   79.8           690.24423      80.209741      351.61156      13126.221    
     40000   80             649.20238      75.440478      347.82192      15298.551    
     40100   80.2           630.33823      73.248372      346.43227      13282.599    
     40200   80.4           655.43991      76.16531       350.48228      14991.819    
     40300   80.6           668.42285      77.673991      354.47862      14616.466    
     40400   80.8           662.63704      77.001651      353.84417      14870.457    
     40500   81             656.1148       76.243736      351.51198      12352.851    
     40600   81.2           645.74231      75.038401      348.10776      13230.076    
     40700   81.4           643.49369      74.777101      346.21265      14823.054    
     40800   81.6           638.16072      74.157384      346.22729      12239.78     
     40900   81.8           680.61644      79.090945      351.08758      13961.387    
     41000   82             668.02354      77.627589      353.93368      17945.906    
     41100   82.2           658.40814      76.510232      353.96612      15120.899    
     41200   82.4           656.06414      76.237848      350.37264      13555.579    
     41300   82.6           641.58168      74.554916      347.26447      14802.517    
     41400   82.8           675.58334      78.506075      347.75315      13378.327    
     41500   83             657.4512       76.399031      353.53285      13354.539    
     41600   83.2           672.20781      78.113821      356.00935      12827.37     
     41700   83.4           655.80059      76.207222      353.83806      15266.668    
     41800   83.6           683.42717      79.417565      349.88958      14183.752    
     41900   83.8           638.70513      74.220647      347.81721      13303.519    
     42000   84             642.83895      74.701017      348.95988      14483.969    
     42100   84.2           653.78262      75.972725      354.45874      15755.561    
     42200   84.4           702.37679      81.619604      355.048        12563.112    
     42300   84.6           671.71019      78.055995      352.42781      14922.405    
     42400   84.8           683.69046      79.448161      350.19745      12876.805    
     42500   85             640.70436      74.452968      348.77749      13572.164    
     42600   85.2           674.80574      78.415713      349.3716       16285.766    
     42700   85.4           676.03212      78.558224      355.18675      13940.51     
     42800   85.6           657.72611      76.430978      357.13651      14750.126    
     42900   85.8           683.73869      79.453766      353.38205      16082.324    
     43000   86             672.3743       78.133168      350.15418      15781.568    
     43100   86.2           646.86974      75.169414      349.09166      12999.447    
     43200   86.4           664.17966      77.180911      350.23131      14150.636    
     43300   86.6           675.68829      78.51827       355.88889      14859.473    
     43400   86.8           683.83633      79.465112      357.14262      12881.239    
     43500   87             653.6496       75.957267      354.33611      12735.006    
     43600   87.2           660.77504      76.785278      351.88369      14586.227    
     43700   87.4           688.66202      80.025881      351.37799      11938.336    
     43800   87.6           668.70072      77.70628       351.96536      13402.912    
     43900   87.8           681.38448      79.180195      354.31726      14150.656    
     44000   88             701.0069       81.460416      358.32331      12779.066    
     44100   88.2           703.22036      81.717631      358.19567      13609.698    
     44200   88.4           686.23544      79.7439        352.72511      15114.109    
     44300   88.6           653.46355      75.935647      350.00493      12902.457    
     44400   88.8           651.94933      75.759688      349.16324      13770.551    
     44500   89             674.25502      78.351717      350.45041      16163.922    
     44600   89.2           671.8196       78.06871       354.27024      15584.324    
     44700   89.4           696.298        80.913219      356.42538      14961.151    
     44800   89.6           639.63065      74.328197      351.56642      15334.102    
     44900   89.8           663.53883      77.106443      348.69455      14203.612    
     45000   90             668.92205      77.732         349.97604      15770.842    
     45100   90.2           677.76643      78.75976       353.11875      16218.332    
     45200   90.4           657.03392      76.350542      353.80002      15186.672    
     45300   90.6           683.99336      79.48336       352.45847      14500.888    
     45400   90.8           650.21829      75.558532      347.40772      13563.067    
     45500   91             635.0278       73.793323      347.52913      14183.927    
     45600   91.2           685.56897      79.666453      351.07223      12932.313    
     45700   91.4           673.91511      78.312218      353.70498      13650.511    
     45800   91.6           702.08272      81.585431      352.00565      15552.173    
     45900   91.8           652.71351      75.848489      350.06013      13157.195    
     46000   92             668.23692      77.652384      349.87525      12613.303    
     46100   92.2           671.91902      78.080263      350.74748      15446.595    
     46200   92.4           680.03312      79.02316       352.50574      12351.099    
     46300   92.6           678.82001      78.882191      356.52883      14194.371    
     46400   92.8           702.45702      81.628928      358.13207      13083.95     
     46500   93             679.773        78.992933      352.7823       13655.22     
     46600   93.2           650.45669      75.586235      350.583        14319.938    
     46700   93.4           657.83232      76.443319      350.07236      11247.462    
     46800   93.6           657.64559      76.42162       350.21653      13194.108    
     46900   93.8           644.94271      74.945484      352.50109      13687.437    
     47000   94             694.15636      80.664349      356.51979      14206.523    
     47100   94.2           666.84835      77.491026      355.94779      15250.358    
     47200   94.4           668.46427      77.678804      350.26421      13219.792    
     47300   94.6           658.29089      76.496608      349.01016      13447.68     
     47400   94.8           663.68738      77.123706      349.96426      14007.414    
     47500   95             668.02699      77.62799       351.53385      14749.049    
     47600   95.2           675.91341      78.54443       353.92168      15292.455    
     47700   95.4           676.21734      78.579748      355.63042      15058.586    
     47800   95.6           659.2447       76.607445      353.58356      15111.709    
     47900   95.8           650.2025       75.556697      348.80551      12197.698    
     48000   96             669.7325       77.826178      348.09126      10848.38     
     48100   96.2           663.37682      77.087617      349.38857      13795.404    
     48200   96.4           677.75957      78.758963      354.92698      13314.413    
     48300   96.6           693.13633      80.545817      356.54861      14875.977    
     48400   96.8           656.94437      76.340135      353.09853      11279.42     
     48500   97             653.90752      75.987238      350.34387      13799.918    
     48600   97.2           666.19319      77.414894      348.74513      13328.622    
     48700   97.4           646.6141       75.139708      347.52983      11741.483    
     48800   97.6           641.13031      74.502465      346.27597      14027.896    
     48900   97.8           665.90823      77.381779      347.40569      12698.952    
     49000   98             683.08621      79.377945      351.57278      14850.212    
     49100   98.2           641.49942      74.545357      353.11541      14275.165    
     49200   98.4           691.37608      80.341268      352.65014      12726.827    
     49300   98.6           625.93532      72.736732      347.38227      13509.347    
     49400   98.8           650.80871      75.627141      345.40598      15969.833    
     49500   99             647.24467      75.212983      347.73739      15412.972    
     49600   99.2           674.32983      78.36041       351.08285      13707.86     
     49700   99.4           682.09409      79.262655      352.29437      15013.865    
     49800   99.6           678.32874      78.825103      351.94841      13456.756    
     49900   99.8           681.13288      79.150958      350.1509       15024.137    
     50000   100            652.95122      75.876111      345.64222      13585.177    
     50100   100.2          646.43615      75.119029      344.20659      14315.395    
     50200   100.4          667.12952      77.523699      348.86078      14228.465    
     50300   100.6          657.84776      76.445114      350.90454      13831.32     
     50400   100.8          654.96188      76.10976       351.86563      16433.254    
     50500   101            682.24941      79.280704      353.46459      13093.955    
     50600   101.2          680.82588      79.115283      354.25636      14217.049    
     50700   101.4          669.6407       77.81551       351.43503      14680.614    
     50800   101.6          653.98658      75.996426      347.85011      12623.097    
     50900   101.8          667.18165      77.529757      347.75293      12541.202    
     51000   102            682.58416      79.319604      352.22224      15224.422    
     51100   102.2          690.9702       80.294102      355.55457      14089.103    
     51200   102.4          671.75286      78.060954      354.13471      15051.364    
     51300   102.6          650.19078      75.555335      351.28177      15584.073    
     51400   102.8          676.69213      78.634921      349.56255      13829.269    
     51500   103            676.23612      78.581931      349.3405       13838.609    
     51600   103.2          666.4475       77.444446      352.40103      15642.776    
     51700   103.4          668.0149       77.626585      357.69684      14683.082    
     51800   103.6          693.18972      80.552022      355.62541      13330.683    
     51900   103.8          653.57577      75.948688      351.37931      17019.712    
     52000   104            646.82329      75.164016      350.12289      15154.865    
     52100   104.2          674.54454      78.385361      351.13659      14534.837    
     52200   104.4          667.77453      77.598652      354.25868      16173.604    
     52300   104.6          714.50108      83.028506      359.65921      15717.461    
     52400   104.8          709.72578      82.473593      358.88436      15117.591    
     52500   105            654.52835      76.059382      352.1832       15221.81     
     52600   105.2          666.38845      77.437584      351.09489      12598.975    
     52700   105.4          673.97754      78.319472      350.52151      14844.998    
     52800   105.6          666.26328      77.423038      350.76317      15411.245    
     52900   105.8          665.56041      77.341361      351.19724      12152.451    
     53000   106            651.26703      75.6804        352.92684      15586.816    
     53100   106.2          662.34733      76.967985      354.53911      13543.095    
     53200   106.4          693.55369      80.594317      353.20764      13569.182    
     53300   106.6          666.86883      77.493406      348.30117      13910.858    
     53400   106.8          662.62338      77.000064      347.50383      11583.729    
     53500   107            648.77107      75.390358      349.16903      15531.917    
     53600   107.2          683.33778      79.407178      353.59921      13434.361    
     53700   107.4          707.60986      82.227712      354.27441      12774.641    
     53800   107.6          661.56374      76.876929      352.18655      13703.143    
     53900   107.8          693.28768      80.563405      351.20419      13026.909    
     54000   108            656.02377      76.233157      350.33223      13709.297    
     54100   108.2          658.58086      76.530303      350.33537      14775.486    
     54200   108.4          681.42652      79.18508       353.92789      16574.136    
     54300   108.6          697.75529      81.082563      355.27567      14586.73     
     54400   108.8          670.76669      77.946356      351.06318      12459.32     
     54500   109            665.70934      77.358668      347.76264      15548.087    
     54600   109.2          664.55817      77.224896      348.93026      14425.719    
     54700   109.4          665.8855       77.379138      351.5398       14209.16     
     54800   109.6          671.67183      78.051538      352.85188      15738.251    
     54900   109.8          701.07842      81.468727      352.90415      14181.892    
     55000   110            672.38158      78.134014      349.25496      15082.677    
     55100   110.2          644.01169      74.837295      346.09208      15145.077    
     55200   110.4          619.94134      72.040203      347.20362      15422.447    
     55300   110.6          678.09589      78.798045      351.87059      14100.785    
     55400   110.8          679.19942      78.926281      353.68621      14653.646    
     55500   111            663.76936      77.133233      352.84006      16212.561    
     55600   111.2          668.67535      77.703332      350.38289      13777.764    
     55700   111.4          636.81011      74.000436      344.80812      15449.256    
     55800   111.6          647.79688      75.277153      344.58288      16219.018    
     55900   111.8          647.37056      75.227612      347.41749      11165.974    
     56000   112            645.12625      74.966813      349.91858      15844.122    
     56100   112.2          674.21976      78.347619      351.90083      14352.574    
     56200   112.4          688.19516      79.971629      352.72636      15962.292    
     56300   112.6          640.45603      74.42411       350.23488      16365.414    
     56400   112.8          640.59281      74.440005      346.39477      12557.977    
     56500   113            635.33129      73.828591      347.85695      15176.665    
     56600   113.2          672.98992      78.204706      352.34424      15715.673    
     56700   113.4          672.52724      78.150941      353.36264      15023.904    
     56800   113.6          661.97708      76.92496       352.12502      15312.847    
     56900   113.8          663.4815       77.099781      349.35005      14932.023    
     57000   114            651.87131      75.750621      346.49668      13388.818    
     57100   114.2          630.56071      73.274226      341.79952      14444.956    
     57200   114.4          648.34417      75.34075       344.46936      13504.199    
     57300   114.6          659.86762      76.679831      348.52197      14814.205    
     57400   114.8          677.3483       78.711171      351.02864      13950.913    
     57500   115            654.33276      76.036654      352.84586      14982.096    
     57600   115.2          679.82625      78.999122      352.93765      15087.192    
     57700   115.4          652.20221      75.789073      349.98029      13130.96     
     57800   115.6          635.13739      73.806058      346.24451      13256.597    
     57900   115.8          642.04664      74.608947      346.70559      14356.462    
     58000   116            663.61585      77.115394      352.16347      12551.949    
     58100   116.2          669.49304      77.798352      354.01208      14257.532    
     58200   116.4          682.79458      79.344055      353.25614      14775.169    
     58300   116.6          656.26222      76.260866      350.16474      12064.206    
     58400   116.8          651.60129      75.719244      347.43048      12561.183    
     58500   117            656.55987      76.295455      347.10653      14245.608    
     58600   117.2          677.64723      78.745908      353.17203      12911.629    
     58700   117.4          698.92311      81.218269      355.02875      12397.528    
     58800   117.6          695.747        80.84919       352.60106      14569.727    
     58900   117.8          654.01653      75.999906      348.86836      15296.923    
     59000   118            642.0012       74.603666      347.63838      13533.039    
     59100   118.2          632.72576      73.525814      348.54988      14080.656    
     59200   118.4          680.51707      79.079398      352.69026      14700.395    
     59300   118.6          707.12828      82.17175       352.92689      13696.058    
     59400   118.8          670.90726      77.962691      350.82638      15244.275    
     59500   119            645.01638      74.954045      347.97989      12813.316    
     59600   119.2          671.30108      78.008455      348.22208      14111.387    
     59700   119.4          647.75498      75.272284      352.00763      13020.353    
     59800   119.6          681.51094      79.19489       355.1694       14042.687    
     59900   119.8          681.39832      79.181803      353.3312       13978.634    
     60000   120            667.65867      77.585189      351.17205      14314.419    
     60100   120.2          652.16503      75.784753      349.81635      11924.715    
     60200   120.4          669.36654      77.783652      349.50718      16171.593    
     60300   120.6          659.14392      76.595734      350.70559      14704.667    
     60400   120.8          685.05444      79.606663      355.24527      14998.442    
     60500   121            693.13728      80.545928      355.79381      15798.475    
     60600   121.2          668.51354      77.684529      350.50936      15236.413    
     60700   121.4          643.71441      74.802749      348.56585      13282.769    
     60800   121.6          657.88475      76.449412      348.94716      14349.261    
     60900   121.8          664.76755      77.249227      352.335        14064.525    
     61000   122            709.54297      82.452349      355.37662      15571.496    
     61100   122.2          670.97358      77.970398      353.86089      14515.715    
     61200   122.4          661.81644      76.906293      352.11749      15515.383    
     61300   122.6          653.15528      75.899824      350.72699      13648.872    
     61400   122.8          645.49339      75.009475      350.61277      13851.413    
     61500   123            671.75365      78.061045      351.42107      12759.096    
     61600   123.2          663.23289      77.070892      351.01332      13861.429    
     61700   123.4          653.4348       75.932307      349.55426      13043.746    
     61800   123.6          665.50918      77.335408      347.7208       13531.568    
     61900   123.8          656.18553      76.251954      348.45218      13875.222    
     62000   124            691.45151      80.350033      353.44866      13714.572    
     62100   124.2          684.36156      79.526146      353.9685       15842.73     
     62200   124.4          706.75061      82.127863      351.623        13663.804    
     62300   124.6          662.21617      76.952745      349.45392      15159.326    
     62400   124.8          663.02773      77.047051      349.47536      13121.553    
     62500   125            662.24215      76.955763      350.39789      13465.041    
     62600   125.2          670.84899      77.95592       351.40584      17034.185    
     62700   125.4          683.47181      79.422753      351.33372      14413.366    
     62800   125.6          685.61425      79.671716      350.74549      15333.102    
     62900   125.8          659.34051      76.618579      351.56139      14859.405    
     63000   126            682.37899      79.295762      352.87045      15986.594    
     63100   126.2          683.21302      79.39268       352.54488      15140.975    
     63200   126.4          661.34225      76.85119       349.32605      15693.774    
     63300   126.6          652.58931      75.834056      346.39671      10683.372    
     63400   126.8          652.02302      75.768251      348.1046       14531.269    
     63500   127            671.90494      78.078627      353.81663      15613.979    
     63600   127.2          671.33878      78.012836      353.89034      11842.315    
     63700   127.4          697.88037      81.097097      351.14989      16004.308    
     63800   127.6          660.721        76.778998      349.02844      14276.849    
     63900   127.8          663.30249      77.07898       350.04459      14591.083    
     64000   128            669.16998      77.760811      355.85125      13175.587    
     64100   128.2          665.47283      77.331184      357.66225      12679.524    
     64200   128.4          678.55772      78.851711      354.93497      12921.698    
     64300   128.6          676.79323      78.64667       351.78182      13680.628    
     64400   128.8          663.56101      77.109021      349.40251      13540.498    
     64500   129            645.47109      75.006884      348.89048      13609.108    
     64600   129.2          670.51421      77.917017      350.53052      13929.556    
     64700   129.4          694.06259      80.653453      356.43268      12869.078    
     64800   129.6          697.8424       81.092685      356.63957      14896.598    
     64900   129.8          682.92462      79.359167      352.20454      13917.632    
     65000   130            686.15525      79.734581      350.20425      15460.866    
     65100   130.2          653.67673      75.960419      349.50704      14271.421    
     65200   130.4          662.87522      77.029329      350.62858      14311.946    
     65300   130.6          653.71966      75.965408      355.23221      15213.42     
     65400   130.8          699.79197      81.319235      358.2064       12817.876    
     65500   131            676.53061      78.616151      355.172        12592.073    
     65600   131.2          688.47124      80.003712      352.85072      14774.495    
     65700   131.4          678.18298      78.808165      351.41969      14179.652    
     65800   131.6          639.53821      74.317455      349.51039      14043.656    
     65900   131.8          646.1137       75.081559      347.61825      14639.214    
     66000   132            672.1715       78.109602      347.60483      14348.539    
     66100   132.2          671.31351      78.0099        351.29379      15546.389    
     66200   132.4          676.29439      78.588702      354.06106      13005.981    
     66300   132.6          680.7675       79.108499      354.27824      15793.064    
     66400   132.8          667.34453      77.548685      349.24345      13873.856    
     66500   133            654.80733      76.091801      346.46218      13460.614    
     66600   133.2          647.22051      75.210176      348.04575      12211.964    
     66700   133.4          671.09888      77.984959      351.58973      16555.003    
     66800   133.6          671.02723      77.976632      352.97545      13092.813    
     66900   133.8          680.75538      79.10709       351.84493      13754.132    
     67000   134            655.34296      76.154043      350.81167      14991.024    
     67100   134.2          675.52471      78.499261      351.06546      12698.736    
     67200   134.4          670.07631      77.866131      350.73905      13403.646    
     67300   134.6          667.22047      77.534268      350.40533      13646.398    
     67400   134.8          626.9497       72.854608      347.16434      15182.35     
     67500   135            631.69818      73.406405      342.7349       12713.02     
     67600   135.2          628.23787      73.0043        345.15742      12832.57     
     67700   135.4          651.91562      75.75577       349.01483      14064.879    
     67800   135.6          662.77274      77.01742       351.05278      13184.696    
     67900   135.8          678.7472       78.87373       353.4769       12606.336    
     68000   136            679.5467       78.966636      353.88308      13690.917    
     68100   136.2          663.95336      77.154615      348.94116      12845.309    
     68200   136.4          628.28663      73.009966      345.72743      13601.117    
     68300   136.6          658.05645      76.469365      348.01527      11789.817    
     68400   136.8          644.40374      74.882853      350.52548      13945.414    
     68500   137            679.91342      79.009251      352.0928       14345.766    
     68600   137.2          698.0759       81.119819      352.48782      14030.154    
     68700   137.4          668.51744      77.684983      351.15873      15448.79     
     68800   137.6          698.30619      81.14658       350.64336      14823.951    
     68900   137.8          654.97122      76.110845      350.43305      15129.461    
     69000   138            644.70672      74.918061      350.42863      14348.571    
     69100   138.2          678.56977      78.853112      352.30258      14823.16     
     69200   138.4          685.84742      79.698811      355.00722      15568.228    
     69300   138.6          689.17226      80.085173      356.90147      14739.037    
     69400   138.8          689.31565      80.101836      354.20151      14203.844    
     69500   139            650.98763      75.647933      349.0612       14774.199    
     69600   139.2          664.01011      77.161209      348.98086      12258.765    
     69700   139.4          673.83553      78.30297       352.33079      13975.702    
     69800   139.6          696.81413      80.973196      354.212        13631.913    
     69900   139.8          664.07023      77.168195      353.33111      14304.046    
     70000   140            658.56995      76.529035      352.40966      15784.113    
     70100   140.2          646.49389      75.125739      351.40115      12993.004    
     70200   140.4          655.02556      76.11716       350.76668      14527.453    
     70300   140.6          666.23516      77.41977       351.94279      15231.939    
     70400   140.8          692.63802      80.487911      356.63152      13573.085    
     70500   141            661.97428      76.924635      359.44004      13524.107    
     70600   141.2          672.17359      78.109845      355.34611      16153.7      
     70700   141.4          650.3311       75.571641      351.57048      13518.637    
     70800   141.6          655.50342      76.172689      350.02836      13805.644    
     70900   141.8          673.66003      78.282577      349.33359      13180.893    
     71000   142            635.72603      73.874461      348.42934      15876.546    
     71100   142.2          658.31846      76.499811      348.39172      12752.252    
     71200   142.4          684.11697      79.497724      352.55253      15012.76     
     71300   142.6          685.98534      79.714838      354.89706      14585.537    
     71400   142.8          671.38835      78.018596      353.12899      14235.173    
     71500   143            639.91523      74.361266      348.71095      13512.667    
     71600   143.2          668.48442      77.681146      346.6421       12068.077    
     71700   143.4          679.58839      78.971481      351.24356      14145.148    
     71800   143.6          671.8959       78.077575      356.01879      15274.687    
     71900   143.8          672.68768      78.169585      353.99741      13896.217    
     72000   144            674.84801      78.420626      349.83374      14131.458    
     72100   144.2          666.7814       77.483247      348.58325      12926.704    
     72200   144.4          677.04448      78.675866      350.38366      14837.502    
     72300   144.6          688.07384      79.957531      355.41739      13208.421    
     72400   144.8          686.51552      79.776446      357.58322      14790.421    
     72500   145            708.64437      82.347928      355.10929      14608.478    
     72600   145.2          664.86557      77.260618      352.45017      16166.114    
     72700   145.4          653.27034      75.913195      350.44397      14060.24     
     72800   145.6          670.36997      77.900256      349.94678      12408.616    
     72900   145.8          662.22561      76.953841      351.51296      17185.089    
     73000   146            663.24163      77.071908      356.63899      14371.053    
     73100   146.2          671.53761      78.035941      356.55196      14013.651    
     73200   146.4          666.59489      77.461573      351.59132      15020.486    
     73300   146.6          653.08301      75.891427      349.55072      13759.285    
     73400   146.8          653.18406      75.903168      349.73537      16274.458    
     73500   147            663.08047      77.05318       352.01175      12046.55     
     73600   147.2          702.64706      81.65101       356.69995      14953.118    
     73700   147.4          664.47753      77.215526      357.77151      14799.881    
     73800   147.6          652.38063      75.809806      351.48273      12773.452    
     73900   147.8          687.03828      79.837194      350.16107      12962.766    
     74000   148            661.41249      76.859353      350.50638      13833.718    
     74100   148.2          668.26996      77.656224      351.62256      13813.497    
     74200   148.4          680.60405      79.089505      353.52859      13807.598    
     74300   148.6          698.12353      81.125354      355.67764      14495.191    
     74400   148.8          660.82149      76.790676      353.8089       13947.421    
     74500   149            637.12612      74.037159      348.79249      14681.697    
     74600   149.2          632.61017      73.512383      348.20026      15866.642    
     74700   149.4          665.23407      77.303439      350.54712      16040.967    
     74800   149.6          678.0639       78.794328      354.60661      13290.613    
     74900   149.8          662.20813      76.95181       356.12233      13456.24     
     75000   150            681.97674      79.249018      354.74581      15807.496    
     75100   150.2          677.98605      78.785281      352.89368      13863.985    
     75200   150.4          641.97132      74.600193      351.07474      14598.132    
     75300   150.6          656.77564      76.320528      349.40352      15584.002    
     75400   150.8          645.81124      75.046411      348.24705      11823.326    
     75500   151            649.88427      75.519717      348.20524      16423.853    
     75600   151.2          668.66066      77.701625      351.78607      14911.096    
     75700   151.4          692.50108      80.471999      354.56294      11655.113    
     75800   151.6          682.66418      79.328903      353.15578      15739.2      
     75900   151.8          684.03357      79.488032      348.79442      13472.285    
     76000   152            646.62523      75.141001      347.86902      14387.403    
     76100   152.2          647.06361      75.191943      348.93778      12657.936    
     76200   152.4          637.04499      74.02773       350.97546      16365.063    
     76300   152.6          676.26147      78.584877      352.28749      13007.739    
     76400   152.8          652.87441      75.867186      349.62982      12343.526    
     76500   153            619.83206      72.027505      345.20066      14881.965    
     76600   153.2          650.40203      75.579883      346.23089      12196.837    
     76700   153.4          638.82318      74.234365      350.5172       13820.457    
     76800   153.6          687.63793      79.906876      352.15244      11444.711    
     76900   153.8          668.13237      77.640235      350.89498      14430.453    
     77000   154            646.08896      75.078684      349.0376       15306.601    
     77100   154.2          652.42024      75.81441       345.90691      13176.856    
     77200   154.4          618.62633      71.887392      343.1474       14234.194    
     77300   154.6          639.21023      74.279342      345.67824      12639.489    
     77400   154.8          685.3961       79.646365      350.79849      14657.237    
     77500   155            673.90201      78.310696      352.28622      16601.674    
     77600   155.2          678.24         78.814792      352.12565      14954.343    
     77700   155.4          659.54711      76.642586      348.92648      14906.756    
     77800   155.6          666.34975      77.433086      345.2424       14661.218    
     77900   155.8          649.68232      75.49625       346.09364      14830.018    
     78000   156            683.15231      79.385625      352.05162      14557.876    
     78100   156.2          671.39198      78.019018      352.287        13755.93     
     78200   156.4          663.47302      77.098797      350.52075      15723.209    
     78300   156.6          652.68893      75.845633      347.82477      15275.586    
     78400   156.8          655.05514      76.120597      347.53969      14447.153    
     78500   157            686.65921      79.793145      352.52938      15715.765    
     78600   157.2          683.46327      79.421761      355.2663       16747.223    
     78700   157.4          687.31446      79.869288      354.00127      14136.84     
     78800   157.6          658.64092      76.537282      350.76916      15827.399    
     78900   157.8          647.07486      75.19325       348.87603      14046.305    
     79000   158            650.45708      75.58628       351.76396      16999.116    
     79100   158.2          709.29082      82.423048      357.61214      14055.945    
     79200   158.4          691.71044      80.380123      354.99186      15931.56     
     79300   158.6          654.61592      76.069558      350.54728      14760.697    
     79400   158.8          662.03628      76.93184       348.81769      15574.268    
     79500   159            658.87263      76.564208      349.30185      13514.583    
     79600   159.2          685.58937      79.668824      353.06204      13829.948    
     79700   159.4          716.76693      83.291808      357.01665      15699.818    
     79800   159.6          664.02426      77.162853      354.88866      15260.994    
     79900   159.8          667.05991      77.515611      351.18599      15371.138    
     80000   160            687.57122      79.899124      350.33444      14478.86     
     80100   160.2          659.16753      76.598478      348.93034      13729.148    
     80200   160.4          647.34981      75.225201      346.03332      13013.513    
     80300   160.6          643.66847      74.797411      342.66147      11338.307    
     80400   160.8          642.88253      74.706081      345.49999      15280.591    
     80500   161            648.55861      75.365669      350.57467      12111.085    
     80600   161.2          682.78055      79.342425      352.17551      15158.982    
     80700   161.4          657.35547      76.387907      352.94129      13855.985    
     80800   161.6          664.42612      77.209551      351.67709      11965.659    
     80900   161.8          663.5465       77.107335      347.00894      12916.383    
     81000   162            627.9747       72.973719      346.29371      12982.218    
     81100   162.2          646.96733      75.180754      349.08405      15283.927    
     81200   162.4          662.99867      77.043675      350.3179       12451.541    
     81300   162.6          670.28696      77.890609      351.12162      13449.249    
     81400   162.8          672.78908      78.181368      352.26054      16227.687    
     81500   163            664.03732      77.16437       352.1654       11737.659    
     81600   163.2          673.07236      78.214287      351.20934      14255.686    
     81700   163.4          658.01729      76.464814      349.02924      14106.745    
     81800   163.6          655.78176      76.205035      346.99353      13568.777    
     81900   163.8          630.52641      73.270239      348.2495       14903.376    
     82000   164            692.04202      80.418653      352.92388      14194.202    
     82100   164.2          678.24085      78.81489       353.58812      17221.133    
     82200   164.4          675.23496      78.465591      351.42935      14226.031    
     82300   164.6          660.50025      76.753346      348.73303      14217.019    
     82400   164.8          665.81394      77.370822      348.83755      14020.977    
     82500   165            674.6648       78.399335      349.84012      14396        
     82600   165.2          671.5088       78.032593      351.76002      15859.043    
     82700   165.4          667.17761      77.529287      353.5157       14285.425    
     82800   165.6          681.88718      79.238611      353.29712      15821.604    
     82900   165.8          660.24323      76.723479      349.41702      15215.337    
     83000   166            632.29947      73.476277      346.02697      14835.476    
     83100   166.2          660.77375      76.785128      347.01429      16167.351    
     83200   166.4          687.57399      79.899446      351.16034      13717.528    
     83300   166.6          658.16465      76.481938      352.15619      15676.728    
     83400   166.8          677.46948      78.725254      351.66013      14174.894    
     83500   167            661.10531      76.823657      350.4585       13980.857    
     83600   167.2          659.70525      76.660963      347.26314      14022.581    
     83700   167.4          646.75465      75.15604       344.26356      14146.71     
     83800   167.6          642.60264      74.673557      346.54166      16196.529    
     83900   167.8          659.00682      76.579802      352.16204      13183.031    
     84000   168            679.0449       78.908325      352.94674      13734.119    
     84100   168.2          643.41524      74.767985      352.029        15309.391    
     84200   168.4          651.9033       75.754339      348.95393      12726.823    
     84300   168.6          647.66135      75.261404      346.58084      12849.161    
     84400   168.8          645.10215      74.964012      346.34485      15439.089    
     84500   169            675.36415      78.480604      351.62217      10657.955    
     84600   169.2          675.49449      78.495749      354.29074      16450.539    
     84700   169.4          659.78055      76.669713      353.41229      14458.433    
     84800   169.6          639.90908      74.360552      349.82057      13420.602    
     84900   169.8          652.09988      75.777182      346.17407      13359.46     
     85000   170            649.91068      75.522786      346.77555      12941.012    
     85100   170.2          642.64749      74.678768      349.04686      13343.373    
     85200   170.4          661.54185      76.874385      350.91221      13576.125    
     85300   170.6          681.9445       79.245272      352.11539      13352.393    
     85400   170.8          665.62127      77.348433      353.64937      15283.288    
     85500   171            676.48662      78.61104       357.57495      14749.598    
     85600   171.2          684.35886      79.525833      356.13111      12509.255    
     85700   171.4          647.022        75.187107      350.58912      14971.252    
     85800   171.6          662.82127      77.02306       349.73886      16488.159    
     85900   171.8          660.77183      76.784905      349.49232      12912.894    
     86000   172            662.8154       77.022378      351.51308      14936.166    
     86100   172.2          691.64759      80.372819      356.2667       15675.002    
     86200   172.4          672.85098      78.188561      356.52181      15250.439    
     86300   172.6          670.62928      77.930388      353.66158      14698.721    
     86400   172.8          664.65706      77.236388      347.85088      13070.417    
     86500   173            640.84721      74.469567      347.11461      12802.174    
     86600   173.2          640.10557      74.383385      349.23609      15583.366    
     86700   173.4          667.60629      77.579102      352.8126       15595.139    
     86800   173.6          666.83647      77.489646      354.41255      12934.012    
     86900   173.8          664.58961      77.22855       353.45607      13068.043    
     87000   174            645.24433      74.980534      346.89861      14633.455    
[...]
    478600   957.2          680.61955      79.091307      354.01676      15204.078    
    478700   957.4          658.28479      76.495899      354.19467      14359.759    
    478800   957.6          657.38488      76.391324      349.87159      16176.291    
    478900   957.8          632.42272      73.4906        347.50349      14847.776    
    479000   958            651.59353      75.718342      348.82397      14009.311    
    479100   958.2          684.2705       79.515565      351.2098       15086.765    
    479200   958.4          660.84216      76.793077      352.37074      15170.925    
    479300   958.6          670.21477      77.882221      352.08054      14668.404    
    479400   958.8          658.71444      76.545826      351.29743      14980.704    
    479500   959            649.50873      75.476078      350.31277      13401.558    
    479600   959.2          640.57917      74.438419      347.91333      14111.558    
    479700   959.4          665.81817      77.371314      346.8861       13868.409    
    479800   959.6          643.86885      74.820696      349.51829      12656.241    
    479900   959.8          676.89692      78.658719      353.21367      13552.567    
    480000   960            676.73064      78.639396      354.07031      14520.912    
    480100   960.2          654.45633      76.051013      350.32458      13411.05     
    480200   960.4          667.83591      77.605785      347.92873      10821.263    
    480300   960.6          654.24266      76.026184      347.75214      15781.479    
    480400   960.8          687.42994      79.882707      351.60528      13387.25     
    480500   961            677.07751      78.679705      354.82165      14236.968    
    480600   961.2          661.39792      76.85766       354.87782      17558.058    
    480700   961.4          668.75109      77.712134      351.32679      12570.854    
    480800   961.6          648.20719      75.324833      347.81929      12471.966    
    480900   961.8          650.19615      75.555959      348.14873      16102.63     
    481000   962            665.57527      77.343088      350.16112      15445.804    
    481100   962.2          666.40202      77.43916       350.52887      12219.006    
    481200   962.4          664.29135      77.193891      350.57066      13249.994    
    481300   962.6          654.85686      76.097557      350.82851      14625.557    
    481400   962.8          670.73436      77.9426        351.63569      13260.652    
    481500   963            699.42091      81.276116      357.12528      13572.348    
    481600   963.2          689.42731      80.114811      358.13771      14144.059    
    481700   963.4          679.11797      78.916816      353.60227      14618.588    
    481800   963.6          696.32746      80.916642      351.02363      14509.369    
    481900   963.8          644.99873      74.951994      350.02133      14660.664    
    482000   964            677.33428      78.709542      351.89459      14920.672    
    482100   964.2          691.92603      80.405174      356.72399      14366.291    
    482200   964.4          679.95081      79.013596      356.87662      13715.442    
    482300   964.6          678.90323      78.891861      351.04912      14994.735    
    482400   964.8          659.39275      76.624649      349.11095      14629.808    
    482500   965            656.70206      76.311978      351.05497      12965.944    
    482600   965.2          682.45034      79.304053      354.34413      14126.376    
    482700   965.4          681.95143      79.246078      356.04385      16230.751    
    482800   965.6          666.11354      77.405637      352.72412      14609.153    
    482900   965.8          667.74999      77.595802      348.71991      13875.527    
    483000   966            639.68521      74.334537      348.9492       15298.916    
    483100   966.2          644.66381      74.913075      351.16855      14724.726    
    483200   966.4          680.39745      79.065498      353.56921      16110.105    
    483300   966.6          695.5478       80.826042      357.8866       15794.809    
    483400   966.8          688.54242      80.011983      360.00348      13852.547    
    483500   967            678.87892      78.889036      354.06208      15254.118    
    483600   967.2          680.94664      79.129316      350.72338      14201.231    
    483700   967.4          668.75274      77.712325      348.55621      14045.125    
    483800   967.6          661.55927      76.87641       348.4255       16289.779    
    483900   967.8          667.27848      77.541009      351.35368      14814.344    
    484000   968            693.57319      80.596582      355.23554      14460.755    
    484100   968.2          677.40495      78.717755      354.79792      12157.69     
    484200   968.4          644.99606      74.951683      348.18053      13422.553    
    484300   968.6          636.42234      73.955375      347.80007      15541.819    
    484400   968.8          664.35294      77.201047      350.60323      12548.647    
    484500   969            661.26628      76.842363      353.35877      12231.124    
    484600   969.2          659.30104      76.613992      353.94831      14154.228    
    484700   969.4          673.8431       78.30385       352.65197      14376.286    
    484800   969.6          628.04121      72.981448      347.79733      14201.89     
    484900   969.8          643.63917      74.794007      347.66357      12891.783    
    485000   970            665.52525      77.337276      351.60159      16320.004    
    485100   970.2          684.7425       79.570413      354.52654      16481.509    
    485200   970.4          681.60535      79.205862      354.4836       14993.393    
    485300   970.6          676.4555       78.607424      352.57675      14433.467    
    485400   970.8          635.1656       73.809336      350.31686      13073.557    
    485500   971            652.18707      75.787314      350.26016      13982.323    
    485600   971.2          679.9795       79.016929      350.98754      14923.574    
    485700   971.4          673.54974      78.26976       351.66296      12525.842    
    485800   971.6          683.08604      79.377924      353.22338      15579.444    
    485900   971.8          689.37468      80.108695      354.7185       12694.782    
    486000   972            672.39868      78.136001      357.0911       14930.009    
    486100   972.2          671.25384      78.002965      354.6907       13484.914    
    486200   972.4          671.56318      78.038913      349.89142      14452.616    
    486300   972.6          636.29269      73.940309      348.89161      14965.524    
    486400   972.8          681.77929      79.226074      350.11134      11582.17     
    486500   973            668.25433      77.654408      353.05423      14515.391    
    486600   973.2          684.19896      79.507252      356.86172      15222.878    
    486700   973.4          695.49824      80.820283      357.79795      12173.654    
    486800   973.6          673.66493      78.283146      351.56886      15980.408    
    486900   973.8          663.95213      77.154471      349.6085       13732.824    
    487000   974            661.79836      76.904193      349.44499      15633.107    
    487100   974.2          669.92247      77.848254      351.57528      16011.742    
    487200   974.4          675.83676      78.535523      355.69184      14552.47     
    487300   974.6          697.15613      81.012938      356.77672      12630.953    
    487400   974.8          657.87211      76.447943      350.19878      14106.24     
    487500   975            668.3607       77.666768      348.90416      16128.662    
    487600   975.2          671.2603       78.003716      350.58347      13716.714    
    487700   975.4          685.56139      79.665573      353.35588      13673.511    
    487800   975.6          687.76421      79.921551      354.75089      16710.126    
    487900   975.8          679.4173       78.951599      351.20585      13346.157    
    488000   976            650.31272      75.569505      346.78755      12102.059    
    488100   976.2          627.00158      72.860637      346.95986      14851.838    
    488200   976.4          660.80294      76.78852       351.10041      13987.337    
    488300   976.6          681.26076      79.165818      353.2256       15696.258    
    488400   976.8          673.78542      78.297147      353.16798      15344.973    
    488500   977            685.66313      79.677395      352.30808      13808.57     
    488600   977.2          664.58141      77.227597      348.70923      14055.939    
    488700   977.4          662.77929      77.018182      344.22941      13586.055    
    488800   977.6          661.02216      76.813995      346.13424      11794.382    
    488900   977.8          658.51987      76.523216      349.74053      13974.585    
    489000   978            678.55201      78.851048      350.95349      14059.341    
    489100   978.2          692.16313      80.432726      351.57754      13550.025    
    489200   978.4          654.99152      76.113204      351.89761      13108.352    
    489300   978.6          685.58044      79.667787      352.95297      16100.825    
    489400   978.8          703.84653      81.790394      353.20996      13890.499    
    489500   979            681.90193      79.240325      349.94767      12380.931    
    489600   979.2          651.67252      75.727521      346.66201      14940.264    
    489700   979.4          641.33549      74.526307      347.18983      13143.614    
    489800   979.6          651.84589      75.747667      352.36832      13579.816    
    489900   979.8          671.00918      77.974535      353.6313       14943.791    
    490000   980            700.99515      81.459051      351.91228      15576.799    
    490100   980.2          638.12308      74.153009      348.02024      15054.348    
    490200   980.4          666.47448      77.44758       347.10585      14942.541    
    490300   980.6          656.14728      76.247509      348.82307      13331.814    
    490400   980.8          688.39068      79.994349      355.40348      11548.137    
    490500   981            689.77282      80.154962      355.62723      14428.533    
    490600   981.2          659.86584      76.679624      352.26139      13195.634    
    490700   981.4          652.16772      75.785066      349.11317      13027.796    
    490800   981.6          639.63417      74.328605      348.94022      14484.733    
    490900   981.8          679.7436       78.989517      351.67062      13522.296    
    491000   982            702.62442      81.648379      357.27043      15393.096    
    491100   982.2          681.01555      79.137324      355.24614      15213.368    
    491200   982.4          679.22191      78.928894      352.10009      15490.155    
    491300   982.6          654.61649      76.069624      350.11849      14479.32     
    491400   982.8          631.4105       73.372976      349.0499       14205.66     
    491500   983            636.81607      74.001129      350.65478      14128.633    
    491600   983.2          694.26563      80.677047      356.43662      15633.414    
    491700   983.4          682.63117      79.325066      355.47898      14789.976    
    491800   983.6          666.96982      77.505142      351.67338      14744.833    
    491900   983.8          670.4864       77.913785      350.16912      15271.52     
    492000   984            640.7023       74.452728      348.99831      14520.185    
    492100   984.2          676.24393      78.582838      350.10953      15938.454    
    492200   984.4          713.37728      82.897915      356.15356      13716.733    
    492300   984.6          679.15547      78.921173      356.46398      15057.107    
    492400   984.8          679.97801      79.016757      352.62402      14717.409    
    492500   985            681.5957       79.20474       350.0593       14863.334    
    492600   985.2          657.74832      76.433559      348.96492      12006.826    
    492700   985.4          647.47983      75.240309      348.60351      14277.44     
    492800   985.6          667.56703      77.57454       352.68006      14096.699    
    492900   985.8          685.30804      79.636132      356.57079      13427.285    
    493000   986            661.44861      76.86355       353.58601      14291.139    
    493100   986.2          667.68587      77.58835       350.58777      13003.6      
    493200   986.4          663.617        77.115528      349.54874      13588.879    
    493300   986.6          669.51175      77.800526      350.70997      13806.177    
    493400   986.8          687.36765      79.875469      355.26349      12917.292    
    493500   987            703.69184      81.772419      359.47077      15378.376    
    493600   987.2          706.80136      82.13376       356.87995      15101.072    
    493700   987.4          668.7728       77.714657      350.44372      15984.529    
    493800   987.6          667.36772      77.55138       348.47874      12746.776    
    493900   987.8          648.67516      75.379213      348.28976      14690.592    
    494000   988            667.15228      77.526344      350.77735      14366.177    
    494100   988.2          659.19068      76.601168      353.78947      15804.004    
    494200   988.4          684.95033      79.594565      353.89286      15629.99     
    494300   988.6          654.14931      76.015336      348.69475      13936.587    
    494400   988.8          652.4186       75.814219      346.13081      12414.231    
    494500   989            666.04869      77.398102      347.79323      14966.463    
    494600   989.2          672.26421      78.120375      351.77372      15944.038    
    494700   989.4          680.14051      79.03564       352.6343       15055.234    
    494800   989.6          688.82423      80.04473       351.70318      15486.788    
    494900   989.8          669.40077      77.78763       349.99126      14330.549    
    495000   990            660.60228      76.765202      348.49609      12940.143    
    495100   990.2          645.89929      75.056643      344.96759      13251.095    
    495200   990.4          627.99634      72.976233      341.90227      13085.847    
    495300   990.6          658.99458      76.57838       346.42005      13181.605    
    495400   990.8          678.24237      78.815067      350.15646      12580.841    
    495500   991            669.43543      77.791658      352.03503      11271.527    
    495600   991.2          693.57124      80.596356      352.78336      13188.124    
    495700   991.4          674.7868       78.413512      350.59386      15805.282    
    495800   991.6          663.00973      77.044959      347.11376      11821.991    
    495900   991.8          661.1702       76.831197      347.60045      12913.475    
    496000   992            663.64038      77.118245      353.83973      15318.961    
    496100   992.2          699.30895      81.263106      354.67383      13622.295    
    496200   992.4          670.80703      77.951044      351.98015      15024.994    
    496300   992.6          671.54828      78.037181      349.21732      13492.61     
    496400   992.8          663.34228      77.083604      349.03548      14637.694    
    496500   993            671.54802      78.03715       354.31072      11746.823    
    496600   993.2          683.40103      79.414528      357.65237      13816.121    
    496700   993.4          668.85195      77.723854      354.52591      16687.171    
    496800   993.6          672.62913      78.162781      350.7278       11929.287    
    496900   993.8          658.54806      76.526492      349.25366      13171.193    
    497000   994            657.8132       76.441098      349.8786       15937.396    
    497100   994.2          669.25453      77.770636      353.89591      14540.775    
    497200   994.4          689.46864      80.119614      357.49769      15341.462    
    497300   994.6          670.66734      77.934812      355.27424      14147.337    
    497400   994.8          659.59893      76.648608      352.20638      13919.124    
    497500   995            664.5695       77.226212      351.05127      14345.915    
    497600   995.2          660.86859      76.796149      350.40038      15106.348    
    497700   995.4          657.42159      76.395591      351.74732      13828.52     
    497800   995.6          697.73966      81.080747      355.58328      13937.949    
    497900   995.8          669.80877      77.835041      356.27333      15703.562    
    498000   996            664.97232      77.273022      351.28879      14916.279    
    498100   996.2          665.28864      77.30978       348.73468      15103.681    
    498200   996.4          632.11132      73.454414      349.12562      13161.652    
    498300   996.6          669.06378      77.74847       352.19707      12763.231    
    498400   996.8          682.27695      79.283905      355.64462      14319.059    
    498500   997            683.97434      79.48115       354.81329      12953.038    
    498600   997.2          651.27766      75.681636      347.83107      12029.166    
    498700   997.4          648.05643      75.307313      347.35482      12991.085    
    498800   997.6          661.33779      76.850672      349.724        11647.178    
    498900   997.8          705.79976      82.017369      352.70991      14624.547    
    499000   998            645.2007       74.975463      353.07857      15092.213    
    499100   998.2          678.76758      78.876099      349.70182      16630.437    
    499200   998.4          659.69075      76.659278      345.53955      14170.153    
    499300   998.6          641.99551      74.603005      346.02008      13197.672    
    499400   998.8          656.03643      76.234628      348.66962      14185.295    
    499500   999            651.28366      75.682333      350.16766      14798.504    
    499600   999.2          660.82789      76.791419      350.60716      12627.616    
    499700   999.4          654.31023      76.034036      350.12642      12527.051    
    499800   999.6          678.08201      78.796432      350.82879      14317.223    
    499900   999.8          673.50729      78.264827      352.3009       13116.995    
    500000   1000           665.16921      77.295902      353.0195       14703.558    
Loop time of 327.046 on 1 procs for 500000 steps with 900 atoms

Performance: 264.183 ns/day, 0.091 hours/ns, 1528.837 timesteps/s
54.1% CPU use with 1 MPI tasks x no OpenMP threads

MPI task timing breakdown:
Section |  min time  |  avg time  |  max time  |%varavg| %total
---------------------------------------------------------------
Pair    | 209.32     | 209.32     | 209.32     |   0.0 | 64.00
Neigh   | 105.41     | 105.41     | 105.41     |   0.0 | 32.23
Comm    | 4.0079     | 4.0079     | 4.0079     |   0.0 |  1.23
Output  | 2.1471     | 2.1471     | 2.1471     |   0.0 |  0.66
Modify  | 5.4692     | 5.4692     | 5.4692     |   0.0 |  1.67
Other   |            | 0.6832     |            |       |  0.21

Nlocal:            900 ave         900 max         900 min
Histogram: 1 0 0 0 0 0 0 0 0 0
Nghost:           2722 ave        2722 max        2722 min
Histogram: 1 0 0 0 0 0 0 0 0 0
Neighs:              0 ave           0 max           0 min
Histogram: 1 0 0 0 0 0 0 0 0 0
FullNghs:        97866 ave       97866 max       97866 min
Histogram: 1 0 0 0 0 0 0 0 0 0

Total # of neighbors = 97866
Ave neighs/atom = 108.74
Neighbor list builds = 50000
Dangerous builds not checked

Total wall time: 0:05:46
