LAMMPS data file via write_data, version 4 May 2022, timestep = 105

56 atoms
3 atom types

-0.02188771963119507 12.20698755979538 xlo xhi
-0.0075370073318481445 5.533945143222809 ylo yhi
-0.03256940841674805 19.052529454231262 zlo zhi
-4.76837158203125e-07 -5.6983469411730703 2.86102294921875e-06 xy xz yz
Masses

1 24.305
2 65.40900000000001
3 88.90600000000001

Atoms # atomic

1 1 6.698735432701598 5.533945310968759 2.493712785505248 0 -1 0
2 1 3.641516817289704 0.9160466267070883 2.4937125509136173 0 0 0
3 1 2.2583615980680607 5.5339457606843325 5.22015473024731 0 -1 0
4 1 11.430018799456146 0.9160469322341815 5.220154563298786 0 0 0
5 1 10.046878967020701 -0.007533034931165123 7.9465980138802745 0 0 0
6 1 0.5842978002594182 5.533945217188181 2.493712690758907 0 -1 0
7 1 11.976143433598882 2.763202775743285 1.1304920446025186 0 0 0
8 1 9.755954482439336 0.9160466032078619 2.493712511412414 0 0 0
9 1 8.918924449654986 3.6867884549423944 1.1304919375945752 0 0 0
10 1 8.372799350320046 5.533945654574159 5.220154800614002 0 -1 0
11 1 6.989659938239344 0.9160442356643741 7.946597902669286 0 0 0
12 1 5.6065264922339 -0.007532332678850931 10.67303963866347 0 0 0
13 1 2.549307648540607 0.9160443412098543 10.67303964998484 0 0 0
14 1 1.1661718779183428 -0.0075341049664638 13.39948070722407 0 0 0
15 1 10.337828161653844 0.916046684912531 13.399480660750987 0 0 0
16 1 8.954679721403828 5.533946136051346 16.125923992416375 0 -1 0
17 1 7.535767018780679 2.763203116888708 3.8569334723870563 0 0 0
18 1 5.315581049463586 0.9160469237523909 5.220154600031777 0 0 0
19 1 4.478547967162829 3.686788957027363 3.8569333970414315 0 0 0
20 1 3.9324409450011664 -0.007533027553733112 7.94659797202353 0 0 0
21 1 3.0953999899103533 2.7632061824479166 6.583376784966159 0 0 0
22 1 0.8752224142416083 0.9160442816969508 7.946597987600027 0 0 0
23 1 0.03818149420229816 3.6867869266334306 6.583376625078457 0 0 0
24 1 11.720964240021782 -0.007532398919768543 10.673039815416715 0 0 0
25 1 10.883920763500974 2.7632085633149903 9.309817636458108 0 0 0
26 1 8.663745300862033 0.9160442371599287 10.673039895926212 0 0 0
27 1 7.826701754345823 3.686785278491551 9.309817638841633 0 0 0
28 1 5.861705574107126 2.763203029632326 1.1304920510000829 0 0 0
29 1 2.8044866265252315 3.6867886164013957 1.130491951155001 0 0 0
30 1 1.4213296169322915 2.7632030667426637 3.856933506525927 0 0 0
31 1 10.592985780643263 3.6867889812713015 3.856933334370379 0 0 0
32 1 9.209837742147968 2.763206076012199 6.583376723467016 0 0 0
33 1 5.8974612476409005 0.916049965638461 16.125923923674634 0 0 0
34 1 4.514303456212838 5.533946753676959 18.852365540507304 0 -1 0
35 1 1.4570850238058883 0.9160501480799711 18.852365364956842 0 0 0
36 1 7.28060944635123 -0.007533929641705273 13.399480756319491 0 0 0
37 1 6.443568476352736 2.76320867127848 12.03625937906316 0 0 0
38 1 4.223390377545973 0.9160469183396236 13.399480817120656 0 0 0
39 1 3.3863494566340817 3.6867860496884273 12.036259435176433 0 0 0
40 1 2.8402419940432044 5.5339460450398175 16.125923916496724 0 -1 0
41 1 2.0032095584539213 2.763205894780831 14.762702729623507 0 0 0
42 1 -0.21697622608148043 0.9160496874426568 16.125924021219323 0 0 0
43 1 11.174866006559823 3.686789271938764 14.762702718729837 0 0 0
44 1 10.628741147576275 5.533946606861449 18.85236544489816 0 -1 0
45 1 9.791711475650208 2.763206466118965 17.489144884264697 0 0 0
46 1 6.152619021066038 3.6867870094729076 6.583376788084256 0 0 0
47 1 4.769482982696945 2.763208581788422 9.309817770140647 0 0 0
48 1 1.7122640636765472 3.68678529429384 9.309817691620674 0 0 0
49 1 0.3291308417905877 2.7632086092052974 12.036259355263237 0 0 0
50 1 9.500787175599282 3.6867859226307163 12.03625936314213 0 0 0
51 1 8.11764740058328 2.7632060446395643 14.762702763682817 0 0 0
52 1 7.57152263841662 0.9160501102766833 18.8523654821235 0 0 0
53 1 6.734492526818073 3.686789827377872 17.489144589995323 0 0 0
54 1 5.0604283568993145 3.6867893862919536 14.762702711669414 0 0 0
55 1 3.677273581642538 2.7632064660985103 17.489144758238247 0 0 0
56 1 0.6200547956708089 3.6867898352675628 17.48914476469884 0 0 0

Velocities

1 0 0 0
2 0 0 0
3 0 0 0
4 0 0 0
5 0 0 0
6 0 0 0
7 0 0 0
8 0 0 0
9 0 0 0
10 0 0 0
11 0 0 0
12 0 0 0
13 0 0 0
14 0 0 0
15 0 0 0
16 0 0 0
17 0 0 0
18 0 0 0
19 0 0 0
20 0 0 0
21 0 0 0
22 0 0 0
23 0 0 0
24 0 0 0
25 0 0 0
26 0 0 0
27 0 0 0
28 0 0 0
29 0 0 0
30 0 0 0
31 0 0 0
32 0 0 0
33 0 0 0
34 0 0 0
35 0 0 0
36 0 0 0
37 0 0 0
38 0 0 0
39 0 0 0
40 0 0 0
41 0 0 0
42 0 0 0
43 0 0 0
44 0 0 0
45 0 0 0
46 0 0 0
47 0 0 0
48 0 0 0
49 0 0 0
50 0 0 0
51 0 0 0
52 0 0 0
53 0 0 0
54 0 0 0
55 0 0 0
56 0 0 0
