ITEM: TIMESTEP
0
ITEM: NUMBER OF ATOMS
56
ITEM: BOX BOUNDS xy xz yz pp pp pp
-1.7069640755653381e+00 1.2203788340091705e+01 0.0000000000000000e+00
-8.4733366966247559e-03 5.5348814725875854e+00 -1.6882755756378174e+00
-2.9168844223022461e-02 1.9049128890037537e+01 0.0000000000000000e+00
ITEM: ATOMS id type xs ys zs fx fy fz
1 1 0.568355 4.41887e-05 0.132366 0 0.0214348 0.609123
2 1 0.318356 0.166624 0.132366 0 -0.0214615 0.609156
3 1 0.225497 2.39879e-05 0.275225 0 0.000707626 -0.0022068
4 1 0.975497 0.166644 0.275225 0 -0.000732422 -0.00220108
5 1 0.882585 1.9421e-05 0.418082 0 5.34058e-05 9.53674e-05
6 1 0.0683556 4.41295e-05 0.132366 0 0.0214424 0.60914
7 1 0.989757 0.500074 0.0609403 0 -0.0662651 0.619978
8 1 0.818356 0.166623 0.132366 0 -0.0214462 0.609146
9 1 0.739758 0.666593 0.0609403 0 0.0662785 0.620001
10 1 0.725498 2.39872e-05 0.275225 0 0.000703812 -0.00220108
11 1 0.632584 0.166647 0.418082 0 -4.76837e-05 8.7738e-05
12 1 0.539662 2.47556e-05 0.560942 0 -1.52588e-05 -3.43323e-05
13 1 0.289663 0.166643 0.560942 0 5.72205e-06 -3.62396e-05
14 1 0.196748 2.39811e-05 0.703801 0 -0.000232697 0.00105858
15 1 0.946748 0.166644 0.703801 0 0.000196457 0.00105286
16 1 0.853847 2.63435e-05 0.846651 0 0.00585365 -0.00330544
17 1 0.646943 0.500026 0.203802 0 0.00586891 0.00331688
18 1 0.475497 0.166645 0.275225 0 -0.000747681 -0.00220299
19 1 0.396944 0.66664 0.203802 0 -0.00583839 0.00332069
20 1 0.382585 2.01694e-05 0.418082 0 3.62396e-05 9.53674e-05
21 1 0.304042 0.500023 0.346651 0 -0.000205994 -0.00104141
22 1 0.132585 0.166648 0.418082 0 -5.34058e-05 9.34601e-05
23 1 0.054042 0.666642 0.346651 0 0.000244141 -0.0010643
24 1 0.0396624 2.49573e-05 0.560941 0 -1.90735e-05 -2.47955e-05
25 1 0.961127 0.500025 0.489511 0 -9.53674e-06 2.28882e-05
26 1 0.789664 0.166643 0.560941 0 5.72205e-06 -2.09808e-05
27 1 0.711128 0.666642 0.489511 0 1.71661e-05 4.19617e-05
28 1 0.489757 0.500073 0.0609404 0 -0.0662365 0.619984
29 1 0.239757 0.666593 0.0609403 0 0.0662766 0.619974
30 1 0.146944 0.500026 0.203802 0 0.00586128 0.00331306
31 1 0.896944 0.666641 0.203802 0 -0.00586128 0.00331688
32 1 0.804043 0.500024 0.346651 0 -0.000230789 -0.00106049
33 1 0.603846 0.166641 0.846652 0 -0.00585365 -0.00334358
34 1 0.511033 7.47473e-05 0.989512 0 -0.0662842 -0.619965
35 1 0.261033 0.166594 0.989513 0 0.0662537 -0.619987
36 1 0.696747 2.44315e-05 0.703801 0 -0.000238419 0.00105476
37 1 0.618203 0.50002 0.632371 0 4.76837e-05 -0.000110626
38 1 0.446748 0.166643 0.703801 0 0.000213623 0.00106049
39 1 0.368205 0.666647 0.632371 0 -4.3869e-05 -9.53674e-05
40 1 0.353846 2.63314e-05 0.846651 0 0.00586319 -0.0033226
41 1 0.275293 0.500023 0.775228 0 0.000722885 0.0022068
42 1 0.103846 0.166641 0.846651 0 -0.00585938 -0.00331879
43 1 0.0252928 0.666644 0.775228 0 -0.00071907 0.00219154
44 1 0.0110335 7.37033e-05 0.989512 0 -0.0662651 -0.61997
45 1 0.932435 0.500043 0.918087 0 0.0214481 -0.609119
46 1 0.554042 0.666643 0.346651 0 0.000240326 -0.00105476
47 1 0.461127 0.500025 0.489511 0 -5.72205e-06 2.67029e-05
48 1 0.211127 0.666642 0.489511 0 2.09808e-05 2.47955e-05
49 1 0.118205 0.500019 0.632371 0 6.10352e-05 -8.96454e-05
50 1 0.868205 0.666647 0.63237 0 -3.05176e-05 -7.24792e-05
51 1 0.775294 0.500022 0.775228 0 0.000736237 0.00220299
52 1 0.761031 0.166594 0.989513 0 0.0662632 -0.619989
53 1 0.682434 0.666624 0.918087 0 -0.0214443 -0.609163
54 1 0.525293 0.666643 0.775228 0 -0.00071907 0.0022068
55 1 0.432434 0.500044 0.918087 0 0.0214539 -0.60915
56 1 0.182434 0.666624 0.918087 0 -0.0214443 -0.60914
ITEM: TIMESTEP
1
ITEM: NUMBER OF ATOMS
56
ITEM: BOX BOUNDS xy xz yz pp pp pp
-1.7069640755653381e+00 1.2203788340091705e+01 0.0000000000000000e+00
-8.4733366966247559e-03 5.5348814725875854e+00 -1.6882755756378174e+00
-2.9168844223022461e-02 1.9049128890037537e+01 0.0000000000000000e+00
ITEM: ATOMS id type xs ys zs fx fy fz
1 1 0.569066 0.000667858 0.137516 0 -0.00221634 0.0572052
2 1 0.319067 0.165999 0.137516 0 0.0022068 0.0572014
3 1 0.225494 4.4577e-05 0.275206 0 -0.0179577 0.100149
4 1 0.975494 0.166623 0.275206 0 0.017952 0.100142
5 1 0.882585 2.09749e-05 0.418083 0 -0.000772476 -0.00113297
6 1 0.0690669 0.00066802 0.137516 0 -0.00221252 0.0572071
7 1 0.990481 0.498146 0.0661816 0 -0.0695095 0.0300121
8 1 0.819068 0.165999 0.137516 0 0.00221062 0.0572014
9 1 0.740482 0.668521 0.0661818 0 0.0695171 0.0300083
10 1 0.725495 4.44653e-05 0.275206 0 -0.0179596 0.100149
11 1 0.632584 0.166646 0.418083 0 0.000785828 -0.00113487
12 1 0.539662 2.43116e-05 0.560941 0 0.000141144 0.00284576
13 1 0.289663 0.166643 0.560941 0 -0.000135422 0.00284386
14 1 0.196749 1.72106e-05 0.70381 0 -0.0025692 -0.00425911
15 1 0.946749 0.16665 0.70381 0 0.00255585 -0.00426292
16 1 0.853844 0.000196662 0.846623 0 0.000335693 -0.124521
17 1 0.646947 0.500197 0.20383 0 0.000333786 0.12454
18 1 0.475494 0.166623 0.275206 0 0.0179482 0.100157
19 1 0.396948 0.66647 0.20383 0 -0.000326157 0.124542
20 1 0.382585 2.12238e-05 0.418083 0 -0.000785828 -0.00114059
21 1 0.304041 0.500017 0.346642 0 -0.00256729 0.00425339
22 1 0.132585 0.166646 0.418083 0 0.000782013 -0.00113487
23 1 0.0540407 0.66665 0.346642 0 0.00257492 0.00425911
24 1 0.0396624 2.44023e-05 0.560941 0 0.000135422 0.00284958
25 1 0.961127 0.500025 0.489512 0 0.000133514 -0.00285339
26 1 0.789664 0.166643 0.560941 0 -0.000139236 0.00286102
27 1 0.711128 0.666642 0.489511 0 -0.000131607 -0.00283813
28 1 0.490481 0.498146 0.0661818 0 -0.0695095 0.0300026
29 1 0.240481 0.668521 0.0661816 0 0.0695152 0.0300121
30 1 0.146948 0.500197 0.20383 0 0.000333786 0.124546
31 1 0.896948 0.666471 0.20383 0 -0.000337601 0.124548
32 1 0.804042 0.500018 0.346643 0 -0.00257301 0.00424767
33 1 0.603842 0.16647 0.846623 0 -0.000328064 -0.124554
34 1 0.510309 -0.00185386 0.984271 0 -0.0695114 -0.0300064
35 1 0.260309 0.168521 0.984271 0 0.0695114 -0.0300121
36 1 0.696748 1.74944e-05 0.70381 0 -0.00257111 -0.00424576
37 1 0.618203 0.500021 0.63237 0 -0.00078392 0.00112534
38 1 0.446749 0.166649 0.70381 0 0.00255966 -0.00425529
39 1 0.368205 0.666646 0.63237 0 0.00078392 0.00113869
40 1 0.353842 0.000196927 0.846623 0 0.000333786 -0.124548
41 1 0.275295 0.500044 0.775246 0 -0.0179539 -0.100138
42 1 0.103842 0.16647 0.846623 0 -0.000335693 -0.12455
43 1 0.0252953 0.666623 0.775246 0 0.0179539 -0.100149
44 1 0.0103095 -0.00185435 0.984271 0 -0.0695019 -0.0300045
45 1 0.931723 0.500667 0.912937 0 -0.00221062 -0.0571899
46 1 0.55404 0.66665 0.346643 0 0.00257301 0.00425339
47 1 0.461127 0.500024 0.489512 0 0.000139236 -0.0028553
48 1 0.211127 0.666643 0.489512 0 -0.0001297 -0.00285149
49 1 0.118204 0.500021 0.63237 0 -0.000782013 0.00113678
50 1 0.868205 0.666646 0.63237 0 0.000785828 0.00114632
51 1 0.775296 0.500044 0.775247 0 -0.0179482 -0.100151
52 1 0.760307 0.168522 0.984271 0 0.0695095 -0.0300217
53 1 0.681722 0.666 0.912937 0 0.00219917 -0.0572128
54 1 0.525295 0.666623 0.775247 0 0.017952 -0.100153
55 1 0.431723 0.500668 0.912937 0 -0.00221443 -0.0572014
56 1 0.181723 0.666 0.912937 0 0.00221062 -0.0572071
ITEM: TIMESTEP
2
ITEM: NUMBER OF ATOMS
56
ITEM: BOX BOUNDS xy xz yz pp pp pp
-1.7069640755653381e+00 1.2203788340091705e+01 0.0000000000000000e+00
-8.4733366966247559e-03 5.5348814725875854e+00 -1.6882755756378174e+00
-2.9168844223022461e-02 1.9049128890037537e+01 0.0000000000000000e+00
ITEM: ATOMS id type xs ys zs fx fy fz
1 1 0.5693 0.000442294 0.139207 0 -0.0281544 0.0312691
2 1 0.319301 0.166224 0.139207 0 0.0281754 0.0312634
3 1 0.225903 -0.00178304 0.278168 0 0.00853729 0.00582314
4 1 0.975903 0.16845 0.278168 0 -0.00852776 0.00582695
5 1 0.882581 -5.76425e-05 0.418049 0 -0.00917816 0.0513058
6 1 0.0693006 0.000442845 0.139207 0 -0.0281639 0.0312634
7 1 0.990603 0.491072 0.0670691 0 -0.0082283 0.00322914
8 1 0.819301 0.166224 0.139207 0 0.0281658 0.0312614
9 1 0.740605 0.675596 0.0670692 0 0.00822258 0.00320244
10 1 0.725905 -0.00178334 0.278168 0 0.00853348 0.00581932
11 1 0.63258 0.166726 0.418049 0 0.00917244 0.0513096
12 1 0.539673 3.86763e-05 0.561025 0 -0.00260925 -0.00492668
13 1 0.289674 0.166629 0.561026 0 0.00260353 -0.00492096
14 1 0.196732 -0.000244265 0.703684 0 -0.0115757 -0.0772896
15 1 0.946732 0.16691 0.703684 0 0.0115757 -0.07728
16 1 0.853335 0.000230827 0.842941 0 -0.0115719 0.0272865
17 1 0.647455 0.500231 0.207512 0 -0.0115757 -0.0273094
18 1 0.475903 0.16845 0.278168 0 -0.00853348 0.00581169
19 1 0.397456 0.666437 0.207512 0 0.0115528 -0.0273037
20 1 0.382581 -5.87524e-05 0.418049 0 -0.00916481 0.0513077
21 1 0.304058 0.499756 0.346768 0 -0.0115757 0.0772934
22 1 0.13258 0.166726 0.418049 0 0.00917244 0.0513039
23 1 0.0540581 0.666912 0.346768 0 0.0115719 0.0772877
24 1 0.039674 3.81846e-05 0.561026 0 -0.00260353 -0.0049324
25 1 0.961115 0.500038 0.489427 0 -0.00259781 0.00492477
26 1 0.789675 0.166629 0.561026 0 0.00260162 -0.00493431
27 1 0.711116 0.666629 0.489428 0 0.00260735 0.00491905
28 1 0.490603 0.491072 0.067069 0 -0.00822639 0.00322342
29 1 0.240603 0.675596 0.0670691 0 0.00821877 0.00321579
30 1 0.147456 0.500231 0.207513 0 -0.01157 -0.0273094
31 1 0.897456 0.666436 0.207513 0 0.0115662 -0.0273151
32 1 0.804059 0.499756 0.346768 0 -0.0115719 0.0773087
33 1 0.603333 0.166437 0.84294 0 0.0115547 0.0273075
34 1 0.510187 -0.00892827 0.983384 0 -0.00823212 -0.00323296
35 1 0.260187 0.175596 0.983384 0 0.00823402 -0.00322533
36 1 0.696731 -0.000244176 0.703685 0 -0.0115795 -0.0772896
37 1 0.618208 0.499941 0.632403 0 -0.00916481 -0.0512981
38 1 0.446732 0.16691 0.703685 0 0.0115776 -0.0773029
39 1 0.368209 0.666726 0.632404 0 0.00915909 -0.0513077
40 1 0.353334 0.000230898 0.84294 0 -0.0115757 0.027317
41 1 0.274886 0.498217 0.772285 0 0.00853539 -0.00583649
42 1 0.103333 0.166436 0.84294 0 0.0115776 0.0273056
43 1 0.0248862 0.66845 0.772285 0 -0.00853729 -0.00580978
44 1 0.0101869 -0.00892779 0.983384 0 -0.00823212 -0.00321388
45 1 0.93149 0.500442 0.911246 0 -0.0281467 -0.0312691
46 1 0.554058 0.666911 0.346768 0 0.0115719 0.0772991
47 1 0.461115 0.500039 0.489427 0 -0.00260353 0.00492477
48 1 0.211115 0.666629 0.489427 0 0.00260735 0.00492287
49 1 0.118209 0.499941 0.632404 0 -0.00916672 -0.0512981
50 1 0.86821 0.666726 0.632404 0 0.0091629 -0.0513115
51 1 0.774887 0.498217 0.772285 0 0.00853157 -0.00581741
52 1 0.760185 0.175596 0.983383 0 0.0082283 -0.00320244
53 1 0.681489 0.666224 0.911245 0 0.0281696 -0.0312576
54 1 0.524886 0.66845 0.772285 0 -0.00852966 -0.00581932
55 1 0.431489 0.500442 0.911246 0 -0.0281467 -0.0312653
56 1 0.181489 0.666225 0.911245 0 0.0281563 -0.0312538
ITEM: TIMESTEP
3
ITEM: NUMBER OF ATOMS
56
ITEM: BOX BOUNDS xy xz yz pp pp pp
-1.7069640755653381e+00 1.2203788340091705e+01 0.0000000000000000e+00
-8.4733366966247559e-03 5.5348814725875854e+00 -1.6882755756378174e+00
-2.9168844223022461e-02 1.9049128890037537e+01 0.0000000000000000e+00
ITEM: ATOMS id type xs ys zs fx fy fz
1 1 0.569498 -0.00237794 0.140644 0 -0.00411224 -0.0249367
2 1 0.319499 0.169046 0.140644 0 0.00409317 -0.0249329
3 1 0.226059 -0.00154502 0.279297 0 -0.00679016 0.0169621
4 1 0.976059 0.168213 0.279297 0 0.00677299 0.0169678
5 1 0.88278 -0.000978678 0.419493 0 -0.00230217 0.017189
6 1 0.0694991 -0.0023782 0.140644 0 -0.00411224 -0.0249176
7 1 0.990656 0.487966 0.0674495 0 0.000940323 -0.0369873
8 1 0.8195 0.169045 0.140644 0 0.0041008 -0.0249138
9 1 0.740657 0.678701 0.0674489 0 -0.000928879 -0.0369701
10 1 0.72606 -0.00154576 0.279297 0 -0.00678635 0.0169659
11 1 0.632779 0.167647 0.419493 0 0.00229645 0.0171833
12 1 0.539658 -0.000211213 0.560913 0 -0.0111065 -0.0195179
13 1 0.289659 0.166879 0.560913 0 0.0111046 -0.0195179
14 1 0.196423 -0.00145873 0.701452 0 0.000400543 0.00380898
15 1 0.946424 0.168124 0.701453 0 -0.000392914 0.00380516
16 1 0.853276 -0.000887035 0.842516 0 0.000398636 -0.0138836
17 1 0.647514 0.499112 0.207937 0 0.000396729 0.0138988
18 1 0.476059 0.168212 0.279297 0 0.00678062 0.0169659
19 1 0.397515 0.667553 0.207937 0 -0.000377655 0.0138931
20 1 0.38278 -0.000978928 0.419493 0 -0.00230026 0.0171928
21 1 0.304366 0.498541 0.349 0 0.000400543 -0.00379944
22 1 0.13278 0.167647 0.419493 0 0.00230598 0.0171871
23 1 0.0543664 0.668126 0.349 0 -0.000402451 -0.00380898
24 1 0.0396585 -0.000211336 0.560913 0 -0.0110912 -0.019516
25 1 0.961131 0.499789 0.489539 0 -0.0111065 0.0195293
26 1 0.78966 0.166878 0.560914 0 0.0111122 -0.0195103
27 1 0.711132 0.666879 0.48954 0 0.011097 0.0195198
28 1 0.490656 0.487966 0.0674492 0 0.000928879 -0.0369968
29 1 0.240656 0.678701 0.0674492 0 -0.000917435 -0.0369816
30 1 0.147515 0.499113 0.207937 0 0.000398636 0.0139027
31 1 0.897515 0.667553 0.207937 0 -0.000385284 0.0139027
32 1 0.804367 0.498542 0.349001 0 0.000402451 -0.0038147
33 1 0.603275 0.167553 0.842515 0 -0.000377655 -0.0138893
34 1 0.510134 -0.0120342 0.983003 0 0.000936508 0.0370064
35 1 0.260134 0.178702 0.983003 0 -0.00094223 0.036993
36 1 0.696422 -0.00145908 0.701453 0 0.000404358 0.00378799
37 1 0.618008 0.499021 0.63096 0 -0.00230598 -0.0171833
38 1 0.446424 0.168124 0.701452 0 -0.000400543 0.0038147
39 1 0.36801 0.667645 0.63096 0 0.0023098 -0.0172062
40 1 0.353275 -0.000887399 0.842516 0 0.00041008 -0.0139065
41 1 0.27473 0.498455 0.771156 0 -0.00679398 -0.0169544
42 1 0.103275 0.167555 0.842515 0 -0.000406265 -0.0138855
43 1 0.0247303 0.668212 0.771156 0 0.00679016 -0.0169678
44 1 0.0101345 -0.0120334 0.983004 0 0.000932693 0.0369873
45 1 0.931291 0.497623 0.909809 0 -0.00411987 0.0249252
46 1 0.554366 0.668126 0.349 0 -0.000396729 -0.00381279
47 1 0.461131 0.499789 0.489539 0 -0.0111008 0.0195236
48 1 0.211131 0.666879 0.489539 0 0.0110931 0.0195141
49 1 0.11801 0.499021 0.63096 0 -0.00230598 -0.0171986
50 1 0.868011 0.667646 0.63096 0 0.00229836 -0.0171909
51 1 0.774731 0.498455 0.771156 0 -0.00679398 -0.0169697
52 1 0.760132 0.178701 0.983004 0 -0.000928879 0.0369816
53 1 0.68129 0.669045 0.909809 0 0.00411606 0.0249004
54 1 0.52473 0.668212 0.771156 0 0.00676537 -0.0169678
55 1 0.431291 0.497623 0.909809 0 -0.00412369 0.0249138
56 1 0.181291 0.669045 0.909809 0 0.00412178 0.0249157
ITEM: TIMESTEP
4
ITEM: NUMBER OF ATOMS
56
ITEM: BOX BOUNDS xy xz yz pp pp pp
-1.7069640755653381e+00 1.2203788340091705e+01 0.0000000000000000e+00
-8.4733366966247559e-03 5.5348814725875854e+00 -1.6882755756378174e+00
-2.9168844223022461e-02 1.9049128890037537e+01 0.0000000000000000e+00
ITEM: ATOMS id type xs ys zs fx fy fz
1 1 0.56948 -0.00309741 0.14051 0 0.00450134 0.00356293
2 1 0.319481 0.169764 0.140509 0 -0.00450706 0.00357628
3 1 0.226124 -0.00186741 0.279761 0 -0.00116348 0.00317001
4 1 0.976123 0.168534 0.279761 0 0.0011673 0.00317383
5 1 0.882852 -0.00126513 0.420016 0 -0.00385857 -0.000228882
6 1 0.0694805 -0.00309781 0.14051 0 0.00451469 0.00356865
7 1 0.990586 0.487467 0.0669399 0 0.00360489 0.00114632
8 1 0.819481 0.169764 0.140509 0 -0.00450897 0.00357437
9 1 0.740587 0.679201 0.0669394 0 -0.00360298 0.00116158
10 1 0.726125 -0.00186803 0.279761 0 -0.00115967 0.00317574
11 1 0.632851 0.167933 0.420016 0 0.0038662 -0.000236511
12 1 0.539613 -0.00085158 0.560589 0 -0.00705147 -0.00286484
13 1 0.289614 0.167519 0.560589 0 0.00705528 -0.00287437
14 1 0.196377 -0.001652 0.701117 0 0.000701904 0.00321579
15 1 0.946377 0.168318 0.701117 0 -0.000707626 0.00322151
16 1 0.853236 -0.00106332 0.842224 0 0.000225067 0.000394821
17 1 0.647554 0.498936 0.208229 0 0.000225067 -0.000389099
18 1 0.476123 0.168534 0.279761 0 0.00117493 0.00317764
19 1 0.397555 0.66773 0.208229 0 -0.000230789 -0.000398636
20 1 0.382853 -0.00126513 0.420016 0 -0.0038662 -0.000226974
21 1 0.304413 0.498348 0.349336 0 0.000703812 -0.00321388
22 1 0.132852 0.167933 0.420016 0 0.00385857 -0.000234604
23 1 0.0544128 0.668319 0.349336 0 -0.000703812 -0.00321007
24 1 0.0396137 -0.000850819 0.560589 0 -0.00705528 -0.00286293
25 1 0.961175 0.499149 0.489864 0 -0.00705147 0.00287056
26 1 0.789615 0.167519 0.560589 0 0.00704765 -0.00286865
27 1 0.711177 0.667519 0.489864 0 0.00705147 0.00286865
28 1 0.490585 0.487467 0.0669394 0 0.00361252 0.00115585
29 1 0.240586 0.6792 0.0669396 0 -0.00361443 0.00115776
30 1 0.147555 0.498937 0.208229 0 0.00022316 -0.000394821
31 1 0.897555 0.66773 0.208229 0 -0.000232697 -0.000391006
32 1 0.804414 0.498348 0.349336 0 0.00069809 -0.0032177
33 1 0.603234 0.16773 0.842224 0 -0.000228882 0.000391006
34 1 0.510205 -0.0125332 0.983513 0 0.00361443 -0.00115204
35 1 0.260204 0.179201 0.983513 0 -0.00361252 -0.00115585
36 1 0.696376 -0.00165222 0.701117 0 0.00069809 0.00321579
37 1 0.617936 0.498735 0.630437 0 -0.00386429 0.000221252
38 1 0.446377 0.168318 0.701117 0 -0.000701904 0.00321579
39 1 0.367938 0.667932 0.630437 0 0.00386238 0.000232697
40 1 0.353235 -0.00106315 0.842224 0 0.00022316 0.000396729
41 1 0.274666 0.498132 0.770692 0 -0.0011673 -0.00318146
42 1 0.103234 0.167731 0.842224 0 -0.000228882 0.000398636
43 1 0.0246662 0.668534 0.770692 0 0.00116539 -0.00317383
44 1 0.0102049 -0.0125325 0.983514 0 0.00361633 -0.00115585
45 1 0.93131 0.496903 0.909944 0 0.00450134 -0.00356293
46 1 0.554412 0.668319 0.349336 0 -0.000705719 -0.00321579
47 1 0.461175 0.499149 0.489864 0 -0.00705719 0.00287628
48 1 0.211176 0.667519 0.489864 0 0.00704956 0.00287056
49 1 0.117937 0.498734 0.630437 0 -0.00385857 0.000221252
50 1 0.867938 0.667932 0.630437 0 0.00387001 0.000230789
51 1 0.774667 0.498132 0.770692 0 -0.00115776 -0.00317574
52 1 0.760203 0.179201 0.983513 0 -0.00360489 -0.0011673
53 1 0.681309 0.669765 0.909943 0 -0.00450706 -0.00356674
54 1 0.524666 0.668533 0.770692 0 0.00117874 -0.00317574
55 1 0.431309 0.496903 0.909943 0 0.00450325 -0.00357056
56 1 0.181309 0.669765 0.909943 0 -0.00450516 -0.00357628
ITEM: TIMESTEP
5
ITEM: NUMBER OF ATOMS
56
ITEM: BOX BOUNDS xy xz yz pp pp pp
-1.7069640755653381e+00 1.2203788340091705e+01 0.0000000000000000e+00
-8.4733366966247559e-03 5.5348814725875854e+00 -1.6882755756378174e+00
-2.9168844223022461e-02 1.9049128890037537e+01 0.0000000000000000e+00
ITEM: ATOMS id type xs ys zs fx fy fz
1 1 0.569493 -0.00268493 0.140606 0 9.15527e-05 -0.000484467
2 1 0.319494 0.169351 0.140606 0 -8.58307e-05 -0.000507355
3 1 0.226139 -0.00199679 0.279873 0 0.000694275 0.000469208
4 1 0.976139 0.168664 0.279873 0 -0.000699997 0.000461578
5 1 0.882855 -0.00165915 0.420033 0 -0.00200272 -0.000444412
6 1 0.0694938 -0.00268402 0.140606 0 7.62939e-05 -0.00050354
7 1 0.990587 0.487801 0.06695 0 0.00197601 -0.000741959
8 1 0.819495 0.169351 0.140606 0 -7.82013e-05 -0.000518799
9 1 0.740588 0.678867 0.0669499 0 -0.00198174 -0.000764847
10 1 0.72614 -0.00199702 0.279873 0 0.000688553 0.000455856
11 1 0.632854 0.168328 0.420033 0 0.00198936 -0.000436783
12 1 0.5396 -0.00157687 0.560492 0 -0.00103188 0.00350571
13 1 0.2896 0.168244 0.560492 0 0.00102425 0.00351334
14 1 0.196388 -0.00159131 0.701194 0 -0.00138474 -0.00324249
15 1 0.946388 0.168257 0.701195 0 0.00140381 -0.00324059
16 1 0.853236 -0.00104898 0.842222 0 0.000995636 0.000513077
17 1 0.647555 0.49895 0.208231 0 0.000995636 -0.000516891
18 1 0.476139 0.168664 0.279873 0 -0.000703812 0.000453949
19 1 0.397556 0.667715 0.208231 0 -0.000980377 -0.000509262
20 1 0.382855 -0.00165988 0.420033 0 -0.00198936 -0.000448227
21 1 0.304402 0.498409 0.349258 0 -0.00138855 0.00324059
22 1 0.132854 0.168327 0.420033 0 0.00199318 -0.000440598
23 1 0.0544021 0.668258 0.349259 0 0.00139236 0.00323677
24 1 0.0396004 -0.00157644 0.560492 0 -0.00103188 0.00350571
25 1 0.961189 0.498424 0.489961 0 -0.00102997 -0.00351906
26 1 0.789602 0.168244 0.560492 0 0.0010376 0.00350571
27 1 0.71119 0.668244 0.489961 0 0.00102997 -0.00351715
28 1 0.490587 0.487802 0.0669497 0 0.0019722 -0.000757217
29 1 0.240587 0.678866 0.06695 0 -0.0019722 -0.000768661
30 1 0.147556 0.498951 0.208231 0 0.000986099 -0.000522614
31 1 0.897556 0.667715 0.208231 0 -0.000988007 -0.000511169
32 1 0.804403 0.498409 0.349258 0 -0.00137901 0.00323677
33 1 0.603234 0.167716 0.842222 0 -0.000982285 0.000513077
34 1 0.510203 -0.0121985 0.983503 0 0.00197411 0.000745773
35 1 0.260203 0.178866 0.983503 0 -0.00197411 0.000766754
36 1 0.696387 -0.0015919 0.701194 0 -0.00137329 -0.00323486
37 1 0.617934 0.49834 0.63042 0 -0.00200272 0.000455856
38 1 0.446388 0.168257 0.701194 0 0.00139618 -0.00322914
39 1 0.367935 0.668326 0.63042 0 0.00200844 0.000442505
40 1 0.353235 -0.00104897 0.842222 0 0.000984192 0.000513077
41 1 0.274651 0.498003 0.77058 0 0.000696182 -0.000459671
42 1 0.103234 0.167716 0.842222 0 -0.00097847 0.000520706
43 1 0.0246508 0.668664 0.77058 0 -0.000705719 -0.000471115
44 1 0.0102034 -0.0121976 0.983503 0 0.00196838 0.000757217
45 1 0.931297 0.497316 0.909847 0 9.53674e-05 0.000492096
46 1 0.554402 0.668258 0.349258 0 0.00139046 0.00323296
47 1 0.461189 0.498423 0.489961 0 -0.00103569 -0.00351715
48 1 0.211189 0.668244 0.489961 0 0.00103569 -0.00350761
49 1 0.117935 0.49834 0.63042 0 -0.00201035 0.000453949
50 1 0.867936 0.668327 0.63042 0 0.00198936 0.000444412
51 1 0.774652 0.498003 0.77058 0 0.000680923 -0.000455856
52 1 0.760201 0.178867 0.983503 0 -0.00196648 0.000770569
53 1 0.681295 0.669352 0.909847 0 -9.53674e-05 0.000507355
54 1 0.524651 0.668664 0.77058 0 -0.000707626 -0.000461578
55 1 0.431296 0.497316 0.909847 0 8.7738e-05 0.00050354
56 1 0.181296 0.669352 0.909847 0 -9.34601e-05 0.000514984
ITEM: TIMESTEP
6
ITEM: NUMBER OF ATOMS
56
ITEM: BOX BOUNDS xy xz yz pp pp pp
-1.7069640755653381e+00 1.2203788340091705e+01 0.0000000000000000e+00
-8.4733366966247559e-03 5.5348814725875854e+00 -1.6882755756378174e+00
-2.9168844223022461e-02 1.9049128890037537e+01 0.0000000000000000e+00
ITEM: ATOMS id type xs ys zs fx fy fz
1 1 0.569494 -0.00259956 0.140614 0 3.43323e-05 -0.000516891
2 1 0.319495 0.169266 0.140614 0 -3.05176e-05 -0.000505447
3 1 0.226143 -0.00197107 0.279904 0 0.000102997 -0.000494003
4 1 0.976143 0.168638 0.279904 0 -0.000101089 -0.000486374
5 1 0.882854 -0.00187976 0.420027 0 0.000118256 0.00148201
6 1 0.0694949 -0.0025995 0.140614 0 2.86102e-05 -0.000511169
7 1 0.990585 0.488008 0.0669363 0 0.000597 -7.62939e-05
8 1 0.819496 0.169267 0.140613 0 -3.8147e-05 -0.000497818
9 1 0.740586 0.67866 0.0669358 0 -0.000585556 -6.29425e-05
10 1 0.726144 -0.00197165 0.279904 0 0.000112534 -0.000490189
11 1 0.632853 0.168547 0.420027 0 -0.000120163 0.0014782
12 1 0.539607 -0.00179022 0.560548 0 -1.33514e-05 -0.000469208
13 1 0.289608 0.168457 0.560548 0 1.14441e-05 -0.0004673
14 1 0.19638 -0.00168027 0.701141 0 -0.000915527 4.00543e-05
15 1 0.946381 0.168347 0.701141 0 0.000907898 2.86102e-05
16 1 0.853237 -0.000973952 0.842233 0 0.000494003 -0.00103951
17 1 0.647553 0.499025 0.20822 0 0.000495911 0.00102615
18 1 0.476143 0.168638 0.279904 0 -0.000106812 -0.000486374
19 1 0.397554 0.667641 0.20822 0 -0.000501633 0.0010376
20 1 0.382854 -0.00187967 0.420027 0 0.000110626 0.0014801
21 1 0.30441 0.49832 0.349312 0 -0.000905991 -4.3869e-05
22 1 0.132854 0.168547 0.420027 0 -0.000118256 0.00149155
23 1 0.0544095 0.668348 0.349312 0 0.000904083 -4.57764e-05
24 1 0.039608 -0.00178986 0.560548 0 -1.90735e-05 -0.00047493
25 1 0.961181 0.49821 0.489905 0 -1.52588e-05 0.000478745
26 1 0.789609 0.168457 0.560548 0 9.53674e-06 -0.0004673
27 1 0.711182 0.668457 0.489905 0 1.52588e-05 0.000484467
28 1 0.490585 0.488009 0.0669357 0 0.000591278 -6.10352e-05
29 1 0.240585 0.678659 0.0669358 0 -0.000585556 -6.10352e-05
30 1 0.147554 0.499025 0.20822 0 0.00050354 0.00104332
31 1 0.897554 0.667641 0.20822 0 -0.000495911 0.00103569
32 1 0.80441 0.49832 0.349312 0 -0.000915527 -3.43323e-05
33 1 0.603235 0.167642 0.842232 0 -0.000513077 -0.0010376
34 1 0.510205 -0.0119912 0.983517 0 0.000583649 7.24792e-05
35 1 0.260205 0.178659 0.983517 0 -0.000597 6.67572e-05
36 1 0.696379 -0.0016801 0.701141 0 -0.000919342 2.86102e-05
37 1 0.617934 0.498119 0.630426 0 0.000123978 -0.00148582
38 1 0.446381 0.168347 0.701141 0 0.000911713 3.05176e-05
39 1 0.367936 0.668548 0.630426 0 -0.0001297 -0.0014782
40 1 0.353236 -0.000974806 0.842233 0 0.000505447 -0.0010376
41 1 0.274647 0.498028 0.770549 0 0.000110626 0.000495911
42 1 0.103236 0.167642 0.842233 0 -0.000509262 -0.00104141
43 1 0.0246464 0.668637 0.770549 0 -9.91821e-05 0.000490189
44 1 0.0102054 -0.0119908 0.983517 0 0.000593185 6.86646e-05
45 1 0.931296 0.497401 0.909839 0 3.24249e-05 0.000501633
46 1 0.554409 0.668347 0.349312 0 0.00091362 -3.24249e-05
47 1 0.461181 0.49821 0.489905 0 -1.90735e-06 0.000471115
48 1 0.211181 0.668458 0.489905 0 1.71661e-05 0.000469208
49 1 0.117936 0.498119 0.630426 0 0.0001297 -0.0014801
50 1 0.867937 0.668547 0.630426 0 -0.000114441 -0.0014782
51 1 0.774648 0.498028 0.770549 0 0.000114441 0.000484467
52 1 0.760203 0.17866 0.983517 0 -0.000608444 7.24792e-05
53 1 0.681294 0.669266 0.909839 0 -1.52588e-05 0.000507355
54 1 0.524646 0.668638 0.770549 0 -0.000104904 0.000495911
55 1 0.431295 0.497401 0.909839 0 3.24249e-05 0.000505447
56 1 0.181295 0.669266 0.909839 0 -2.47955e-05 0.000495911
ITEM: TIMESTEP
7
ITEM: NUMBER OF ATOMS
56
ITEM: BOX BOUNDS xy xz yz pp pp pp
-1.7069640755653381e+00 1.2203788340091705e+01 0.0000000000000000e+00
-8.4733366966247559e-03 5.5348814725875854e+00 -1.6882755756378174e+00
-2.9168844223022461e-02 1.9049128890037537e+01 0.0000000000000000e+00
ITEM: ATOMS id type xs ys zs fx fy fz
1 1 0.569493 -0.00258306 0.140604 0 0.000232697 3.24249e-05
2 1 0.319494 0.16925 0.140604 0 -0.000236511 3.8147e-05
3 1 0.226142 -0.00195893 0.279898 0 -2.86102e-05 0.00030899
4 1 0.976142 0.168626 0.279898 0 3.05176e-05 0.000312805
5 1 0.882858 -0.00190635 0.420059 0 9.53674e-05 0
6 1 0.0694935 -0.00258359 0.140604 0 0.000244141 4.19617e-05
7 1 0.990585 0.488088 0.0669324 0 0.000146866 0.000656128
8 1 0.819494 0.16925 0.140603 0 -0.000228882 3.8147e-05
9 1 0.740586 0.678581 0.0669321 0 -0.000160217 0.00066185
10 1 0.726144 -0.00195882 0.279898 0 -3.43323e-05 0.00030899
11 1 0.632857 0.168574 0.420059 0 -8.7738e-05 3.8147e-06
12 1 0.539607 -0.00182583 0.560546 0 0.000192642 -0.000116348
13 1 0.289608 0.168493 0.560546 0 -0.000188828 -0.000114441
14 1 0.196379 -0.00176557 0.701133 0 2.67029e-05 -0.000198364
15 1 0.946379 0.168432 0.701133 0 -2.67029e-05 -0.000207901
16 1 0.853234 -0.000923543 0.842211 0 -6.86646e-05 -0.000164032
17 1 0.647556 0.499076 0.208242 0 -7.43866e-05 0.000167847
18 1 0.476142 0.168625 0.279898 0 3.24249e-05 0.00030899
19 1 0.397557 0.66759 0.208242 0 8.01086e-05 0.00015831
20 1 0.382858 -0.00190671 0.420059 0 9.53674e-05 3.8147e-06
21 1 0.304411 0.498235 0.34932 0 1.52588e-05 0.000209808
22 1 0.132858 0.168574 0.420059 0 -8.7738e-05 -9.53674e-06
23 1 0.0544106 0.668432 0.34932 0 -2.28882e-05 0.000211716
24 1 0.0396078 -0.00182592 0.560546 0 0.000196457 -0.000106812
25 1 0.961181 0.498175 0.489907 0 0.000185013 0.000112534
26 1 0.789609 0.168493 0.560546 0 -0.000183105 -0.000114441
27 1 0.711183 0.668493 0.489907 0 -0.00018692 0.000110626
28 1 0.490584 0.488088 0.0669321 0 0.000150681 0.000648499
29 1 0.240585 0.67858 0.0669321 0 -0.000150681 0.000658035
30 1 0.147557 0.499076 0.208242 0 -8.2016e-05 0.000152588
31 1 0.897557 0.66759 0.208242 0 7.82013e-05 0.000154495
32 1 0.804411 0.498235 0.34932 0 2.09808e-05 0.000202179
33 1 0.603232 0.16759 0.842211 0 9.53674e-05 -0.000150681
34 1 0.510206 -0.0119125 0.983521 0 0.00015831 -0.000667572
35 1 0.260205 0.178579 0.983521 0 -0.000141144 -0.000654221
36 1 0.696378 -0.00176558 0.701133 0 2.86102e-05 -0.000200272
37 1 0.61793 0.498093 0.630394 0 9.15527e-05 -3.8147e-06
38 1 0.44638 0.168432 0.701133 0 -2.86102e-05 -0.000202179
39 1 0.367932 0.668573 0.630394 0 -8.96454e-05 -3.8147e-06
40 1 0.353233 -0.00092365 0.842211 0 -7.43866e-05 -0.000164032
41 1 0.274647 0.498041 0.770555 0 -3.24249e-05 -0.000307083
42 1 0.103233 0.167591 0.842211 0 8.39233e-05 -0.000162125
43 1 0.0246473 0.668625 0.770555 0 3.24249e-05 -0.000307083
44 1 0.0102059 -0.0119113 0.983521 0 0.000148773 -0.000659943
45 1 0.931297 0.497418 0.909849 0 0.000228882 -2.47955e-05
46 1 0.55441 0.668433 0.34932 0 -2.86102e-05 0.000202179
47 1 0.461181 0.498175 0.489907 0 0.000188828 0.000112534
48 1 0.211182 0.668494 0.489907 0 -0.000202179 0.000112534
49 1 0.117932 0.498093 0.630394 0 8.96454e-05 -7.62939e-06
50 1 0.867932 0.668574 0.630394 0 -9.53674e-05 -1.90735e-06
51 1 0.774648 0.498041 0.770555 0 -3.62396e-05 -0.000307083
52 1 0.760204 0.17858 0.983521 0 -0.000141144 -0.000671387
53 1 0.681296 0.669251 0.909849 0 -0.000253677 -4.19617e-05
54 1 0.524647 0.668625 0.770555 0 2.28882e-05 -0.000307083
55 1 0.431296 0.497417 0.909849 0 0.000225067 -2.09808e-05
56 1 0.181296 0.669251 0.909849 0 -0.000246048 -3.24249e-05
ITEM: TIMESTEP
8
ITEM: NUMBER OF ATOMS
56
ITEM: BOX BOUNDS xy xz yz pp pp pp
-1.7069640755653381e+00 1.2203788340091705e+01 0.0000000000000000e+00
-8.4733366966247559e-03 5.5348814725875854e+00 -1.6882755756378174e+00
-2.9168844223022461e-02 1.9049128890037537e+01 0.0000000000000000e+00
ITEM: ATOMS id type xs ys zs fx fy fz
1 1 0.569493 -0.00255942 0.140603 0 -3.8147e-06 -7.62939e-05
2 1 0.319494 0.169226 0.140603 0 0 -6.29425e-05
3 1 0.226143 -0.00195969 0.279905 0 -5.34058e-05 0.000139236
4 1 0.976143 0.168627 0.279906 0 4.00543e-05 0.000131607
5 1 0.882859 -0.0019017 0.420064 0 -9.53674e-06 -0.000102997
6 1 0.0694934 -0.00255898 0.140603 0 -5.72205e-06 -7.05719e-05
7 1 0.990587 0.488114 0.0669491 0 0.000104904 -0.000228882
8 1 0.819494 0.169227 0.140603 0 -1.90735e-06 -7.62939e-05
9 1 0.740588 0.678554 0.066949 0 -9.53674e-05 -0.000240326
10 1 0.726145 -0.00196 0.279905 0 -4.19617e-05 0.000144958
11 1 0.632858 0.16857 0.420064 0 3.8147e-06 -0.000110626
12 1 0.539607 -0.0018137 0.560543 0 7.05719e-05 1.71661e-05
13 1 0.289608 0.168481 0.560543 0 -8.01086e-05 1.71661e-05
14 1 0.196378 -0.00177606 0.701127 0 0.000162125 -0.000167847
15 1 0.946379 0.168442 0.701126 0 -0.000164032 -0.000152588
16 1 0.853233 -0.000922154 0.842204 0 -5.91278e-05 -0.000226974
17 1 0.647557 0.499077 0.208249 0 -4.76837e-05 0.000226974
18 1 0.476143 0.168626 0.279905 0 4.57764e-05 0.000135422
19 1 0.397558 0.66759 0.208249 0 4.19617e-05 0.000240326
20 1 0.382859 -0.00190214 0.420064 0 0 -0.000110626
21 1 0.304411 0.498224 0.349327 0 0.000164032 0.000152588