ITEM: TIMESTEP
0
ITEM: NUMBER OF ATOMS
32
ITEM: BOX BOUNDS xy xz yz pp pp pp
-9.5987319946289062e-04 6.3977920413017273e+00 -0.0000000000000000e+00
-1.0525226593017578e-02 5.5309563875198364e+00 0.0000000000000000e+00
-5.8505058288574219e-02 2.0783891499042511e+01 0.0000000000000000e+00
ITEM: ATOMS id type xs ys zs fx fy fz
1 1 0.999986 0.666666 0.0597507 -2.74181e-06 0 -3.57628e-07
2 1 0.499986 0.666666 0.0597507 2.26498e-06 0 -2.38419e-07
3 1 0.249986 0.166666 0.0597507 -1.19209e-07 0 1.19209e-06
4 1 0.749986 0.166666 0.0597507 -1.3113e-06 0 3.57628e-07
5 1 0.999986 0.666666 0.309751 0 0 4.76837e-07
6 1 0.249986 0.5 0.184751 -1.78814e-06 0 3.57628e-07
7 1 0.749986 0.5 0.184751 1.19209e-06 0 -4.76837e-07
8 1 0.499986 0.666666 0.309751 1.3113e-06 0 1.19209e-06
9 1 0.999986 1 0.184751 7.15256e-07 0 0
10 1 0.249986 0.166666 0.309751 -2.14577e-06 0 -1.54972e-06
11 1 0.499986 1 0.184751 4.76837e-07 0 -1.07288e-06
12 1 0.749986 0.166666 0.309751 1.66893e-06 0 -9.53674e-07
13 1 0.999986 0.666666 0.559751 -2.38419e-06 0 -3.57628e-07
14 1 0.499986 0.666666 0.559751 2.5034e-06 0 -2.38419e-07
15 1 0.249986 0.166666 0.559751 -7.15256e-07 0 0
16 1 0.749986 0.166666 0.559751 8.34465e-07 0 5.96046e-07
17 1 0.249986 0.5 0.434751 4.76837e-07 0 3.57628e-07
18 1 0.749986 0.5 0.434751 -2.38419e-06 0 1.19209e-07
19 1 0.999986 1 0.434751 9.53674e-07 0 4.76837e-07
20 1 0.499986 1 0.434751 2.38419e-07 0 8.34465e-07
21 1 0.999986 0.666666 0.809751 0 0 -4.76837e-07
22 1 0.249986 0.5 0.684751 2.38419e-07 0 4.76837e-07
23 1 0.499986 0.666666 0.809751 -1.19209e-06 0 3.57628e-07
24 1 0.749986 0.5 0.684751 4.76837e-07 0 -1.43051e-06
25 1 0.999986 1 0.684751 -5.96046e-07 0 1.19209e-07
26 1 0.249986 0.166666 0.809751 -2.38419e-07 0 5.96046e-07
27 1 0.749986 0.166666 0.809751 9.53674e-07 0 -1.19209e-07
28 1 0.499986 1 0.684751 1.19209e-07 0 -5.96046e-07
29 1 0.249986 0.5 0.934751 -5.96046e-07 0 -1.19209e-06
30 1 0.749986 0.5 0.934751 7.15256e-07 0 2.26498e-06
31 1 0.999986 1 0.934751 2.38419e-07 0 -1.19209e-07
32 1 0.499986 1 0.934751 8.34465e-07 0 -5.96046e-07
ITEM: TIMESTEP
1
ITEM: NUMBER OF ATOMS
32
ITEM: BOX BOUNDS xy xz yz pp pp pp
-9.5987319946289062e-04 6.3977920413017273e+00 -0.0000000000000000e+00
-1.0525226593017578e-02 5.5309563875198364e+00 0.0000000000000000e+00
-5.8505058288574219e-02 2.0783891499042511e+01 0.0000000000000000e+00
ITEM: ATOMS id type xs ys zs fx fy fz
1 1 0.999986 0.666666 0.0597507 3.57628e-07 0 -2.38419e-07
2 1 0.499986 0.666666 0.0597507 -7.15256e-07 0 1.19209e-07
3 1 0.249986 0.166666 0.0597507 1.19209e-07 0 3.57628e-07
4 1 0.749986 0.166666 0.0597507 2.38419e-07 0 2.38419e-07
5 1 0.999986 0.666666 0.309751 5.96046e-07 0 8.34465e-07
6 1 0.249986 0.5 0.184751 5.96046e-07 0 -1.19209e-07
7 1 0.749986 0.5 0.184751 -3.57628e-07 0 -1.19209e-07
8 1 0.499986 0.666666 0.309751 -1.19209e-06 0 3.57628e-07
9 1 0.999986 1 0.184751 0 0 -4.76837e-07
10 1 0.249986 0.166666 0.309751 3.57628e-07 0 -2.38419e-07
11 1 0.499986 1 0.184751 1.19209e-07 0 -5.96046e-07
12 1 0.749986 0.166666 0.309751 -4.76837e-07 0 -3.57628e-07
13 1 0.999986 0.666666 0.559751 1.19209e-06 0 0
14 1 0.499986 0.666666 0.559751 -5.96046e-07 0 0
15 1 0.249986 0.166666 0.559751 5.96046e-07 0 4.76837e-07
16 1 0.749986 0.166666 0.559751 -4.76837e-07 0 -2.38419e-07
17 1 0.249986 0.5 0.434751 -3.57628e-07 0 0
18 1 0.749986 0.5 0.434751 -1.19209e-07 0 -2.38419e-07
19 1 0.999986 1 0.434751 1.19209e-07 0 2.38419e-07
20 1 0.499986 1 0.434751 3.57628e-07 0 1.19209e-07
21 1 0.999986 0.666666 0.809751 -1.19209e-07 0 -1.19209e-07
22 1 0.249986 0.5 0.684751 -1.19209e-07 0 0
23 1 0.499986 0.666666 0.809751 1.19209e-07 0 0
24 1 0.749986 0.5 0.684751 -3.57628e-07 0 -3.57628e-07
25 1 0.999986 1 0.684751 -1.19209e-07 0 -2.38419e-07
26 1 0.249986 0.166666 0.809751 3.57628e-07 0 0
27 1 0.749986 0.166666 0.809751 -5.96046e-07 0 2.38419e-07
28 1 0.499986 1 0.684751 4.76837e-07 0 -2.38419e-07
29 1 0.249986 0.5 0.934751 0 0 1.19209e-07
30 1 0.749986 0.5 0.934751 3.57628e-07 0 3.57628e-07
31 1 0.999986 1 0.934751 -2.38419e-07 0 1.19209e-07
32 1 0.499986 1 0.934751 -1.19209e-07 0 0
