ITEM: TIMESTEP
0
ITEM: NUMBER OF ATOMS
32
ITEM: BOX BOUNDS xy xz yz pp pp pp
2.3402176666958421e-03 8.2299688072541279e+00 1.8377600249208239e+00
-1.8700970345103249e-02 2.2101578970345098e+01 0.0000000000000000e+00
8.6472273715375633e-03 5.1738187726284668e+00 0.0000000000000000e+00
ITEM: ATOMS id type xs ys zs fx fy fz
1 1 0.922426 0.336531 0.593597 0 0.00267786 -9.12395e-06
2 1 0.422426 0.336531 0.593597 0 0.00267963 -9.0881e-06
3 1 0.184357 0.295047 0.0935968 0 -0.00203686 7.53262e-06
4 1 0.684357 0.295047 0.0935968 0 -0.00203322 8.48005e-06
5 1 0.136474 0.461534 0.593597 0 0.00205506 -9.76796e-06
6 1 0.636474 0.461534 0.593597 0 0.00204999 -9.14884e-06
7 1 0.898406 0.420048 0.0935968 0 -0.00208718 9.23977e-06
8 1 0.398406 0.420048 0.0935968 0 -0.00208965 9.11572e-06
9 1 0.850525 0.586531 0.593597 0 0.00201649 -7.76938e-06
10 1 0.350524 0.586531 0.593597 0 0.00201653 -8.56674e-06
11 1 0.0645746 0.711528 0.593597 0 0.00206296 -6.21566e-06
12 1 0.564575 0.711528 0.593597 0 0.00205808 -6.3781e-06
13 1 0.826506 0.670045 0.0935969 0 -0.00256279 6.15857e-06
14 1 0.112455 0.545047 0.0935968 0 -0.00222225 8.87894e-06
15 1 0.612455 0.545047 0.0935968 0 -0.00221704 9.59301e-06
16 1 0.326505 0.670045 0.0935969 0 -0.00256292 6.68435e-06
17 1 0.778624 0.836529 0.593597 0 0.00908363 -3.83348e-06
18 1 0.278624 0.836529 0.593597 0 0.00908379 -3.75261e-06
19 1 0.992673 0.961528 0.593597 0 -0.382369 -2.3705e-06
20 1 0.492673 0.961528 0.593597 0 -0.38238 -2.69013e-06
21 1 0.0405538 0.795048 0.0935969 0 0.00521605 4.47563e-06
22 1 0.540554 0.795048 0.0935969 0 0.00521907 4.9271e-06
23 1 0.754605 0.920043 0.0935969 0 -0.695123 4.2531e-06
24 1 0.254605 0.920043 0.0935969 0 -0.695118 3.34614e-06
25 1 0.994329 0.0865253 0.593597 0 0.695407 -1.99165e-06
26 1 0.494329 0.0865253 0.593597 0 0.695413 -4.21594e-07
27 1 0.25626 0.0450412 0.093597 0 0.382393 8.22176e-07
28 1 0.75626 0.0450411 0.0935969 0 0.382402 8.40577e-07
29 1 0.208377 0.211528 0.593597 0 -0.00537969 -4.13646e-06
30 1 0.708377 0.211528 0.593597 0 -0.00538304 -5.04193e-06
31 1 0.970309 0.170044 0.0935969 0 -0.00913488 3.34163e-06
32 1 0.470308 0.170044 0.093597 0 -0.00913599 2.81208e-06
ITEM: TIMESTEP
12
ITEM: NUMBER OF ATOMS
32
ITEM: BOX BOUNDS xy xz yz pp pp pp
2.3402176666958421e-03 8.2299688072541279e+00 1.8377600249208239e+00
-1.8700970345103249e-02 2.2101578970345098e+01 0.0000000000000000e+00
8.6472273715375633e-03 5.1738187726284668e+00 0.0000000000000000e+00
ITEM: ATOMS id type xs ys zs fx fy fz
1 1 0.92173 0.338953 0.593597 0 -2.58867e-05 -1.24906e-06
2 1 0.421729 0.338953 0.593597 0 -2.52071e-05 1.79696e-07
3 1 0.183518 0.297962 0.0935971 0 -1.98619e-05 8.26376e-08
4 1 0.683518 0.297962 0.093597 0 -1.55797e-05 1.17211e-06
5 1 0.136371 0.461894 0.593597 0 1.90643e-05 -7.00737e-07
6 1 0.636371 0.461894 0.593597 0 2.18146e-05 7.57818e-07
7 1 0.897984 0.421516 0.0935971 0 2.49878e-05 8.77978e-07
8 1 0.397983 0.421516 0.0935971 0 2.53957e-05 -6.06018e-07
9 1 0.850948 0.585058 0.593597 0 -2.08301e-05 1.35269e-06
10 1 0.350948 0.585058 0.593597 0 -2.38507e-05 2.41159e-06
11 1 0.0654132 0.708612 0.593597 0 1.85776e-05 -9.41263e-08
12 1 0.565413 0.708612 0.593597 0 1.83066e-05 9.74062e-07
13 1 0.827203 0.667622 0.0935971 0 2.22224e-05 -7.63612e-07
14 1 0.112561 0.54468 0.0935971 0 -1.90036e-05 -3.55874e-07
15 1 0.612561 0.54468 0.0935972 0 -2.56644e-05 -2.20927e-06
16 1 0.327202 0.667622 0.0935972 0 2.51741e-05 -1.8254e-06
17 1 0.779561 0.83327 0.593597 0 -3.88287e-05 1.72662e-07
18 1 0.279561 0.83327 0.593597 0 -4.02469e-05 -9.70977e-08
19 1 0.992986 0.960439 0.593597 0 -3.20765e-05 1.0496e-06
20 1 0.492986 0.960439 0.593597 0 -3.17621e-05 -3.92906e-08
21 1 0.0419612 0.790155 0.093597 0 -3.29944e-06 4.29921e-07
22 1 0.541961 0.790155 0.0935971 0 4.64303e-06 6.23013e-08
23 1 0.75721 0.910984 0.0935971 0 -3.18402e-05 -3.00468e-07
24 1 0.25721 0.910984 0.0935971 0 -2.74871e-05 -7.78994e-07
25 1 0.991722 0.0955902 0.593597 0 3.34922e-05 -7.40978e-08
26 1 0.491721 0.0955901 0.593597 0 3.22689e-05 -1.4965e-07
27 1 0.255945 0.0461351 0.093597 0 3.04471e-05 2.08318e-07
28 1 0.755945 0.0461352 0.0935971 0 3.34664e-05 -1.06691e-08
29 1 0.20697 0.21642 0.593597 0 4.07958e-06 5.15105e-07
30 1 0.70697 0.21642 0.593597 0 -1.41677e-06 -8.29876e-07
31 1 0.969371 0.173304 0.0935971 0 3.37546e-05 2.03128e-07
32 1 0.46937 0.173304 0.0935971 0 3.51223e-05 -3.26184e-07
