ITEM: TIMESTEP
0
ITEM: NUMBER OF ATOMS
48
ITEM: BOX BOUNDS xy xz yz pp pp pp
-4.3559049367904663e+00 8.6067802309989929e+00 2.5094206929206848e+00
-9.4973444938659668e-03 9.3236122131347656e+00 -4.3438678383827209e+00
-2.8691649436950684e-02 1.9545819282531738e+01 7.1304261684417725e-02
ITEM: ATOMS id type xs ys zs fx fy fz
1 1 0.944368 0.16703 0.0320218 0 0 1.47469
2 1 0.495789 0.0738739 0.0528103 0 0 -0.0199146
3 1 0.49085 0.125314 0.657023 0 0 0.0011158
4 1 0.660705 0.948847 0.927808 0 0 -1.47468
5 1 0.351528 0.157156 0.802805 0 0 0.00403595
6 1 0.109284 0.0420026 0.90702 0 0 0.0199203
7 1 0.800103 0.250315 0.78202 0 0 -0.00385475
8 1 0.872134 0.208712 0.407029 0 0 0.0013752
9 1 0.0422764 0.0321465 0.677802 0 0 -0.00275993
10 1 0.732939 0.240498 0.552801 0 0 -0.00136757
11 1 0.80497 0.198895 0.17781 0 0 0.00384903
12 1 0.562797 0.0837297 0.282028 0 0 0.00275612
13 1 0.253545 0.292053 0.157025 0 0 -0.00404358
14 1 0.423561 0.115534 0.427803 0 0 -0.000156403
15 1 0.944368 0.500363 0.0320219 0 0 1.47467
16 1 0.495789 0.407207 0.0528103 0 0 -0.0199108
17 1 0.49085 0.458648 0.657023 0 0 0.0011158
18 1 0.660705 0.28218 0.927808 0 0 -1.47469
19 1 0.351528 0.49049 0.802805 0 0 0.00403595
20 1 0.109284 0.375336 0.90702 0 0 0.0199242
21 1 0.800103 0.583648 0.78202 0 0 -0.00385475
22 1 0.181513 0.333676 0.532027 0 0 0.000152588
23 1 0.872135 0.542046 0.407029 0 0 0.00136948
24 1 0.0422765 0.36548 0.677802 0 0 -0.0027523
25 1 0.732939 0.573831 0.552801 0 0 -0.00137138
26 1 0.114223 0.323895 0.302807 0 0 -0.00111389
27 1 0.80497 0.532228 0.17781 0 0 0.00385475
28 1 0.562797 0.417063 0.282028 0 0 0.00275993
29 1 0.253545 0.625387 0.157025 0 0 -0.00403976
30 1 0.423561 0.448867 0.427803 0 0 -0.000156403
31 1 0.944368 0.833696 0.0320219 0 0 1.47467
32 1 0.495789 0.740541 0.0528104 0 0 -0.0199242
33 1 0.49085 0.791981 0.657023 0 0 0.00111389
34 1 0.660705 0.615514 0.927808 0 0 -1.47467
35 1 0.351528 0.823823 0.802805 0 0 0.00404358
36 1 0.109284 0.708669 0.90702 0 0 0.0199242
37 1 0.800103 0.916981 0.78202 0 0 -0.00385475
38 1 0.181512 0.667009 0.532027 0 0 0.000150681
39 1 0.872134 0.875379 0.407029 0 0 0.00136948
40 1 0.0422761 0.698813 0.677802 0 0 -0.00276184
41 1 0.732938 0.907164 0.552801 0 0 -0.00136566
42 1 0.114223 0.657228 0.302807 0 0 -0.00111389
43 1 0.80497 0.865562 0.17781 0 0 0.00385284
44 1 0.562797 0.750396 0.282028 0 0 0.00275803
45 1 0.253546 0.95872 0.157026 0 0 -0.00404739
46 1 0.423561 0.782201 0.427803 0 0 -0.000150681
47 1 0.181512 0.000342385 0.532027 0 0 0.000150681
48 1 0.114223 0.990562 0.302807 0 0 -0.00111389
ITEM: TIMESTEP
1
ITEM: NUMBER OF ATOMS
48
ITEM: BOX BOUNDS xy xz yz pp pp pp
-4.3559049367904663e+00 8.6067802309989929e+00 2.5094206929206848e+00
-9.4973444938659668e-03 9.3236122131347656e+00 -4.3438678383827209e+00
-2.8691649436950684e-02 1.9545819282531738e+01 7.1304261684417725e-02
ITEM: ATOMS id type xs ys zs fx fy fz
1 1 0.948016 0.16699 0.0371305 0 0 0.652777
2 1 0.49574 0.0738745 0.0527413 0 0 -0.0968227
3 1 0.490853 0.125314 0.657027 0 0 -0.000141144
4 1 0.657057 0.948886 0.9227 0 0 -0.652777
5 1 0.351538 0.157156 0.802819 0 0 -0.0735855
6 1 0.109333 0.0420021 0.907089 0 0 0.0968208
7 1 0.800094 0.250315 0.782007 0 0 -0.0565987
8 1 0.872138 0.208712 0.407034 0 0 -5.72205e-05
9 1 0.0422696 0.0321466 0.677792 0 0 -0.00606346
10 1 0.732935 0.240498 0.552796 0 0 6.10352e-05
11 1 0.804979 0.198895 0.177823 0 0 0.0565968
12 1 0.562804 0.0837296 0.282038 0 0 0.00606155
13 1 0.253535 0.292053 0.157011 0 0 0.0735855
14 1 0.423561 0.115534 0.427803 0 0 -0.00111389
15 1 0.948016 0.500324 0.0371305 0 0 0.652779
16 1 0.49574 0.407208 0.0527414 0 0 -0.0968208
17 1 0.490853 0.458648 0.657027 0 0 -0.000133514
18 1 0.657056 0.28222 0.9227 0 0 -0.652779
19 1 0.351538 0.49049 0.802819 0 0 -0.0735817
20 1 0.109333 0.375335 0.907089 0 0 0.0968227
21 1 0.800094 0.583648 0.782007 0 0 -0.0565948
22 1 0.181513 0.333676 0.532028 0 0 0.00112152
23 1 0.872138 0.542045 0.407034 0 0 -6.48499e-05
24 1 0.0422697 0.36548 0.677792 0 0 -0.00606155
25 1 0.732935 0.573831 0.552796 0 0 5.91278e-05
26 1 0.11422 0.323895 0.302803 0 0 0.000137329
27 1 0.804979 0.532228 0.177823 0 0 0.0565968
28 1 0.562804 0.417063 0.282038 0 0 0.00606155
29 1 0.253535 0.625387 0.157011 0 0 0.0735855
30 1 0.42356 0.448867 0.427803 0 0 -0.00111771
31 1 0.948016 0.833657 0.0371306 0 0 0.652777
32 1 0.49574 0.740541 0.0527414 0 0 -0.0968208
33 1 0.490853 0.791981 0.657027 0 0 -0.000137329
34 1 0.657056 0.615553 0.9227 0 0 -0.652782
35 1 0.351538 0.823823 0.802819 0 0 -0.0735817
36 1 0.109333 0.708669 0.907089 0 0 0.096817
37 1 0.800094 0.916982 0.782007 0 0 -0.0565948
38 1 0.181513 0.667009 0.532028 0 0 0.00111771
39 1 0.872138 0.875379 0.407034 0 0 -5.72205e-05
40 1 0.0422692 0.698813 0.677792 0 0 -0.00605583
41 1 0.732935 0.907164 0.552796 0 0 6.29425e-05
42 1 0.11422 0.657229 0.302803 0 0 0.000137329
43 1 0.80498 0.865561 0.177823 0 0 0.0565929
44 1 0.562804 0.750396 0.282038 0 0 0.00605583
45 1 0.253536 0.95872 0.157011 0 0 0.0735836
46 1 0.42356 0.782201 0.427803 0 0 -0.00112152
47 1 0.181512 0.000342381 0.532028 0 0 0.0011158
48 1 0.11422 0.990562 0.302803 0 0 0.000139236
ITEM: TIMESTEP
2
ITEM: NUMBER OF ATOMS
48
ITEM: BOX BOUNDS xy xz yz pp pp pp
-4.3559049367904663e+00 8.6067802309989929e+00 2.5094206929206848e+00
-9.4973444938659668e-03 9.3236122131347656e+00 -4.3438678383827209e+00
-2.8691649436950684e-02 1.9545819282531738e+01 7.1304261684417725e-02
ITEM: ATOMS id type xs ys zs fx fy fz
1 1 0.951665 0.166951 0.0422392 0 0 0.0179977
2 1 0.495198 0.0738803 0.0519836 0 0 -0.120909
3 1 0.490852 0.125314 0.657026 0 0 -0.0123329
4 1 0.653408 0.948926 0.917591 0 0 -0.0179958
5 1 0.351126 0.157161 0.802243 0 0 -0.140005
6 1 0.109874 0.0419962 0.907847 0 0 0.120911
7 1 0.799777 0.250318 0.781564 0 0 -0.0975227
8 1 0.872137 0.208712 0.407034 0 0 5.91278e-05
9 1 0.0422357 0.0321469 0.677745 0 0 -0.018158
10 1 0.732936 0.240498 0.552797 0 0 -5.91278e-05
11 1 0.805296 0.198891 0.178266 0 0 0.0975285
12 1 0.562838 0.0837292 0.282085 0 0 0.0181599
13 1 0.253947 0.292049 0.157587 0 0 0.139997
14 1 0.423554 0.115534 0.427794 0 0 -0.000310898
15 1 0.951665 0.500284 0.0422392 0 0 0.0179901
16 1 0.495199 0.407214 0.0519836 0 0 -0.120911
17 1 0.490852 0.458648 0.657026 0 0 -0.0123329
18 1 0.653408 0.282259 0.917591 0 0 -0.0179977
19 1 0.351126 0.490494 0.802243 0 0 -0.140001
20 1 0.109874 0.37533 0.907847 0 0 0.120909
21 1 0.799777 0.583652 0.781564 0 0 -0.0975304
22 1 0.181519 0.333676 0.532036 0 0 0.000307083
23 1 0.872138 0.542045 0.407034 0 0 5.91278e-05
24 1 0.0422358 0.36548 0.677745 0 0 -0.0181503
25 1 0.732936 0.573831 0.552797 0 0 -6.29425e-05
26 1 0.114221 0.323895 0.302804 0 0 0.0123386
27 1 0.805296 0.532225 0.178266 0 0 0.0975304
28 1 0.562837 0.417063 0.282085 0 0 0.018158
29 1 0.253947 0.625382 0.157587 0 0 0.140001
30 1 0.423554 0.448868 0.427794 0 0 -0.000314713
31 1 0.951665 0.833618 0.0422392 0 0 0.017992
32 1 0.495199 0.740547 0.0519836 0 0 -0.120913
33 1 0.490852 0.791981 0.657026 0 0 -0.0123329
34 1 0.653408 0.615592 0.917591 0 0 -0.017992
35 1 0.351126 0.823827 0.802243 0 0 -0.139999
36 1 0.109874 0.708663 0.907847 0 0 0.120914
37 1 0.799777 0.916985 0.781564 0 0 -0.0975285
38 1 0.181519 0.667009 0.532036 0 0 0.000305176
39 1 0.872137 0.875379 0.407034 0 0 6.10352e-05
40 1 0.0422354 0.698814 0.677745 0 0 -0.0181561
41 1 0.732935 0.907164 0.552797 0 0 -5.72205e-05
42 1 0.114221 0.657228 0.302804 0 0 0.0123348
43 1 0.805296 0.865558 0.178266 0 0 0.0975266
44 1 0.562838 0.750396 0.282085 0 0 0.018158
45 1 0.253947 0.958716 0.157587 0 0 0.139999
46 1 0.423554 0.782201 0.427794 0 0 -0.000310898
47 1 0.181519 0.000342314 0.532036 0 0 0.00030899
48 1 0.114221 0.990562 0.302805 0 0 0.0123367
ITEM: TIMESTEP
3
ITEM: NUMBER OF ATOMS
48
ITEM: BOX BOUNDS xy xz yz pp pp pp
-4.3559049367904663e+00 8.6067802309989929e+00 2.5094206929206848e+00
-9.4973444938659668e-03 9.3236122131347656e+00 -4.3438678383827209e+00
-2.8691649436950684e-02 1.9545819282531738e+01 7.1304261684417725e-02
ITEM: ATOMS id type xs ys zs fx fy fz
1 1 0.95201 0.166947 0.0427231 0 0 0.080061
2 1 0.493549 0.0738981 0.0496738 0 0 0.019001
3 1 0.490685 0.125316 0.656792 0 0 -0.0511227
4 1 0.653063 0.948929 0.917107 0 0 -0.0800705
5 1 0.349222 0.157181 0.799577 0 0 0.00656128
6 1 0.111524 0.0419784 0.910156 0 0 -0.0189991
7 1 0.79845 0.250333 0.779706 0 0 0.0117378
8 1 0.872138 0.208712 0.407035 0 0 0.00807571
9 1 0.0419893 0.0321496 0.6774 0 0 -0.0548325
10 1 0.732935 0.240498 0.552795 0 0 -0.00806427
11 1 0.806623 0.198877 0.180125 0 0 -0.011734
12 1 0.563084 0.0837266 0.28243 0 0 0.0548267
13 1 0.255851 0.292028 0.160253 0 0 -0.00655746
14 1 0.42355 0.115534 0.427788 0 0 0.00813866
15 1 0.95201 0.500281 0.042723 0 0 0.0800762
16 1 0.493549 0.407231 0.0496738 0 0 0.0189972
17 1 0.490685 0.45865 0.656792 0 0 -0.0511227
18 1 0.653062 0.282263 0.917107 0 0 -0.0800629
19 1 0.349222 0.490515 0.799577 0 0 0.00655746
20 1 0.111524 0.375312 0.910156 0 0 -0.0190029
21 1 0.79845 0.583666 0.779705 0 0 0.0117378
22 1 0.181524 0.333675 0.532042 0 0 -0.00814247
23 1 0.872138 0.542045 0.407035 0 0 0.00806999
24 1 0.0419895 0.365483 0.6774 0 0 -0.0548363
25 1 0.732935 0.573831 0.552795 0 0 -0.00806427
26 1 0.114388 0.323893 0.303038 0 0 0.0511169
27 1 0.806623 0.53221 0.180125 0 0 -0.0117397
28 1 0.563084 0.41706 0.28243 0 0 0.0548306
29 1 0.255851 0.625362 0.160253 0 0 -0.00656319
30 1 0.42355 0.448868 0.427788 0 0 0.00814438
31 1 0.95201 0.833614 0.042723 0 0 0.0800724
32 1 0.493549 0.740565 0.0496738 0 0 0.019001
33 1 0.490685 0.791983 0.656792 0 0 -0.0511189
34 1 0.653062 0.615596 0.917107 0 0 -0.0800762
35 1 0.349222 0.823848 0.799577 0 0 0.00655937
36 1 0.111524 0.708645 0.910156 0 0 -0.019001
37 1 0.79845 0.916999 0.779705 0 0 0.0117397
38 1 0.181523 0.667009 0.532042 0 0 -0.00814056
39 1 0.872138 0.875379 0.407035 0 0 0.00806618
40 1 0.041989 0.698816 0.6774 0 0 -0.0548306
41 1 0.732935 0.907164 0.552796 0 0 -0.00806999
42 1 0.114388 0.657227 0.303038 0 0 0.0511246
43 1 0.806623 0.865544 0.180125 0 0 -0.0117378
44 1 0.563084 0.750393 0.28243 0 0 0.0548306
45 1 0.255851 0.958695 0.160253 0 0 -0.00655365
46 1 0.42355 0.782201 0.427788 0 0 0.00814247
47 1 0.181523 0.000342267 0.532042 0 0 -0.00813866
48 1 0.114388 0.99056 0.303038 0 0 0.0511131
ITEM: TIMESTEP
4
ITEM: NUMBER OF ATOMS
48
ITEM: BOX BOUNDS xy xz yz pp pp pp
-4.3559049367904663e+00 8.6067802309989929e+00 2.5094206929206848e+00
-9.4973444938659668e-03 9.3236122131347656e+00 -4.3438678383827209e+00
-2.8691649436950684e-02 1.9545819282531738e+01 7.1304261684417725e-02
ITEM: ATOMS id type xs ys zs fx fy fz
1 1 0.952983 0.166937 0.0440847 0 0 -0.0461769
2 1 0.493335 0.0739004 0.0493746 0 0 0.0227661
3 1 0.490078 0.125323 0.655942 0 0 -0.0245266
4 1 0.65209 0.94894 0.915745 0 0 0.0461845
5 1 0.348806 0.157186 0.798994 0 0 -0.0105972
6 1 0.111737 0.0419761 0.910456 0 0 -0.0227757
7 1 0.798239 0.250335 0.77941 0 0 -0.011488
8 1 0.872227 0.208711 0.40716 0 0 0.0184155
9 1 0.0413208 0.0321568 0.676464 0 0 -0.0244617
10 1 0.732846 0.240499 0.552671 0 0 -0.0184193
11 1 0.806834 0.198875 0.18042 0 0 0.0114822
12 1 0.563752 0.0837194 0.283366 0 0 0.0244675
13 1 0.256267 0.292024 0.160836 0 0 0.0106049
14 1 0.423639 0.115533 0.427912 0 0 0.0190983
15 1 0.952983 0.50027 0.0440848 0 0 -0.0461884
16 1 0.493335 0.407234 0.0493746 0 0 0.0227737
17 1 0.490078 0.458656 0.655942 0 0 -0.0245228
18 1 0.65209 0.282273 0.915745 0 0 0.0461845
19 1 0.348806 0.490519 0.798994 0 0 -0.0105953
20 1 0.111738 0.375309 0.910455 0 0 -0.0227718
21 1 0.798239 0.583668 0.77941 0 0 -0.0114861
22 1 0.181435 0.333676 0.531918 0 0 -0.0190945
23 1 0.872228 0.542045 0.40716 0 0 0.0184135
24 1 0.041321 0.36549 0.676464 0 0 -0.0244656
25 1 0.732846 0.573832 0.55267 0 0 -0.0184174
26 1 0.114995 0.323887 0.303888 0 0 0.0245247
27 1 0.806834 0.532208 0.18042 0 0 0.011488
28 1 0.563752 0.417053 0.283366 0 0 0.0244675
29 1 0.256267 0.625357 0.160836 0 0 0.0105972
30 1 0.423638 0.448867 0.427912 0 0 0.0190983
31 1 0.952983 0.833603 0.0440848 0 0 -0.0461864
32 1 0.493335 0.740567 0.0493746 0 0 0.0227699
33 1 0.490078 0.791989 0.655942 0 0 -0.0245247
34 1 0.65209 0.615607 0.915745 0 0 0.0461826
35 1 0.348806 0.823852 0.798994 0 0 -0.0105972
36 1 0.111738 0.708643 0.910456 0 0 -0.0227737
37 1 0.798239 0.917002 0.77941 0 0 -0.0114899
38 1 0.181434 0.66701 0.531918 0 0 -0.0190907
39 1 0.872228 0.875378 0.40716 0 0 0.0184135
40 1 0.0413205 0.698824 0.676464 0 0 -0.0244694
41 1 0.732845 0.907165 0.552671 0 0 -0.0184212
42 1 0.114995 0.65722 0.303888 0 0 0.0245285
43 1 0.806834 0.865541 0.18042 0 0 0.011488
44 1 0.563752 0.750386 0.283366 0 0 0.0244675
45 1 0.256267 0.958691 0.160836 0 0 0.0105953
46 1 0.423639 0.7822 0.427912 0 0 0.0190945
47 1 0.181434 0.000343224 0.531918 0 0 -0.0190907
48 1 0.114995 0.990553 0.303888 0 0 0.0245247
ITEM: TIMESTEP
5
ITEM: NUMBER OF ATOMS
48
ITEM: BOX BOUNDS xy xz yz pp pp pp
-4.3559049367904663e+00 8.6067802309989929e+00 2.5094206929206848e+00
-9.4973444938659668e-03 9.3236122131347656e+00 -4.3438678383827209e+00
-2.8691649436950684e-02 1.9545819282531738e+01 7.1304261684417725e-02
ITEM: ATOMS id type xs ys zs fx fy fz
1 1 0.952808 0.166939 0.0438403 0 0 -0.000234604
2 1 0.49362 0.0738973 0.0497733 0 0 0.0211716
3 1 0.489145 0.125333 0.654636 0 0 0.00915527
4 1 0.652265 0.948938 0.91599 0 0 0.000236511
5 1 0.348288 0.157191 0.798268 0 0 -0.00343132
6 1 0.111453 0.0419792 0.910057 0 0 -0.0211716
7 1 0.797857 0.250339 0.778875 0 0 -0.0145187
8 1 0.872654 0.208707 0.407757 0 0 0.00718117
9 1 0.0403433 0.0321673 0.675095 0 0 0.0126781
10 1 0.732419 0.240503 0.552074 0 0 -0.00718307
11 1 0.807216 0.198871 0.180955 0 0 0.0145168
12 1 0.56473 0.0837088 0.284735 0 0 -0.0126762
13 1 0.256785 0.292018 0.161562 0 0 0.0034256
14 1 0.424078 0.115528 0.428527 0 0 0.00893211
15 1 0.952808 0.500272 0.0438403 0 0 -0.000238419
16 1 0.49362 0.407231 0.0497735 0 0 0.0211754
17 1 0.489145 0.458666 0.654636 0 0 0.00915146
18 1 0.652265 0.282271 0.91599 0 0 0.000232697
19 1 0.348288 0.490525 0.798268 0 0 -0.00343704
20 1 0.111453 0.375313 0.910057 0 0 -0.0211658
21 1 0.797857 0.583672 0.778875 0 0 -0.0145168
22 1 0.180996 0.333681 0.531303 0 0 -0.0089283
23 1 0.872654 0.54204 0.407757 0 0 0.0071888
24 1 0.0403434 0.365501 0.675095 0 0 0.0126839
25 1 0.732419 0.573836 0.552073 0 0 -0.00719261
26 1 0.115928 0.323877 0.305194 0 0 -0.00914955
27 1 0.807216 0.532204 0.180955 0 0 0.0145149
28 1 0.56473 0.417042 0.284735 0 0 -0.0126839
29 1 0.256785 0.625352 0.161562 0 0 0.00343704
30 1 0.424078 0.448862 0.428527 0 0 0.00893211
31 1 0.952808 0.833605 0.0438403 0 0 -0.000238419
32 1 0.49362 0.740564 0.0497734 0 0 0.0211716
33 1 0.489145 0.791999 0.654636 0 0 0.00915146
34 1 0.652264 0.615605 0.91599 0 0 0.00025177
35 1 0.348288 0.823858 0.798268 0 0 -0.00343513
36 1 0.111453 0.708646 0.910057 0 0 -0.0211697
37 1 0.797857 0.917006 0.778875 0 0 -0.0145149
38 1 0.180995 0.667015 0.531303 0 0 -0.00893593
39 1 0.872654 0.875373 0.407757 0 0 0.00718689
40 1 0.0403429 0.698834 0.675095 0 0 0.0126781
41 1 0.732419 0.90717 0.552073 0 0 -0.00717926
42 1 0.115928 0.65721 0.305194 0 0 -0.0091629
43 1 0.807216 0.865537 0.180955 0 0 0.0145149
44 1 0.56473 0.750376 0.284735 0 0 -0.012682
45 1 0.256785 0.958685 0.161562 0 0 0.00342751
46 1 0.424078 0.782195 0.428527 0 0 0.00893974
47 1 0.180995 0.000347957 0.531303 0 0 -0.00894165
48 1 0.115928 0.990543 0.305194 0 0 -0.00914764
ITEM: TIMESTEP
6
ITEM: NUMBER OF ATOMS
48
ITEM: BOX BOUNDS xy xz yz pp pp pp
-4.3559049367904663e+00 8.6067802309989929e+00 2.5094206929206848e+00
-9.4973444938659668e-03 9.3236122131347656e+00 -4.3438678383827209e+00
-2.8691649436950684e-02 1.9545819282531738e+01 7.1304261684417725e-02
ITEM: ATOMS id type xs ys zs fx fy fz
1 1 0.952791 0.166939 0.0438166 0 0 0.00368118
2 1 0.493915 0.0738941 0.0501862 0 0 0.00739479
3 1 0.489189 0.125332 0.654696 0 0 -0.00356102
4 1 0.652282 0.948938 0.916014 0 0 -0.00369072
5 1 0.348202 0.157192 0.798149 0 0 0.0024395
6 1 0.111158 0.0419824 0.909644 0 0 -0.00738907
7 1 0.79764 0.250341 0.778571 0 0 -0.00162888
8 1 0.87278 0.208705 0.407934 0 0 -0.00772095
9 1 0.0404281 0.0321664 0.675214 0 0 -0.00207329
10 1 0.732293 0.240505 0.551897 0 0 0.00772667
11 1 0.807433 0.198868 0.181259 0 0 0.00162888
12 1 0.564645 0.0837097 0.284616 0 0 0.00206947
13 1 0.256871 0.292017 0.161682 0 0 -0.00244331
14 1 0.424228 0.115527 0.428737 0 0 -0.00674629
15 1 0.952791 0.500272 0.0438164 0 0 0.00370407
16 1 0.493915 0.407227 0.0501864 0 0 0.00739479
17 1 0.489189 0.458666 0.654696 0 0 -0.00356483
18 1 0.652281 0.282271 0.916014 0 0 -0.00369263
19 1 0.348202 0.490526 0.798148 0 0 0.00244904
20 1 0.111158 0.375316 0.909644 0 0 -0.00739479
21 1 0.79764 0.583675 0.778571 0 0 -0.00162315
22 1 0.180846 0.333683 0.531093 0 0 0.00674248
23 1 0.87278 0.542039 0.407934 0 0 -0.00772285
24 1 0.0404283 0.3655 0.675214 0 0 -0.00207901
25 1 0.732293 0.573838 0.551896 0 0 0.00772667
26 1 0.115885 0.323877 0.305134 0 0 0.00356293
27 1 0.807433 0.532202 0.181259 0 0 0.00162888
28 1 0.564645 0.417043 0.284616 0 0 0.00207901
29 1 0.256871 0.625351 0.161682 0 0 -0.00244522
30 1 0.424228 0.44886 0.428737 0 0 -0.00674629
31 1 0.952791 0.833605 0.0438165 0 0 0.00369835
32 1 0.493915 0.740561 0.0501863 0 0 0.00739288
33 1 0.489188 0.791999 0.654696 0 0 -0.00357246
34 1 0.652282 0.615604 0.916014 0 0 -0.00370216
35 1 0.348202 0.823859 0.798148 0 0 0.0024395
36 1 0.111158 0.708649 0.909644 0 0 -0.00739479
37 1 0.79764 0.917008 0.778571 0 0 -0.00163269
38 1 0.180845 0.667016 0.531093 0 0 0.00674629
39 1 0.87278 0.875372 0.407934 0 0 -0.00772095
40 1 0.0404277 0.698833 0.675214 0 0 -0.00206757
41 1 0.732293 0.907171 0.551897 0 0 0.00772095
42 1 0.115884 0.657211 0.305134 0 0 0.00356674
43 1 0.807433 0.865535 0.181259 0 0 0.00162888
44 1 0.564645 0.750376 0.284616 0 0 0.00206757
45 1 0.256871 0.958684 0.161682 0 0 -0.00243759
46 1 0.424228 0.782194 0.428737 0 0 -0.00675201
47 1 0.180845 0.000349574 0.531093 0 0 0.00674629
48 1 0.115885 0.990544 0.305134 0 0 0.00356674
ITEM: TIMESTEP
7
ITEM: NUMBER OF ATOMS
48
ITEM: BOX BOUNDS xy xz yz pp pp pp
-4.3559049367904663e+00 8.6067802309989929e+00 2.5094206929206848e+00
-9.4973444938659668e-03 9.3236122131347656e+00 -4.3438678383827209e+00
-2.8691649436950684e-02 1.9545819282531738e+01 7.1304261684417725e-02
ITEM: ATOMS id type xs ys zs fx fy fz
1 1 0.95283 0.166938 0.0438707 0 0 -0.00345421
2 1 0.494048 0.0738927 0.050373 0 0 -0.000494003
3 1 0.489156 0.125333 0.65465 0 0 -0.000680923
4 1 0.652243 0.948938 0.915959 0 0 0.00345993
5 1 0.348215 0.157192 0.798167 0 0 -0.00153351
6 1 0.111024 0.0419838 0.909457 0 0 0.000494003
7 1 0.797584 0.250342 0.778493 0 0 -0.00118065
8 1 0.872715 0.208706 0.407842 0 0 -0.00114822
9 1 0.0404192 0.0321665 0.675201 0 0 -0.000225067
10 1 0.732359 0.240504 0.551988 0 0 0.00114059
11 1 0.807489 0.198868 0.181337 0 0 0.00118637
12 1 0.564654 0.0837097 0.284629 0 0 0.00022316
13 1 0.256858 0.292018 0.161663 0 0 0.00154305
14 1 0.424177 0.115527 0.428666 0 0 -0.000862122
15 1 0.95283 0.500272 0.0438708 0 0 -0.00346565
16 1 0.494048 0.407226 0.0503732 0 0 -0.000495911
17 1 0.489156 0.458666 0.65465 0 0 -0.000669479
18 1 0.652243 0.282272 0.915959 0 0 0.00345421
19 1 0.348215 0.490526 0.798167 0 0 -0.00154495
20 1 0.111024 0.375317 0.909457 0 0 0.000497818
21 1 0.797584 0.583675 0.778494 0 0 -0.00118446
22 1 0.180896 0.333682 0.531164 0 0 0.000864029
23 1 0.872715 0.542039 0.407842 0 0 -0.00114441
24 1 0.0404193 0.3655 0.675201 0 0 -0.000219345
25 1 0.732358 0.573837 0.551988 0 0 0.00115013
26 1 0.115917 0.323877 0.30518 0 0 0.000673294
27 1 0.807489 0.532201 0.181337 0 0 0.00118446
28 1 0.564654 0.417043 0.284629 0 0 0.000221252
29 1 0.256858 0.625351 0.161663 0 0 0.00153923
30 1 0.424177 0.448861 0.428666 0 0 -0.000865936
31 1 0.95283 0.833605 0.0438708 0 0 -0.00346184
32 1 0.494048 0.740559 0.0503731 0 0 -0.000492096
33 1 0.489155 0.791999 0.65465 0 0 -0.000671387
34 1 0.652243 0.615605 0.915959 0 0 0.00345802
35 1 0.348215 0.823859 0.798167 0 0 -0.00153542
36 1 0.111024 0.70865 0.909457 0 0 0.000494003
37 1 0.797584 0.917009 0.778493 0 0 -0.00118065
38 1 0.180896 0.667016 0.531164 0 0 0.000862122
39 1 0.872715 0.875373 0.407842 0 0 -0.00114822
40 1 0.0404189 0.698833 0.675201 0 0 -0.00022316
41 1 0.732358 0.90717 0.551988 0 0 0.00114441
42 1 0.115917 0.65721 0.30518 0 0 0.000673294
43 1 0.807489 0.865534 0.181337 0 0 0.00118256
44 1 0.564654 0.750376 0.284629 0 0 0.000226974
45 1 0.256858 0.958684 0.161664 0 0 0.00153351
46 1 0.424177 0.782194 0.428666 0 0 -0.000865936
47 1 0.180896 0.000349029 0.531164 0 0 0.000862122
48 1 0.115917 0.990544 0.30518 0 0 0.000679016
ITEM: TIMESTEP
8
ITEM: NUMBER OF ATOMS
48
ITEM: BOX BOUNDS xy xz yz pp pp pp
-4.3559049367904663e+00 8.6067802309989929e+00 2.5094206929206848e+00
-9.4973444938659668e-03 9.3236122131347656e+00 -4.3438678383827209e+00
-2.8691649436950684e-02 1.9545819282531738e+01 7.1304261684417725e-02
ITEM: ATOMS id type xs ys zs fx fy fz
1 1 0.952808 0.166939 0.0438403 0 0 0.000183105
2 1 0.494053 0.0738926 0.0503794 0 0 -9.15527e-05
3 1 0.489149 0.125333 0.654641 0 0 -0.000249863
4 1 0.652265 0.948938 0.91599 0 0 -0.000183105
5 1 0.348205 0.157192 0.798153 0 0 -0.00037384
6 1 0.11102 0.0419839 0.909451 0 0 9.53674e-05
7 1 0.797573 0.250342 0.778477 0 0 -0.000143051
8 1 0.872703 0.208706 0.407825 0 0 8.7738e-05
9 1 0.0404171 0.0321665 0.675198 0 0 -6.29425e-05
10 1 0.73237 0.240504 0.552005 0 0 -8.58307e-05
11 1 0.8075 0.198868 0.181353 0 0 0.000135422
12 1 0.564656 0.0837096 0.284632 0 0 6.48499e-05
13 1 0.256868 0.292017 0.161677 0 0 0.000375748
14 1 0.424168 0.115527 0.428654 0 0 0.000240326
15 1 0.952808 0.500272 0.0438403 0 0 0.000177383
16 1 0.494053 0.407226 0.0503796 0 0 -0.000101089
17 1 0.489149 0.458666 0.654641 0 0 -0.00025177
18 1 0.652264 0.282271 0.91599 0 0 -0.000177383
19 1 0.348205 0.490526 0.798153 0 0 -0.00037384
20 1 0.11102 0.375317 0.909451 0 0 9.53674e-05
21 1 0.797573 0.583676 0.778477 0 0 -0.000143051
22 1 0.180905 0.333682 0.531177 0 0 -0.000238419
23 1 0.872703 0.542039 0.407825 0 0 8.2016e-05
24 1 0.0404172 0.3655 0.675199 0 0 -6.48499e-05
25 1 0.73237 0.573837 0.552005 0 0 -8.39233e-05
26 1 0.115924 0.323877 0.305189 0 0 0.000247955
27 1 0.8075 0.532201 0.181353 0 0 0.000143051
28 1 0.564656 0.417043 0.284632 0 0 6.48499e-05
29 1 0.256868 0.625351 0.161677 0 0 0.000379562
30 1 0.424168 0.448861 0.428654 0 0 0.000238419
31 1 0.952808 0.833605 0.0438403 0 0 0.000179291
32 1 0.494053 0.740559 0.0503794 0 0 -9.53674e-05
33 1 0.489149 0.791999 0.654641 0 0 -0.000246048
34 1 0.652264 0.615605 0.91599 0 0 -0.000173569
35 1 0.348205 0.823859 0.798153 0 0 -0.00037384
36 1 0.11102 0.708651 0.909451 0 0 9.34601e-05
37 1 0.797573 0.917009 0.778477 0 0 -0.000141144
38 1 0.180905 0.667016 0.531177 0 0 -0.000234604
39 1 0.872703 0.875373 0.407825 0 0 8.58307e-05
40 1 0.0404168 0.698833 0.675198 0 0 -6.86646e-05
41 1 0.73237 0.90717 0.552005 0 0 -8.39233e-05
42 1 0.115924 0.65721 0.305189 0 0 0.000244141
43 1 0.8075 0.865534 0.181353 0 0 0.000144958
44 1 0.564656 0.750376 0.284632 0 0 6.67572e-05
45 1 0.256868 0.958684 0.161677 0 0 0.00037384
46 1 0.424168 0.782194 0.428654 0 0 0.000234604
47 1 0.180905 0.000348932 0.531177 0 0 -0.000240326
48 1 0.115924 0.990543 0.305189 0 0 0.000247955
ITEM: TIMESTEP
9
ITEM: NUMBER OF ATOMS
48
ITEM: BOX BOUNDS xy xz yz pp pp pp
-4.3559049367904663e+00 8.6067802309989929e+00 2.5094206929206848e+00
-9.4973444938659668e-03 9.3236122131347656e+00 -4.3438678383827209e+00
-2.8691649436950684e-02 1.9545819282531738e+01 7.1304261684417725e-02
ITEM: ATOMS id type xs ys zs fx fy fz
1 1 0.952811 0.166939 0.0438448 0 0 9.91821e-05
2 1 0.494051 0.0738927 0.0503766 0 0 0.000133514
3 1 0.489143 0.125333 0.654632 0 0 -0.000154495
4 1 0.652261 0.948938 0.915985 0 0 -9.53674e-05
5 1 0.348196 0.157192 0.79814 0 0 0.00012207
6 1 0.111022 0.0419838 0.909454 0 0 -0.000137329
7 1 0.797569 0.250342 0.778472 0 0 -5.14984e-05
8 1 0.872704 0.208706 0.407827 0 0 -7.62939e-06
9 1 0.0404155 0.0321666 0.675196 0 0 -0.00028801
10 1 0.732369 0.240504 0.552003 0 0 3.8147e-06
11 1 0.807504 0.198868 0.181358 0 0 5.72205e-05
12 1 0.564658 0.0837096 0.284634 0 0 0.000284195
13 1 0.256877 0.292017 0.161691 0 0 -0.000131607
14 1 0.424174 0.115527 0.428661 0 0 -5.14984e-05
15 1 0.952811 0.500272 0.0438447 0 0 0.000120163
16 1 0.494051 0.407226 0.0503765 0 0 0.000135422
17 1 0.489143 0.458666 0.654632 0 0 -0.000148773
18 1 0.652261 0.282271 0.915985 0 0 -0.000102997
19 1 0.348196 0.490526 0.79814 0 0 0.0001297
20 1 0.111022 0.375317 0.909454 0 0 -0.000133514
21 1 0.797569 0.583676 0.778472 0 0 -4.3869e-05
22 1 0.1809 0.333682 0.531169 0 0 4.57764e-05
23 1 0.872704 0.542039 0.407827 0 0 -5.72205e-06
24 1 0.0404156 0.3655 0.675196 0 0 -0.000289917
25 1 0.732369 0.573837 0.552003 0 0 5.72205e-06
26 1 0.11593 0.323877 0.305198 0 0 0.00015831
27 1 0.807504 0.532201 0.181358 0 0 4.76837e-05
28 1 0.564658 0.417043 0.284634 0 0 0.000289917
29 1 0.256877 0.625351 0.161691 0 0 -0.000139236
30 1 0.424173 0.448861 0.428661 0 0 -4.57764e-05
31 1 0.952811 0.833605 0.0438447 0 0 0.000106812
32 1 0.494051 0.740559 0.0503766 0 0 0.000133514
33 1 0.489143 0.791999 0.654632 0 0 -0.000152588
34 1 0.652261 0.615605 0.915986 0 0 -0.000123978
35 1 0.348196 0.823859 0.79814 0 0 0.000131607
36 1 0.111022 0.708651 0.909454 0 0 -0.000135422
37 1 0.797569 0.917009 0.778472 0 0 -4.95911e-05
38 1 0.1809 0.667016 0.531169 0 0 3.8147e-05
39 1 0.872704 0.875373 0.407827 0 0 -7.62939e-06
40 1 0.040415 0.698833 0.675196 0 0 -0.000276566
41 1 0.732369 0.90717 0.552003 0 0 1.90735e-06
42 1 0.11593 0.65721 0.305198 0 0 0.000165939
43 1 0.807504 0.865534 0.181358 0 0 4.3869e-05
44 1 0.564658 0.750376 0.284634 0 0 0.000286102
45 1 0.256877 0.958684 0.161691 0 0 -0.000125885
46 1 0.424173 0.782194 0.428661 0 0 -4.57764e-05
47 1 0.180899 0.000348989 0.531169 0 0 4.95911e-05
48 1 0.11593 0.990543 0.305198 0 0 0.000154495
ITEM: TIMESTEP
10
ITEM: NUMBER OF ATOMS
48
ITEM: BOX BOUNDS xy xz yz pp pp pp
-4.3559049367904663e+00 8.6067802309989929e+00 2.5094206929206848e+00
-9.4973444938659668e-03 9.3236122131347656e+00 -4.3438678383827209e+00
-2.8691649436950684e-02 1.9545819282531738e+01 7.1304261684417725e-02
ITEM: ATOMS id type xs ys zs fx fy fz
1 1 0.952814 0.166939 0.0438479 0 0 -0.000177383
2 1 0.494052 0.0738926 0.0503785 0 0 3.62396e-05
3 1 0.489139 0.125333 0.654627 0 0 3.43323e-05
4 1 0.652259 0.948938 0.915982 0 0 0.000175476
5 1 0.348195 0.157192 0.798139 0 0 -4.57764e-05
6 1 0.11102 0.0419839 0.909452 0 0 -3.8147e-05
7 1 0.797567 0.250342 0.778469 0 0 -0.000118256
8 1 0.872705 0.208706 0.407828 0 0 9.15527e-05
9 1 0.040411 0.0321666 0.67519 0 0 -3.8147e-05
10 1 0.732369 0.240504 0.552003 0 0 -9.34601e-05
11 1 0.807506 0.198868 0.181361 0 0 0.000123978
12 1 0.564662 0.0837096 0.28464 0 0 3.8147e-05
13 1 0.256878 0.292017 0.161692 0 0 5.34058e-05
14 1 0.424174 0.115527 0.428662 0 0 2.67029e-05
15 1 0.952814 0.500272 0.0438482 0 0 -0.000205994
16 1 0.494052 0.407226 0.0503784 0 0 5.14984e-05
17 1 0.489139 0.458666 0.654627 0 0 3.62396e-05
18 1 0.652259 0.282271 0.915982 0 0 0.000167847
19 1 0.348195 0.490526 0.798139 0 0 -5.14984e-05
20 1 0.111021 0.375317 0.909452 0 0 -3.8147e-05
21 1 0.797567 0.583676 0.778469 0 0 -0.000125885
22 1 0.180899 0.333682 0.531168 0 0 -2.47955e-05
23 1 0.872705 0.542039 0.407828 0 0 0.000102997
24 1 0.0404111 0.3655 0.67519 0 0 -3.43323e-05
25 1 0.732369 0.573837 0.552003 0 0 -9.53674e-05
26 1 0.115934 0.323877 0.305203 0 0 -4.19617e-05
27 1 0.807506 0.532201 0.181361 0 0 0.000123978
28 1 0.564662 0.417043 0.28464 0 0 3.24249e-05
29 1 0.256878 0.625351 0.161691 0 0 5.14984e-05
30 1 0.424174 0.448861 0.428662 0 0 2.09808e-05
31 1 0.952814 0.833605 0.043848 0 0 -0.000181198
32 1 0.494052 0.740559 0.0503785 0 0 4.3869e-05
33 1 0.489139 0.792 0.654627 0 0 2.67029e-05
34 1 0.652259 0.615605 0.915982 0 0 0.000200272
35 1 0.348195 0.823859 0.798139 0 0 -5.34058e-05
36 1 0.11102 0.708651 0.909452 0 0 -3.43323e-05
37 1 0.797567 0.917009 0.778469 0 0 -0.000123978
38 1 0.180899 0.667016 0.531168 0 0 -2.47955e-05
39 1 0.872704 0.875373 0.407828 0 0 0.000101089
40 1 0.0404107 0.698833 0.67519 0 0 -3.62396e-05
41 1 0.732368 0.90717 0.552003 0 0 -9.53674e-05
42 1 0.115934 0.65721 0.305203 0 0 -4.00543e-05
43 1 0.807506 0.865534 0.181361 0 0 0.000125885
44 1 0.564662 0.750376 0.28464 0 0 3.43323e-05
45 1 0.256878 0.958684 0.161692 0 0 4.3869e-05
46 1 0.424174 0.782194 0.428662 0 0 3.43323e-05
47 1 0.180899 0.000348996 0.531168 0 0 -2.28882e-05
48 1 0.115934 0.990543 0.305203 0 0 -3.62396e-05
ITEM: TIMESTEP
11
ITEM: NUMBER OF ATOMS
48
ITEM: BOX BOUNDS xy xz yz pp pp pp
-4.3559049367904663e+00 8.6067802309989929e+00 2.5094206929206848e+00
-9.4973444938659668e-03 9.3236122131347656e+00 -4.3438678383827209e+00
-2.8691649436950684e-02 1.9545819282531738e+01 7.1304261684417725e-02
ITEM: ATOMS id type xs ys zs fx fy fz
1 1 0.952814 0.166939 0.0438479 0 0 -0.000177383
2 1 0.494052 0.0738926 0.0503785 0 0 3.62396e-05
3 1 0.489139 0.125333 0.654627 0 0 3.43323e-05
4 1 0.652259 0.948938 0.915982 0 0 0.000175476
5 1 0.348195 0.157192 0.798139 0 0 -4.57764e-05
6 1 0.11102 0.0419839 0.909452 0 0 -3.8147e-05
7 1 0.797567 0.250342 0.778469 0 0 -0.000118256
8 1 0.872705 0.208706 0.407828 0 0 9.15527e-05
9 1 0.040411 0.0321666 0.67519 0 0 -3.8147e-05
10 1 0.732369 0.240504 0.552003 0 0 -9.34601e-05
11 1 0.807506 0.198868 0.181361 0 0 0.000123978
12 1 0.564662 0.0837096 0.28464 0 0 3.8147e-05
13 1 0.256878 0.292017 0.161692 0 0 5.34058e-05
14 1 0.424174 0.115527 0.428662 0 0 2.67029e-05
15 1 0.952814 0.500272 0.0438482 0 0 -0.000205994
16 1 0.494052 0.407226 0.0503784 0 0 5.14984e-05
17 1 0.489139 0.458666 0.654627 0 0 3.62396e-05
18 1 0.652259 0.282271 0.915982 0 0 0.000167847
19 1 0.348195 0.490526 0.798139 0 0 -5.14984e-05
20 1 0.111021 0.375317 0.909452 0 0 -3.8147e-05
21 1 0.797567 0.583676 0.778469 0 0 -0.000125885
22 1 0.180899 0.333682 0.531168 0 0 -2.47955e-05
23 1 0.872705 0.542039 0.407828 0 0 0.000102997