ITEM: TIMESTEP
0
ITEM: NUMBER OF ATOMS
48
ITEM: BOX BOUNDS xy xz yz pp pp pp
-2.0693951249122620e+00 8.6067802309989929e+00 2.5094206929206848e+00
-9.4973444938659668e-03 9.3236122131347656e+00 -2.0573580265045166e+00
-2.8691649436950684e-02 1.9545819282531738e+01 7.1304261684417725e-02
ITEM: ATOMS id type xs ys zs fx fy fz
1 1 0.932383 0.16703 0.0320218 0 0 0.180574
2 1 0.476024 0.0738739 0.0528103 0 0 0.265068
3 1 0.244952 0.125314 0.657023 0 0 0.00037384
4 1 0.313463 0.948847 0.927808 0 0 -0.180574
5 1 0.0510691 0.157156 0.802805 0 0 0.00378227
6 1 0.769821 0.0420026 0.90702 0 0 -0.265062
7 1 0.507423 0.250315 0.78202 0 0 -0.00296974
8 1 0.719799 0.208712 0.407029 0 0 0.000576019
9 1 0.788602 0.0321465 0.677802 0 0 0.00100327
10 1 0.526047 0.240498 0.552801 0 0 -0.00056839
11 1 0.738423 0.198895 0.17781 0 0 0.0029583
12 1 0.457245 0.0837297 0.282028 0 0 -0.00100899
13 1 0.194777 0.292053 0.157025 0 0 -0.00378799
14 1 0.263451 0.115534 0.427803 0 0 -0.000312805
15 1 0.932383 0.500363 0.0320219 0 0 0.180567
16 1 0.476024 0.407207 0.0528103 0 0 0.265064
17 1 0.244952 0.458648 0.657023 0 0 0.000375748
18 1 0.313462 0.28218 0.927808 0 0 -0.180573
19 1 0.051069 0.49049 0.802805 0 0 0.00378609
20 1 0.769822 0.375336 0.90702 0 0 -0.265055
21 1 0.507423 0.583648 0.78202 0 0 -0.00296783
22 1 0.982395 0.333676 0.532027 0 0 0.00030899
23 1 0.719799 0.542046 0.407029 0 0 0.000570297
24 1 0.788602 0.36548 0.677802 0 0 0.00101089
25 1 0.526047 0.573831 0.552801 0 0 -0.000572205
26 1 0.000893984 0.323895 0.302807 0 0 -0.000371933
27 1 0.738423 0.532228 0.17781 0 0 0.00296783
28 1 0.457245 0.417063 0.282028 0 0 -0.00100327
29 1 0.194777 0.625387 0.157025 0 0 -0.00378609
30 1 0.263451 0.448867 0.427803 0 0 -0.000312805
31 1 0.932383 0.833696 0.0320219 0 0 0.180573
32 1 0.476024 0.740541 0.0528104 0 0 0.265062
33 1 0.244952 0.791981 0.657023 0 0 0.000371933
34 1 0.313462 0.615514 0.927808 0 0 -0.180573
35 1 0.0510691 0.823823 0.802805 0 0 0.00379181
36 1 0.769821 0.708669 0.90702 0 0 -0.265057
37 1 0.507423 0.916981 0.78202 0 0 -0.00296783
38 1 0.982395 0.667009 0.532027 0 0 0.000307083
39 1 0.719799 0.875379 0.407029 0 0 0.000570297
40 1 0.788601 0.698813 0.677802 0 0 0.00100327
41 1 0.526047 0.907164 0.552801 0 0 -0.000566483
42 1 0.000893854 0.657228 0.302807 0 0 -0.00037384
43 1 0.738423 0.865562 0.17781 0 0 0.00296402
44 1 0.457245 0.750396 0.282028 0 0 -0.00100517
45 1 0.194777 0.95872 0.157026 0 0 -0.0037899
46 1 0.263451 0.782201 0.427803 0 0 -0.000307083
47 1 0.982395 0.000342385 0.532027 0 0 0.000307083
48 1 0.000894071 0.990562 0.302807 0 0 -0.000371933
ITEM: TIMESTEP
1
ITEM: NUMBER OF ATOMS
48
ITEM: BOX BOUNDS xy xz yz pp pp pp
-2.0693951249122620e+00 8.6067802309989929e+00 2.5094206929206848e+00
-9.4973444938659668e-03 9.3236122131347656e+00 -2.0573580265045166e+00
-2.8691649436950684e-02 1.9545819282531738e+01 7.1304261684417725e-02
ITEM: ATOMS id type xs ys zs fx fy fz
1 1 0.933105 0.167013 0.0341471 0 0 -0.0449467
2 1 0.477084 0.0738499 0.05593 0 0 0.0131416
3 1 0.244954 0.125314 0.657027 0 0 -0.00310707
4 1 0.31274 0.948863 0.925683 0 0 0.0449524
5 1 0.0510842 0.157156 0.802849 0 0 -0.0556126
6 1 0.768761 0.0420266 0.9039 0 0 -0.0131416
7 1 0.507411 0.250315 0.781985 0 0 -0.0640793
8 1 0.719801 0.208712 0.407036 0 0 -0.00147247
9 1 0.788606 0.0321464 0.677814 0 0 -0.000583649
10 1 0.526045 0.240498 0.552794 0 0 0.0014782
11 1 0.738434 0.198895 0.177845 0 0 0.0640869
12 1 0.457241 0.0837298 0.282016 0 0 0.000589371
13 1 0.194762 0.292054 0.156981 0 0 0.0556183
14 1 0.26345 0.115534 0.4278 0 0 -0.00130081
15 1 0.933106 0.500347 0.0341471 0 0 -0.0449486
16 1 0.477085 0.407183 0.05593 0 0 0.0131416
17 1 0.244953 0.458648 0.657027 0 0 -0.00309944
18 1 0.31274 0.282197 0.925683 0 0 0.0449467
19 1 0.0510841 0.49049 0.802849 0 0 -0.0556145
20 1 0.768761 0.37536 0.9039 0 0 -0.013155
21 1 0.507411 0.583649 0.781985 0 0 -0.0640888
22 1 0.982397 0.333676 0.532031 0 0 0.00130463
23 1 0.719802 0.542045 0.407036 0 0 -0.0014782
24 1 0.788606 0.36548 0.677814 0 0 -0.000583649
25 1 0.526045 0.573831 0.552794 0 0 0.00147438
26 1 0.000892496 0.323895 0.302803 0 0 0.00309944
27 1 0.738434 0.532228 0.177845 0 0 0.0640869
28 1 0.457241 0.417063 0.282016 0 0 0.000583649
29 1 0.194762 0.625387 0.156981 0 0 0.0556164
30 1 0.263449 0.448867 0.4278 0 0 -0.00130081
31 1 0.933106 0.83368 0.0341472 0 0 -0.0449505
32 1 0.477085 0.740517 0.05593 0 0 0.0131416
33 1 0.244953 0.791981 0.657027 0 0 -0.00310326
34 1 0.31274 0.61553 0.925683 0 0 0.0449505
35 1 0.0510842 0.823823 0.802849 0 0 -0.0556145
36 1 0.768761 0.708693 0.9039 0 0 -0.0131531
37 1 0.507411 0.916982 0.781985 0 0 -0.0640869
38 1 0.982396 0.667009 0.532031 0 0 0.00130653
39 1 0.719801 0.875379 0.407036 0 0 -0.0014782
40 1 0.788605 0.698813 0.677814 0 0 -0.000574112
41 1 0.526044 0.907164 0.552794 0 0 0.00147057
42 1 0.000892358 0.657229 0.302803 0 0 0.00311089
43 1 0.738435 0.865561 0.177845 0 0 0.0640793
44 1 0.457241 0.750396 0.282017 0 0 0.000579834
45 1 0.194762 0.95872 0.156981 0 0 0.0556145
46 1 0.26345 0.782201 0.4278 0 0 -0.00130463
47 1 0.982396 0.000342358 0.532031 0 0 0.00130272
48 1 0.000892583 0.990562 0.302803 0 0 0.00310135
ITEM: TIMESTEP
2
ITEM: NUMBER OF ATOMS
48
ITEM: BOX BOUNDS xy xz yz pp pp pp
-2.0693951249122620e+00 8.6067802309989929e+00 2.5094206929206848e+00
-9.4973444938659668e-03 9.3236122131347656e+00 -2.0573580265045166e+00
-2.8691649436950684e-02 1.9545819282531738e+01 7.1304261684417725e-02
ITEM: ATOMS id type xs ys zs fx fy fz
1 1 0.93293 0.167017 0.0336303 0 0 -0.0156441
2 1 0.477512 0.0738402 0.0571889 0 0 -0.00377655
3 1 0.244927 0.125315 0.656949 0 0 -0.0332298
4 1 0.312916 0.948859 0.9262 0 0 0.0156384
5 1 0.0506067 0.157167 0.801444 0 0 0.00586128
6 1 0.768333 0.0420363 0.902641 0 0 0.00377083
7 1 0.506853 0.250328 0.780341 0 0 0.00126457
8 1 0.719789 0.208712 0.407 0 0 0.00228119
9 1 0.788602 0.0321465 0.677802 0 0 -0.0301838
10 1 0.526057 0.240497 0.55283 0 0 -0.00228119
11 1 0.738993 0.198882 0.179489 0 0 -0.00126076
12 1 0.457244 0.0837297 0.282028 0 0 0.0301743
13 1 0.195239 0.292043 0.158386 0 0 -0.00586891
14 1 0.263438 0.115534 0.427765 0 0 0.0039978
15 1 0.93293 0.500351 0.0336302 0 0 -0.0156479
16 1 0.477512 0.407173 0.0571888 0 0 -0.00377464
17 1 0.244927 0.458648 0.65695 0 0 -0.0332355
18 1 0.312916 0.282193 0.9262 0 0 0.0156479
19 1 0.0506065 0.4905 0.801444 0 0 0.0058651
20 1 0.768333 0.37537 0.902641 0 0 0.00378799
21 1 0.506852 0.583661 0.780341 0 0 0.00126839
22 1 0.982408 0.333675 0.532065 0 0 -0.00399971
23 1 0.719789 0.542046 0.407 0 0 0.00228691
24 1 0.788602 0.36548 0.677802 0 0 -0.0301876
25 1 0.526057 0.57383 0.55283 0 0 -0.00227928
26 1 0.00091892 0.323895 0.302881 0 0 0.0332432
27 1 0.738993 0.532215 0.179489 0 0 -0.00126648
28 1 0.457244 0.417063 0.282028 0 0 0.0301838
29 1 0.195239 0.625376 0.158386 0 0 -0.0058651
30 1 0.263438 0.448868 0.427765 0 0 0.0039959
31 1 0.93293 0.833684 0.0336303 0 0 -0.0156517
32 1 0.477512 0.740507 0.0571889 0 0 -0.00377846
33 1 0.244927 0.791982 0.656949 0 0 -0.0332336
34 1 0.312916 0.615526 0.9262 0 0 0.0156403
35 1 0.0506067 0.823834 0.801444 0 0 0.005867
36 1 0.768333 0.708703 0.902641 0 0 0.00378418
37 1 0.506852 0.916994 0.780341 0 0 0.0012722
38 1 0.982408 0.667009 0.532065 0 0 -0.00400352
39 1 0.719789 0.875379 0.407 0 0 0.00228119
40 1 0.788601 0.698813 0.677802 0 0 -0.0301933
41 1 0.526056 0.907164 0.55283 0 0 -0.00227547
42 1 0.00091888 0.657228 0.302881 0 0 0.0332279
43 1 0.738993 0.865549 0.179489 0 0 -0.00126457
44 1 0.457244 0.750396 0.282028 0 0 0.0301838
45 1 0.195239 0.958709 0.158386 0 0 -0.00585938
46 1 0.263438 0.782201 0.427765 0 0 0.0039978
47 1 0.982408 0.000342094 0.532065 0 0 -0.00399971
48 1 0.000919023 0.990561 0.302881 0 0 0.0332394
ITEM: TIMESTEP
3
ITEM: NUMBER OF ATOMS
48
ITEM: BOX BOUNDS xy xz yz pp pp pp
-2.0693951249122620e+00 8.6067802309989929e+00 2.5094206929206848e+00
-9.4973444938659668e-03 9.3236122131347656e+00 -2.0573580265045166e+00
-2.8691649436950684e-02 1.9545819282531738e+01 7.1304261684417725e-02
ITEM: ATOMS id type xs ys zs fx fy fz
1 1 0.932761 0.167021 0.0331337 0 0 0.0121937
2 1 0.477568 0.0738389 0.0573531 0 0 0.00639915
3 1 0.24464 0.125322 0.656104 0 0 -0.00178146
4 1 0.313085 0.948856 0.926696 0 0 -0.0122013
5 1 0.0505583 0.157168 0.801302 0 0 -0.000442505
6 1 0.768277 0.0420376 0.902477 0 0 -0.00639153
7 1 0.506748 0.25033 0.780035 0 0 -3.24249e-05
8 1 0.719806 0.208712 0.40705 0 0 0.014473
9 1 0.788345 0.0321523 0.677047 0 0 -0.00171661
10 1 0.52604 0.240498 0.55278 0 0 -0.0144749
11 1 0.739097 0.19888 0.179796 0 0 2.28882e-05
12 1 0.457501 0.0837239 0.282783 0 0 0.00172043
13 1 0.195288 0.292042 0.158528 0 0 0.000440598
14 1 0.26347 0.115534 0.427858 0 0 0.0159206
15 1 0.932761 0.500354 0.0331336 0 0 0.0122108
16 1 0.477568 0.407172 0.0573531 0 0 0.00640106
17 1 0.24464 0.458655 0.656104 0 0 -0.00178146
18 1 0.313084 0.282189 0.926697 0 0 -0.0121994
19 1 0.0505582 0.490502 0.801302 0 0 -0.000440598
20 1 0.768277 0.375371 0.902477 0 0 -0.00639534
21 1 0.506748 0.583664 0.780035 0 0 -2.67029e-05
22 1 0.982377 0.333676 0.531972 0 0 -0.0159187
23 1 0.719806 0.542045 0.40705 0 0 0.0144691
24 1 0.788345 0.365486 0.677047 0 0 -0.0017128
25 1 0.52604 0.573831 0.55278 0 0 -0.0144711
26 1 0.00120635 0.323888 0.303726 0 0 0.00177574
27 1 0.739097 0.532213 0.179796 0 0 2.09808e-05
28 1 0.457501 0.417057 0.282783 0 0 0.00172043
29 1 0.195288 0.625375 0.158528 0 0 0.000427246
30 1 0.263469 0.448867 0.427858 0 0 0.0159206
31 1 0.932761 0.833688 0.0331335 0 0 0.012207
32 1 0.477568 0.740506 0.057353 0 0 0.00640106
33 1 0.244639 0.791988 0.656104 0 0 -0.00177193
34 1 0.313084 0.615522 0.926696 0 0 -0.0121956
35 1 0.0505584 0.823835 0.801302 0 0 -0.000448227
36 1 0.768277 0.708704 0.902477 0 0 -0.00639915
37 1 0.506749 0.916997 0.780035 0 0 -3.24249e-05
38 1 0.982377 0.667009 0.531972 0 0 -0.0159168
39 1 0.719806 0.875379 0.40705 0 0 0.0144768
40 1 0.788344 0.698819 0.677047 0 0 -0.00171661
41 1 0.52604 0.907164 0.55278 0 0 -0.0144768
42 1 0.0012062 0.657221 0.303726 0 0 0.00177383
43 1 0.739098 0.865546 0.179795 0 0 3.62396e-05
44 1 0.457501 0.750391 0.282783 0 0 0.00172043
45 1 0.195288 0.958708 0.158528 0 0 0.000431061
46 1 0.263469 0.7822 0.427858 0 0 0.0159168
47 1 0.982376 0.000342808 0.531972 0 0 -0.0159149
48 1 0.00120643 0.990555 0.303726 0 0 0.00177956
ITEM: TIMESTEP
4
ITEM: NUMBER OF ATOMS
48
ITEM: BOX BOUNDS xy xz yz pp pp pp
-2.0693951249122620e+00 8.6067802309989929e+00 2.5094206929206848e+00
-9.4973444938659668e-03 9.3236122131347656e+00 -2.0573580265045166e+00
-2.8691649436950684e-02 1.9545819282531738e+01 7.1304261684417725e-02
ITEM: ATOMS id type xs ys zs fx fy fz
1 1 0.932803 0.16702 0.0332566 0 0 0.0028553
2 1 0.477622 0.0738377 0.0575101 0 0 -0.00395012
3 1 0.244566 0.125323 0.655886 0 0 0.000104904
4 1 0.313043 0.948856 0.926573 0 0 -0.00284576
5 1 0.050545 0.157168 0.801263 0 0 -0.00646973
6 1 0.768224 0.0420388 0.90232 0 0 0.0039463
7 1 0.506726 0.250331 0.779968 0 0 -0.00489998
8 1 0.719903 0.20871 0.407335 0 0 -0.000635147
9 1 0.788278 0.0321538 0.67685 0 0 -0.000366211
10 1 0.525943 0.2405 0.552495 0 0 0.000631332
11 1 0.73912 0.198879 0.179863 0 0 0.00490761
12 1 0.457568 0.0837223 0.282981 0 0 0.000368118
13 1 0.195301 0.292041 0.158567 0 0 0.00647926
14 1 0.263579 0.115531 0.42818 0 0 -0.000278473
15 1 0.932803 0.500353 0.0332567 0 0 0.00284576
16 1 0.477622 0.407171 0.0575102 0 0 -0.00395393
17 1 0.244566 0.458656 0.655886 0 0 0.000108719
18 1 0.313043 0.28219 0.926574 0 0 -0.0028553
19 1 0.0505449 0.490502 0.801263 0 0 -0.00647163
20 1 0.768224 0.375372 0.90232 0 0 0.00393677
21 1 0.506726 0.583664 0.779968 0 0 -0.00490379
22 1 0.982267 0.333678 0.53165 0 0 0.00028038
23 1 0.719903 0.542043 0.407335 0 0 -0.00063324
24 1 0.788278 0.365487 0.67685 0 0 -0.000366211
25 1 0.525943 0.573833 0.552495 0 0 0.000629425
26 1 0.0012804 0.323886 0.303944 0 0 -0.000106812
27 1 0.73912 0.532212 0.179863 0 0 0.00491333
28 1 0.457568 0.417056 0.282981 0 0 0.000364304
29 1 0.195301 0.625375 0.158567 0 0 0.00648308
30 1 0.263579 0.448865 0.42818 0 0 -0.00028038
31 1 0.932803 0.833687 0.0332566 0 0 0.00285149
32 1 0.477622 0.740504 0.0575101 0 0 -0.00395012
33 1 0.244565 0.79199 0.655886 0 0 0.000104904
34 1 0.313043 0.615523 0.926574 0 0 -0.00285339
35 1 0.050545 0.823835 0.801263 0 0 -0.00647163
36 1 0.768224 0.708705 0.90232 0 0 0.0039444
37 1 0.506726 0.916997 0.779968 0 0 -0.00490761
38 1 0.982267 0.667012 0.53165 0 0 0.000276566
39 1 0.719903 0.875376 0.407335 0 0 -0.00063324
40 1 0.788277 0.698821 0.676849 0 0 -0.000364304
41 1 0.525943 0.907166 0.552495 0 0 0.000631332
42 1 0.00128022 0.65722 0.303944 0 0 -0.000106812
43 1 0.73912 0.865546 0.179863 0 0 0.0049057
44 1 0.457568 0.750389 0.282981 0 0 0.000366211
45 1 0.195301 0.958708 0.158567 0 0 0.00647545
46 1 0.263579 0.782198 0.42818 0 0 -0.000278473
47 1 0.982267 0.000345285 0.53165 0 0 0.000278473
48 1 0.0012805 0.990553 0.303944 0 0 -0.000106812
ITEM: TIMESTEP
5
ITEM: NUMBER OF ATOMS
48
ITEM: BOX BOUNDS xy xz yz pp pp pp
-2.0693951249122620e+00 8.6067802309989929e+00 2.5094206929206848e+00
-9.4973444938659668e-03 9.3236122131347656e+00 -2.0573580265045166e+00
-2.8691649436950684e-02 1.9545819282531738e+01 7.1304261684417725e-02
ITEM: ATOMS id type xs ys zs fx fy fz
1 1 0.932837 0.167019 0.0333559 0 0 0.00298882
2 1 0.477596 0.0738383 0.0574358 0 0 0.0012455
3 1 0.244552 0.125323 0.655847 0 0 -0.00264931
4 1 0.313009 0.948857 0.926474 0 0 -0.00299644
5 1 0.0504842 0.15717 0.801084 0 0 0.000333786
6 1 0.768249 0.0420382 0.902394 0 0 -0.00123787
7 1 0.506677 0.250332 0.779825 0 0 0.00109863
8 1 0.719916 0.20871 0.407373 0 0 -0.00235748
9 1 0.788262 0.0321542 0.676802 0 0 -0.00284958
10 1 0.52593 0.2405 0.552457 0 0 0.0023632
11 1 0.739169 0.198878 0.180006 0 0 -0.00110817
12 1 0.457585 0.083722 0.283028 0 0 0.0028553
13 1 0.195362 0.29204 0.158746 0 0 -0.00034523
14 1 0.263598 0.115531 0.428235 0 0 -0.00259972
15 1 0.932837 0.500353 0.0333558 0 0 0.00299454
16 1 0.477596 0.407172 0.0574358 0 0 0.0012455
17 1 0.244552 0.458657 0.655847 0 0 -0.0026474
18 1 0.313009 0.282191 0.926474 0 0 -0.00299454
19 1 0.0504841 0.490503 0.801084 0 0 0.000331879
20 1 0.768249 0.375372 0.902394 0 0 -0.00123024
21 1 0.506677 0.583665 0.779825 0 0 0.00110435
22 1 0.982249 0.333679 0.531596 0 0 0.00259781
23 1 0.719916 0.542043 0.407373 0 0 -0.00235939
24 1 0.788262 0.365487 0.676802 0 0 -0.00284767
25 1 0.52593 0.573833 0.552457 0 0 0.00235939
26 1 0.00129372 0.323886 0.303983 0 0 0.00264359
27 1 0.739169 0.532211 0.180006 0 0 -0.0011158
28 1 0.457584 0.417055 0.283028 0 0 0.00285339
29 1 0.195362 0.625373 0.158746 0 0 -0.000341415
30 1 0.263597 0.448864 0.428234 0 0 -0.00260162
31 1 0.932837 0.833686 0.0333558 0 0 0.00299644
32 1 0.477596 0.740505 0.0574358 0 0 0.0012455
33 1 0.244552 0.79199 0.655847 0 0 -0.00265121
34 1 0.313009 0.615524 0.926474 0 0 -0.00299644
35 1 0.0504842 0.823836 0.801084 0 0 0.000339508
36 1 0.768249 0.708705 0.902394 0 0 -0.00123405
37 1 0.506677 0.916998 0.779825 0 0 0.00111389
38 1 0.982249 0.667012 0.531596 0 0 0.00260353
39 1 0.719916 0.875376 0.407373 0 0 -0.00235748
40 1 0.788261 0.698821 0.676802 0 0 -0.0028553
41 1 0.52593 0.907167 0.552457 0 0 0.00236702
42 1 0.00129353 0.657219 0.303983 0 0 0.00265884
43 1 0.739169 0.865545 0.180006 0 0 -0.00111771
44 1 0.457585 0.750389 0.283028 0 0 0.00285339
45 1 0.195362 0.958707 0.158746 0 0 -0.000341415
46 1 0.263597 0.782197 0.428234 0 0 -0.00259781
47 1 0.982248 0.000345706 0.531596 0 0 0.0025959
48 1 0.00129382 0.990553 0.303983 0 0 0.00264359
ITEM: TIMESTEP
6
ITEM: NUMBER OF ATOMS
48
ITEM: BOX BOUNDS xy xz yz pp pp pp
-2.0693951249122620e+00 8.6067802309989929e+00 2.5094206929206848e+00
-9.4973444938659668e-03 9.3236122131347656e+00 -2.0573580265045166e+00
-2.8691649436950684e-02 1.9545819282531738e+01 7.1304261684417725e-02
ITEM: ATOMS id type xs ys zs fx fy fz
1 1 0.932862 0.167019 0.0334301 0 0 -0.000118256
2 1 0.477596 0.0738383 0.0574357 0 0 5.34058e-05
3 1 0.244534 0.125324 0.655794 0 0 -0.000396729
4 1 0.312984 0.948858 0.9264 0 0 0.000116348
5 1 0.0504696 0.15717 0.801041 0 0 0.000211716
6 1 0.768249 0.0420382 0.902394 0 0 -5.72205e-05
7 1 0.50667 0.250332 0.779804 0 0 0.000310898
8 1 0.719907 0.20871 0.407346 0 0 0.000627518
9 1 0.788242 0.0321546 0.676744 0 0 -0.000501633
10 1 0.525939 0.2405 0.552484 0 0 -0.000617981
11 1 0.739176 0.198878 0.180026 0 0 -0.000314713
12 1 0.457604 0.0837215 0.283087 0 0 0.000495911
13 1 0.195376 0.29204 0.158789 0 0 -0.000213623
14 1 0.263588 0.115531 0.428208 0 0 0.000377655
15 1 0.932862 0.500352 0.0334301 0 0 -0.000112534
16 1 0.477596 0.407172 0.0574357 0 0 5.72205e-05
17 1 0.244534 0.458657 0.655794 0 0 -0.000406265
18 1 0.312984 0.282191 0.9264 0 0 0.00012207
19 1 0.0504695 0.490504 0.801041 0 0 0.00021553
20 1 0.768249 0.375372 0.902394 0 0 -5.53131e-05
21 1 0.50667 0.583665 0.779804 0 0 0.000305176
22 1 0.982258 0.333679 0.531622 0 0 -0.00038147
23 1 0.719907 0.542043 0.407346 0 0 0.000621796
24 1 0.788242 0.365488 0.676744 0 0 -0.000501633
25 1 0.525939 0.573833 0.552484 0 0 -0.000623703
26 1 0.00131161 0.323886 0.304036 0 0 0.000400543
27 1 0.739176 0.532211 0.180026 0 0 -0.000312805
28 1 0.457604 0.417055 0.283087 0 0 0.000499725
29 1 0.195376 0.625373 0.158789 0 0 -0.000211716
30 1 0.263588 0.448864 0.428208 0 0 0.000389099
31 1 0.932862 0.833685 0.0334302 0 0 -0.000118256
32 1 0.477596 0.740505 0.0574357 0 0 5.34058e-05
33 1 0.244534 0.791991 0.655794 0 0 -0.000404358
34 1 0.312984 0.615525 0.9264 0 0 0.000118256
35 1 0.0504697 0.823837 0.801041 0 0 0.000205994
36 1 0.768249 0.708705 0.902394 0 0 -5.14984e-05
37 1 0.50667 0.916998 0.779804 0 0 0.00030899
38 1 0.982258 0.667012 0.531622 0 0 -0.000379562
39 1 0.719907 0.875376 0.407346 0 0 0.00062561
40 1 0.788241 0.698821 0.676744 0 0 -0.000490189
41 1 0.525939 0.907167 0.552484 0 0 -0.000629425
42 1 0.00131149 0.657219 0.304036 0 0 0.000394821
43 1 0.739176 0.865544 0.180026 0 0 -0.000305176
44 1 0.457604 0.750388 0.283087 0 0 0.000495911
45 1 0.195376 0.958706 0.158789 0 0 -0.000207901
46 1 0.263588 0.782198 0.428208 0 0 0.00038147
47 1 0.982257 0.000345501 0.531622 0 0 -0.000375748
48 1 0.0013117 0.990552 0.304036 0 0 0.000398636
ITEM: TIMESTEP
7
ITEM: NUMBER OF ATOMS
48
ITEM: BOX BOUNDS xy xz yz pp pp pp
-2.0693951249122620e+00 8.6067802309989929e+00 2.5094206929206848e+00
-9.4973444938659668e-03 9.3236122131347656e+00 -2.0573580265045166e+00
-2.8691649436950684e-02 1.9545819282531738e+01 7.1304261684417725e-02
ITEM: ATOMS id type xs ys zs fx fy fz
1 1 0.932862 0.167019 0.03343 0 0 -0.00021553
2 1 0.477597 0.0738383 0.0574369 0 0 -0.000139236
3 1 0.244531 0.125324 0.655784 0 0 -3.24249e-05
4 1 0.312984 0.948858 0.9264 0 0 0.000217438
5 1 0.0504707 0.15717 0.801045 0 0 -0.000217438
6 1 0.768249 0.0420382 0.902393 0 0 0.000133514
7 1 0.506672 0.250332 0.77981 0 0 -0.000255585
8 1 0.719911 0.20871 0.407359 0 0 6.86646e-05
9 1 0.788237 0.0321547 0.676731 0 0 -4.19617e-05
10 1 0.525935 0.2405 0.552471 0 0 -8.39233e-05
11 1 0.739174 0.198878 0.18002 0 0 0.000257492
12 1 0.457609 0.0837214 0.2831 0 0 4.76837e-05
13 1 0.195375 0.29204 0.158786 0 0 0.00022316
14 1 0.263591 0.115531 0.428215 0 0 5.72205e-05
15 1 0.932862 0.500352 0.0334301 0 0 -0.00022316
16 1 0.477597 0.407172 0.0574369 0 0 -0.000137329
17 1 0.244531 0.458657 0.655784 0 0 -2.86102e-05
18 1 0.312984 0.282191 0.9264 0 0 0.000217438
19 1 0.0504707 0.490504 0.801045 0 0 -0.00022316
20 1 0.768249 0.375372 0.902393 0 0 0.000141144
21 1 0.506672 0.583665 0.77981 0 0 -0.00025177
22 1 0.982255 0.333679 0.531615 0 0 -5.91278e-05
23 1 0.719911 0.542043 0.407359 0 0 7.82013e-05
24 1 0.788237 0.365488 0.676731 0 0 -4.00543e-05
25 1 0.525935 0.573833 0.552471 0 0 -7.24792e-05
26 1 0.00131523 0.323886 0.304047 0 0 3.43323e-05
27 1 0.739174 0.532211 0.18002 0 0 0.000255585
28 1 0.457609 0.417055 0.2831 0 0 3.8147e-05
29 1 0.195375 0.625373 0.158786 0 0 0.000221252
30 1 0.263591 0.448864 0.428215 0 0 5.34058e-05
31 1 0.932862 0.833685 0.0334301 0 0 -0.000217438
32 1 0.477597 0.740505 0.0574369 0 0 -0.000131607
33 1 0.244531 0.791991 0.655784 0 0 -2.86102e-05
34 1 0.312984 0.615525 0.9264 0 0 0.00021553
35 1 0.0504707 0.823837 0.801044 0 0 -0.000209808
36 1 0.768249 0.708705 0.902393 0 0 0.000127792
37 1 0.506672 0.916998 0.77981 0 0 -0.000249863
38 1 0.982255 0.667012 0.531615 0 0 -5.72205e-05
39 1 0.719911 0.875376 0.407359 0 0 7.24792e-05
40 1 0.788237 0.698821 0.676731 0 0 -5.72205e-05
41 1 0.525934 0.907167 0.552471 0 0 -7.05719e-05
42 1 0.00131508 0.657219 0.304046 0 0 3.8147e-05
43 1 0.739174 0.865544 0.18002 0 0 0.000257492
44 1 0.457609 0.750388 0.2831 0 0 4.00543e-05
45 1 0.195375 0.958706 0.158786 0 0 0.000217438
46 1 0.263591 0.782198 0.428215 0 0 5.72205e-05
47 1 0.982255 0.000345558 0.531615 0 0 -5.91278e-05
48 1 0.00131531 0.990552 0.304047 0 0 3.24249e-05
ITEM: TIMESTEP
8
ITEM: NUMBER OF ATOMS
48
ITEM: BOX BOUNDS xy xz yz pp pp pp
-2.0693951249122620e+00 8.6067802309989929e+00 2.5094206929206848e+00
-9.4973444938659668e-03 9.3236122131347656e+00 -2.0573580265045166e+00
-2.8691649436950684e-02 1.9545819282531738e+01 7.1304261684417725e-02
ITEM: ATOMS id type xs ys zs fx fy fz
1 1 0.932861 0.167019 0.0334266 0 0 8.39233e-05
2 1 0.477596 0.0738383 0.0574348 0 0 0.000133514
3 1 0.24453 0.125324 0.655782 0 0 -5.53131e-05
4 1 0.312985 0.948858 0.926403 0 0 -7.82013e-05
5 1 0.0504697 0.15717 0.801042 0 0 -6.48499e-05
6 1 0.768249 0.0420382 0.902395 0 0 -0.000125885
7 1 0.506671 0.250332 0.779807 0 0 -9.34601e-05
8 1 0.719912 0.20871 0.407362 0 0 -5.14984e-05
9 1 0.788237 0.0321548 0.676728 0 0 -6.10352e-05
10 1 0.525934 0.2405 0.552469 0 0 4.76837e-05
11 1 0.739175 0.198878 0.180023 0 0 9.53674e-05
12 1 0.45761 0.0837214 0.283102 0 0 6.29425e-05
13 1 0.195376 0.29204 0.158789 0 0 6.29425e-05
14 1 0.263592 0.115531 0.428217 0 0 -2.09808e-05
15 1 0.932861 0.500352 0.0334266 0 0 8.2016e-05
16 1 0.477596 0.407172 0.0574349 0 0 0.000127792
17 1 0.24453 0.458657 0.655782 0 0 -5.34058e-05
18 1 0.312985 0.282191 0.926404 0 0 -8.39233e-05
19 1 0.0504696 0.490504 0.801042 0 0 -6.29425e-05
20 1 0.76825 0.375372 0.902395 0 0 -0.000127792
21 1 0.506671 0.583665 0.779807 0 0 -9.15527e-05
22 1 0.982255 0.333679 0.531613 0 0 2.47955e-05
23 1 0.719912 0.542043 0.407362 0 0 -5.72205e-05
24 1 0.788237 0.365488 0.676728 0 0 -6.29425e-05
25 1 0.525934 0.573833 0.552468 0 0 4.95911e-05
26 1 0.00131587 0.323886 0.304048 0 0 5.53131e-05
27 1 0.739175 0.532211 0.180023 0 0 9.15527e-05
28 1 0.457609 0.417055 0.283102 0 0 6.29425e-05
29 1 0.195376 0.625373 0.158789 0 0 6.10352e-05
30 1 0.263591 0.448864 0.428217 0 0 -2.47955e-05
31 1 0.932861 0.833685 0.0334266 0 0 8.58307e-05
32 1 0.477596 0.740505 0.0574349 0 0 0.0001297
33 1 0.24453 0.791991 0.655782 0 0 -5.91278e-05
34 1 0.312985 0.615525 0.926403 0 0 -8.58307e-05
35 1 0.0504698 0.823837 0.801042 0 0 -6.48499e-05
36 1 0.76825 0.708705 0.902395 0 0 -0.000131607
37 1 0.506671 0.916998 0.779807 0 0 -9.53674e-05
38 1 0.982255 0.667012 0.531613 0 0 2.86102e-05
39 1 0.719912 0.875376 0.407362 0 0 -5.53131e-05
40 1 0.788236 0.698822 0.676728 0 0 -5.53131e-05
41 1 0.525934 0.907167 0.552468 0 0 4.95911e-05
42 1 0.00131573 0.657219 0.304048 0 0 5.91278e-05
43 1 0.739175 0.865544 0.180023 0 0 8.58307e-05
44 1 0.457609 0.750388 0.283102 0 0 6.67572e-05
45 1 0.195376 0.958706 0.158789 0 0 6.10352e-05
46 1 0.263591 0.782198 0.428217 0 0 -2.47955e-05
47 1 0.982254 0.000345573 0.531613 0 0 2.28882e-05
48 1 0.00131594 0.990552 0.304048 0 0 5.72205e-05
ITEM: TIMESTEP
9
ITEM: NUMBER OF ATOMS
48
ITEM: BOX BOUNDS xy xz yz pp pp pp
-2.0693951249122620e+00 8.6067802309989929e+00 2.5094206929206848e+00
-9.4973444938659668e-03 9.3236122131347656e+00 -2.0573580265045166e+00
-2.8691649436950684e-02 1.9545819282531738e+01 7.1304261684417725e-02
ITEM: ATOMS id type xs ys zs fx fy fz
1 1 0.932861 0.167019 0.0334266 0 0 8.39233e-05
2 1 0.477596 0.0738383 0.0574348 0 0 0.000133514
3 1 0.24453 0.125324 0.655782 0 0 -5.53131e-05
4 1 0.312985 0.948858 0.926403 0 0 -7.82013e-05
5 1 0.0504697 0.15717 0.801042 0 0 -6.48499e-05
6 1 0.768249 0.0420382 0.902395 0 0 -0.000125885
7 1 0.506671 0.250332 0.779807 0 0 -9.34601e-05
8 1 0.719912 0.20871 0.407362 0 0 -5.14984e-05
9 1 0.788237 0.0321548 0.676728 0 0 -6.10352e-05
10 1 0.525934 0.2405 0.552469 0 0 4.76837e-05
11 1 0.739175 0.198878 0.180023 0 0 9.53674e-05
12 1 0.45761 0.0837214 0.283102 0 0 6.29425e-05
13 1 0.195376 0.29204 0.158789 0 0 6.29425e-05
14 1 0.263592 0.115531 0.428217 0 0 -2.09808e-05
15 1 0.932861 0.500352 0.0334266 0 0 8.2016e-05
16 1 0.477596 0.407172 0.0574349 0 0 0.000127792
17 1 0.24453 0.458657 0.655782 0 0 -5.34058e-05
18 1 0.312985 0.282191 0.926404 0 0 -8.39233e-05
19 1 0.0504696 0.490504 0.801042 0 0 -6.29425e-05
20 1 0.76825 0.375372 0.902395 0 0 -0.000127792
21 1 0.506671 0.583665 0.779807 0 0 -9.15527e-05
22 1 0.982255 0.333679 0.531613 0 0 2.47955e-05
23 1 0.719912 0.542043 0.407362 0 0 -5.72205e-05
24 1 0.788237 0.365488 0.676728 0 0 -6.29425e-05
25 1 0.525934 0.573833 0.552468 0 0 4.95911e-05
26 1 0.00131587 0.323886 0.304048 0 0 5.53131e-05
27 1 0.739175 0.532211 0.180023 0 0 9.15527e-05
28 1 0.457609 0.417055 0.283102 0 0 6.29425e-05
29 1 0.195376 0.625373 0.158789 0 0 6.10352e-05
30 1 0.263591 0.448864 0.428217 0 0 -2.47955e-05
31 1 0.932861 0.833685 0.0334266 0 0 8.58307e-05
32 1 0.477596 0.740505 0.0574349 0 0 0.0001297
33 1 0.24453 0.791991 0.655782 0 0 -5.91278e-05
34 1 0.312985 0.615525 0.926403 0 0 -8.58307e-05
35 1 0.0504698 0.823837 0.801042 0 0 -6.48499e-05
36 1 0.76825 0.708705 0.902395 0 0 -0.000131607
37 1 0.506671 0.916998 0.779807 0 0 -9.53674e-05
38 1 0.982255 0.667012 0.531613 0 0 2.86102e-05
39 1 0.719912 0.875376 0.407362 0 0 -5.53131e-05
40 1 0.788236 0.698822 0.676728 0 0 -5.53131e-05
41 1 0.525934 0.907167 0.552468 0 0 4.95911e-05
42 1 0.00131573 0.657219 0.304048 0 0 5.91278e-05
43 1 0.739175 0.865544 0.180023 0 0 8.58307e-05
44 1 0.457609 0.750388 0.283102 0 0 6.67572e-05
45 1 0.195376 0.958706 0.158789 0 0 6.10352e-05
46 1 0.263591 0.782198 0.428217 0 0 -2.47955e-05
47 1 0.982254 0.000345573 0.531613 0 0 2.28882e-05
48 1 0.00131594 0.990552 0.304048 0 0 5.72205e-05
