ITEM: TIMESTEP
0
ITEM: NUMBER OF ATOMS
32
ITEM: BOX BOUNDS xy xz yz pp pp pp
-4.7826766967773438e-03 8.2391395568847656e+00 1.8398078680038452e+00
-3.7661075592041016e-02 2.2120539069175720e+01 0.0000000000000000e+00
-1.1393904685974121e-02 5.1938598752021790e+00 0.0000000000000000e+00
ITEM: ATOMS id type xs ys zs fx fy fz
1 1 0.92253 0.336542 0.593597 0 0.000812531 5.72205e-06
2 1 0.42253 0.336542 0.593597 0 0.000808716 5.72205e-06
3 1 0.184455 0.295033 0.0935973 0 -0.00201225 -5.72205e-06
4 1 0.684455 0.295033 0.0935973 0 -0.00201225 -3.8147e-06
5 1 0.13662 0.461543 0.593597 0 0.00088501 0
6 1 0.63662 0.461543 0.593597 0 0.000888824 5.72205e-06
7 1 0.898543 0.420037 0.0935973 0 -0.00145721 -7.62939e-06
8 1 0.398543 0.420037 0.0935973 0 -0.00145721 -3.8147e-06
9 1 0.850708 0.586543 0.593597 0 0.00139046 0
10 1 0.350709 0.586543 0.593597 0 0.00138855 0
11 1 0.0647993 0.711539 0.593597 0 0.00209808 7.62939e-06
12 1 0.564799 0.711539 0.593597 0 0.00209427 5.72205e-06
13 1 0.82672 0.670042 0.0935972 0 -0.00105286 -3.8147e-06
14 1 0.112631 0.545043 0.0935972 0 -0.000991821 0
15 1 0.612631 0.545043 0.0935972 0 -0.000988007 0
16 1 0.326721 0.670042 0.0935972 0 -0.00105667 -7.62939e-06
17 1 0.77889 0.836533 0.593597 0 0.0117531 3.8147e-06
18 1 0.27889 0.836533 0.593597 0 0.0117455 0
19 1 0.99298 0.961533 0.593597 0 -0.389233 0
20 1 0.49298 0.961533 0.593597 0 -0.389233 1.90735e-06
21 1 0.0408123 0.795035 0.0935971 0 0.00305557 -1.90735e-06
22 1 0.540812 0.795035 0.0935971 0 0.00304985 -3.8147e-06
23 1 0.754902 0.920032 0.0935971 0 -0.638643 -1.90735e-06
24 1 0.254902 0.920032 0.0935971 0 -0.638649 0
25 1 0.994353 0.0865377 0.593597 0 0.638365 0
26 1 0.494353 0.0865377 0.593597 0 0.638367 0
27 1 0.256277 0.045031 0.093597 0 0.389627 0
28 1 0.756277 0.045031 0.093597 0 0.389624 0
29 1 0.208441 0.211541 0.593597 0 -0.00304604 1.90735e-06
30 1 0.708441 0.211541 0.593597 0 -0.00304031 1.90735e-06
31 1 0.970366 0.170031 0.093597 0 -0.0115414 0
32 1 0.470367 0.170031 0.093597 0 -0.0115395 0
ITEM: TIMESTEP
1
ITEM: NUMBER OF ATOMS
32
ITEM: BOX BOUNDS xy xz yz pp pp pp
-4.7826766967773438e-03 8.2391395568847656e+00 1.8398078680038452e+00
-3.7661075592041016e-02 2.2120539069175720e+01 0.0000000000000000e+00
-1.1393904685974121e-02 5.1938598752021790e+00 0.0000000000000000e+00
ITEM: ATOMS id type xs ys zs fx fy fz
1 1 0.922528 0.336548 0.593597 0 4.3869e-05 0
2 1 0.422529 0.336548 0.593597 0 4.57764e-05 -1.90735e-06
3 1 0.18446 0.295018 0.0935971 0 0.00047493 3.8147e-06
4 1 0.68446 0.295018 0.0935972 0 0.00047493 0
5 1 0.136618 0.461549 0.593597 0 0.00135231 1.90735e-06
6 1 0.636618 0.461549 0.593597 0 0.0013504 -1.90735e-06
7 1 0.898546 0.420027 0.0935971 0 -0.00193024 1.90735e-06
8 1 0.398546 0.420027 0.0935972 0 -0.00193405 -1.90735e-06
9 1 0.850705 0.586553 0.593597 0 0.00188828 3.8147e-06
10 1 0.350706 0.586553 0.593597 0 0.00189018 0
11 1 0.064795 0.711554 0.593597 0 -0.000370026 -5.72205e-06
12 1 0.564795 0.711554 0.593597 0 -0.00037384 -1.90735e-06
13 1 0.826722 0.670035 0.0935971 0 -0.000219345 0
14 1 0.112633 0.545036 0.0935972 0 -0.00149345 -1.90735e-06
15 1 0.612633 0.545036 0.0935972 0 -0.00149536 0
16 1 0.326723 0.670035 0.093597 0 -0.000217438 0
17 1 0.778866 0.836616 0.593597 0 -0.0947971 -1.90735e-06
18 1 0.278867 0.836616 0.593597 0 -0.0947952 1.90735e-06
19 1 0.99377 0.958782 0.593597 0 0.0379257 0
20 1 0.49377 0.958782 0.593597 0 0.0379353 -3.8147e-06
21 1 0.0408061 0.795056 0.093597 0 -0.106272 1.90735e-06
22 1 0.540806 0.795056 0.093597 0 -0.106264 3.8147e-06
23 1 0.756199 0.915519 0.093597 0 -0.116505 1.90735e-06
24 1 0.256199 0.915519 0.0935971 0 -0.116495 0
25 1 0.993057 0.0910487 0.593597 0 0.116655 0
26 1 0.493057 0.0910487 0.593597 0 0.116657 0
27 1 0.255486 0.0477843 0.093597 0 -0.0378895 1.90735e-06
28 1 0.755486 0.0477843 0.093597 0 -0.0378933 0
29 1 0.208448 0.211519 0.593597 0 0.106136 0
30 1 0.708448 0.211519 0.593597 0 0.106133 -1.90735e-06
31 1 0.97039 0.16995 0.093597 0 0.0949917 0
32 1 0.47039 0.16995 0.093597 0 0.0949898 0
ITEM: TIMESTEP
2
ITEM: NUMBER OF ATOMS
32
ITEM: BOX BOUNDS xy xz yz pp pp pp
-4.7826766967773438e-03 8.2391395568847656e+00 1.8398078680038452e+00
-3.7661075592041016e-02 2.2120539069175720e+01 0.0000000000000000e+00
-1.1393904685974121e-02 5.1938598752021790e+00 0.0000000000000000e+00
ITEM: ATOMS id type xs ys zs fx fy fz
1 1 0.922528 0.336549 0.593597 0 0.0624695 3.8147e-06
2 1 0.422528 0.336549 0.593597 0 0.0624619 7.62939e-06
3 1 0.184456 0.295032 0.0935976 0 0.0785999 -7.62939e-06
4 1 0.684456 0.295032 0.0935972 0 0.0786076 -1.90735e-06
5 1 0.136607 0.461586 0.593597 0 -2.09808e-05 1.90735e-06
6 1 0.636607 0.461586 0.593597 0 -1.71661e-05 0
7 1 0.898561 0.419974 0.0935973 0 0.00115776 -5.72205e-06
8 1 0.398562 0.419974 0.093597 0 0.00116539 1.90735e-06
9 1 0.85069 0.586606 0.593597 0 -0.00119972 -7.62939e-06
10 1 0.350691 0.586606 0.593597 0 -0.00120163 -3.8147e-06
11 1 0.064798 0.711544 0.593597 0 -0.0786552 9.53674e-06
12 1 0.564798 0.711544 0.593597 0 -0.0786476 0
13 1 0.826724 0.670029 0.0935971 0 -0.0625629 0
14 1 0.112645 0.544994 0.093597 0 -7.05719e-05 5.72205e-06
15 1 0.612645 0.544994 0.0935972 0 -7.24792e-05 1.90735e-06
16 1 0.326725 0.670029 0.093597 0 -0.062561 -1.90735e-06
17 1 0.779621 0.833987 0.593597 0 0.0303726 1.33514e-05
18 1 0.279622 0.833987 0.593597 0 0.0303783 0
19 1 0.993468 0.959834 0.593597 0 0.010725 1.90735e-06
20 1 0.493468 0.959834 0.593597 0 0.0107117 5.72205e-06
21 1 0.0416526 0.792109 0.0935973 0 -0.0227776 -7.62939e-06
22 1 0.541653 0.792109 0.0935974 0 -0.0227947 -5.72205e-06
23 1 0.757127 0.912288 0.0935973 0 -0.00174141 -7.62939e-06
24 1 0.257127 0.912288 0.0935971 0 -0.00175285 -1.90735e-06
25 1 0.992127 0.0942834 0.593597 0 0.00158119 1.90735e-06
26 1 0.492128 0.0942835 0.593597 0 0.00158691 0
27 1 0.255788 0.0467337 0.0935972 0 -0.0104694 0
28 1 0.755788 0.0467336 0.093597 0 -0.0104828 -1.90735e-06
29 1 0.207602 0.214462 0.593597 0 0.0229492 -3.8147e-06
30 1 0.707602 0.214462 0.593597 0 0.0229511 3.8147e-06
31 1 0.969633 0.172584 0.093597 0 -0.0303459 -1.90735e-06
32 1 0.469633 0.172584 0.093597 0 -0.030344 0
ITEM: TIMESTEP
3
ITEM: NUMBER OF ATOMS
32
ITEM: BOX BOUNDS xy xz yz pp pp pp
-4.7826766967773438e-03 8.2391395568847656e+00 1.8398078680038452e+00
-3.7661075592041016e-02 2.2120539069175720e+01 0.0000000000000000e+00
-1.1393904685974121e-02 5.1938598752021790e+00 0.0000000000000000e+00
ITEM: ATOMS id type xs ys zs fx fy fz
1 1 0.922077 0.338118 0.593598 0 0.0139999 -9.53674e-06
2 1 0.422078 0.338118 0.593598 0 0.0140076 -1.14441e-05
3 1 0.183888 0.297009 0.0935969 0 -0.00983047 7.62939e-06
4 1 0.683888 0.297009 0.093597 0 -0.00984192 7.62939e-06
5 1 0.136604 0.461597 0.593598 0 0.0280685 -7.62939e-06
6 1 0.636604 0.461597 0.593597 0 0.0280685 0
7 1 0.898558 0.419987 0.0935967 0 0.0531292 9.53674e-06
8 1 0.398558 0.419987 0.0935971 0 0.0531235 3.8147e-06
9 1 0.850695 0.586591 0.593597 0 -0.0532417 9.53674e-06
10 1 0.350695 0.586591 0.593597 0 -0.0532436 7.62939e-06
11 1 0.0653661 0.709566 0.593597 0 0.00985527 -7.62939e-06
12 1 0.565366 0.709566 0.593597 0 0.00985336 1.90735e-06
13 1 0.827176 0.668456 0.0935971 0 -0.0138988 -3.8147e-06
14 1 0.112649 0.54498 0.0935975 0 -0.028101 -3.8147e-06
15 1 0.612649 0.54498 0.0935974 0 -0.0281048 -7.62939e-06
16 1 0.327176 0.668456 0.0935968 0 -0.0139065 1.90735e-06
17 1 0.779624 0.833977 0.593598 0 -0.0134087 -2.09808e-05
18 1 0.279625 0.833977 0.593597 0 -0.0134125 -3.8147e-06
19 1 0.993302 0.960412 0.593597 0 -0.00203133 -5.72205e-06
20 1 0.493302 0.960412 0.593597 0 -0.00202179 -7.62939e-06
21 1 0.0420658 0.790671 0.0935965 0 -0.0133686 1.14441e-05
22 1 0.542066 0.790671 0.093597 0 -0.0133553 3.8147e-06
23 1 0.757412 0.911295 0.0935965 0 0.0183144 1.52588e-05
24 1 0.257412 0.911295 0.0935969 0 0.0183296 5.72205e-06
25 1 0.991843 0.0952741 0.593597 0 -0.0179482 -5.72205e-06
26 1 0.491843 0.0952744 0.593597 0 -0.0179634 -3.8147e-06
27 1 0.255952 0.0461619 0.0935973 0 0.00184059 3.8147e-06
28 1 0.755952 0.0461614 0.0935968 0 0.0018692 5.72205e-06
29 1 0.207188 0.215904 0.593597 0 0.0132027 3.8147e-06
30 1 0.707188 0.215904 0.593597 0 0.0132065 -3.8147e-06
31 1 0.969629 0.172596 0.0935968 0 0.0134029 5.72205e-06
32 1 0.46963 0.172596 0.093597 0 0.0134068 -1.90735e-06
ITEM: TIMESTEP
4
ITEM: NUMBER OF ATOMS
32
ITEM: BOX BOUNDS xy xz yz pp pp pp
-4.7826766967773438e-03 8.2391395568847656e+00 1.8398078680038452e+00
-3.7661075592041016e-02 2.2120539069175720e+01 0.0000000000000000e+00
-1.1393904685974121e-02 5.1938598752021790e+00 0.0000000000000000e+00
ITEM: ATOMS id type xs ys zs fx fy fz
1 1 0.921864 0.33886 0.593597 0 0.00953484 9.53674e-06
2 1 0.421864 0.33886 0.593597 0 0.00953865 5.72205e-06
3 1 0.183771 0.297416 0.0935973 0 0.00328827 -7.62939e-06
4 1 0.683771 0.297416 0.0935975 0 0.00329208 -7.62939e-06
5 1 0.136448 0.462139 0.593597 0 -0.00725174 1.14441e-05
6 1 0.636448 0.462139 0.593597 0 -0.00726318 5.72205e-06
7 1 0.898263 0.421012 0.0935974 0 0.0056324 -9.53674e-06
8 1 0.398263 0.421012 0.0935974 0 0.0056324 -1.14441e-05
9 1 0.85099 0.585563 0.593597 0 -0.00562096 -7.62939e-06
10 1 0.35099 0.585563 0.593597 0 -0.00562859 -3.8147e-06
11 1 0.065483 0.709159 0.593597 0 -0.00334167 -3.8147e-06
12 1 0.565483 0.709159 0.593597 0 -0.00334358 0
13 1 0.827389 0.667715 0.0935968 0 -0.0095768 5.72205e-06
14 1 0.112806 0.544436 0.0935974 0 0.0072403 -3.8147e-06
15 1 0.612806 0.544436 0.0935968 0 0.00724602 3.8147e-06
16 1 0.327389 0.667715 0.0935969 0 -0.00957489 5.72205e-06
17 1 0.779699 0.833716 0.593597 0 -0.0069828 5.72205e-06
18 1 0.2797 0.833716 0.593597 0 -0.00698853 -1.90735e-06
19 1 0.993263 0.960547 0.593597 0 -0.0174065 1.33514e-05
20 1 0.493263 0.960548 0.593597 0 -0.0174065 9.53674e-06
21 1 0.0422642 0.789981 0.0935972 0 0.00998116 -1.90735e-06
22 1 0.542264 0.789981 0.0935971 0 0.00998688 0
23 1 0.757397 0.911347 0.0935975 0 -0.0107365 -1.14441e-05
24 1 0.257397 0.911347 0.0935973 0 -0.0107536 -5.72205e-06
25 1 0.991856 0.095228 0.593597 0 0.0105705 1.33514e-05
26 1 0.491856 0.095228 0.593597 0 0.0105724 5.72205e-06
27 1 0.255992 0.0460249 0.0935976 0 0.0175304 -1.52588e-05
28 1 0.755992 0.0460249 0.0935972 0 0.0175247 -1.14441e-05
29 1 0.20699 0.216592 0.593597 0 -0.00984001 5.72205e-06
30 1 0.70699 0.216592 0.593597 0 -0.00984383 3.8147e-06
31 1 0.969554 0.172858 0.0935972 0 0.00699615 -3.8147e-06
32 1 0.469555 0.172858 0.0935968 0 0.00699234 1.90735e-06
ITEM: TIMESTEP
5
ITEM: NUMBER OF ATOMS
32
ITEM: BOX BOUNDS xy xz yz pp pp pp
-4.7826766967773438e-03 8.2391395568847656e+00 1.8398078680038452e+00
-3.7661075592041016e-02 2.2120539069175720e+01 0.0000000000000000e+00
-1.1393904685974121e-02 5.1938598752021790e+00 0.0000000000000000e+00
ITEM: ATOMS id type xs ys zs fx fy fz
1 1 0.921798 0.339091 0.593597 0 -0.00304413 -1.90735e-06
2 1 0.421798 0.339091 0.593597 0 -0.00304794 -5.72205e-06
3 1 0.183742 0.297514 0.0935969 0 0.00529099 7.62939e-06
4 1 0.683742 0.297515 0.0935971 0 0.00528908 3.8147e-06
5 1 0.136459 0.462101 0.593598 0 -0.00400734 -1.14441e-05
6 1 0.636459 0.462101 0.593597 0 -0.00400352 -9.53674e-06
7 1 0.898203 0.421221 0.0935968 0 -0.000303268 5.72205e-06
8 1 0.398203 0.421221 0.0935968 0 -0.000299454 1.14441e-05
9 1 0.85105 0.585354 0.593597 0 0.000284195 3.8147e-06
10 1 0.35105 0.585354 0.593597 0 0.000293732 1.90735e-06
11 1 0.0655115 0.70906 0.593597 0 -0.00528908 5.72205e-06
12 1 0.565512 0.70906 0.593597 0 -0.00528526 1.90735e-06
13 1 0.827455 0.667484 0.0935971 0 0.00305557 -3.8147e-06
14 1 0.112795 0.544474 0.0935971 0 0.00399208 1.90735e-06
15 1 0.612795 0.544474 0.093597 0 0.0039959 1.90735e-06
16 1 0.327456 0.667484 0.0935972 0 0.00305176 -1.90735e-06
17 1 0.779738 0.833582 0.593597 0 -0.00766373 0
18 1 0.279738 0.833582 0.593597 0 -0.0076561 0
19 1 0.993331 0.960311 0.593598 0 -0.000843048 -7.62939e-06
20 1 0.493331 0.960311 0.593597 0 -0.000844955 -1.14441e-05
21 1 0.0422471 0.79004 0.0935972 0 -0.00402641 -3.8147e-06
22 1 0.542247 0.79004 0.0935971 0 -0.00403023 -1.90735e-06
23 1 0.75744 0.911197 0.093597 0 0.00680161 5.72205e-06
24 1 0.25744 0.911197 0.093597 0 0.00680161 5.72205e-06
25 1 0.991813 0.0953761 0.593598 0 -0.0067482 -7.62939e-06
26 1 0.491814 0.0953761 0.593597 0 -0.00673103 -5.72205e-06
27 1 0.255923 0.046263 0.0935967 0 0.00082016 1.14441e-05
28 1 0.755923 0.0462629 0.0935965 0 0.00082016 9.53674e-06
29 1 0.207007 0.216534 0.593597 0 0.0039978 -5.72205e-06
30 1 0.707007 0.216534 0.593597 0 0.00400543 -3.8147e-06
31 1 0.969516 0.172992 0.093597 0 0.00766373 5.72205e-06
32 1 0.469516 0.172992 0.0935969 0 0.00765991 -1.90735e-06
ITEM: TIMESTEP
6
ITEM: NUMBER OF ATOMS
32
ITEM: BOX BOUNDS xy xz yz pp pp pp
-4.7826766967773438e-03 8.2391395568847656e+00 1.8398078680038452e+00
-3.7661075592041016e-02 2.2120539069175720e+01 0.0000000000000000e+00
-1.1393904685974121e-02 5.1938598752021790e+00 0.0000000000000000e+00
ITEM: ATOMS id type xs ys zs fx fy fz
1 1 0.921789 0.339122 0.593597 0 -0.00451851 3.8147e-06
2 1 0.421789 0.339122 0.593597 0 -0.00451469 1.14441e-05
3 1 0.18369 0.297696 0.0935975 0 0.00359535 -7.62939e-06
4 1 0.68369 0.297696 0.0935974 0 0.00359535 -5.72205e-06
5 1 0.136494 0.461981 0.593597 0 0.00224876 9.53674e-06
6 1 0.636494 0.461981 0.593596 0 0.00225258 1.52588e-05
7 1 0.898177 0.421312 0.0935972 0 0.001297 -9.53674e-06
8 1 0.398177 0.421312 0.0935977 0 0.00128746 -1.33514e-05
9 1 0.851076 0.585263 0.593597 0 -0.00129318 -1.90735e-06
10 1 0.351077 0.585263 0.593597 0 -0.00129318 3.8147e-06
11 1 0.0655636 0.708879 0.593597 0 -0.00357628 -1.90735e-06
12 1 0.565564 0.708879 0.593597 0 -0.003582 -5.72205e-06
13 1 0.827464 0.667452 0.0935968 0 0.00450516 7.62939e-06
14 1 0.11276 0.544593 0.0935972 0 -0.00224876 -9.53674e-06
15 1 0.61276 0.544593 0.0935973 0 -0.0022583 -5.72205e-06
16 1 0.327465 0.667452 0.0935972 0 0.00451279 0
17 1 0.779812 0.833324 0.593597 0 0.000537872 -3.8147e-06
18 1 0.279812 0.833324 0.593597 0 0.000524521 3.8147e-06
19 1 0.993369 0.960178 0.593597 0 0.000173569 0
20 1 0.493369 0.960178 0.593596 0 0.000185013 7.62939e-06
21 1 0.0422685 0.789966 0.0935968 0 -8.01086e-05 5.72205e-06
22 1 0.542268 0.789966 0.0935969 0 -8.2016e-05 1.90735e-06
23 1 0.757411 0.9113 0.0935973 0 -0.00218201 -5.72205e-06
24 1 0.257411 0.9113 0.0935975 0 -0.00216866 -5.72205e-06
25 1 0.991843 0.0952742 0.593597 0 0.00221062 5.72205e-06
26 1 0.491843 0.0952746 0.593597 0 0.00217438 9.53674e-06
27 1 0.255885 0.0463961 0.0935975 0 -0.00018692 -7.62939e-06
28 1 0.755885 0.046396 0.0935973 0 -0.000173569 -5.72205e-06
29 1 0.206985 0.216609 0.593597 0 6.86646e-05 3.8147e-06
30 1 0.706985 0.216609 0.593597 0 5.91278e-05 0
31 1 0.969441 0.17325 0.0935975 0 -0.00053978 -5.72205e-06
32 1 0.469442 0.17325 0.0935968 0 -0.000530243 5.72205e-06
ITEM: TIMESTEP
7
ITEM: NUMBER OF ATOMS
32
ITEM: BOX BOUNDS xy xz yz pp pp pp
-4.7826766967773438e-03 8.2391395568847656e+00 1.8398078680038452e+00
-3.7661075592041016e-02 2.2120539069175720e+01 0.0000000000000000e+00
-1.1393904685974121e-02 5.1938598752021790e+00 0.0000000000000000e+00
ITEM: ATOMS id type xs ys zs fx fy fz
1 1 0.921808 0.339055 0.593598 0 0.000391006 -1.14441e-05
2 1 0.421809 0.339055 0.593597 0 0.000387192 -7.62939e-06
3 1 0.183666 0.297779 0.0935971 0 0.00047493 3.8147e-06
4 1 0.683666 0.297779 0.093597 0 0.00047493 5.72205e-06
5 1 0.136488 0.462 0.593597 0 -0.00104141 -5.72205e-06
6 1 0.636488 0.462 0.593597 0 -0.00103569 -7.62939e-06
7 1 0.898167 0.421346 0.0935966 0 0.000320435 1.14441e-05
8 1 0.398168 0.421346 0.0935969 0 0.000324249 7.62939e-06
9 1 0.851086 0.585229 0.593597 0 -0.000328064 -3.8147e-06
10 1 0.351086 0.585229 0.593597 0 -0.000333786 -1.33514e-05
11 1 0.0655876 0.708795 0.593597 0 -0.00047493 -1.90735e-06
12 1 0.565588 0.708795 0.593597 0 -0.000478745 5.72205e-06
13 1 0.827445 0.66752 0.0935973 0 -0.000394821 -3.8147e-06
14 1 0.112766 0.544575 0.0935966 0 0.00104713 1.52588e-05
15 1 0.612766 0.544575 0.0935969 0 0.00104332 5.72205e-06
16 1 0.327445 0.66752 0.0935972 0 -0.000385284 0
17 1 0.77982 0.833295 0.593597 0 -6.29425e-05 -1.90735e-06
18 1 0.279821 0.833295 0.593597 0 -5.72205e-05 7.62939e-06
19 1 0.993374 0.960162 0.593597 0 0.001091 -5.72205e-06
20 1 0.493374 0.960162 0.593597 0 0.00107002 5.72205e-06
21 1 0.0422719 0.789954 0.0935971 0 0.000684738 0
22 1 0.542272 0.789954 0.093597 0 0.000686646 -1.90735e-06
23 1 0.757416 0.91128 0.093597 0 -0.000846863 -1.90735e-06
24 1 0.257417 0.91128 0.0935972 0 -0.000862122 -3.8147e-06
25 1 0.991837 0.0952946 0.593597 0 0.000831604 -1.90735e-06
26 1 0.491837 0.0952945 0.593597 0 0.000841141 3.8147e-06
27 1 0.25588 0.0464125 0.0935971 0 -0.00105476 -1.90735e-06
28 1 0.75588 0.0464126 0.093597 0 -0.00107002 5.72205e-06
29 1 0.206982 0.216621 0.593597 0 -0.000684738 3.8147e-06
30 1 0.706982 0.216621 0.593597 0 -0.000686646 5.72205e-06
31 1 0.969433 0.173279 0.0935972 0 6.48499e-05 -7.62939e-06
32 1 0.469433 0.173279 0.0935971 0 6.48499e-05 -5.72205e-06
ITEM: TIMESTEP
8
ITEM: NUMBER OF ATOMS
32
ITEM: BOX BOUNDS xy xz yz pp pp pp
-4.7826766967773438e-03 8.2391395568847656e+00 1.8398078680038452e+00
-3.7661075592041016e-02 2.2120539069175720e+01 0.0000000000000000e+00
-1.1393904685974121e-02 5.1938598752021790e+00 0.0000000000000000e+00
ITEM: ATOMS id type xs ys zs fx fy fz
1 1 0.921808 0.339055 0.593597 0 -0.000110626 7.62939e-06
2 1 0.421808 0.339055 0.593597 0 -0.000110626 9.53674e-06
3 1 0.183662 0.297796 0.0935973 0 -0.000240326 -5.72205e-06
4 1 0.683662 0.297796 0.0935974 0 -0.000246048 -9.53674e-06
5 1 0.136493 0.461983 0.593597 0 -0.000169754 3.8147e-06
6 1 0.636493 0.461983 0.593597 0 -0.000171661 3.8147e-06
7 1 0.898165 0.421355 0.0935974 0 0.000524521 -3.8147e-06
8 1 0.398165 0.421355 0.0935974 0 0.000522614 -5.72205e-06
9 1 0.851089 0.58522 0.593597 0 -0.000520706 9.53674e-06
10 1 0.351089 0.58522 0.593596 0 -0.000518799 1.33514e-05
11 1 0.0655924 0.708778 0.593597 0 0.000240326 1.90735e-06
12 1 0.565592 0.708778 0.593597 0 0.000249863 -7.62939e-06
13 1 0.827445 0.667519 0.0935971 0 0.000108719 0
14 1 0.112761 0.544592 0.0935977 0 0.000164032 -1.14441e-05
15 1 0.612761 0.544592 0.0935973 0 0.000171661 -7.62939e-06
16 1 0.327445 0.667519 0.0935972 0 9.91821e-05 -3.8147e-06
17 1 0.779821 0.833291 0.593597 0 -4.76837e-05 3.8147e-06
18 1 0.279822 0.833291 0.593598 0 -5.34058e-05 -1.14441e-05
19 1 0.993369 0.960179 0.593597 0 0.000347137 1.90735e-06
20 1 0.493369 0.960179 0.593597 0 0.000352859 -1.90735e-06
21 1 0.0422687 0.789965 0.0935971 0 -0.000579834 -1.90735e-06
22 1 0.542269 0.789965 0.0935969 0 -0.000574112 1.90735e-06
23 1 0.757421 0.911263 0.0935968 0 0.000217438 3.8147e-06
24 1 0.257422 0.911263 0.0935968 0 0.000225067 5.72205e-06
25 1 0.991832 0.0953116 0.593597 0 -0.000205994 -3.8147e-06
26 1 0.491832 0.0953116 0.593597 0 -0.000211716 -7.62939e-06
27 1 0.255885 0.0463951 0.0935969 0 -0.000366211 3.8147e-06
28 1 0.755885 0.046395 0.0935974 0 -0.000358582 0
29 1 0.206985 0.21661 0.593597 0 0.000570297 0
30 1 0.706985 0.21661 0.593597 0 0.000577927 0
31 1 0.969432 0.173283 0.0935966 0 5.72205e-05 5.72205e-06
32 1 0.469432 0.173283 0.0935967 0 5.72205e-05 5.72205e-06
ITEM: TIMESTEP
9
ITEM: NUMBER OF ATOMS
32
ITEM: BOX BOUNDS xy xz yz pp pp pp
-4.7826766967773438e-03 8.2391395568847656e+00 1.8398078680038452e+00
-3.7661075592041016e-02 2.2120539069175720e+01 0.0000000000000000e+00
-1.1393904685974121e-02 5.1938598752021790e+00 0.0000000000000000e+00
ITEM: ATOMS id type xs ys zs fx fy fz
1 1 0.921808 0.339055 0.593597 0 -0.000110626 7.62939e-06
2 1 0.421808 0.339055 0.593597 0 -0.000110626 9.53674e-06
3 1 0.183662 0.297796 0.0935973 0 -0.000240326 -5.72205e-06
4 1 0.683662 0.297796 0.0935974 0 -0.000246048 -9.53674e-06
5 1 0.136493 0.461983 0.593597 0 -0.000169754 3.8147e-06
6 1 0.636493 0.461983 0.593597 0 -0.000171661 3.8147e-06
7 1 0.898165 0.421355 0.0935974 0 0.000524521 -3.8147e-06
8 1 0.398165 0.421355 0.0935974 0 0.000522614 -5.72205e-06
9 1 0.851089 0.58522 0.593597 0 -0.000520706 9.53674e-06
10 1 0.351089 0.58522 0.593596 0 -0.000518799 1.33514e-05
11 1 0.0655924 0.708778 0.593597 0 0.000240326 1.90735e-06
12 1 0.565592 0.708778 0.593597 0 0.000249863 -7.62939e-06
13 1 0.827445 0.667519 0.0935971 0 0.000108719 0
14 1 0.112761 0.544592 0.0935977 0 0.000164032 -1.14441e-05
15 1 0.612761 0.544592 0.0935973 0 0.000171661 -7.62939e-06
16 1 0.327445 0.667519 0.0935972 0 9.91821e-05 -3.8147e-06
17 1 0.779821 0.833291 0.593597 0 -4.76837e-05 3.8147e-06
18 1 0.279822 0.833291 0.593598 0 -5.34058e-05 -1.14441e-05
19 1 0.993369 0.960179 0.593597 0 0.000347137 1.90735e-06
20 1 0.493369 0.960179 0.593597 0 0.000352859 -1.90735e-06
21 1 0.0422687 0.789965 0.0935971 0 -0.000579834 -1.90735e-06
22 1 0.542269 0.789965 0.0935969 0 -0.000574112 1.90735e-06
23 1 0.757421 0.911263 0.0935968 0 0.000217438 3.8147e-06
24 1 0.257422 0.911263 0.0935968 0 0.000225067 5.72205e-06
25 1 0.991832 0.0953116 0.593597 0 -0.000205994 -3.8147e-06
26 1 0.491832 0.0953116 0.593597 0 -0.000211716 -7.62939e-06
27 1 0.255885 0.0463951 0.0935969 0 -0.000366211 3.8147e-06
28 1 0.755885 0.046395 0.0935974 0 -0.000358582 0
29 1 0.206985 0.21661 0.593597 0 0.000570297 0
30 1 0.706985 0.21661 0.593597 0 0.000577927 0
31 1 0.969432 0.173283 0.0935966 0 5.72205e-05 5.72205e-06
32 1 0.469432 0.173283 0.0935967 0 5.72205e-05 5.72205e-06
