ITEM: TIMESTEP
0
ITEM: NUMBER OF ATOMS
32
ITEM: BOX BOUNDS xy xz yz pp pp pp
-3.4762620925903320e-03 8.3974125981330872e+00 1.9993829131126404e+00
-4.2882263660430908e-02 2.2125610172748566e+01 4.4107437133789062e-06
1.5788495540618896e-02 5.1666774749755859e+00 -1.5008449554443359e-04
ITEM: ATOMS id type xs ys zs fx fy fz
1 1 0.914091 0.33658 0.593597 0 0.00320435 0
2 1 0.414091 0.33658 0.593597 0 0.00320053 -3.8147e-06
3 1 0.177078 0.294997 0.0935973 0 0.00351524 7.62939e-06
4 1 0.677078 0.294997 0.0935972 0 0.00351524 5.72205e-06
5 1 0.125049 0.461582 0.593597 0 0.000854492 -2.09808e-05
6 1 0.625049 0.461582 0.593597 0 0.000852585 -2.09808e-05
7 1 0.888036 0.419999 0.0935965 0 -0.00138283 1.33514e-05
8 1 0.388036 0.419999 0.0935967 0 -0.00137138 1.52588e-05
9 1 0.836009 0.586581 0.593597 0 0.00129128 -5.72205e-06
10 1 0.336008 0.58658 0.593597 0 0.00129318 1.90735e-06
11 1 0.0469682 0.711577 0.593597 0 -0.00349808 -1.14441e-05
12 1 0.546968 0.711577 0.593598 0 -0.00350189 -2.09808e-05
13 1 0.809954 0.67 0.0935966 0 -0.00326347 1.71661e-05
14 1 0.0989947 0.545001 0.0935972 0 -0.00101471 1.52588e-05
15 1 0.598995 0.545001 0.0935972 0 -0.0010128 1.71661e-05
16 1 0.309954 0.67 0.0935969 0 -0.00327301 1.14441e-05
17 1 0.757928 0.836574 0.593597 0 0.0176945 1.33514e-05
18 1 0.257928 0.836574 0.593597 0 0.0176964 9.53674e-06
19 1 0.968887 0.961574 0.593597 0 -0.329006 4.00543e-05
20 1 0.468887 0.961574 0.593597 0 -0.329002 3.8147e-05
21 1 0.0209137 0.794998 0.0935969 0 0.018961 5.72205e-06
22 1 0.520914 0.794998 0.093597 0 0.018959 0
23 1 0.731874 0.919994 0.0935972 0 -0.607676 -3.8147e-06
24 1 0.231874 0.919994 0.0935972 0 -0.607676 -3.8147e-06
25 1 0.992174 0.0865748 0.593597 0 0.607771 -3.8147e-06
26 1 0.492174 0.0865748 0.593597 0 0.607771 -3.8147e-06
27 1 0.255161 0.0449931 0.0935972 0 0.329123 -4.76837e-05
28 1 0.755161 0.0449931 0.0935972 0 0.32913 -4.76837e-05
29 1 0.203132 0.211577 0.593597 0 -0.0190277 -7.62939e-06
30 1 0.703132 0.211577 0.593597 0 -0.0190258 -5.72205e-06
31 1 0.96612 0.169994 0.0935969 0 -0.0175495 -1.90735e-06
32 1 0.46612 0.169994 0.093597 0 -0.0175514 -1.90735e-06
ITEM: TIMESTEP
1
ITEM: NUMBER OF ATOMS
32
ITEM: BOX BOUNDS xy xz yz pp pp pp
-3.4762620925903320e-03 8.3974125981330872e+00 1.9993829131126404e+00
-4.2882263660430908e-02 2.2125610172748566e+01 4.4107437133789062e-06
1.5788495540618896e-02 5.1666774749755859e+00 -1.5008449554443359e-04
ITEM: ATOMS id type xs ys zs fx fy fz
1 1 0.914083 0.336604 0.593597 0 -0.00255203 -9.53674e-06
2 1 0.414083 0.336604 0.593597 0 -0.00255013 0
3 1 0.17707 0.295023 0.0935975 0 0.00333023 7.62939e-06
4 1 0.67707 0.295023 0.0935973 0 0.00332832 1.33514e-05
5 1 0.125047 0.461588 0.593597 0 0.00227547 1.33514e-05
6 1 0.625047 0.461588 0.593597 0 0.00226974 1.90735e-05
7 1 0.88804 0.419989 0.0935969 0 0.000307083 -7.62939e-06
8 1 0.388039 0.419989 0.0935971 0 0.000299454 -9.53674e-06
9 1 0.836006 0.58659 0.593597 0 -0.000371933 7.62939e-06
10 1 0.336005 0.58659 0.593597 0 -0.000377655 -1.90735e-06
11 1 0.0469763 0.711551 0.593597 0 -0.00328255 -3.8147e-06
12 1 0.546976 0.711551 0.593597 0 -0.00328064 1.90735e-06
13 1 0.809962 0.669976 0.0935972 0 0.00246239 3.8147e-06
14 1 0.0989971 0.544993 0.0935976 0 -0.00237274 -2.67029e-05
15 1 0.598997 0.544993 0.0935977 0 -0.00237846 -2.28882e-05
16 1 0.309962 0.669976 0.0935973 0 0.00247002 0
17 1 0.757887 0.836706 0.593597 0 -0.098341 -5.72205e-06
18 1 0.257887 0.836706 0.593597 0 -0.0983448 -1.90735e-06
19 1 0.96965 0.959132 0.593598 0 0.0645027 3.43323e-05
20 1 0.46965 0.959132 0.593598 0 0.0644951 3.43323e-05
21 1 0.0208697 0.795139 0.093597 0 -0.107376 1.90735e-06
22 1 0.52087 0.795139 0.093597 0 -0.107368 3.8147e-06
23 1 0.733283 0.915483 0.0935971 0 -0.0954266 2.86102e-05
24 1 0.233283 0.915483 0.0935971 0 -0.0954304 2.67029e-05
25 1 0.990765 0.0910857 0.593597 0 0.0955715 -4.3869e-05
26 1 0.490765 0.0910857 0.593597 0 0.0955715 -4.57764e-05
27 1 0.254398 0.0474359 0.0935956 0 -0.0644093 -3.05176e-05
28 1 0.754398 0.0474359 0.0935956 0 -0.0644035 -2.67029e-05
29 1 0.203176 0.211436 0.593597 0 0.107265 1.14441e-05
30 1 0.703176 0.211436 0.593597 0 0.107269 7.62939e-06
31 1 0.966161 0.169864 0.0935969 0 0.0984287 9.53674e-06
32 1 0.46616 0.169864 0.0935969 0 0.0984192 1.14441e-05
ITEM: TIMESTEP
2
ITEM: NUMBER OF ATOMS
32
ITEM: BOX BOUNDS xy xz yz pp pp pp
-3.4762620925903320e-03 8.3974125981330872e+00 1.9993829131126404e+00
-4.2882263660430908e-02 2.2125610172748566e+01 4.4107437133789062e-06
1.5788495540618896e-02 5.1666774749755859e+00 -1.5008449554443359e-04
ITEM: ATOMS id type xs ys zs fx fy fz
1 1 0.914101 0.336546 0.593596 0 0.0617828 2.28882e-05
2 1 0.414101 0.336546 0.593597 0 0.061779 1.52588e-05
3 1 0.177046 0.295098 0.0935983 0 0.0819912 -1.52588e-05
4 1 0.677046 0.295098 0.0935986 0 0.0819893 -1.90735e-05
5 1 0.125031 0.46164 0.593598 0 -0.00314713 -2.86102e-05
6 1 0.625031 0.461639 0.593599 0 -0.00313759 -3.24249e-05
7 1 0.888037 0.419996 0.0935962 0 0.0027771 2.47955e-05
8 1 0.388037 0.419996 0.0935962 0 0.00279045 1.90735e-05
9 1 0.836008 0.586582 0.593598 0 -0.00283241 -2.86102e-05
10 1 0.336008 0.586582 0.593597 0 -0.00282669 -1.33514e-05
11 1 0.0469996 0.711477 0.593597 0 -0.0820503 -1.90735e-06
12 1 0.547 0.711477 0.593597 0 -0.0820446 -7.62939e-06
13 1 0.809944 0.670031 0.0935976 0 -0.0618668 -1.33514e-05
14 1 0.0990138 0.54494 0.0935951 0 0.00305557 3.05176e-05
15 1 0.599014 0.544939 0.0935955 0 0.00306702 2.47955e-05
16 1 0.309944 0.670031 0.0935973 0 -0.0618744 -1.14441e-05
17 1 0.758581 0.834484 0.593597 0 0.0413609 3.05176e-05
18 1 0.258581 0.834484 0.593597 0 0.0413551 2.28882e-05
19 1 0.969202 0.960568 0.593601 0 -0.0232697 3.43323e-05
20 1 0.469202 0.960568 0.593601 0 -0.0232658 2.28882e-05
21 1 0.0216275 0.792713 0.0935972 0 -0.00506973 1.90735e-06
22 1 0.521628 0.792713 0.0935974 0 -0.00507736 1.90735e-06
23 1 0.73397 0.913285 0.0935998 0 -0.0482044 1.33514e-05
24 1 0.233969 0.913285 0.0935997 0 -0.0481987 1.71661e-05
25 1 0.990078 0.0932875 0.593593 0 0.0481243 1.14441e-05
26 1 0.490077 0.0932875 0.593593 0 0.0481148 1.14441e-05
27 1 0.254846 0.0460021 0.0935927 0 0.0234032 -3.24249e-05
28 1 0.754846 0.0460022 0.093593 0 0.0233917 -3.62396e-05
29 1 0.202419 0.21386 0.593598 0 0.00523376 -1.71661e-05
30 1 0.702419 0.21386 0.593598 0 0.00522804 -9.53674e-06
31 1 0.965466 0.172088 0.0935978 0 -0.0412941 -1.90735e-05
32 1 0.465466 0.172088 0.0935981 0 -0.0412846 -1.90735e-05
ITEM: TIMESTEP
3
ITEM: NUMBER OF ATOMS
32
ITEM: BOX BOUNDS xy xz yz pp pp pp
-3.4762620925903320e-03 8.3974125981330872e+00 1.9993829131126404e+00
-4.2882263660430908e-02 2.2125610172748566e+01 4.4107437133789062e-06
1.5788495540618896e-02 5.1666774749755859e+00 -1.5008449554443359e-04
ITEM: ATOMS id type xs ys zs fx fy fz
1 1 0.913802 0.337503 0.593598 0 0.0240211 9.53674e-06
2 1 0.413802 0.337503 0.593598 0 0.0240192 0
3 1 0.176635 0.296415 0.0935975 0 0.0125961 9.53674e-06
4 1 0.676635 0.296415 0.0935977 0 0.0125923 3.8147e-06
5 1 0.125041 0.461606 0.593596 0 0.0195999 7.62939e-06
6 1 0.625041 0.461606 0.593597 0 0.0195961 1.90735e-06
7 1 0.888023 0.420042 0.0935976 0 0.0432358 -9.53674e-06
8 1 0.388023 0.420042 0.0935972 0 0.0432377 -3.8147e-06
9 1 0.836023 0.586534 0.593596 0 -0.0432949 1.71661e-05
10 1 0.336023 0.586534 0.593596 0 -0.0432949 1.33514e-05
11 1 0.0474111 0.710159 0.593596 0 -0.0125656 -1.90735e-06
12 1 0.547411 0.710159 0.593597 0 -0.0125809 -1.90735e-06
13 1 0.810244 0.669073 0.0935968 0 -0.0239792 -5.72205e-06
14 1 0.099004 0.544971 0.0935963 0 -0.0196781 0
15 1 0.599004 0.544971 0.0935965 0 -0.0196762 -1.90735e-06
16 1 0.310244 0.669073 0.0935965 0 -0.0239868 -7.62939e-06
17 1 0.758595 0.834441 0.593599 0 -0.00716972 0
18 1 0.258595 0.834441 0.593598 0 -0.00715637 7.62939e-06
19 1 0.969176 0.96065 0.593605 0 0.0097084 -5.72205e-06
20 1 0.469176 0.96065 0.593604 0 0.00971031 -3.8147e-06
21 1 0.0218896 0.791873 0.0935974 0 -0.0259914 5.72205e-06
22 1 0.52189 0.791873 0.0935976 0 -0.0259991 1.90735e-06
23 1 0.734422 0.911836 0.0936016 0 0.0451298 2.47955e-05
24 1 0.234422 0.911836 0.0936017 0 0.0451298 1.90735e-05
25 1 0.989625 0.0947356 0.593592 0 -0.0450134 -1.33514e-05
26 1 0.489625 0.0947355 0.593592 0 -0.0450096 -1.33514e-05
27 1 0.254871 0.0459225 0.0935895 0 -0.00972748 7.62939e-06
28 1 0.754871 0.0459225 0.0935897 0 -0.00972176 7.62939e-06
29 1 0.202157 0.214701 0.593597 0 0.0259647 -7.62939e-06
30 1 0.702157 0.214701 0.593597 0 0.0259628 -1.33514e-05
31 1 0.965452 0.172133 0.0935968 0 0.00716782 -1.90735e-05
32 1 0.465452 0.172132 0.0935971 0 0.00717354 -2.86102e-05
ITEM: TIMESTEP
4
ITEM: NUMBER OF ATOMS
32
ITEM: BOX BOUNDS xy xz yz pp pp pp
-3.4762620925903320e-03 8.3974125981330872e+00 1.9993829131126404e+00
-4.2882263660430908e-02 2.2125610172748566e+01 4.4107437133789062e-06
1.5788495540618896e-02 5.1666774749755859e+00 -1.5008449554443359e-04
ITEM: ATOMS id type xs ys zs fx fy fz
1 1 0.913523 0.338397 0.593599 0 0.00604439 -3.05176e-05
2 1 0.413523 0.338397 0.593599 0 0.00606155 -2.47955e-05
3 1 0.176371 0.29726 0.0935979 0 -0.00555038 0
4 1 0.676371 0.29726 0.0935976 0 -0.00554657 0
5 1 0.12493 0.461961 0.593596 0 -0.0039711 1.14441e-05
6 1 0.62493 0.461961 0.593596 0 -0.0039711 1.33514e-05
7 1 0.887761 0.420881 0.0935975 0 0.012886 1.90735e-06
8 1 0.387761 0.420881 0.0935974 0 0.0128822 1.90735e-06
9 1 0.836285 0.585694 0.593597 0 -0.0128822 -9.53674e-06
10 1 0.336285 0.585694 0.593597 0 -0.012888 -1.14441e-05
11 1 0.0476748 0.709315 0.593596 0 0.0055275 5.72205e-06
12 1 0.547675 0.709315 0.593596 0 0.00553322 7.62939e-06
13 1 0.810523 0.668178 0.0935959 0 -0.00609398 1.90735e-05
14 1 0.0991157 0.544613 0.0935969 0 0.00398636 -7.62939e-06
15 1 0.599116 0.544613 0.0935968 0 0.00398254 -1.90735e-06
16 1 0.310523 0.668178 0.0935955 0 -0.006073 2.67029e-05
17 1 0.758643 0.834285 0.593599 0 -0.0135269 0
18 1 0.258643 0.834285 0.5936 0 -0.0135345 0
19 1 0.969107 0.960872 0.593606 0 -0.0136986 9.53674e-06
20 1 0.469107 0.960872 0.593605 0 -0.0137024 2.47955e-05
21 1 0.0221639 0.790995 0.093598 0 0.00916862 7.62939e-06
22 1 0.522164 0.790995 0.0935979 0 0.00916672 1.14441e-05
23 1 0.734364 0.912023 0.0936045 0 -0.00509644 5.72205e-06
24 1 0.234363 0.912023 0.0936042 0 -0.00510216 1.71661e-05
25 1 0.989683 0.0945516 0.593591 0 0.00510025 -2.47955e-05
26 1 0.489683 0.0945515 0.593591 0 0.00510979 -3.24249e-05
27 1 0.25494 0.0457019 0.0935887 0 0.0137272 -1.14441e-05
28 1 0.75494 0.045702 0.0935889 0 0.0137157 -5.72205e-06
29 1 0.201882 0.215579 0.593596 0 -0.00916672 -9.53674e-06
30 1 0.701882 0.215579 0.593596 0 -0.00915909 -1.14441e-05
31 1 0.965404 0.172289 0.0935948 0 0.0135384 5.72205e-06
32 1 0.465403 0.172289 0.0935943 0 0.0135326 1.14441e-05
ITEM: TIMESTEP
5
ITEM: NUMBER OF ATOMS
32
ITEM: BOX BOUNDS xy xz yz pp pp pp
-3.4762620925903320e-03 8.3974125981330872e+00 1.9993829131126404e+00
-4.2882263660430908e-02 2.2125610172748566e+01 4.4107437133789062e-06
1.5788495540618896e-02 5.1666774749755859e+00 -1.5008449554443359e-04
ITEM: ATOMS id type xs ys zs fx fy fz
1 1 0.913469 0.338569 0.593597 0 -0.00449944 -5.72205e-06
2 1 0.413469 0.338569 0.593597 0 -0.00450897 -1.90735e-06
3 1 0.176373 0.297255 0.0935979 0 0.00598526 -1.33514e-05
4 1 0.676373 0.297255 0.0935976 0 0.00599098 -1.14441e-05
5 1 0.124939 0.461935 0.593597 0 -0.00364494 1.52588e-05
6 1 0.624939 0.461935 0.593597 0 -0.00364304 1.52588e-05
7 1 0.887677 0.421149 0.0935976 0 -0.00260544 1.52588e-05
8 1 0.387677 0.421149 0.0935975 0 -0.00261497 9.53674e-06
9 1 0.836369 0.585426 0.593596 0 0.00259972 -7.62939e-06
10 1 0.336369 0.585426 0.593596 0 0.00260162 -7.62939e-06
11 1 0.0476733 0.70932 0.593596 0 -0.00598717 9.53674e-06
12 1 0.547673 0.70932 0.593597 0 -0.0059948 9.53674e-06
13 1 0.810577 0.668005 0.0935971 0 0.00450897 7.62939e-06
14 1 0.0991074 0.54464 0.0935965 0 0.00365257 -1.90735e-05
15 1 0.599108 0.54464 0.0935967 0 0.00364685 -2.09808e-05
16 1 0.310577 0.668005 0.0935971 0 0.00449753 5.72205e-06
17 1 0.75871 0.83407 0.5936 0 -0.00452232 2.67029e-05
18 1 0.25871 0.83407 0.5936 0 -0.00451851 2.28882e-05
19 1 0.969164 0.960688 0.593606 0 -0.00382996 3.8147e-06
20 1 0.469164 0.960688 0.593607 0 -0.00382614 0
21 1 0.0221464 0.791051 0.0935985 0 -0.00200653 9.53674e-06
22 1 0.522146 0.791051 0.0935987 0 -0.0019989 5.72205e-06
23 1 0.734382 0.911964 0.0936051 0 0.00345421 -3.8147e-06
24 1 0.234382 0.911964 0.0936055 0 0.00346184 -5.72205e-06
25 1 0.989664 0.0946105 0.593589 0 -0.00346565 3.8147e-06
26 1 0.489664 0.0946106 0.593589 0 -0.00347137 9.53674e-06
27 1 0.254882 0.0458857 0.0935879 0 0.00383568 0
28 1 0.754883 0.0458856 0.0935884 0 0.00385284 -5.72205e-06
29 1 0.2019 0.215523 0.593596 0 0.00200272 1.90735e-06
30 1 0.7019 0.215523 0.593595 0 0.00199699 -3.8147e-06
31 1 0.965336 0.172504 0.093595 0 0.00452042 -3.05176e-05
32 1 0.465336 0.172504 0.0935948 0 0.00452995 -3.43323e-05
ITEM: TIMESTEP
6
ITEM: NUMBER OF ATOMS
32
ITEM: BOX BOUNDS xy xz yz pp pp pp
-3.4762620925903320e-03 8.3974125981330872e+00 1.9993829131126404e+00
-4.2882263660430908e-02 2.2125610172748566e+01 4.4107437133789062e-06
1.5788495540618896e-02 5.1666774749755859e+00 -1.5008449554443359e-04
ITEM: ATOMS id type xs ys zs fx fy fz
1 1 0.913486 0.338516 0.593596 0 -0.00149345 1.14441e-05
2 1 0.413486 0.338516 0.593596 0 -0.00149918 3.8147e-06
3 1 0.176333 0.297383 0.0935967 0 0.00147629 0
4 1 0.676333 0.297384 0.0935966 0 0.00147438 -5.72205e-06
5 1 0.124966 0.461849 0.593599 0 0.00167084 -1.52588e-05
6 1 0.624966 0.461849 0.593599 0 0.00166893 -1.33514e-05
7 1 0.887673 0.421161 0.0935991 0 0.000865936 -2.67029e-05
8 1 0.387673 0.421161 0.0935984 0 0.000879288 -1.71661e-05
9 1 0.836373 0.585413 0.593595 0 -0.000867844 1.71661e-05
10 1 0.336373 0.585413 0.593595 0 -0.000871658 1.14441e-05
11 1 0.0477135 0.709191 0.593597 0 -0.00147629 7.62939e-06
12 1 0.547714 0.709191 0.593598 0 -0.00146103 3.8147e-06
13 1 0.81056 0.668059 0.0935981 0 0.00151253 -3.8147e-06
14 1 0.0990805 0.544726 0.0935946 0 -0.00169182 1.71661e-05
15 1 0.599081 0.544726 0.0935947 0 -0.00168991 1.90735e-05
16 1 0.31056 0.668059 0.0935981 0 0.00151253 -3.8147e-06
17 1 0.758758 0.833916 0.593602 0 7.43866e-05 -1.14441e-05
18 1 0.258758 0.833916 0.593602 0 6.86646e-05 -7.62939e-06
19 1 0.969205 0.960558 0.593607 0 0.000394821 -3.8147e-06
20 1 0.469205 0.960558 0.593607 0 0.000377655 0
21 1 0.0221555 0.791022 0.0935995 0 0.000946045 5.72205e-06
22 1 0.522156 0.791022 0.0935994 0 0.000932693 1.52588e-05
23 1 0.734363 0.912024 0.0936049 0 -0.000974655 1.71661e-05
24 1 0.234363 0.912024 0.0936053 0 -0.000986099 2.09808e-05
25 1 0.989683 0.0945505 0.593589 0 0.00100517 -1.71661e-05
26 1 0.489683 0.0945504 0.593589 0 0.00100708 -1.90735e-05
27 1 0.254842 0.0460166 0.0935877 0 -0.000394821 -1.90735e-06
28 1 0.754842 0.0460168 0.0935878 0 -0.000406265 -1.90735e-06
29 1 0.201891 0.215552 0.593596 0 -0.000955582 -2.47955e-05
30 1 0.701891 0.215552 0.593595 0 -0.000947952 -1.52588e-05
31 1 0.965288 0.172658 0.0935921 0 -6.86646e-05 1.52588e-05
32 1 0.465288 0.172658 0.0935917 0 -8.2016e-05 2.28882e-05
ITEM: TIMESTEP
7
ITEM: NUMBER OF ATOMS
32
ITEM: BOX BOUNDS xy xz yz pp pp pp
-3.4762620925903320e-03 8.3974125981330872e+00 1.9993829131126404e+00
-4.2882263660430908e-02 2.2125610172748566e+01 4.4107437133789062e-06
1.5788495540618896e-02 5.1666774749755859e+00 -1.5008449554443359e-04
ITEM: ATOMS id type xs ys zs fx fy fz
1 1 0.913492 0.338495 0.593597 0 0.00018692 7.62939e-06
2 1 0.413492 0.338495 0.593597 0 0.000196457 3.8147e-06
3 1 0.176326 0.297407 0.0935966 0 0.00022316 -1.71661e-05
4 1 0.676325 0.297407 0.0935962 0 0.000226974 -1.33514e-05
5 1 0.12496 0.461865 0.593598 0 -0.000328064 -1.90735e-06
6 1 0.624961 0.461865 0.593598 0 -0.000324249 -7.62939e-06
7 1 0.88767 0.421172 0.0935978 0 0.000108719 7.62939e-06
8 1 0.38767 0.421172 0.0935976 0 0.000110626 1.33514e-05
9 1 0.836377 0.585402 0.593596 0 -0.000112534 -1.33514e-05
10 1 0.336376 0.585402 0.593596 0 -0.000106812 -5.72205e-06
11 1 0.0477207 0.709168 0.593598 0 -0.00021553 5.72205e-06
12 1 0.547721 0.709168 0.593598 0 -0.000226974 1.33514e-05
13 1 0.810554 0.668079 0.0935979 0 -0.000202179 -7.62939e-06
14 1 0.0990856 0.54471 0.0935954 0 0.000324249 5.72205e-06
15 1 0.599086 0.54471 0.0935956 0 0.000329971 9.53674e-06
16 1 0.310554 0.668079 0.0935979 0 -0.000200272 -1.33514e-05
17 1 0.75876 0.83391 0.593602 0 -0.000167847 0
18 1 0.25876 0.83391 0.593602 0 -0.000164032 9.53674e-06
19 1 0.969205 0.960557 0.593607 0 0.00056839 -3.8147e-06
20 1 0.469205 0.960557 0.593607 0 0.000577927 0
21 1 0.0221523 0.791032 0.0935999 0 0.000141144 5.72205e-06
22 1 0.522152 0.791032 0.0936002 0 0.000150681 3.8147e-06
23 1 0.734366 0.912015 0.0936058 0 -3.24249e-05 1.14441e-05
24 1 0.234366 0.912015 0.0936063 0 -3.8147e-05 -5.72205e-06
25 1 0.98968 0.0945599 0.593588 0 2.67029e-05 0
26 1 0.48968 0.0945598 0.593588 0 2.09808e-05 3.8147e-06
27 1 0.254841 0.0460175 0.0935876 0 -0.00056839 0
28 1 0.754841 0.0460176 0.0935876 0 -0.000572205 -1.90735e-06
29 1 0.201894 0.215542 0.593594 0 -0.000135422 3.8147e-06
30 1 0.701894 0.215542 0.593594 0 -0.000143051 1.14441e-05
31 1 0.965286 0.172664 0.0935928 0 0.000175476 -1.14441e-05
32 1 0.465286 0.172664 0.0935928 0 0.000169754 -1.33514e-05
ITEM: TIMESTEP
8
ITEM: NUMBER OF ATOMS
32
ITEM: BOX BOUNDS xy xz yz pp pp pp
-3.4762620925903320e-03 8.3974125981330872e+00 1.9993829131126404e+00
-4.2882263660430908e-02 2.2125610172748566e+01 4.4107437133789062e-06
1.5788495540618896e-02 5.1666774749755859e+00 -1.5008449554443359e-04
ITEM: ATOMS id type xs ys zs fx fy fz
1 1 0.913492 0.338497 0.593597 0 -3.8147e-06 1.90735e-06
2 1 0.413492 0.338497 0.593597 0 -1.14441e-05 5.72205e-06
3 1 0.176324 0.297412 0.0935955 0 7.62939e-06 1.33514e-05
4 1 0.676324 0.297412 0.0935954 0 -1.71661e-05 1.71661e-05
5 1 0.124962 0.461861 0.593598 0 -5.53131e-05 -1.90735e-06
6 1 0.624962 0.461861 0.593598 0 -5.72205e-05 1.90735e-06
7 1 0.887669 0.421175 0.0935982 0 0.000165939 -5.72205e-06
8 1 0.387669 0.421175 0.0935984 0 0.000162125 -1.90735e-06
9 1 0.836377 0.5854 0.593595 0 -0.000160217 1.90735e-06
10 1 0.336377 0.5854 0.593595 0 -0.00015831 7.62939e-06
11 1 0.0477222 0.709163 0.593598 0 -1.33514e-05 -3.8147e-06
12 1 0.547722 0.709163 0.593599 0 9.53674e-06 -1.52588e-05
13 1 0.810555 0.668078 0.0935975 0 1.14441e-05 -5.72205e-06
14 1 0.0990846 0.544713 0.0935958 0 4.95911e-05 -3.8147e-06
15 1 0.599085 0.544713 0.0935963 0 4.95911e-05 -5.72205e-06
16 1 0.310554 0.668078 0.0935971 0 9.53674e-06 -1.90735e-06
17 1 0.758761 0.833908 0.593602 0 4.57764e-05 2.47955e-05
18 1 0.258761 0.833908 0.593602 0 5.14984e-05 1.52588e-05
19 1 0.969202 0.960565 0.593607 0 2.09808e-05 9.53674e-06
20 1 0.469202 0.960565 0.593607 0 1.90735e-05 1.90735e-06
21 1 0.0221514 0.791035 0.0936003 0 -0.000183105 1.90735e-06
22 1 0.522152 0.791035 0.0936005 0 -0.000188828 7.62939e-06
23 1 0.734367 0.912014 0.0936065 0 -0.000106812 -3.8147e-06
24 1 0.234366 0.912013 0.0936061 0 -0.000104904 5.72205e-06
25 1 0.98968 0.094561 0.593588 0 0.000104904 -1.90735e-06
26 1 0.48968 0.0945609 0.593588 0 0.000108719 -1.90735e-06
27 1 0.254844 0.0460093 0.0935876 0 -1.90735e-05 -7.62939e-06
28 1 0.754844 0.0460094 0.0935875 0 -1.71661e-05 -9.53674e-06
29 1 0.201895 0.215539 0.593594 0 0.000183105 -1.52588e-05
30 1 0.701895 0.215539 0.593594 0 0.000192642 -1.52588e-05
31 1 0.965285 0.172667 0.0935921 0 -4.76837e-05 -9.53674e-06
32 1 0.465285 0.172667 0.093592 0 -4.76837e-05 -5.72205e-06
ITEM: TIMESTEP
9
ITEM: NUMBER OF ATOMS
32
ITEM: BOX BOUNDS xy xz yz pp pp pp
-3.4762620925903320e-03 8.3974125981330872e+00 1.9993829131126404e+00
-4.2882263660430908e-02 2.2125610172748566e+01 4.4107437133789062e-06
1.5788495540618896e-02 5.1666774749755859e+00 -1.5008449554443359e-04
ITEM: ATOMS id type xs ys zs fx fy fz
1 1 0.913492 0.338497 0.593597 0 7.24792e-05 3.8147e-06
2 1 0.413492 0.338497 0.593597 0 8.01086e-05 9.53674e-06
3 1 0.176324 0.297413 0.0935966 0 8.96454e-05 -3.8147e-06
4 1 0.676324 0.297412 0.0935968 0 0.000118256 -5.72205e-06
5 1 0.124962 0.461859 0.593598 0 2.47955e-05 -1.90735e-06
6 1 0.624962 0.461859 0.593598 0 2.86102e-05 -5.72205e-06
7 1 0.887668 0.421179 0.0935977 0 -4.19617e-05 9.53674e-06
8 1 0.387668 0.421179 0.0935983 0 -4.00543e-05 -1.90735e-06
9 1 0.836379 0.585396 0.593595 0 3.05176e-05 -5.72205e-06
10 1 0.336378 0.585396 0.593596 0 3.62396e-05 -1.71661e-05
11 1 0.0477226 0.709162 0.593598 0 -8.58307e-05 -3.8147e-06
12 1 0.547723 0.709162 0.593598 0 -0.000102997 3.8147e-06
13 1 0.810555 0.668078 0.0935968 0 -8.7738e-05 -7.62939e-06
14 1 0.099084 0.544715 0.0935955 0 -1.52588e-05 9.53674e-06
15 1 0.599084 0.544715 0.0935958 0 -7.62939e-06 9.53674e-06
16 1 0.310554 0.668078 0.0935968 0 -8.39233e-05 1.90735e-06
17 1 0.758761 0.833908 0.593604 0 -7.62939e-06 -1.52588e-05
18 1 0.258761 0.833908 0.593604 0 -2.09808e-05 -1.71661e-05
19 1 0.969202 0.960567 0.593607 0 -2.28882e-05 -5.72205e-06
20 1 0.469202 0.960567 0.593607 0 -1.52588e-05 -1.90735e-06
21 1 0.0221526 0.791031 0.0936005 0 0 2.47955e-05
22 1 0.522153 0.791031 0.0936013 0 5.72205e-06 1.14441e-05
23 1 0.734367 0.912011 0.0936063 0 -6.10352e-05 1.52588e-05
24 1 0.234367 0.912011 0.0936066 0 -4.76837e-05 1.52588e-05
25 1 0.989679 0.0945635 0.593588 0 7.05719e-05 -1.14441e-05
26 1 0.489679 0.0945634 0.593588 0 7.05719e-05 -1.52588e-05
27 1 0.254844 0.0460075 0.0935868 0 1.14441e-05 0
28 1 0.754844 0.0460075 0.0935866 0 3.8147e-06 5.72205e-06
29 1 0.201894 0.215543 0.593593 0 0 1.90735e-06
30 1 0.701894 0.215543 0.593593 0 -1.33514e-05 1.90735e-06
31 1 0.965286 0.172666 0.0935911 0 3.8147e-06 -1.90735e-06
32 1 0.465285 0.172666 0.0935913 0 7.62939e-06 -1.90735e-06
ITEM: TIMESTEP
10
ITEM: NUMBER OF ATOMS
32
ITEM: BOX BOUNDS xy xz yz pp pp pp
-3.4762620925903320e-03 8.3974125981330872e+00 1.9993829131126404e+00
-4.2882263660430908e-02 2.2125610172748566e+01 4.4107437133789062e-06
1.5788495540618896e-02 5.1666774749755859e+00 -1.5008449554443359e-04
ITEM: ATOMS id type xs ys zs fx fy fz
1 1 0.913492 0.338497 0.593597 0 7.24792e-05 3.8147e-06
2 1 0.413492 0.338497 0.593597 0 8.01086e-05 9.53674e-06
3 1 0.176324 0.297413 0.0935966 0 8.96454e-05 -3.8147e-06
4 1 0.676324 0.297412 0.0935968 0 0.000118256 -5.72205e-06
5 1 0.124962 0.461859 0.593598 0 2.47955e-05 -1.90735e-06
6 1 0.624962 0.461859 0.593598 0 2.86102e-05 -5.72205e-06
7 1 0.887668 0.421179 0.0935977 0 -4.19617e-05 9.53674e-06
8 1 0.387668 0.421179 0.0935983 0 -4.00543e-05 -1.90735e-06
9 1 0.836379 0.585396 0.593595 0 3.05176e-05 -5.72205e-06
10 1 0.336378 0.585396 0.593596 0 3.62396e-05 -1.71661e-05
11 1 0.0477226 0.709162 0.593598 0 -8.58307e-05 -3.8147e-06
12 1 0.547723 0.709162 0.593598 0 -0.000102997 3.8147e-06
13 1 0.810555 0.668078 0.0935968 0 -8.7738e-05 -7.62939e-06
14 1 0.099084 0.544715 0.0935955 0 -1.52588e-05 9.53674e-06
15 1 0.599084 0.544715 0.0935958 0 -7.62939e-06 9.53674e-06
16 1 0.310554 0.668078 0.0935968 0 -8.39233e-05 1.90735e-06
17 1 0.758761 0.833908 0.593604 0 -7.62939e-06 -1.52588e-05
18 1 0.258761 0.833908 0.593604 0 -2.09808e-05 -1.71661e-05
19 1 0.969202 0.960567 0.593607 0 -2.28882e-05 -5.72205e-06
20 1 0.469202 0.960567 0.593607 0 -1.52588e-05 -1.90735e-06
21 1 0.0221526 0.791031 0.0936005 0 0 2.47955e-05
22 1 0.522153 0.791031 0.0936013 0 5.72205e-06 1.14441e-05
23 1 0.734367 0.912011 0.0936063 0 -6.10352e-05 1.52588e-05
24 1 0.234367 0.912011 0.0936066 0 -4.76837e-05 1.52588e-05
25 1 0.989679 0.0945635 0.593588 0 7.05719e-05 -1.14441e-05
26 1 0.489679 0.0945634 0.593588 0 7.05719e-05 -1.52588e-05
27 1 0.254844 0.0460075 0.0935868 0 1.14441e-05 0
28 1 0.754844 0.0460075 0.0935866 0 3.8147e-06 5.72205e-06
29 1 0.201894 0.215543 0.593593 0 0 1.90735e-06
30 1 0.701894 0.215543 0.593593 0 -1.33514e-05 1.90735e-06
31 1 0.965286 0.172666 0.0935911 0 3.8147e-06 -1.90735e-06
32 1 0.465285 0.172666 0.0935913 0 7.62939e-06 -1.90735e-06
