ITEM: TIMESTEP
0
ITEM: NUMBER OF ATOMS
32
ITEM: BOX BOUNDS xy xz yz pp pp pp
-4.7826766967773438e-03 8.3991228342056274e+00 1.9997911453247070e+00
-3.7661075592041016e-02 2.2120539069175720e+01 0.0000000000000000e+00
-1.1393904685974121e-02 5.1938598752021790e+00 0.0000000000000000e+00
ITEM: ATOMS id type xs ys zs fx fy fz
1 1 0.914123 0.336542 0.593597 0 0.000829697 5.72205e-06
2 1 0.414123 0.336542 0.593597 0 0.000831604 5.72205e-06
3 1 0.177085 0.295033 0.0935973 0 -0.00172615 -3.8147e-06
4 1 0.677085 0.295033 0.0935973 0 -0.00172615 -1.90735e-06
5 1 0.12509 0.461543 0.593597 0 0.000898361 0
6 1 0.62509 0.461543 0.593597 0 0.000902176 5.72205e-06
7 1 0.88805 0.420037 0.0935973 0 -0.00140762 -7.62939e-06
8 1 0.38805 0.420037 0.0935973 0 -0.00140762 -3.8147e-06
9 1 0.836056 0.586543 0.593597 0 0.0013485 0
10 1 0.336056 0.586543 0.593597 0 0.00134659 0
11 1 0.0470241 0.711539 0.593597 0 0.00181198 7.62939e-06
12 1 0.547024 0.711539 0.593597 0 0.00180817 3.8147e-06
13 1 0.809982 0.670042 0.0935972 0 -0.00107193 -3.8147e-06
14 1 0.0990154 0.545043 0.0935972 0 -0.00100517 0
15 1 0.599015 0.545043 0.0935972 0 -0.00100136 0
16 1 0.309982 0.670042 0.0935972 0 -0.00107384 -7.62939e-06
17 1 0.757992 0.836533 0.593597 0 0.0107155 3.8147e-06
18 1 0.257993 0.836533 0.593597 0 0.0107136 5.72205e-06
19 1 0.968959 0.961533 0.593597 0 -0.347994 3.8147e-06
20 1 0.468959 0.961533 0.593597 0 -0.347996 0
21 1 0.0209513 0.795035 0.0935971 0 0.00175285 -1.90735e-06
22 1 0.520951 0.795035 0.0935971 0 0.00175285 -1.90735e-06
23 1 0.731918 0.920032 0.0935971 0 -0.574942 -5.72205e-06
24 1 0.231919 0.920032 0.0935971 0 -0.574945 -3.8147e-06
25 1 0.992191 0.0865377 0.593597 0 0.57469 0
26 1 0.492191 0.0865377 0.593597 0 0.57468 0
27 1 0.255152 0.045031 0.093597 0 0.348368 0
28 1 0.755152 0.045031 0.093597 0 0.348358 0
29 1 0.203157 0.211541 0.593597 0 -0.00177193 0
30 1 0.703157 0.211541 0.593597 0 -0.00176811 0
31 1 0.966119 0.170031 0.093597 0 -0.0104828 0
32 1 0.466119 0.170031 0.093597 0 -0.0104885 0
ITEM: TIMESTEP
1
ITEM: NUMBER OF ATOMS
32
ITEM: BOX BOUNDS xy xz yz pp pp pp
-4.7826766967773438e-03 8.3991228342056274e+00 1.9997911453247070e+00
-3.7661075592041016e-02 2.2120539069175720e+01 0.0000000000000000e+00
-1.1393904685974121e-02 5.1938598752021790e+00 0.0000000000000000e+00
ITEM: ATOMS id type xs ys zs fx fy fz
1 1 0.914121 0.336549 0.593597 0 0.000139236 0
2 1 0.414121 0.336549 0.593597 0 0.000139236 0
3 1 0.177089 0.295019 0.0935972 0 0.000543594 3.8147e-06
4 1 0.677089 0.295019 0.0935972 0 0.000543594 -3.8147e-06
5 1 0.125087 0.46155 0.593597 0 0.00133896 1.90735e-06
6 1 0.625087 0.46155 0.593597 0 0.00133896 -1.90735e-06
7 1 0.888053 0.420026 0.093597 0 -0.00186348 0
8 1 0.388054 0.420026 0.0935972 0 -0.0018692 0
9 1 0.836052 0.586554 0.593597 0 0.00179672 1.90735e-06
10 1 0.336053 0.586554 0.593597 0 0.00179672 -1.90735e-06
11 1 0.0470196 0.711553 0.593597 0 -0.0004673 -1.90735e-06
12 1 0.54702 0.711553 0.593597 0 -0.000461578 -1.90735e-06
13 1 0.809984 0.670034 0.0935971 0 -0.000282288 0
14 1 0.0990178 0.545035 0.0935972 0 -0.00147247 0
15 1 0.599018 0.545035 0.0935972 0 -0.0014782 -1.90735e-06
16 1 0.309985 0.670034 0.0935969 0 -0.000284195 5.72205e-06
17 1 0.757966 0.836617 0.593597 0 -0.0943527 0
18 1 0.257966 0.836617 0.593597 0 -0.0943489 -5.72205e-06
19 1 0.969812 0.958801 0.593597 0 0.0574894 -3.8147e-06
20 1 0.469812 0.958801 0.593597 0 0.0574894 -3.8147e-06
21 1 0.020947 0.795048 0.093597 0 -0.106319 1.90735e-06
22 1 0.520947 0.795048 0.093597 0 -0.106319 3.8147e-06
23 1 0.733328 0.915519 0.0935969 0 -0.0760975 1.90735e-06
24 1 0.233328 0.915519 0.093597 0 -0.076088 5.72205e-06
25 1 0.990782 0.0910487 0.593597 0 0.0762463 0
26 1 0.490783 0.0910486 0.593597 0 0.0762482 -1.90735e-06
27 1 0.254298 0.0477655 0.093597 0 -0.0574608 0
28 1 0.754298 0.0477654 0.093597 0 -0.0574532 0
29 1 0.203161 0.211527 0.593597 0 0.106213 0
30 1 0.703161 0.211527 0.593597 0 0.106215 1.90735e-06
31 1 0.966144 0.169949 0.093597 0 0.0945358 0
32 1 0.466145 0.169949 0.093597 0 0.0945454 0
ITEM: TIMESTEP
2
ITEM: NUMBER OF ATOMS
32
ITEM: BOX BOUNDS xy xz yz pp pp pp
-4.7826766967773438e-03 8.3991228342056274e+00 1.9997911453247070e+00
-3.7661075592041016e-02 2.2120539069175720e+01 0.0000000000000000e+00
-1.1393904685974121e-02 5.1938598752021790e+00 0.0000000000000000e+00
ITEM: ATOMS id type xs ys zs fx fy fz
1 1 0.914119 0.336553 0.593597 0 0.0571728 -3.8147e-06
2 1 0.41412 0.336553 0.593597 0 0.0571651 0
3 1 0.177085 0.295033 0.0935976 0 0.07164 -7.62939e-06
4 1 0.677085 0.295033 0.0935968 0 0.0716419 1.14441e-05
5 1 0.125077 0.461585 0.593597 0 2.47955e-05 -1.90735e-06
6 1 0.625077 0.461585 0.593597 0 2.67029e-05 0
7 1 0.888069 0.419978 0.093597 0 0.00129509 1.90735e-06
8 1 0.388069 0.419978 0.0935972 0 0.00130272 0
9 1 0.836038 0.586601 0.593597 0 -0.00131798 -3.8147e-06
10 1 0.336038 0.586601 0.593597 0 -0.00131416 3.8147e-06
11 1 0.0470232 0.711542 0.593597 0 -0.071661 5.72205e-06
12 1 0.547023 0.711542 0.593597 0 -0.0716648 7.62939e-06
13 1 0.809987 0.670026 0.0935971 0 -0.0573101 1.90735e-06
14 1 0.0990298 0.544996 0.0935972 0 -0.000114441 -1.90735e-06
15 1 0.59903 0.544996 0.093597 0 -0.000110626 1.90735e-06
16 1 0.309987 0.670026 0.0935976 0 -0.0573025 -1.33514e-05
17 1 0.758724 0.834189 0.593597 0 0.0372334 0
18 1 0.258724 0.834189 0.593597 0 0.0372219 1.33514e-05
19 1 0.969392 0.960149 0.593597 0 -0.0180149 3.8147e-06
20 1 0.469392 0.960149 0.593597 0 -0.0180149 5.72205e-06
21 1 0.0218024 0.792309 0.0935972 0 -0.00603485 -5.72205e-06
22 1 0.521802 0.792309 0.0935974 0 -0.00603676 -5.72205e-06
23 1 0.734009 0.913337 0.0935971 0 -0.0457191 0
24 1 0.234009 0.913337 0.0935976 0 -0.0457439 -1.33514e-05
25 1 0.9901 0.0932347 0.593597 0 0.0456238 0
26 1 0.4901 0.0932346 0.593597 0 0.0456314 1.90735e-06
27 1 0.254719 0.0464184 0.093597 0 0.0182438 0
28 1 0.754719 0.0464185 0.093597 0 0.0182266 -1.90735e-06
29 1 0.202307 0.214264 0.593597 0 0.0061512 3.8147e-06
30 1 0.702307 0.214264 0.593597 0 0.00614548 -5.72205e-06
31 1 0.965385 0.172381 0.093597 0 -0.0371895 0
32 1 0.465385 0.172382 0.093597 0 -0.0371971 1.90735e-06
ITEM: TIMESTEP
3
ITEM: NUMBER OF ATOMS
32
ITEM: BOX BOUNDS xy xz yz pp pp pp
-4.7826766967773438e-03 8.3991228342056274e+00 1.9997911453247070e+00
-3.7661075592041016e-02 2.2120539069175720e+01 0.0000000000000000e+00
-1.1393904685974121e-02 5.1938598752021790e+00 0.0000000000000000e+00
ITEM: ATOMS id type xs ys zs fx fy fz
1 1 0.913774 0.337659 0.593597 0 0.0235844 3.8147e-06
2 1 0.413775 0.337659 0.593597 0 0.0235863 0
3 1 0.176652 0.296421 0.0935971 0 0.0115108 -1.90735e-06
4 1 0.676652 0.296421 0.0935976 0 0.0115128 -5.72205e-06
5 1 0.125073 0.461596 0.593597 0 0.0191898 -1.90735e-06
6 1 0.625073 0.461596 0.593597 0 0.0191822 0
7 1 0.888066 0.419987 0.0935972 0 0.0368977 -3.8147e-06
8 1 0.388066 0.419987 0.0935972 0 0.0369053 0
9 1 0.836041 0.58659 0.593597 0 -0.0369816 5.72205e-06
10 1 0.336041 0.586591 0.593597 0 -0.036993 0
11 1 0.0474566 0.710154 0.593597 0 -0.0115051 -7.62939e-06
12 1 0.547457 0.710154 0.593597 0 -0.0115051 -7.62939e-06
13 1 0.810333 0.668917 0.0935972 0 -0.0235176 0
14 1 0.0990344 0.544982 0.093597 0 -0.019249 0
15 1 0.599034 0.544982 0.0935971 0 -0.0192471 -1.90735e-06
16 1 0.310334 0.668917 0.0935967 0 -0.0235157 1.33514e-05
17 1 0.758744 0.834125 0.593597 0 -0.00556374 0
18 1 0.258745 0.834125 0.593597 0 -0.00555801 -1.52588e-05
19 1 0.969364 0.960236 0.593597 0 0.0163879 0
20 1 0.469364 0.960236 0.593597 0 0.0163918 0
21 1 0.0221151 0.791308 0.0935968 0 -0.0244808 7.62939e-06
22 1 0.522115 0.791308 0.0935971 0 -0.0244827 3.8147e-06
23 1 0.734505 0.911749 0.0935972 0 0.0443268 -3.8147e-06
24 1 0.234505 0.911748 0.0935967 0 0.0443382 9.53674e-06
25 1 0.989604 0.0948219 0.593597 0 -0.0441685 0
26 1 0.489604 0.094822 0.593597 0 -0.0441723 0
27 1 0.254745 0.0463359 0.093597 0 -0.0164127 -1.90735e-06
28 1 0.754745 0.0463357 0.0935968 0 -0.0164032 0
29 1 0.201994 0.215266 0.593597 0 0.0244198 0
30 1 0.701994 0.215266 0.593597 0 0.0244179 7.62939e-06
31 1 0.965364 0.172448 0.093597 0 0.00555801 1.90735e-06
32 1 0.465364 0.172448 0.0935972 0 0.00554657 -1.90735e-06
ITEM: TIMESTEP
4
ITEM: NUMBER OF ATOMS
32
ITEM: BOX BOUNDS xy xz yz pp pp pp
-4.7826766967773438e-03 8.3991228342056274e+00 1.9997911453247070e+00
-3.7661075592041016e-02 2.2120539069175720e+01 0.0000000000000000e+00
-1.1393904685974121e-02 5.1938598752021790e+00 0.0000000000000000e+00
ITEM: ATOMS id type xs ys zs fx fy fz
1 1 0.913451 0.338695 0.593597 0 0.00606537 -3.8147e-06
2 1 0.413451 0.338695 0.593597 0 0.00607109 -3.8147e-06
3 1 0.176365 0.297339 0.0935967 0 -0.00598717 1.14441e-05
4 1 0.676365 0.297339 0.0935975 0 -0.0059967 -5.72205e-06
5 1 0.124944 0.462008 0.593597 0 0.00165176 5.72205e-06
6 1 0.624944 0.462008 0.593597 0 0.00166702 3.8147e-06
7 1 0.88782 0.420773 0.0935969 0 0.0174561 1.90735e-06
8 1 0.387821 0.420773 0.0935972 0 0.0174522 0
9 1 0.836287 0.585803 0.593597 0 -0.0174694 -5.72205e-06
10 1 0.336287 0.585803 0.593597 0 -0.017458 -3.8147e-06
11 1 0.0477432 0.709236 0.593597 0 0.00596237 3.8147e-06
12 1 0.547743 0.709236 0.593597 0 0.00595665 3.8147e-06
13 1 0.810657 0.66788 0.0935973 0 -0.00607491 -1.90735e-06
14 1 0.0991638 0.544567 0.093597 0 -0.00167656 0
15 1 0.599164 0.544567 0.0935969 0 -0.00167465 1.90735e-06
16 1 0.310657 0.66788 0.0935974 0 -0.00609207 -3.8147e-06
17 1 0.758791 0.833976 0.593597 0 -0.00971985 0
18 1 0.258791 0.833976 0.593597 0 -0.00972176 9.53674e-06
19 1 0.969243 0.960625 0.593597 0 -0.0164833 0
20 1 0.469243 0.960625 0.593597 0 -0.0164814 3.8147e-06
21 1 0.0224287 0.790303 0.0935973 0 0.010479 -3.8147e-06
22 1 0.522429 0.790303 0.0935973 0 0.0104885 -5.72205e-06
23 1 0.734453 0.911915 0.0935969 0 -0.00678062 1.90735e-06
24 1 0.234453 0.911915 0.0935971 0 -0.00677299 -5.72205e-06
25 1 0.989655 0.0946582 0.593597 0 0.00678253 0
26 1 0.489655 0.0946583 0.593597 0 0.00677681 0
27 1 0.254866 0.0459485 0.0935968 0 0.0164795 0
28 1 0.754866 0.0459484 0.0935968 0 0.0164833 -1.90735e-06
29 1 0.20168 0.21627 0.593597 0 -0.0104351 -5.72205e-06
30 1 0.70168 0.21627 0.593597 0 -0.0104198 -3.8147e-06
31 1 0.965317 0.172599 0.0935972 0 0.00973511 1.90735e-06
32 1 0.465317 0.172598 0.0935971 0 0.00973701 5.72205e-06
ITEM: TIMESTEP
5
ITEM: NUMBER OF ATOMS
32
ITEM: BOX BOUNDS xy xz yz pp pp pp
-4.7826766967773438e-03 8.3991228342056274e+00 1.9997911453247070e+00
-3.7661075592041016e-02 2.2120539069175720e+01 0.0000000000000000e+00
-1.1393904685974121e-02 5.1938598752021790e+00 0.0000000000000000e+00
ITEM: ATOMS id type xs ys zs fx fy fz
1 1 0.913376 0.338933 0.593597 0 -0.00237465 0
2 1 0.413376 0.338933 0.593597 0 -0.00236511 3.8147e-06
3 1 0.176357 0.297365 0.0935974 0 0.00448799 -3.8147e-06
4 1 0.676357 0.297365 0.0935971 0 0.00448608 0
5 1 0.124919 0.46209 0.593597 0 -0.00558472 -5.72205e-06
6 1 0.624919 0.462091 0.593597 0 -0.00558662 -1.90735e-06
7 1 0.887698 0.421163 0.093597 0 -0.00145531 1.90735e-06
8 1 0.387699 0.421163 0.0935972 0 -0.00146294 1.90735e-06
9 1 0.836409 0.585412 0.593597 0 0.00144958 -1.90735e-06
10 1 0.336409 0.585412 0.593597 0 0.00144768 1.90735e-06
11 1 0.0477514 0.70921 0.593597 0 -0.00449371 0
12 1 0.547751 0.70921 0.593597 0 -0.00449371 -3.8147e-06
13 1 0.810732 0.667641 0.0935972 0 0.00237465 3.8147e-06
14 1 0.0991898 0.544484 0.093597 0 0.00557899 5.72205e-06
15 1 0.59919 0.544484 0.0935971 0 0.00557709 0
16 1 0.310732 0.667641 0.0935973 0 0.00238228 -1.90735e-06
17 1 0.758847 0.833797 0.593597 0 -0.00590897 -3.8147e-06
18 1 0.258847 0.833797 0.593597 0 -0.00590324 -3.8147e-06
19 1 0.96931 0.960409 0.593597 0 -0.00345993 -1.90735e-06
20 1 0.46931 0.960409 0.593597 0 -0.00346375 -3.8147e-06
21 1 0.0224176 0.790339 0.0935971 0 0.000150681 0
22 1 0.522418 0.790339 0.0935969 0 0.000148773 5.72205e-06
23 1 0.73448 0.911827 0.0935969 0 0.00419426 0
24 1 0.234481 0.911827 0.0935968 0 0.00419807 7.62939e-06
25 1 0.989627 0.0947468 0.593597 0 -0.00419617 -1.90735e-06
26 1 0.489628 0.0947468 0.593597 0 -0.00419426 1.90735e-06
27 1 0.254798 0.0461651 0.0935968 0 0.00346756 1.90735e-06
28 1 0.754798 0.0461651 0.0935966 0 0.00347137 3.8147e-06
29 1 0.201691 0.216235 0.593597 0 -0.000131607 1.90735e-06
30 1 0.701691 0.216235 0.593597 0 -0.000133514 3.8147e-06
31 1 0.965261 0.172778 0.0935973 0 0.0058918 -3.8147e-06
32 1 0.465261 0.172777 0.0935974 0 0.00590134 -7.62939e-06
ITEM: TIMESTEP
6
ITEM: NUMBER OF ATOMS
32
ITEM: BOX BOUNDS xy xz yz pp pp pp
-4.7826766967773438e-03 8.3991228342056274e+00 1.9997911453247070e+00
-3.7661075592041016e-02 2.2120539069175720e+01 0.0000000000000000e+00
-1.1393904685974121e-02 5.1938598752021790e+00 0.0000000000000000e+00
ITEM: ATOMS id type xs ys zs fx fy fz
1 1 0.913381 0.338917 0.593597 0 -0.00406456 3.8147e-06
2 1 0.413381 0.338917 0.593597 0 -0.00406456 1.90735e-06
3 1 0.176315 0.2975 0.0935971 0 0.00239372 0
4 1 0.676315 0.2975 0.093597 0 0.00240707 3.8147e-06
5 1 0.124963 0.461948 0.593597 0 0.00193787 1.14441e-05
6 1 0.624963 0.461948 0.593597 0 0.00192261 5.72205e-06
7 1 0.887685 0.421207 0.0935973 0 0.0016346 -5.72205e-06
8 1 0.387685 0.421207 0.0935974 0 0.00164413 -9.53674e-06
9 1 0.836423 0.585368 0.593597 0 -0.00164986 1.14441e-05
10 1 0.336423 0.585368 0.593597 0 -0.00164223 3.8147e-06
11 1 0.0477936 0.709075 0.593597 0 -0.00238609 0
12 1 0.547794 0.709075 0.593597 0 -0.00238609 1.90735e-06
13 1 0.810727 0.667657 0.0935976 0 0.00406075 -7.62939e-06
14 1 0.0991453 0.544627 0.0935977 0 -0.00193024 -1.14441e-05
15 1 0.599145 0.544627 0.0935971 0 -0.0019207 -5.72205e-06
16 1 0.310727 0.667657 0.093597 0 0.00405884 0
17 1 0.758912 0.833588 0.593597 0 0.00063324 9.53674e-06
18 1 0.258912 0.833588 0.593597 0 0.000631332 1.14441e-05
19 1 0.969356 0.960262 0.593597 0 -0.000505447 3.8147e-06
20 1 0.469356 0.960262 0.593597 0 -0.000501633 5.72205e-06
21 1 0.0224138 0.790351 0.0935971 0 0.000423431 -1.90735e-06
22 1 0.522414 0.790351 0.0935975 0 0.000423431 -1.14441e-05
23 1 0.734449 0.911929 0.093597 0 -0.00143433 -1.90735e-06
24 1 0.234449 0.911929 0.0935976 0 -0.00144386 -1.14441e-05
25 1 0.989659 0.0946453 0.593597 0 0.00145912 5.72205e-06
26 1 0.489659 0.0946454 0.593597 0 0.0014534 -1.90735e-06
27 1 0.254752 0.0463124 0.093597 0 0.000501633 -3.8147e-06
28 1 0.754752 0.0463125 0.0935971 0 0.000492096 -1.90735e-06
29 1 0.201695 0.216224 0.593597 0 -0.000440598 -5.72205e-06
30 1 0.701695 0.216224 0.593598 0 -0.000450134 -9.53674e-06
31 1 0.965196 0.172986 0.0935969 0 -0.00062561 5.72205e-06
32 1 0.465196 0.172987 0.0935966 0 -0.000631332 3.8147e-06
ITEM: TIMESTEP
7
ITEM: NUMBER OF ATOMS
32
ITEM: BOX BOUNDS xy xz yz pp pp pp
-4.7826766967773438e-03 8.3991228342056274e+00 1.9997911453247070e+00
-3.7661075592041016e-02 2.2120539069175720e+01 0.0000000000000000e+00
-1.1393904685974121e-02 5.1938598752021790e+00 0.0000000000000000e+00
ITEM: ATOMS id type xs ys zs fx fy fz
1 1 0.913402 0.338851 0.593597 0 -3.24249e-05 -1.90735e-06
2 1 0.413402 0.338852 0.593598 0 -4.95911e-05 -5.72205e-06
3 1 0.176297 0.297556 0.0935971 0 0.000318527 -1.90735e-06
4 1 0.676297 0.297556 0.0935972 0 0.000314713 0
5 1 0.12496 0.461958 0.593597 0 -0.000699997 -7.62939e-06
6 1 0.62496 0.461958 0.593597 0 -0.000699997 -3.8147e-06
7 1 0.887675 0.421238 0.0935969 0 0.000396729 3.8147e-06
8 1 0.387675 0.421239 0.0935968 0 0.000400543 9.53674e-06
9 1 0.836433 0.585336 0.593597 0 -0.000385284 -7.62939e-06
10 1 0.336433 0.585336 0.593597 0 -0.000398636 -7.62939e-06
11 1 0.0478113 0.709018 0.593597 0 -0.000328064 -3.8147e-06
12 1 0.547811 0.709018 0.593597 0 -0.000326157 0
13 1 0.810706 0.667723 0.0935972 0 3.24249e-05 3.8147e-06
14 1 0.0991484 0.544617 0.093597 0 0.000701904 7.62939e-06
15 1 0.599148 0.544617 0.0935967 0 0.000694275 7.62939e-06
16 1 0.310706 0.667723 0.093597 0 3.43323e-05 3.8147e-06
17 1 0.758918 0.833568 0.593597 0 4.3869e-05 -5.72205e-06
18 1 0.258919 0.833568 0.593597 0 4.95911e-05 -1.14441e-05
19 1 0.969365 0.960233 0.593597 0 0.0010643 -1.90735e-06
20 1 0.469365 0.960233 0.593597 0 0.00106239 -1.90735e-06
21 1 0.0224112 0.790359 0.093597 0 0.000501633 5.72205e-06
22 1 0.522411 0.790359 0.0935969 0 0.000488281 3.8147e-06
23 1 0.734451 0.911921 0.0935968 0 -5.72205e-05 9.53674e-06
24 1 0.234452 0.911921 0.093597 0 -5.72205e-05 3.8147e-06
25 1 0.989656 0.0946537 0.593597 0 4.19617e-05 -3.8147e-06
26 1 0.489657 0.0946537 0.593597 0 4.76837e-05 0
27 1 0.254743 0.0463412 0.0935968 0 -0.00105286 1.90735e-06
28 1 0.754743 0.0463412 0.093597 0 -0.00105858 0
29 1 0.201697 0.216215 0.593597 0 -0.000490189 1.90735e-06
30 1 0.701697 0.216215 0.593597 0 -0.000488281 0
31 1 0.96519 0.173006 0.0935972 0 -3.05176e-05 0
32 1 0.46519 0.173006 0.0935967 0 -3.8147e-05 1.90735e-06
ITEM: TIMESTEP
8
ITEM: NUMBER OF ATOMS
32
ITEM: BOX BOUNDS xy xz yz pp pp pp
-4.7826766967773438e-03 8.3991228342056274e+00 1.9997911453247070e+00
-3.7661075592041016e-02 2.2120539069175720e+01 0.0000000000000000e+00
-1.1393904685974121e-02 5.1938598752021790e+00 0.0000000000000000e+00
ITEM: ATOMS id type xs ys zs fx fy fz
1 1 0.913404 0.338845 0.593597 0 -4.95911e-05 0
2 1 0.413404 0.338845 0.593597 0 -3.62396e-05 5.72205e-06
3 1 0.176293 0.297568 0.0935969 0 -0.000164032 3.8147e-06
4 1 0.676293 0.297568 0.0935972 0 -0.000167847 -3.8147e-06
5 1 0.124964 0.461944 0.593597 0 -0.000200272 1.14441e-05
6 1 0.624964 0.461944 0.593597 0 -0.00019455 5.72205e-06
7 1 0.887671 0.42125 0.0935972 0 0.000238419 -3.8147e-06
8 1 0.387672 0.42125 0.0935976 0 0.000236511 -1.14441e-05
9 1 0.836436 0.585325 0.593597 0 -0.000247955 9.53674e-06
10 1 0.336437 0.585325 0.593597 0 -0.000240326 1.14441e-05
11 1 0.047815 0.709006 0.593597 0 0.000181198 5.72205e-06
12 1 0.547815 0.709006 0.593597 0 0.000179291 5.72205e-06
13 1 0.810704 0.667729 0.0935975 0 4.19617e-05 -5.72205e-06
14 1 0.0991441 0.54463 0.0935976 0 0.000198364 -1.14441e-05
15 1 0.599144 0.54463 0.0935974 0 0.000200272 -9.53674e-06
16 1 0.310704 0.66773 0.0935973 0 4.19617e-05 -7.62939e-06
17 1 0.758918 0.833567 0.593597 0 0.000179291 9.53674e-06
18 1 0.258919 0.833567 0.593596 0 0.000177383 7.62939e-06
19 1 0.969359 0.960253 0.593597 0 -0.000131607 9.53674e-06
20 1 0.469359 0.960253 0.593597 0 -0.000120163 3.8147e-06
21 1 0.0224077 0.79037 0.0935974 0 -0.000167847 -9.53674e-06
22 1 0.522408 0.79037 0.0935971 0 -0.000148773 -5.72205e-06
23 1 0.734452 0.911919 0.0935977 0 -0.000141144 -1.33514e-05
24 1 0.234452 0.911919 0.0935973 0 -0.000141144 -3.8147e-06
25 1 0.989656 0.0946554 0.593597 0 0.000152588 7.62939e-06
26 1 0.489656 0.0946555 0.593597 0 0.000148773 -1.90735e-06
27 1 0.254749 0.0463218 0.093597 0 0.00012207 -1.90735e-06
28 1 0.754749 0.0463217 0.093597 0 0.00012207 -1.90735e-06
29 1 0.201701 0.216204 0.593597 0 0.000150681 -3.8147e-06
30 1 0.701701 0.216204 0.593597 0 0.000152588 3.8147e-06
31 1 0.965189 0.173007 0.0935972 0 -0.000190735 -5.72205e-06
32 1 0.46519 0.173007 0.0935969 0 -0.000181198 0
ITEM: TIMESTEP
9
ITEM: NUMBER OF ATOMS
32
ITEM: BOX BOUNDS xy xz yz pp pp pp
-4.7826766967773438e-03 8.3991228342056274e+00 1.9997911453247070e+00
-3.7661075592041016e-02 2.2120539069175720e+01 0.0000000000000000e+00
-1.1393904685974121e-02 5.1938598752021790e+00 0.0000000000000000e+00
ITEM: ATOMS id type xs ys zs fx fy fz
1 1 0.913404 0.338843 0.593597 0 5.72205e-06 7.62939e-06
2 1 0.413404 0.338844 0.593597 0 1.90735e-06 -7.62939e-06
3 1 0.176294 0.297566 0.0935972 0 -1.14441e-05 -3.8147e-06
4 1 0.676294 0.297566 0.0935969 0 -9.53674e-06 1.90735e-06
5 1 0.124966 0.461939 0.593598 0 0 -9.53674e-06
6 1 0.624966 0.461939 0.593597 0 -3.8147e-06 -7.62939e-06
7 1 0.88767 0.421255 0.093597 0 -9.53674e-06 1.90735e-06
8 1 0.38767 0.421255 0.0935968 0 -1.33514e-05 7.62939e-06
9 1 0.836438 0.585319 0.593598 0 1.71661e-05 -7.62939e-06
10 1 0.336438 0.585319 0.593598 0 1.90735e-05 -1.14441e-05
11 1 0.0478143 0.709009 0.593597 0 1.90735e-06 -3.8147e-06
12 1 0.547814 0.709008 0.593597 0 1.90735e-06 -9.53674e-06
13 1 0.810704 0.667731 0.093597 0 3.8147e-06 5.72205e-06
14 1 0.0991425 0.544635 0.0935968 0 -5.72205e-06 1.14441e-05
15 1 0.599143 0.544635 0.0935967 0 1.90735e-06 9.53674e-06
16 1 0.310704 0.667731 0.0935967 0 -1.90735e-06 1.14441e-05
17 1 0.758917 0.83357 0.593597 0 3.8147e-06 -1.14441e-05
18 1 0.258918 0.83357 0.593597 0 -3.8147e-06 -3.8147e-06
19 1 0.969359 0.960252 0.593598 0 3.43323e-05 -3.8147e-06
20 1 0.469359 0.960252 0.593597 0 1.52588e-05 -5.72205e-06
21 1 0.0224083 0.790369 0.0935968 0 -5.34058e-05 5.72205e-06
22 1 0.522408 0.790369 0.0935967 0 -5.34058e-05 7.62939e-06
23 1 0.734453 0.911916 0.0935967 0 5.14984e-05 9.53674e-06
24 1 0.234453 0.911916 0.093597 0 5.91278e-05 3.8147e-06
25 1 0.989655 0.0946583 0.593597 0 -5.91278e-05 -5.72205e-06
26 1 0.489655 0.0946584 0.593597 0 -5.34058e-05 -1.90735e-06
27 1 0.254749 0.0463222 0.0935968 0 -1.90735e-05 1.90735e-06
28 1 0.754749 0.046322 0.0935968 0 -2.09808e-05 1.90735e-06
29 1 0.2017 0.216206 0.593597 0 5.34058e-05 3.8147e-06
30 1 0.7017 0.216206 0.593597 0 5.34058e-05 -1.90735e-06
31 1 0.96519 0.173004 0.0935968 0 0 3.8147e-06
32 1 0.465191 0.173004 0.0935969 0 -5.72205e-06 0
ITEM: TIMESTEP
10
ITEM: NUMBER OF ATOMS
32
ITEM: BOX BOUNDS xy xz yz pp pp pp
-4.7826766967773438e-03 8.3991228342056274e+00 1.9997911453247070e+00
-3.7661075592041016e-02 2.2120539069175720e+01 0.0000000000000000e+00
-1.1393904685974121e-02 5.1938598752021790e+00 0.0000000000000000e+00
ITEM: ATOMS id type xs ys zs fx fy fz
1 1 0.913404 0.338843 0.593597 0 1.52588e-05 -5.72205e-06
2 1 0.413404 0.338843 0.593597 0 1.33514e-05 -3.8147e-06
3 1 0.176294 0.297566 0.093597 0 -3.8147e-06 0
4 1 0.676294 0.297566 0.093597 0 0 5.72205e-06
5 1 0.124966 0.461939 0.593597 0 9.53674e-06 -1.90735e-06
6 1 0.624966 0.461939 0.593597 0 7.62939e-06 -3.8147e-06
7 1 0.88767 0.421255 0.093597 0 -1.90735e-05 3.8147e-06
8 1 0.38767 0.421255 0.0935971 0 -1.71661e-05 3.8147e-06
9 1 0.836438 0.585319 0.593597 0 1.52588e-05 3.8147e-06
10 1 0.336438 0.585319 0.593597 0 1.33514e-05 3.8147e-06
11 1 0.0478143 0.709009 0.593597 0 -1.90735e-06 -1.90735e-06
12 1 0.547814 0.709009 0.593597 0 1.90735e-06 3.8147e-06
13 1 0.810704 0.667731 0.0935973 0 -7.62939e-06 -5.72205e-06
14 1 0.0991425 0.544636 0.0935972 0 -7.62939e-06 -5.72205e-06
15 1 0.599142 0.544636 0.0935971 0 -7.62939e-06 3.8147e-06
16 1 0.310704 0.667731 0.0935972 0 -1.14441e-05 -1.90735e-06
17 1 0.758917 0.83357 0.593597 0 1.33514e-05 3.8147e-06
18 1 0.258918 0.83357 0.593597 0 9.53674e-06 1.90735e-06
19 1 0.969359 0.960252 0.593597 0 -9.53674e-06 -3.8147e-06
20 1 0.469359 0.960253 0.593597 0 -5.72205e-06 -1.90735e-06
21 1 0.0224085 0.790368 0.093597 0 0 1.90735e-06
22 1 0.522408 0.790368 0.093597 0 -7.62939e-06 -3.8147e-06
23 1 0.734453 0.911917 0.0935971 0 5.72205e-06 0
24 1 0.234453 0.911917 0.0935972 0 7.62939e-06 0
25 1 0.989655 0.0946578 0.593597 0 -9.53674e-06 -1.90735e-06
26 1 0.489655 0.0946579 0.593597 0 -1.14441e-05 1.90735e-06
27 1 0.254749 0.046322 0.0935969 0 5.72205e-06 0
28 1 0.754749 0.0463218 0.0935969 0 1.14441e-05 3.8147e-06
29 1 0.2017 0.216206 0.593597 0 -1.90735e-06 0
30 1 0.7017 0.216206 0.593597 0 0 0
31 1 0.96519 0.173004 0.093597 0 -1.90735e-06 1.90735e-06
32 1 0.465191 0.173004 0.0935969 0 -5.72205e-06 -1.90735e-06
ITEM: TIMESTEP
11
ITEM: NUMBER OF ATOMS
32
ITEM: BOX BOUNDS xy xz yz pp pp pp
-4.7826766967773438e-03 8.3991228342056274e+00 1.9997911453247070e+00
-3.7661075592041016e-02 2.2120539069175720e+01 0.0000000000000000e+00
-1.1393904685974121e-02 5.1938598752021790e+00 0.0000000000000000e+00
ITEM: ATOMS id type xs ys zs fx fy fz
1 1 0.913404 0.338844 0.593597 0 -1.90735e-06 5.72205e-06
2 1 0.413404 0.338844 0.593597 0 -3.8147e-06 3.8147e-06
3 1 0.176294 0.297566 0.093597 0 -3.8147e-06 -1.90735e-06
4 1 0.676294 0.297566 0.0935975 0 -7.62939e-06 -7.62939e-06
5 1 0.124966 0.461939 0.593597 0 1.14441e-05 3.8147e-06
6 1 0.624966 0.461939 0.593597 0 1.14441e-05 5.72205e-06
7 1 0.88767 0.421255 0.0935973 0 -1.90735e-06 -7.62939e-06
8 1 0.38767 0.421255 0.0935974 0 0 -7.62939e-06
9 1 0.836438 0.58532 0.593597 0 7.62939e-06 -5.72205e-06
10 1 0.336438 0.58532 0.593597 0 1.90735e-06 -1.90735e-06
11 1 0.0478143 0.709009 0.593597 0 3.8147e-06 3.8147e-06
12 1 0.547814 0.709009 0.593597 0 5.72205e-06 -7.62939e-06
13 1 0.810704 0.667731 0.0935968 0 -3.8147e-06 3.8147e-06
14 1 0.0991426 0.544635 0.0935968 0 -1.14441e-05 7.62939e-06
15 1 0.599143 0.544635 0.0935974 0 -1.33514e-05 0
16 1 0.310704 0.667731 0.0935971 0 -5.72205e-06 1.90735e-06
17 1 0.758917 0.833571 0.593597 0 -3.8147e-06 -1.90735e-06
18 1 0.258918 0.833571 0.593597 0 -3.8147e-06 1.90735e-06
19 1 0.969359 0.960252 0.593597 0 -1.90735e-06 3.8147e-06
20 1 0.469359 0.960252 0.593597 0 -1.90735e-06 1.90735e-06
21 1 0.0224085 0.790368 0.0935971 0 3.8147e-06 -1.90735e-06
22 1 0.522409 0.790368 0.0935967 0 7.62939e-06 3.8147e-06
23 1 0.734452 0.911917 0.0935971 0 1.90735e-06 -1.90735e-06
24 1 0.234453 0.911917 0.0935972 0 1.90735e-06 -5.72205e-06
25 1 0.989655 0.0946576 0.593597 0 5.72205e-06 0
26 1 0.489656 0.0946576 0.593597 0 3.8147e-06 1.90735e-06
27 1 0.254749 0.0463221 0.0935969 0 1.90735e-06 1.90735e-06
28 1 0.754749 0.046322 0.0935972 0 -3.8147e-06 -3.8147e-06
29 1 0.2017 0.216206 0.593597 0 -1.90735e-06 1.90735e-06
30 1 0.7017 0.216207 0.593597 0 1.90735e-06 1.90735e-06
31 1 0.96519 0.173004 0.0935971 0 0 0
32 1 0.465191 0.173004 0.0935968 0 0 0
ITEM: TIMESTEP
12
ITEM: NUMBER OF ATOMS
32
ITEM: BOX BOUNDS xy xz yz pp pp pp
-4.7826766967773438e-03 8.3991228342056274e+00 1.9997911453247070e+00
-3.7661075592041016e-02 2.2120539069175720e+01 0.0000000000000000e+00
-1.1393904685974121e-02 5.1938598752021790e+00 0.0000000000000000e+00
ITEM: ATOMS id type xs ys zs fx fy fz
1 1 0.913404 0.338844 0.593597 0 0 -1.90735e-06
2 1 0.413404 0.338844 0.593597 0 -1.90735e-06 1.90735e-06
3 1 0.176294 0.297566 0.0935969 0 -3.8147e-06 0
4 1 0.676294 0.297566 0.0935971 0 -1.90735e-06 0
5 1 0.124966 0.461939 0.593597 0 -3.8147e-06 -1.90735e-06
6 1 0.624966 0.461939 0.593597 0 1.90735e-06 -3.8147e-06
7 1 0.88767 0.421255 0.0935969 0 1.90735e-06 3.8147e-06
8 1 0.38767 0.421255 0.093597 0 -3.8147e-06 1.90735e-06
9 1 0.836438 0.58532 0.593597 0 -1.90735e-06 0
10 1 0.336438 0.58532 0.593597 0 7.62939e-06 -1.90735e-06
11 1 0.0478143 0.709009 0.593597 0 3.8147e-06 -3.8147e-06
12 1 0.547814 0.709009 0.593597 0 5.72205e-06 0
13 1 0.810704 0.667731 0.0935969 0 0 1.90735e-06
14 1 0.0991426 0.544635 0.0935972 0 0 1.90735e-06
15 1 0.599143 0.544635 0.0935975 0 -3.8147e-06 -3.8147e-06
16 1 0.310704 0.667731 0.0935972 0 1.90735e-06 1.90735e-06
17 1 0.758917 0.833571 0.593597 0 -1.90735e-06 -1.90735e-06
18 1 0.258918 0.833571 0.593597 0 -1.90735e-06 -1.90735e-06
19 1 0.969359 0.960252 0.593597 0 9.53674e-06 -3.8147e-06
20 1 0.469359 0.960252 0.593597 0 7.62939e-06 -1.90735e-06
21 1 0.0224085 0.790368 0.0935971 0 3.8147e-06 3.8147e-06
22 1 0.522408 0.790368 0.0935969 0 5.72205e-06 1.90735e-06
23 1 0.734452 0.911917 0.093597 0 -1.90735e-06 0
24 1 0.234453 0.911917 0.0935968 0 -5.72205e-06 5.72205e-06
25 1 0.989655 0.0946576 0.593597 0 0 0
26 1 0.489656 0.0946576 0.593597 0 -1.90735e-06 -1.90735e-06
27 1 0.254749 0.0463222 0.0935971 0 -5.72205e-06 3.8147e-06
28 1 0.754749 0.046322 0.0935971 0 -7.62939e-06 0
29 1 0.2017 0.216206 0.593597 0 5.72205e-06 0
30 1 0.7017 0.216207 0.593597 0 -7.62939e-06 -1.90735e-06
31 1 0.96519 0.173004 0.0935972 0 -1.90735e-06 0
32 1 0.465191 0.173004 0.0935967 0 1.90735e-06 1.90735e-06
ITEM: TIMESTEP
13
ITEM: NUMBER OF ATOMS
32
ITEM: BOX BOUNDS xy xz yz pp pp pp
-4.7826766967773438e-03 8.3991228342056274e+00 1.9997911453247070e+00
-3.7661075592041016e-02 2.2120539069175720e+01 0.0000000000000000e+00
-1.1393904685974121e-02 5.1938598752021790e+00 0.0000000000000000e+00
ITEM: ATOMS id type xs ys zs fx fy fz
1 1 0.913404 0.338844 0.593597 0 0 -1.90735e-06
2 1 0.413404 0.338844 0.593597 0 -1.90735e-06 1.90735e-06
3 1 0.176294 0.297566 0.0935969 0 -3.8147e-06 0
4 1 0.676294 0.297566 0.0935971 0 -1.90735e-06 0
5 1 0.124966 0.461939 0.593597 0 -3.8147e-06 -1.90735e-06
6 1 0.624966 0.461939 0.593597 0 1.90735e-06 -3.8147e-06
7 1 0.88767 0.421255 0.0935969 0 1.90735e-06 3.8147e-06
8 1 0.38767 0.421255 0.093597 0 -3.8147e-06 1.90735e-06
9 1 0.836438 0.58532 0.593597 0 -1.90735e-06 0
10 1 0.336438 0.58532 0.593597 0 7.62939e-06 -1.90735e-06
11 1 0.0478143 0.709009 0.593597 0 3.8147e-06 -3.8147e-06
12 1 0.547814 0.709009 0.593597 0 5.72205e-06 0
13 1 0.810704 0.667731 0.0935969 0 0 1.90735e-06
14 1 0.0991426 0.544635 0.0935972 0 0 1.90735e-06
15 1 0.599143 0.544635 0.0935975 0 -3.8147e-06 -3.8147e-06
16 1 0.310704 0.667731 0.0935972 0 1.90735e-06 1.90735e-06
17 1 0.758917 0.833571 0.593597 0 -1.90735e-06 -1.90735e-06
18 1 0.258918 0.833571 0.593597 0 -1.90735e-06 -1.90735e-06
19 1 0.969359 0.960252 0.593597 0 9.53674e-06 -3.8147e-06
20 1 0.469359 0.960252 0.593597 0 7.62939e-06 -1.90735e-06
21 1 0.0224085 0.790368 0.0935971 0 3.8147e-06 3.8147e-06
22 1 0.522408 0.790368 0.0935969 0 5.72205e-06 1.90735e-06
23 1 0.734452 0.911917 0.093597 0 -1.90735e-06 0
24 1 0.234453 0.911917 0.0935968 0 -5.72205e-06 5.72205e-06
25 1 0.989655 0.0946576 0.593597 0 0 0
26 1 0.489656 0.0946576 0.593597 0 -1.90735e-06 -1.90735e-06
27 1 0.254749 0.0463222 0.0935971 0 -5.72205e-06 3.8147e-06
28 1 0.754749 0.046322 0.0935971 0 -7.62939e-06 0
29 1 0.2017 0.216206 0.593597 0 5.72205e-06 0
30 1 0.7017 0.216207 0.593597 0 -7.62939e-06 -1.90735e-06
31 1 0.96519 0.173004 0.0935972 0 -1.90735e-06 0
32 1 0.465191 0.173004 0.0935967 0 1.90735e-06 1.90735e-06
