ITEM: TIMESTEP
0
ITEM: NUMBER OF ATOMS
32
ITEM: BOX BOUNDS xy xz yz pp pp pp
-4.0532350540161133e-03 6.4008854031562805e+00 0.0000000000000000e+00
-9.1640949249267578e-03 8.1561530232429504e+00 0.0000000000000000e+00
-4.7960281372070312e-02 2.0773346722126007e+01 2.6265577673912048e+00
ITEM: ATOMS id type xs ys zs fx fy fz
1 1 0.999986 0.637824 0.0597509 0 0 0.615261
2 1 0.499986 0.637824 0.0597509 0 0 0.615261
3 1 0.249986 0.137824 0.0597519 0 0 0.615122
4 1 0.749986 0.137824 0.0597519 0 0 0.615122
5 1 0.999986 0.519283 0.309753 0 0 0.000383377
6 1 0.249986 0.412902 0.184753 0 0 -0.000583649
7 1 0.749986 0.412902 0.184753 0 0 -0.000583649
8 1 0.499986 0.519283 0.309753 0 0 0.000383377
9 1 0.999986 0.9129 0.184753 0 0 -0.000558853
10 1 0.249986 0.019283 0.309753 0 0 0.000337601
11 1 0.499986 0.9129 0.184753 0 0 -0.000558853
12 1 0.749986 0.019283 0.309753 0 0 0.000337601
13 1 0.999986 0.400717 0.559749 0 0 5.72205e-05
14 1 0.499986 0.400717 0.559749 0 0 5.72205e-05
15 1 0.249986 0.900716 0.55975 0 0 4.57764e-05
16 1 0.749986 0.900716 0.55975 0 0 4.57764e-05
17 1 0.249986 0.294349 0.434752 0 0 -5.72205e-05
18 1 0.749986 0.294349 0.434752 0 0 -5.72205e-05
19 1 0.999986 0.794349 0.434752 0 0 -3.43323e-05
20 1 0.499986 0.794349 0.434752 0 0 -3.43323e-05
21 1 0.999986 0.282156 0.809748 0 0 0.000564575
22 1 0.249986 0.175779 0.684748 0 0 -0.000362396
23 1 0.499986 0.282156 0.809748 0 0 0.000564575
24 1 0.749986 0.175779 0.684748 0 0 -0.000362396
25 1 0.999986 0.675778 0.684749 0 0 -0.000385284
26 1 0.249986 0.782156 0.809748 0 0 0.000587463
27 1 0.749986 0.782156 0.809748 0 0 0.000587463
28 1 0.499986 0.675778 0.684749 0 0 -0.000385284
29 1 0.249986 0.0572298 0.934749 0 0 -0.615116
30 1 0.749986 0.0572298 0.934749 0 0 -0.615116
31 1 0.999986 0.55723 0.93475 0 0 -0.615261
32 1 0.499986 0.55723 0.93475 0 0 -0.615261
ITEM: TIMESTEP
1
ITEM: NUMBER OF ATOMS
32
ITEM: BOX BOUNDS xy xz yz pp pp pp
-4.0532350540161133e-03 6.4008854031562805e+00 0.0000000000000000e+00
-9.1640949249267578e-03 8.1561530232429504e+00 0.0000000000000000e+00
-4.7960281372070312e-02 2.0773346722126007e+01 2.6265577673912048e+00
ITEM: ATOMS id type xs ys zs fx fy fz
1 1 0.999986 0.635591 0.0644605 0 0 -0.00152969
2 1 0.499986 0.635591 0.0644605 0 0 -0.00152969
3 1 0.249986 0.135591 0.0644605 0 0 -0.00152016
4 1 0.749986 0.135591 0.0644605 0 0 -0.00152016
5 1 0.999986 0.519281 0.309756 0 0 0.00752831
6 1 0.249986 0.412904 0.184749 0 0 0.144361
7 1 0.749986 0.412904 0.184749 0 0 0.144361
8 1 0.499986 0.519281 0.309756 0 0 0.00752831
9 1 0.999986 0.912902 0.184749 0 0 0.14436
10 1 0.249986 0.0192817 0.309756 0 0 0.00752068
11 1 0.499986 0.912902 0.184749 0 0 0.14436
12 1 0.749986 0.0192817 0.309756 0 0 0.00752068
13 1 0.999986 0.400717 0.55975 0 0 0.000421524
14 1 0.499986 0.400717 0.55975 0 0 0.000421524
15 1 0.249986 0.900716 0.55975 0 0 0.000415802
16 1 0.749986 0.900716 0.55975 0 0 0.000415802
17 1 0.249986 0.294349 0.434752 0 0 -0.000427246
18 1 0.749986 0.294349 0.434752 0 0 -0.000427246
19 1 0.999986 0.794349 0.434752 0 0 -0.000421524
20 1 0.499986 0.794349 0.434752 0 0 -0.000421524
21 1 0.999986 0.282154 0.809752 0 0 -0.144365
22 1 0.249986 0.17578 0.684745 0 0 -0.00750923
23 1 0.499986 0.282154 0.809752 0 0 -0.144365
24 1 0.749986 0.17578 0.684745 0 0 -0.00750923
25 1 0.999986 0.67578 0.684746 0 0 -0.0075264
26 1 0.249986 0.782154 0.809752 0 0 -0.144377
27 1 0.749986 0.782154 0.809752 0 0 -0.144377
28 1 0.499986 0.67578 0.684746 0 0 -0.0075264
29 1 0.249986 0.0594626 0.930041 0 0 0.00152779
30 1 0.749986 0.0594626 0.930041 0 0 0.00152779
31 1 0.999986 0.559464 0.930041 0 0 0.00154114
32 1 0.499986 0.559464 0.930041 0 0 0.00154114
ITEM: TIMESTEP
2
ITEM: NUMBER OF ATOMS
32
ITEM: BOX BOUNDS xy xz yz pp pp pp
-4.0532350540161133e-03 6.4008854031562805e+00 0.0000000000000000e+00
-9.1640949249267578e-03 8.1561530232429504e+00 0.0000000000000000e+00
-4.7960281372070312e-02 2.0773346722126007e+01 2.6265577673912048e+00
ITEM: ATOMS id type xs ys zs fx fy fz
1 1 0.999986 0.635267 0.0651437 0 0 0.0167408
2 1 0.499986 0.635267 0.0651437 0 0 0.0167408
3 1 0.249986 0.135267 0.0651437 0 0 0.016758
4 1 0.749986 0.135267 0.0651437 0 0 0.016758
5 1 0.999986 0.51921 0.309907 0 0 0.0751648
6 1 0.249986 0.411533 0.18764 0 0 -0.00630188
7 1 0.749986 0.411533 0.18764 0 0 -0.00630188
8 1 0.499986 0.51921 0.309907 0 0 0.0751648
9 1 0.999986 0.911531 0.18764 0 0 -0.00630379
10 1 0.249986 0.0192101 0.309907 0 0 0.0751553
11 1 0.499986 0.911531 0.18764 0 0 -0.00630379
12 1 0.749986 0.0192101 0.309907 0 0 0.0751553
13 1 0.999986 0.400713 0.559758 0 0 -0.00829506
14 1 0.499986 0.400713 0.559758 0 0 -0.00829506
15 1 0.249986 0.900712 0.559758 0 0 -0.00830841
16 1 0.749986 0.900712 0.559758 0 0 -0.00830841
17 1 0.249986 0.294353 0.434743 0 0 0.00831032
18 1 0.749986 0.294353 0.434743 0 0 0.00831032
19 1 0.999986 0.794353 0.434743 0 0 0.00829887
20 1 0.499986 0.794353 0.434743 0 0 0.00829887
21 1 0.999986 0.283524 0.806862 0 0 0.00632095
22 1 0.249986 0.175852 0.684595 0 0 -0.0751743
23 1 0.499986 0.283524 0.806862 0 0 0.00632095
24 1 0.749986 0.175852 0.684595 0 0 -0.0751743
25 1 0.999986 0.675851 0.684595 0 0 -0.0751743
26 1 0.249986 0.783525 0.806861 0 0 0.00631905
27 1 0.749986 0.783525 0.806861 0 0 0.00631905
28 1 0.499986 0.675851 0.684595 0 0 -0.0751743
29 1 0.249986 0.0597865 0.929358 0 0 -0.016758
30 1 0.749986 0.0597865 0.929358 0 0 -0.016758
31 1 0.999986 0.559787 0.929358 0 0 -0.0167522
32 1 0.499986 0.559787 0.929358 0 0 -0.0167522
ITEM: TIMESTEP
3
ITEM: NUMBER OF ATOMS
32
ITEM: BOX BOUNDS xy xz yz pp pp pp
-4.0532350540161133e-03 6.4008854031562805e+00 0.0000000000000000e+00
-9.1640949249267578e-03 8.1561530232429504e+00 0.0000000000000000e+00
-4.7960281372070312e-02 2.0773346722126007e+01 2.6265577673912048e+00
ITEM: ATOMS id type xs ys zs fx fy fz
1 1 0.999986 0.634943 0.0658261 0 0 -0.0202599
2 1 0.499986 0.634943 0.0658261 0 0 -0.0202599
3 1 0.249986 0.134943 0.0658265 0 0 -0.0202847
4 1 0.749986 0.134943 0.0658265 0 0 -0.0202847
5 1 0.999986 0.518288 0.31185 0 0 -0.000518799
6 1 0.249986 0.411081 0.188593 0 0 0.0092411
7 1 0.749986 0.411081 0.188593 0 0 0.0092411
8 1 0.499986 0.518288 0.31185 0 0 -0.000518799
9 1 0.999986 0.91108 0.188592 0 0 0.00924873
10 1 0.249986 0.0182887 0.31185 0 0 -0.000513077
11 1 0.499986 0.91108 0.188592 0 0 0.00924873
12 1 0.749986 0.0182887 0.31185 0 0 -0.000513077
13 1 0.999986 0.40081 0.559554 0 0 -0.0399342
14 1 0.499986 0.40081 0.559554 0 0 -0.0399342
15 1 0.249986 0.900809 0.559553 0 0 -0.0399208
16 1 0.749986 0.900809 0.559553 0 0 -0.0399208
17 1 0.249986 0.294256 0.434948 0 0 0.0399227
18 1 0.749986 0.294256 0.434948 0 0 0.0399227
19 1 0.999986 0.794256 0.434948 0 0 0.0399303
20 1 0.499986 0.794256 0.434948 0 0 0.0399303
21 1 0.999986 0.283976 0.805909 0 0 -0.00925636
22 1 0.249986 0.176773 0.682651 0 0 0.000514984
23 1 0.499986 0.283976 0.805909 0 0 -0.00925636
24 1 0.749986 0.176773 0.682651 0 0 0.000514984
25 1 0.999986 0.676773 0.682651 0 0 0.000528336
26 1 0.249986 0.783977 0.805909 0 0 -0.00924873
27 1 0.749986 0.783977 0.805909 0 0 -0.00924873
28 1 0.499986 0.676773 0.682651 0 0 0.000528336
29 1 0.249986 0.0601104 0.928675 0 0 0.0202847
30 1 0.749986 0.0601104 0.928675 0 0 0.0202847
31 1 0.999986 0.560111 0.928675 0 0 0.0202656
32 1 0.499986 0.560111 0.928675 0 0 0.0202656
ITEM: TIMESTEP
4
ITEM: NUMBER OF ATOMS
32
ITEM: BOX BOUNDS xy xz yz pp pp pp
-4.0532350540161133e-03 6.4008854031562805e+00 0.0000000000000000e+00
-9.1640949249267578e-03 8.1561530232429504e+00 0.0000000000000000e+00
-4.7960281372070312e-02 2.0773346722126007e+01 2.6265577673912048e+00
ITEM: ATOMS id type xs ys zs fx fy fz
1 1 0.999986 0.635009 0.0656872 0 0 0.0026741
2 1 0.499986 0.635009 0.0656872 0 0 0.0026741
3 1 0.249986 0.135009 0.0656874 0 0 0.0026722
4 1 0.749986 0.135009 0.0656874 0 0 0.0026722
5 1 0.999986 0.518112 0.312221 0 0 0.000741959
6 1 0.249986 0.410935 0.188902 0 0 -0.00197411
7 1 0.749986 0.410935 0.188902 0 0 -0.00197411
8 1 0.499986 0.518112 0.312221 0 0 0.000741959
9 1 0.999986 0.910933 0.188902 0 0 -0.00196457
10 1 0.249986 0.0181129 0.312221 0 0 0.000747681
11 1 0.499986 0.910933 0.188902 0 0 -0.00196457
12 1 0.749986 0.0181129 0.312221 0 0 0.000747681
13 1 0.999986 0.401083 0.558978 0 0 -0.00393486
14 1 0.499986 0.401083 0.558978 0 0 -0.00393486
15 1 0.249986 0.901082 0.558978 0 0 -0.00393486
16 1 0.749986 0.901082 0.558978 0 0 -0.00393486
17 1 0.249986 0.293984 0.435523 0 0 0.0039196
18 1 0.749986 0.293984 0.435523 0 0 0.0039196
19 1 0.999986 0.793983 0.435523 0 0 0.00393105
20 1 0.499986 0.793983 0.435523 0 0 0.00393105
21 1 0.999986 0.284123 0.8056 0 0 0.00195312
22 1 0.249986 0.176949 0.68228 0 0 -0.000732422
23 1 0.499986 0.284123 0.8056 0 0 0.00195312
24 1 0.749986 0.176949 0.68228 0 0 -0.000732422
25 1 0.999986 0.676949 0.68228 0 0 -0.000730515
26 1 0.249986 0.784123 0.8056 0 0 0.00196457
27 1 0.749986 0.784123 0.8056 0 0 0.00196457
28 1 0.499986 0.676949 0.68228 0 0 -0.000730515
29 1 0.249986 0.0600444 0.928814 0 0 -0.00266647
30 1 0.749986 0.0600444 0.928814 0 0 -0.00266647
31 1 0.999986 0.560045 0.928814 0 0 -0.00266647
32 1 0.499986 0.560045 0.928814 0 0 -0.00266647
ITEM: TIMESTEP
5
ITEM: NUMBER OF ATOMS
32
ITEM: BOX BOUNDS xy xz yz pp pp pp
-4.0532350540161133e-03 6.4008854031562805e+00 0.0000000000000000e+00
-9.1640949249267578e-03 8.1561530232429504e+00 0.0000000000000000e+00
-4.7960281372070312e-02 2.0773346722126007e+01 2.6265577673912048e+00
ITEM: ATOMS id type xs ys zs fx fy fz
1 1 0.999986 0.634995 0.0657166 0 0 -0.000804901
2 1 0.499986 0.634995 0.0657166 0 0 -0.000804901
3 1 0.249986 0.134995 0.0657168 0 0 -0.000801086
4 1 0.749986 0.134995 0.0657168 0 0 -0.000801086
5 1 0.999986 0.518108 0.312229 0 0 0.000823975
6 1 0.249986 0.410945 0.18888 0 0 0.000411987
7 1 0.749986 0.410945 0.18888 0 0 0.000411987
8 1 0.499986 0.518108 0.312229 0 0 0.000823975
9 1 0.999986 0.910943 0.18888 0 0 0.000406265
10 1 0.249986 0.018109 0.312229 0 0 0.000825882
11 1 0.499986 0.910943 0.18888 0 0 0.000406265
12 1 0.749986 0.018109 0.312229 0 0 0.000825882
13 1 0.999986 0.401104 0.558935 0 0 -0.000591278
14 1 0.499986 0.401104 0.558935 0 0 -0.000591278
15 1 0.249986 0.901102 0.558935 0 0 -0.000585556
16 1 0.749986 0.901102 0.558935 0 0 -0.000585556
17 1 0.249986 0.293963 0.435566 0 0 0.000589371
18 1 0.749986 0.293963 0.435566 0 0 0.000589371
19 1 0.999986 0.793963 0.435566 0 0 0.000593185
20 1 0.499986 0.793963 0.435566 0 0 0.000593185
21 1 0.999986 0.284113 0.805621 0 0 -0.000408173
22 1 0.249986 0.176953 0.682272 0 0 -0.000829697
23 1 0.499986 0.284113 0.805621 0 0 -0.000408173
24 1 0.749986 0.176953 0.682272 0 0 -0.000829697
25 1 0.999986 0.676953 0.682272 0 0 -0.000827789
26 1 0.249986 0.784113 0.805621 0 0 -0.000408173
27 1 0.749986 0.784113 0.805621 0 0 -0.000408173
28 1 0.499986 0.676953 0.682272 0 0 -0.000827789
29 1 0.249986 0.0600583 0.928785 0 0 0.000801086
30 1 0.749986 0.0600583 0.928785 0 0 0.000801086
31 1 0.999986 0.560059 0.928785 0 0 0.000804901
32 1 0.499986 0.560059 0.928785 0 0 0.000804901
ITEM: TIMESTEP
6
ITEM: NUMBER OF ATOMS
32
ITEM: BOX BOUNDS xy xz yz pp pp pp
-4.0532350540161133e-03 6.4008854031562805e+00 0.0000000000000000e+00
-9.1640949249267578e-03 8.1561530232429504e+00 0.0000000000000000e+00
-4.7960281372070312e-02 2.0773346722126007e+01 2.6265577673912048e+00
ITEM: ATOMS id type xs ys zs fx fy fz
1 1 0.999986 0.635 0.0657059 0 0 0.00041008
2 1 0.499986 0.635 0.0657059 0 0 0.00041008
3 1 0.249986 0.135 0.0657061 0 0 0.000404358
4 1 0.749986 0.135 0.0657061 0 0 0.000404358
5 1 0.999986 0.518101 0.312244 0 0 0.0004673
6 1 0.249986 0.410943 0.188885 0 0 0.000234604
7 1 0.749986 0.410943 0.188885 0 0 0.000234604
8 1 0.499986 0.518101 0.312244 0 0 0.0004673
9 1 0.999986 0.910941 0.188885 0 0 0.000230789
10 1 0.249986 0.0181018 0.312244 0 0 0.000473022
11 1 0.499986 0.910941 0.188885 0 0 0.000230789
12 1 0.749986 0.0181018 0.312244 0 0 0.000473022
13 1 0.999986 0.401111 0.55892 0 0 0.000247955
14 1 0.499986 0.401111 0.55892 0 0 0.000247955
15 1 0.249986 0.901109 0.55892 0 0 0.000249863
16 1 0.749986 0.901109 0.55892 0 0 0.000249863
17 1 0.249986 0.293956 0.435581 0 0 -0.000253677
18 1 0.749986 0.293956 0.435581 0 0 -0.000253677
19 1 0.999986 0.793955 0.435581 0 0 -0.000249863
20 1 0.499986 0.793955 0.435581 0 0 -0.000249863
21 1 0.999986 0.284115 0.805617 0 0 -0.000234604
22 1 0.249986 0.17696 0.682257 0 0 -0.000469208
23 1 0.499986 0.284115 0.805617 0 0 -0.000234604
24 1 0.749986 0.17696 0.682257 0 0 -0.000469208
25 1 0.999986 0.67696 0.682257 0 0 -0.000463486
26 1 0.249986 0.784115 0.805617 0 0 -0.000232697
27 1 0.749986 0.784115 0.805617 0 0 -0.000232697
28 1 0.499986 0.67696 0.682257 0 0 -0.000463486
29 1 0.249986 0.0600532 0.928795 0 0 -0.000406265
30 1 0.749986 0.0600532 0.928795 0 0 -0.000406265
31 1 0.999986 0.560054 0.928795 0 0 -0.000408173
32 1 0.499986 0.560054 0.928795 0 0 -0.000408173
ITEM: TIMESTEP
7
ITEM: NUMBER OF ATOMS
32
ITEM: BOX BOUNDS xy xz yz pp pp pp
-4.0532350540161133e-03 6.4008854031562805e+00 0.0000000000000000e+00
-9.1640949249267578e-03 8.1561530232429504e+00 0.0000000000000000e+00
-4.7960281372070312e-02 2.0773346722126007e+01 2.6265577673912048e+00
ITEM: ATOMS id type xs ys zs fx fy fz
1 1 0.999986 0.634998 0.0657112 0 0 0.000118256
2 1 0.499986 0.634998 0.0657112 0 0 0.000118256
3 1 0.249986 0.134998 0.0657113 0 0 0.000123978
4 1 0.749986 0.134998 0.0657113 0 0 0.000123978
5 1 0.999986 0.518094 0.31226 0 0 -0.000213623
6 1 0.249986 0.41094 0.188891 0 0 0.000383377
7 1 0.749986 0.41094 0.188891 0 0 0.000383377
8 1 0.499986 0.518094 0.31226 0 0 -0.000213623
9 1 0.999986 0.910938 0.188891 0 0 0.000392914
10 1 0.249986 0.0180944 0.31226 0 0 -0.000213623
11 1 0.499986 0.910938 0.188891 0 0 0.000392914
12 1 0.749986 0.0180944 0.31226 0 0 -0.000213623
13 1 0.999986 0.401111 0.558921 0 0 -0.000164032
14 1 0.499986 0.401111 0.558921 0 0 -0.000164032
15 1 0.249986 0.901109 0.558921 0 0 -0.000164032
16 1 0.749986 0.901109 0.558921 0 0 -0.000164032
17 1 0.249986 0.293956 0.435581 0 0 0.000169754
18 1 0.749986 0.293956 0.435581 0 0 0.000169754
19 1 0.999986 0.793956 0.435581 0 0 0.000162125
20 1 0.499986 0.793956 0.435581 0 0 0.000162125
21 1 0.999986 0.284118 0.80561 0 0 -0.000391006
22 1 0.249986 0.176967 0.682242 0 0 0.000219345
23 1 0.499986 0.284118 0.80561 0 0 -0.000391006
24 1 0.749986 0.176967 0.682242 0 0 0.000219345
25 1 0.999986 0.676967 0.682242 0 0 0.000209808
26 1 0.249986 0.784118 0.80561 0 0 -0.000392914
27 1 0.749986 0.784118 0.80561 0 0 -0.000392914
28 1 0.499986 0.676967 0.682242 0 0 0.000209808
29 1 0.249986 0.0600557 0.92879 0 0 -0.000118256
30 1 0.749986 0.0600557 0.92879 0 0 -0.000118256
31 1 0.999986 0.560057 0.92879 0 0 -0.00012207
32 1 0.499986 0.560057 0.92879 0 0 -0.00012207
ITEM: TIMESTEP
8
ITEM: NUMBER OF ATOMS
32
ITEM: BOX BOUNDS xy xz yz pp pp pp
-4.0532350540161133e-03 6.4008854031562805e+00 0.0000000000000000e+00
-9.1640949249267578e-03 8.1561530232429504e+00 0.0000000000000000e+00
-4.7960281372070312e-02 2.0773346722126007e+01 2.6265577673912048e+00
ITEM: ATOMS id type xs ys zs fx fy fz
1 1 0.999986 0.634995 0.0657177 0 0 -0.000112534
2 1 0.499986 0.634995 0.0657177 0 0 -0.000112534
3 1 0.249986 0.134995 0.0657179 0 0 -9.53674e-05
4 1 0.749986 0.134995 0.0657179 0 0 -9.53674e-05
5 1 0.999986 0.518092 0.312263 0 0 9.34601e-05
6 1 0.249986 0.410933 0.188906 0 0 -0.000167847
7 1 0.749986 0.410933 0.188906 0 0 -0.000167847
8 1 0.499986 0.518092 0.312263 0 0 9.34601e-05
9 1 0.999986 0.910931 0.188906 0 0 -0.000173569
10 1 0.249986 0.0180928 0.312263 0 0 8.58307e-05
11 1 0.499986 0.910931 0.188906 0 0 -0.000173569
12 1 0.749986 0.0180928 0.312263 0 0 8.58307e-05
13 1 0.999986 0.401113 0.558916 0 0 7.43866e-05
14 1 0.499986 0.401113 0.558916 0 0 7.43866e-05
15 1 0.249986 0.901111 0.558916 0 0 5.91278e-05
16 1 0.749986 0.901111 0.558916 0 0 5.91278e-05
17 1 0.249986 0.293954 0.435585 0 0 -6.29425e-05
18 1 0.749986 0.293954 0.435585 0 0 -6.29425e-05
19 1 0.999986 0.793954 0.435585 0 0 -6.10352e-05
20 1 0.499986 0.793954 0.435585 0 0 -6.10352e-05
21 1 0.999986 0.284125 0.805595 0 0 0.000183105
22 1 0.249986 0.176969 0.682238 0 0 -0.000104904
23 1 0.499986 0.284125 0.805595 0 0 0.000183105
24 1 0.749986 0.176969 0.682238 0 0 -0.000104904
25 1 0.999986 0.676969 0.682238 0 0 -0.000101089
26 1 0.249986 0.784125 0.805595 0 0 0.000177383
27 1 0.749986 0.784125 0.805595 0 0 0.000177383
28 1 0.499986 0.676969 0.682238 0 0 -0.000101089
29 1 0.249986 0.0600588 0.928784 0 0 0.000101089
30 1 0.749986 0.0600588 0.928784 0 0 0.000101089
31 1 0.999986 0.56006 0.928783 0 0 0.000104904
32 1 0.499986 0.56006 0.928783 0 0 0.000104904
ITEM: TIMESTEP
9
ITEM: NUMBER OF ATOMS
32
ITEM: BOX BOUNDS xy xz yz pp pp pp
-4.0532350540161133e-03 6.4008854031562805e+00 0.0000000000000000e+00
-9.1640949249267578e-03 8.1561530232429504e+00 0.0000000000000000e+00
-4.7960281372070312e-02 2.0773346722126007e+01 2.6265577673912048e+00
ITEM: ATOMS id type xs ys zs fx fy fz
1 1 0.999986 0.634995 0.0657177 0 0 -0.000112534
2 1 0.499986 0.634995 0.0657177 0 0 -0.000112534
3 1 0.249986 0.134995 0.0657179 0 0 -9.53674e-05
4 1 0.749986 0.134995 0.0657179 0 0 -9.53674e-05
5 1 0.999986 0.518092 0.312263 0 0 9.34601e-05
6 1 0.249986 0.410933 0.188906 0 0 -0.000167847
7 1 0.749986 0.410933 0.188906 0 0 -0.000167847
8 1 0.499986 0.518092 0.312263 0 0 9.34601e-05
9 1 0.999986 0.910931 0.188906 0 0 -0.000173569
10 1 0.249986 0.0180928 0.312263 0 0 8.58307e-05
11 1 0.499986 0.910931 0.188906 0 0 -0.000173569
12 1 0.749986 0.0180928 0.312263 0 0 8.58307e-05
13 1 0.999986 0.401113 0.558916 0 0 7.43866e-05
14 1 0.499986 0.401113 0.558916 0 0 7.43866e-05
15 1 0.249986 0.901111 0.558916 0 0 5.91278e-05
16 1 0.749986 0.901111 0.558916 0 0 5.91278e-05
17 1 0.249986 0.293954 0.435585 0 0 -6.29425e-05
18 1 0.749986 0.293954 0.435585 0 0 -6.29425e-05
19 1 0.999986 0.793954 0.435585 0 0 -6.10352e-05
20 1 0.499986 0.793954 0.435585 0 0 -6.10352e-05
21 1 0.999986 0.284125 0.805595 0 0 0.000183105
22 1 0.249986 0.176969 0.682238 0 0 -0.000104904
23 1 0.499986 0.284125 0.805595 0 0 0.000183105
24 1 0.749986 0.176969 0.682238 0 0 -0.000104904
25 1 0.999986 0.676969 0.682238 0 0 -0.000101089
26 1 0.249986 0.784125 0.805595 0 0 0.000177383
27 1 0.749986 0.784125 0.805595 0 0 0.000177383
28 1 0.499986 0.676969 0.682238 0 0 -0.000101089
29 1 0.249986 0.0600588 0.928784 0 0 0.000101089
30 1 0.749986 0.0600588 0.928784 0 0 0.000101089
31 1 0.999986 0.56006 0.928783 0 0 0.000104904
32 1 0.499986 0.56006 0.928783 0 0 0.000104904
