ITEM: TIMESTEP
0
ITEM: NUMBER OF ATOMS
56
ITEM: BOX BOUNDS xy xz yz pp pp pp
-7.9167997837066650e-01 1.2203788340091705e+01 0.0000000000000000e+00
-8.4733366966247559e-03 5.5348814725875854e+00 -7.7299147844314575e-01
-2.9168844223022461e-02 1.9049128890037537e+01 0.0000000000000000e+00
ITEM: ATOMS id type xs ys zs fx fy fz
1 1 0.558443 4.41887e-05 0.132366 0 0.0137711 0.0535278
2 1 0.308443 0.166624 0.132366 0 -0.0137939 0.0535469
3 1 0.204887 2.39879e-05 0.275225 0 0.000320435 0.00127602
4 1 0.954886 0.166644 0.275225 0 -0.000337601 0.00127602
5 1 0.851277 1.9421e-05 0.418082 0 9.53674e-06 0.000431061
6 1 0.0584433 4.41295e-05 0.132366 0 0.013773 0.0535336
7 1 0.985193 0.500074 0.0609403 0 -0.0414028 0.0537777
8 1 0.808444 0.166623 0.132366 0 -0.0137844 0.0535374
9 1 0.735195 0.666593 0.0609403 0 0.0414219 0.0537739
10 1 0.704888 2.39872e-05 0.275225 0 0.00031662 0.00128365
11 1 0.601276 0.166647 0.418082 0 -5.72205e-06 0.000425339
12 1 0.497656 2.47556e-05 0.560942 0 -4.95911e-05 -0.000169754
13 1 0.247656 0.166643 0.560942 0 4.00543e-05 -0.000167847
14 1 0.144043 2.39811e-05 0.703801 0 -0.000139236 -0.000415802
15 1 0.894044 0.166644 0.703801 0 0.000108719 -0.000421524
16 1 0.790446 2.63435e-05 0.846651 0 0.00136566 0.00043869
17 1 0.631681 0.500026 0.203802 0 0.00137901 -0.000431061
18 1 0.454886 0.166645 0.275225 0 -0.000354767 0.00128555
19 1 0.381682 0.66664 0.203802 0 -0.00135803 -0.000436783
20 1 0.351277 2.01694e-05 0.418082 0 -7.62939e-06 0.000431061
21 1 0.278083 0.500023 0.346651 0 -0.000110626 0.000432968
22 1 0.101277 0.166648 0.418082 0 -9.53674e-06 0.000431061
23 1 0.0280829 0.666642 0.346651 0 0.000148773 0.000413895
24 1 0.997656 2.49573e-05 0.560941 0 -5.34058e-05 -0.000162125
25 1 0.924469 0.500025 0.489511 0 -4.57764e-05 0.000156403
26 1 0.747657 0.166643 0.560941 0 4.00543e-05 -0.000154495
27 1 0.674471 0.666642 0.489511 0 5.14984e-05 0.000179291
28 1 0.485193 0.500073 0.0609404 0 -0.0413914 0.0537777
29 1 0.235193 0.666593 0.0609403 0 0.0414238 0.0537739
30 1 0.131682 0.500026 0.203802 0 0.00137138 -0.000429153
31 1 0.881682 0.666641 0.203802 0 -0.00136948 -0.000423431
32 1 0.778084 0.500024 0.346651 0 -0.000137329 0.000415802
33 1 0.540444 0.166641 0.846652 0 -0.00136375 0.00041008
34 1 0.436933 7.47473e-05 0.989512 0 -0.0414314 -0.0537701
35 1 0.186933 0.166594 0.989513 0 0.041399 -0.0537815
36 1 0.644042 2.44315e-05 0.703801 0 -0.000144958 -0.000415802
37 1 0.570848 0.50002 0.632371 0 3.8147e-06 -0.000444412
38 1 0.394044 0.166643 0.703801 0 0.000120163 -0.000413895
39 1 0.320849 0.666647 0.632371 0 0 -0.000431061
40 1 0.290445 2.63314e-05 0.846651 0 0.00136757 0.000427246
41 1 0.21724 0.500023 0.775228 0 0.000329971 -0.00127602
42 1 0.0404442 0.166641 0.846651 0 -0.00136757 0.000423431
43 1 0.96724 0.666644 0.775228 0 -0.000322342 -0.00128365
44 1 0.936934 7.37033e-05 0.989512 0 -0.041399 -0.0537758
45 1 0.863684 0.500043 0.918087 0 0.0137863 -0.0535183
46 1 0.528083 0.666643 0.346651 0 0.000150681 0.000421524
47 1 0.42447 0.500025 0.489511 0 -4.00543e-05 0.000160217
48 1 0.17447 0.666642 0.489511 0 5.53131e-05 0.000160217
49 1 0.0708493 0.500019 0.632371 0 1.71661e-05 -0.000423431
50 1 0.82085 0.666647 0.63237 0 1.33514e-05 -0.00041008
51 1 0.717241 0.500022 0.775228 0 0.000343323 -0.00128365
52 1 0.686931 0.166594 0.989513 0 0.0414009 -0.053772
53 1 0.613682 0.666624 0.918087 0 -0.013792 -0.0535526
54 1 0.467239 0.666643 0.775228 0 -0.000329971 -0.00128174
55 1 0.363683 0.500044 0.918087 0 0.0137997 -0.053545
56 1 0.113683 0.666624 0.918087 0 -0.0137863 -0.0535374
ITEM: TIMESTEP
1
ITEM: NUMBER OF ATOMS
56
ITEM: BOX BOUNDS xy xz yz pp pp pp
-7.9167997837066650e-01 1.2203788340091705e+01 0.0000000000000000e+00
-8.4733366966247559e-03 5.5348814725875854e+00 -7.7299147844314575e-01
-2.9168844223022461e-02 1.9049128890037537e+01 0.0000000000000000e+00
ITEM: ATOMS id type xs ys zs fx fy fz
1 1 0.558507 0.000939509 0.133377 0 -0.00500107 -0.00491714
2 1 0.308507 0.165727 0.133377 0 0.00501823 -0.00493431
3 1 0.204888 4.48208e-05 0.275249 0 -0.00286484 0.0169373
4 1 0.954888 0.166622 0.275249 0 0.00286293 0.0169373
5 1 0.851277 2.0041e-05 0.41809 0 -0.000221252 0.000421524
6 1 0.0585073 0.000939574 0.133377 0 -0.00500107 -0.00492096
7 1 0.985258 0.497382 0.0619561 0 -0.0173721 -0.0132427
8 1 0.808508 0.165727 0.133377 0 0.00501442 -0.0049305
9 1 0.735259 0.669286 0.0619561 0 0.0173626 -0.0132484
10 1 0.704889 4.45721e-05 0.275249 0 -0.00286102 0.0169296
11 1 0.601276 0.166647 0.41809 0 0.000230789 0.000417709
12 1 0.497655 2.15315e-05 0.560938 0 -3.8147e-06 0.000511169
13 1 0.247656 0.166645 0.560939 0 9.53674e-06 0.000509262
14 1 0.144043 1.49287e-05 0.703794 0 -0.000347137 -0.00154495
15 1 0.894043 0.166651 0.703793 0 0.000354767 -0.00154305
16 1 0.790446 0.000115132 0.846659 0 0.00384903 -0.0183926
17 1 0.63168 0.500116 0.203793 0 0.00383568 0.0183964
18 1 0.454888 0.166622 0.275249 0 0.00286865 0.0169373
19 1 0.381682 0.666552 0.203793 0 -0.00384712 0.0184097
20 1 0.351278 1.96734e-05 0.41809 0 -0.00021553 0.000413895
21 1 0.278083 0.500016 0.346659 0 -0.000354767 0.00154686
22 1 0.101277 0.166647 0.41809 0 0.000228882 0.000413895
23 1 0.0280834 0.666652 0.346659 0 0.000350952 0.00154877
24 1 0.997656 2.14851e-05 0.560938 0 -7.62939e-06 0.000507355
25 1 0.92447 0.500022 0.489514 0 -5.72205e-06 -0.00050354
26 1 0.747657 0.166646 0.560938 0 1.14441e-05 0.000513077
27 1 0.674471 0.666645 0.489515 0 7.62939e-06 -0.000511169
28 1 0.485257 0.497382 0.0619563 0 -0.0173721 -0.013258
29 1 0.235258 0.669286 0.0619561 0 0.017355 -0.0132561
30 1 0.131681 0.500115 0.203793 0 0.00383949 0.0183964
31 1 0.881681 0.666552 0.203794 0 -0.00385475 0.0183945
32 1 0.778084 0.500015 0.346659 0 -0.000350952 0.00154305
33 1 0.540445 0.166552 0.846659 0 -0.00385094 -0.0183964
34 1 0.436869 -0.0026189 0.988497 0 -0.0173512 0.0132523
35 1 0.186869 0.169285 0.988497 0 0.0173721 0.0132542
36 1 0.644042 1.50071e-05 0.703793 0 -0.000343323 -0.00154114
37 1 0.570847 0.50002 0.632363 0 -0.000228882 -0.000423431
38 1 0.394043 0.166651 0.703794 0 0.000356674 -0.00155258
39 1 0.320849 0.666647 0.632363 0 0.00021553 -0.000417709
40 1 0.290445 0.000115243 0.846659 0 0.00384903 -0.0183964
41 1 0.217238 0.500045 0.775204 0 -0.00286484 -0.0169296
42 1 0.0404447 0.166552 0.846659 0 -0.00384521 -0.0183964
43 1 0.967238 0.666623 0.775204 0 0.00285339 -0.0169353
44 1 0.936869 -0.00261784 0.988497 0 -0.0173607 0.013258
45 1 0.86362 0.50094 0.917076 0 -0.0050087 0.00492668
46 1 0.528083 0.666652 0.346659 0 0.000337601 0.00154305
47 1 0.42447 0.500022 0.489514 0 -5.72205e-06 -0.000513077
48 1 0.17447 0.666646 0.489514 0 7.62939e-06 -0.000520706
49 1 0.0708488 0.50002 0.632363 0 -0.000225067 -0.000419617
50 1 0.82085 0.666648 0.632363 0 0.000211716 -0.000411987
51 1 0.717239 0.500045 0.775204 0 -0.00286674 -0.0169353
52 1 0.686867 0.169285 0.988497 0 0.017374 0.0132351
53 1 0.613618 0.665727 0.917076 0 0.00501442 0.00491714
54 1 0.467238 0.666622 0.775204 0 0.00286484 -0.0169373
55 1 0.363619 0.500941 0.917075 0 -0.00503159 0.0049305
56 1 0.113619 0.665727 0.917075 0 0.00500679 0.00492859
ITEM: TIMESTEP
2
ITEM: NUMBER OF ATOMS
56
ITEM: BOX BOUNDS xy xz yz pp pp pp
-7.9167997837066650e-01 1.2203788340091705e+01 0.0000000000000000e+00
-8.4733366966247559e-03 5.5348814725875854e+00 -7.7299147844314575e-01
-2.9168844223022461e-02 1.9049128890037537e+01 0.0000000000000000e+00
ITEM: ATOMS id type xs ys zs fx fy fz
1 1 0.558515 0.000734337 0.133517 0 -0.00845337 0.00149155
2 1 0.308516 0.165933 0.133516 0 0.00844765 0.00150108
3 1 0.204916 -0.000201605 0.275688 0 0.00188255 0.00177193
4 1 0.954915 0.166868 0.275688 0 -0.00186539 0.0017643
5 1 0.851278 7.50468e-07 0.418103 0 -0.00117683 0.00724602
6 1 0.0585161 0.000734434 0.133516 0 -0.00845337 0.00150299
7 1 0.985253 0.49515 0.061884 0 0.00177765 -0.0047493
8 1 0.808517 0.165933 0.133516 0 0.00844955 0.00150108
9 1 0.735254 0.671518 0.0618837 0 -0.0017662 -0.00474739
10 1 0.704917 -0.000201583 0.275688 0 0.00187111 0.00177383
11 1 0.601277 0.166667 0.418103 0 0.00117302 0.00724792
12 1 0.497656 2.03515e-05 0.560951 0 -0.000490189 -0.00097847
13 1 0.247657 0.166647 0.560951 0 0.000505447 -0.000976562
14 1 0.14404 -1.79637e-05 0.703752 0 -0.0012455 -0.00930977
15 1 0.89404 0.166684 0.703752 0 0.0012455 -0.00930595
16 1 0.790417 0.000476805 0.846192 0 -0.00233459 0.00177765
17 1 0.63171 0.500476 0.204261 0 -0.00233078 -0.00178146
18 1 0.454916 0.166868 0.275688 0 -0.0018692 0.0017643
19 1 0.381711 0.66619 0.204261 0 0.00232506 -0.00177956
20 1 0.351278 5.93566e-07 0.418103 0 -0.00117874 0.00724983
21 1 0.278086 0.499983 0.346701 0 -0.00125885 0.00929451
22 1 0.101278 0.166667 0.418103 0 0.00118065 0.00724602
23 1 0.028086 0.666685 0.346701 0 0.00123978 0.00930786
24 1 0.997657 1.99048e-05 0.560951 0 -0.00050354 -0.00097084
25 1 0.924469 0.500021 0.489502 0 -0.000495911 0.00097084
26 1 0.747658 0.166647 0.560951 0 0.000497818 -0.000968933
27 1 0.67447 0.666647 0.489502 0 0.000499725 0.000967026
28 1 0.485253 0.49515 0.0618837 0 0.00177383 -0.00473976
29 1 0.235253 0.671517 0.0618836 0 -0.00176048 -0.0047245
30 1 0.131711 0.500476 0.204261 0 -0.00232697 -0.00177765
31 1 0.881711 0.66619 0.204261 0 0.00233269 -0.00178337
32 1 0.778087 0.499982 0.346701 0 -0.00125122 0.00931168
33 1 0.540415 0.16619 0.846191 0 0.0023365 0.00177574
34 1 0.436874 -0.00485006 0.988569 0 0.0017643 0.00473404
35 1 0.186874 0.171518 0.988569 0 -0.00177765 0.00473785
36 1 0.644039 -1.76474e-05 0.703752 0 -0.00125504 -0.00930977
37 1 0.570846 0.5 0.63235 0 -0.00117874 -0.00723648
38 1 0.394041 0.166684 0.703752 0 0.00124931 -0.00930023
39 1 0.320848 0.666666 0.63235 0 0.00118446 -0.00724602
40 1 0.290415 0.000476949 0.846192 0 -0.00233841 0.00178337
41 1 0.21721 0.499798 0.774765 0 0.00187111 -0.00177765
42 1 0.0404151 0.166191 0.846191 0 0.00232506 0.00177956
43 1 0.96721 0.666868 0.774765 0 -0.00187111 -0.0017662
44 1 0.936874 -0.00484929 0.988569 0 0.00176048 0.00474167
45 1 0.863611 0.500734 0.916937 0 -0.00844193 -0.00149536
46 1 0.528086 0.666685 0.346701 0 0.00125313 0.00931168
47 1 0.424469 0.500021 0.489502 0 -0.000507355 0.000974655
48 1 0.174469 0.666647 0.489502 0 0.000501633 0.00097847
49 1 0.070848 0.500001 0.63235 0 -0.00118065 -0.00724411
50 1 0.820849 0.666667 0.63235 0 0.00117683 -0.00725746
51 1 0.717211 0.499799 0.774765 0 0.00187492 -0.00177383
52 1 0.686872 0.171518 0.988569 0 -0.00177383 0.00475502
53 1 0.61361 0.665933 0.916936 0 0.00844955 -0.00148582
54 1 0.46721 0.666868 0.774765 0 -0.00187492 -0.00177383
55 1 0.36361 0.500733 0.916936 0 -0.00844574 -0.00149918
56 1 0.11361 0.665933 0.916936 0 0.00845718 -0.00150299
ITEM: TIMESTEP
3
ITEM: NUMBER OF ATOMS
56
ITEM: BOX BOUNDS xy xz yz pp pp pp
-7.9167997837066650e-01 1.2203788340091705e+01 0.0000000000000000e+00
-8.4733366966247559e-03 5.5348814725875854e+00 -7.7299147844314575e-01
-2.9168844223022461e-02 1.9049128890037537e+01 0.0000000000000000e+00
ITEM: ATOMS id type xs ys zs fx fy fz
1 1 0.55852 -0.000117354 0.133583 0 0.00150108 0.00261688
2 1 0.30852 0.166784 0.133583 0 -0.0015049 0.00260353
3 1 0.204924 -6.36779e-05 0.275816 0 -0.000864029 0.0014782
4 1 0.954924 0.166732 0.275815 0 0.000841141 0.0014782
5 1 0.851291 -0.000116175 0.418308 0 -0.000295639 0.00151062
6 1 0.0585203 -0.000117251 0.133583 0 0.0015049 0.00260162
7 1 0.985244 0.494926 0.0617381 0 0.00075531 0.0022831
8 1 0.808521 0.166785 0.133583 0 -0.0015049 0.00260735
9 1 0.735245 0.671743 0.0617379 0 -0.00075531 0.00227356
10 1 0.704925 -6.47121e-05 0.275815 0 -0.0008564 0.00147629
11 1 0.60129 0.166784 0.418308 0 0.000299454 0.00151253
12 1 0.497655 -2.71374e-05 0.560925 0 -0.00126839 -0.00175095
13 1 0.247655 0.166696 0.560926 0 0.00125694 -0.00174713
14 1 0.144023 -0.000143921 0.703484 0 0.000173569 0.000181198
15 1 0.894024 0.16681 0.703484 0 -0.000183105 0.000171661
16 1 0.790415 0.000315692 0.846159 0 -0.00178528 -0.000236511
17 1 0.631712 0.500315 0.204294 0 -0.001791 0.000242233
18 1 0.454924 0.166731 0.275815 0 0.000850677 0.00148201
19 1 0.381713 0.66635 0.204294 0 0.00179291 0.000234604
20 1 0.351291 -0.000116479 0.418308 0 -0.000295639 0.00149918
21 1 0.278103 0.499856 0.346969 0 0.000190735 -0.000162125
22 1 0.101291 0.166785 0.418308 0 0.000286102 0.00150681
23 1 0.028103 0.666811 0.346969 0 -0.000164032 -0.000177383
24 1 0.997655 -2.89428e-05 0.560926 0 -0.00123596 -0.00174904
25 1 0.924471 0.499973 0.489527 0 -0.00126648 0.00175285
26 1 0.747656 0.166696 0.560926 0 0.00124931 -0.00175476
27 1 0.674472 0.666695 0.489527 0 0.00125122 0.0017643
28 1 0.485243 0.494925 0.061738 0 0.000747681 0.00227737
29 1 0.235244 0.671743 0.0617383 0 -0.000753403 0.0022583
30 1 0.131713 0.500316 0.204294 0 -0.00178528 0.000242233
31 1 0.881713 0.666351 0.204294 0 0.001791 0.000238419
32 1 0.778104 0.499856 0.346969 0 0.000185013 -0.000181198
33 1 0.540413 0.166351 0.846158 0 0.00178528 -0.000242233
34 1 0.436883 -0.00507511 0.988715 0 0.000761032 -0.0022831
35 1 0.186883 0.171742 0.988715 0 -0.000741959 -0.00226784
36 1 0.644022 -0.000144483 0.703484 0 0.000181198 0.000175476
37 1 0.570833 0.499883 0.632145 0 -0.000274658 -0.00151443
38 1 0.394024 0.166811 0.703484 0 -0.000190735 0.000167847
39 1 0.320835 0.666784 0.632145 0 0.000297546 -0.00151825
40 1 0.290413 0.000315474 0.846159 0 -0.00178909 -0.000253677
41 1 0.217202 0.499935 0.774637 0 -0.0008564 -0.00147247
42 1 0.040413 0.166351 0.846158 0 0.00179291 -0.000236511
43 1 0.967202 0.666731 0.774637 0 0.000852585 -0.00147438
44 1 0.936883 -0.00507475 0.988715 0 0.000762939 -0.00227356
45 1 0.863607 0.499883 0.91687 0 0.00148964 -0.0026207
46 1 0.528103 0.666811 0.346969 0 -0.000181198 -0.000175476
47 1 0.424471 0.499972 0.489527 0 -0.00124168 0.00175095
48 1 0.174471 0.666696 0.489527 0 0.00124931 0.00175095
49 1 0.070835 0.499883 0.632145 0 -0.000303268 -0.00151253
50 1 0.820836 0.666783 0.632145 0 0.000291824 -0.0015049
51 1 0.717203 0.499936 0.774637 0 -0.0008564 -0.00147438
52 1 0.686881 0.171742 0.988715 0 -0.000741959 -0.00227928
53 1 0.613605 0.666785 0.91687 0 -0.00150871 -0.00261307
54 1 0.467202 0.666731 0.774637 0 0.000860214 -0.00146484
55 1 0.363606 0.499882 0.91687 0 0.00150681 -0.00260162
56 1 0.113606 0.666785 0.91687 0 -0.00151253 -0.0025959
ITEM: TIMESTEP
4
ITEM: NUMBER OF ATOMS
56
ITEM: BOX BOUNDS xy xz yz pp pp pp
-7.9167997837066650e-01 1.2203788340091705e+01 0.0000000000000000e+00
-8.4733366966247559e-03 5.5348814725875854e+00 -7.7299147844314575e-01
-2.9168844223022461e-02 1.9049128890037537e+01 0.0000000000000000e+00
ITEM: ATOMS id type xs ys zs fx fy fz
1 1 0.558524 -7.60066e-05 0.133655 0 0.000652313 -0.00043869
2 1 0.308525 0.166743 0.133655 0 -0.000652313 -0.000419617
3 1 0.204927 -0.000123711 0.275866 0 -0.000734329 0.00169563
4 1 0.954927 0.16679 0.275865 0 0.000749588 0.00171089
5 1 0.851295 -0.000153595 0.418367 0 -0.000518799 -0.000696182
6 1 0.0585248 -7.55753e-05 0.133655 0 0.00066185 -0.000425339
7 1 0.985246 0.494967 0.0617801 0 0.00044632 -0.000411987
8 1 0.808526 0.166743 0.133655 0 -0.000654221 -0.000431061
9 1 0.735248 0.671701 0.0617796 0 -0.00044632 -0.000408173
10 1 0.704928 -0.000124198 0.275865 0 -0.000736237 0.00170326
11 1 0.601294 0.166821 0.418367 0 0.000509262 -0.000696182
12 1 0.497652 -0.000140973 0.560879 0 -0.000341415 0.000869751
13 1 0.247652 0.166809 0.560879 0 0.000341415 0.000858307
14 1 0.144022 -0.000141966 0.703461 0 -0.00012207 -0.00028038
15 1 0.894022 0.166808 0.703461 0 0.000127792 -0.000267029
16 1 0.790414 0.000145771 0.846149 0 0.000434875 -0.00150299
17 1 0.631713 0.500145 0.204304 0 0.000434875 0.00150108
18 1 0.454927 0.16679 0.275866 0 0.000743866 0.00169754
19 1 0.381714 0.666521 0.204304 0 -0.000432968 0.00150108
20 1 0.351295 -0.000153914 0.418367 0 -0.000509262 -0.000686646
21 1 0.278104 0.499859 0.346992 0 -0.000131607 0.000265121
22 1 0.101295 0.166821 0.418367 0 0.000518799 -0.000684738
23 1 0.0281044 0.66681 0.346992 0 0.000106812 0.000272751
24 1 0.997652 -0.000140133 0.560879 0 -0.000360489 0.000862122
25 1 0.924473 0.499859 0.489574 0 -0.000343323 -0.000858307
26 1 0.747653 0.166808 0.56088 0 0.000347137 0.000858307
27 1 0.674475 0.666808 0.489574 0 0.000356674 -0.000867844
28 1 0.485246 0.494967 0.0617798 0 0.000452042 -0.000406265
29 1 0.235246 0.671701 0.0617797 0 -0.000457764 -0.000404358
30 1 0.131714 0.500146 0.204304 0 0.000427246 0.00149918
31 1 0.881714 0.666521 0.204304 0 -0.000432968 0.00150299
32 1 0.778105 0.499859 0.346992 0 -0.0001297 0.000278473
33 1 0.540412 0.166521 0.846149 0 -0.000429153 -0.00149536
34 1 0.43688 -0.00503288 0.988673 0 0.000450134 0.000421524
35 1 0.18688 0.171701 0.988673 0 -0.000452042 0.000404358
36 1 0.644021 -0.000141963 0.703461 0 -0.00012207 -0.000278473
37 1 0.57083 0.499847 0.632086 0 -0.000535965 0.000694275
38 1 0.394022 0.166808 0.703461 0 0.000133514 -0.000276566
39 1 0.320831 0.666822 0.632086 0 0.000509262 0.000692368
40 1 0.290413 0.000145188 0.846149 0 0.000440598 -0.00148773
41 1 0.217199 0.499876 0.774587 0 -0.000743866 -0.00169945
42 1 0.0404124 0.166521 0.846149 0 -0.000440598 -0.00149727
43 1 0.967199 0.66679 0.774587 0 0.000741959 -0.00170898
44 1 0.93688 -0.0050324 0.988673 0 0.000444412 0.000408173
45 1 0.863602 0.499924 0.916798 0 0.000667572 0.000444412
46 1 0.528104 0.666809 0.346992 0 0.000127792 0.000276566
47 1 0.424474 0.49986 0.489573 0 -0.000352859 -0.000862122
48 1 0.174474 0.666808 0.489573 0 0.000360489 -0.000864029
49 1 0.0708313 0.499845 0.632086 0 -0.000499725 0.000696182
50 1 0.820832 0.666821 0.632086 0 0.000520706 0.000684738
51 1 0.7172 0.499876 0.774587 0 -0.000747681 -0.00169945
52 1 0.686878 0.171702 0.988673 0 -0.000463486 0.000404358
53 1 0.613601 0.666743 0.916798 0 -0.000652313 0.000431061
54 1 0.467199 0.666791 0.774588 0 0.000730515 -0.0017128
55 1 0.363601 0.499924 0.916798 0 0.000656128 0.000415802
56 1 0.113602 0.666742 0.916798 0 -0.000650406 0.000417709
ITEM: TIMESTEP
5
ITEM: NUMBER OF ATOMS
56
ITEM: BOX BOUNDS xy xz yz pp pp pp
-7.9167997837066650e-01 1.2203788340091705e+01 0.0000000000000000e+00
-8.4733366966247559e-03 5.5348814725875854e+00 -7.7299147844314575e-01
-2.9168844223022461e-02 1.9049128890037537e+01 0.0000000000000000e+00
ITEM: ATOMS id type xs ys zs fx fy fz
1 1 0.558525 -4.86579e-06 0.133667 0 -0.000104904 0.000179291
2 1 0.308526 0.166671 0.133667 0 0.000106812 0.000181198
3 1 0.204931 -0.000208078 0.275925 0 0.000305176 -0.00034523
4 1 0.954931 0.166875 0.275925 0 -0.000320435 -0.000360489
5 1 0.851295 -0.000211615 0.418368 0 -0.000110626 0.00038147
6 1 0.0585256 -3.48208e-06 0.133667 0 -0.000112534 0.000179291
7 1 0.985247 0.49502 0.0617827 0 0.00037384 4.57764e-05
8 1 0.808526 0.166672 0.133666 0 0.000106812 0.000177383
9 1 0.735248 0.671648 0.0617823 0 -0.00037384 4.76837e-05
10 1 0.704932 -0.000208561 0.275925 0 0.000312805 -0.000358582
11 1 0.601294 0.166879 0.418368 0 0.000116348 0.00037384
12 1 0.497652 -0.000207476 0.560887 0 2.67029e-05 0.000219345
13 1 0.247653 0.166875 0.560887 0 -1.90735e-05 0.000219345
14 1 0.144021 -0.000152202 0.703446 0 -0.000469208 -0.000553131
15 1 0.894021 0.166818 0.703446 0 0.0004673 -0.000564575
16 1 0.790411 0.000130502 0.846108 0 0.000545502 -0.000286102
17 1 0.631715 0.50013 0.204345 0 0.000556946 0.000284195
18 1 0.454931 0.166875 0.275925 0 -0.000310898 -0.000356674
19 1 0.381716 0.666537 0.204345 0 -0.000556946 0.000284195
20 1 0.351295 -0.00021109 0.418368 0 -0.000108719 0.00037384
21 1 0.278105 0.499848 0.347007 0 -0.000463486 0.000555038
22 1 0.101295 0.166879 0.418368 0 0.000114441 0.000371933
23 1 0.0281053 0.666819 0.347007 0 0.000465393 0.000553131
24 1 0.997653 -0.000207493 0.560887 0 1.52588e-05 0.00021553
25 1 0.924473 0.499792 0.489566 0 2.86102e-05 -0.000230789
26 1 0.747654 0.166874 0.560887 0 -1.33514e-05 0.000232697
27 1 0.674474 0.666875 0.489566 0 -2.67029e-05 -0.000228882
28 1 0.485246 0.49502 0.0617826 0 0.000370026 3.43323e-05
29 1 0.235247 0.671647 0.0617825 0 -0.000352859 5.14984e-05
30 1 0.131716 0.50013 0.204346 0 0.000553131 0.000276566
31 1 0.881716 0.666537 0.204345 0 -0.000551224 0.00028801
32 1 0.778106 0.499848 0.347007 0 -0.000461578 0.000558853
33 1 0.54041 0.166537 0.846107 0 -0.000553131 -0.00028801
34 1 0.43688 -0.00497944 0.98867 0 0.000358582 -4.95911e-05
35 1 0.18688 0.171648 0.98867 0 -0.000375748 -4.3869e-05
36 1 0.64402 -0.000152019 0.703446 0 -0.000469208 -0.000547409
37 1 0.57083 0.499788 0.632085 0 -0.000112534 -0.00037384
38 1 0.394021 0.166818 0.703446 0 0.000459671 -0.000549316
39 1 0.320831 0.666879 0.632085 0 0.000104904 -0.000356674
40 1 0.29041 0.000130313 0.846107 0 0.000545502 -0.00028038
41 1 0.217195 0.499791 0.774528 0 0.000320435 0.000343323
42 1 0.0404098 0.166536 0.846107 0 -0.000545502 -0.000278473
43 1 0.967195 0.666875 0.774527 0 -0.000320435 0.000366211
44 1 0.93688 -0.00497943 0.98867 0 0.000371933 -4.3869e-05
45 1 0.863601 0.499996 0.916786 0 -0.000108719 -0.00018692
46 1 0.528105 0.666819 0.347007 0 0.000465393 0.000545502
47 1 0.424473 0.499793 0.489566 0 2.67029e-05 -0.000226974
48 1 0.174473 0.666876 0.489566 0 -3.62396e-05 -0.000221252
49 1 0.0708312 0.499789 0.632085 0 -0.000106812 -0.000377655
50 1 0.820832 0.666879 0.632085 0 0.000110626 -0.000362396
51 1 0.717196 0.499791 0.774528 0 0.000318527 0.000354767
52 1 0.686878 0.171648 0.98867 0 -0.000371933 -3.43323e-05
53 1 0.6136 0.666671 0.916786 0 0.000108719 -0.00018692
54 1 0.467195 0.666875 0.774528 0 -0.000307083 0.000354767
55 1 0.363601 0.499996 0.916786 0 -0.000104904 -0.000175476
56 1 0.113601 0.666671 0.916786 0 0.000112534 -0.000181198
ITEM: TIMESTEP
6
ITEM: NUMBER OF ATOMS
56
ITEM: BOX BOUNDS xy xz yz pp pp pp
-7.9167997837066650e-01 1.2203788340091705e+01 0.0000000000000000e+00
-8.4733366966247559e-03 5.5348814725875854e+00 -7.7299147844314575e-01
-2.9168844223022461e-02 1.9049128890037537e+01 0.0000000000000000e+00
ITEM: ATOMS id type xs ys zs fx fy fz
1 1 0.558525 -1.6044e-06 0.133674 0 0.000148773 -7.62939e-05
2 1 0.308526 0.166668 0.133674 0 -0.000146866 -8.39233e-05
3 1 0.204931 -0.000194871 0.275927 0 0.000154495 9.53674e-06
4 1 0.954931 0.166861 0.275927 0 -0.000141144 1.71661e-05
5 1 0.851296 -0.000232805 0.418378 0 1.52588e-05 0.000146866
6 1 0.058526 -7.65022e-07 0.133674 0 0.000139236 -8.58307e-05
7 1 0.985247 0.495066 0.0617845 0 3.8147e-05 0.000104904
8 1 0.808527 0.166669 0.133673 0 -0.000141144 -6.67572e-05
9 1 0.735248 0.671603 0.0617841 0 -3.8147e-05 0.000106812
10 1 0.704932 -0.000194633 0.275927 0 0.000144958 2.47955e-05
11 1 0.601295 0.1669 0.418378 0 -5.72205e-06 0.000160217
12 1 0.497653 -0.000217266 0.560894 0 -3.24249e-05 -0.000335693
13 1 0.247653 0.166886 0.560894 0 2.09808e-05 -0.000326157
14 1 0.14402 -0.000198418 0.703428 0 2.67029e-05 -3.8147e-06
15 1 0.89402 0.166864 0.703428 0 -2.47955e-05 3.8147e-06
16 1 0.79041 0.000179203 0.846092 0 3.8147e-06 -1.90735e-05
17 1 0.631716 0.500179 0.204361 0 3.8147e-06 2.47955e-05
18 1 0.454931 0.166861 0.275927 0 -0.000148773 1.33514e-05
19 1 0.381717 0.666487 0.204361 0 5.72205e-06 2.86102e-05
20 1 0.351296 -0.000231944 0.418378 0 1.90735e-06 0.000160217
21 1 0.278106 0.499803 0.347025 0 2.28882e-05 7.62939e-06
22 1 0.101296 0.166901 0.418378 0 -1.90735e-05 0.000154495
23 1 0.0281065 0.666865 0.347025 0 -1.90735e-05 1.33514e-05
24 1 0.997653 -0.000218522 0.560894 0 -1.52588e-05 -0.000322342
25 1 0.924472 0.499783 0.489558 0 -3.43323e-05 0.000337601
26 1 0.747654 0.166885 0.560895 0 2.47955e-05 -0.000335693
27 1 0.674474 0.666885 0.489559 0 2.86102e-05 0.000331879
28 1 0.485246 0.495065 0.0617841 0 4.00543e-05 0.000112534
29 1 0.235247 0.671604 0.0617844 0 -5.34058e-05 0.000114441
30 1 0.131717 0.500179 0.204361 0 5.72205e-06 3.8147e-05
31 1 0.881717 0.666487 0.204361 0 -9.53674e-06 2.28882e-05
32 1 0.778107 0.499802 0.347025 0 1.33514e-05 1.90735e-06
33 1 0.540409 0.166488 0.846092 0 -7.62939e-06 -2.28882e-05
34 1 0.43688 -0.00493568 0.988668 0 5.14984e-05 -0.000110626
35 1 0.18688 0.171602 0.988669 0 -3.24249e-05 -0.000110626
36 1 0.644019 -0.000198201 0.703428 0 1.14441e-05 -9.53674e-06
37 1 0.570829 0.499766 0.632074 0 2.28882e-05 -0.00015831
38 1 0.39402 0.166864 0.703428 0 -1.33514e-05 -3.8147e-06
39 1 0.320831 0.666899 0.632075 0 -1.90735e-06 -0.000175476
40 1 0.290409 0.000179086 0.846092 0 5.72205e-06 -3.05176e-05
41 1 0.217195 0.499805 0.774526 0 0.000148773 -7.62939e-06
42 1 0.0404088 0.166487 0.846092 0 -1.90735e-06 -4.19617e-05
43 1 0.967195 0.66686 0.774526 0 -0.000141144 -2.09808e-05
44 1 0.93688 -0.00493449 0.988669 0 3.43323e-05 -0.000118256
45 1 0.863601 0.499999 0.916779 0 0.000135422 8.7738e-05
46 1 0.528106 0.666865 0.347025 0 -2.09808e-05 9.53674e-06
47 1 0.424473 0.499783 0.489558 0 -2.86102e-05 0.000331879
48 1 0.174473 0.666885 0.489558 0 3.62396e-05 0.000333786
49 1 0.0708306 0.499768 0.632074 0 -7.62939e-06 -0.000162125
50 1 0.820832 0.6669 0.632075 0 -5.72205e-06 -0.000167847
51 1 0.717196 0.499805 0.774526 0 0.000146866 -1.52588e-05
52 1 0.686878 0.171602 0.988669 0 -2.67029e-05 -0.000123978
53 1 0.6136 0.666668 0.916779 0 -0.000146866 8.39233e-05
54 1 0.467195 0.666861 0.774526 0 -0.000154495 -1.33514e-05
55 1 0.3636 0.499999 0.916779 0 0.000137329 8.01086e-05
56 1 0.1136 0.666669 0.916779 0 -0.000150681 8.58307e-05
ITEM: TIMESTEP
7
ITEM: NUMBER OF ATOMS
56
ITEM: BOX BOUNDS xy xz yz pp pp pp
-7.9167997837066650e-01 1.2203788340091705e+01 0.0000000000000000e+00
-8.4733366966247559e-03 5.5348814725875854e+00 -7.7299147844314575e-01
-2.9168844223022461e-02 1.9049128890037537e+01 0.0000000000000000e+00
ITEM: ATOMS id type xs ys zs fx fy fz
1 1 0.558525 8.9859e-06 0.133673 0 5.14984e-05 -5.34058e-05
2 1 0.308526 0.166658 0.133673 0 -4.76837e-05 -5.53131e-05
3 1 0.204931 -0.000183 0.275927 0 2.67029e-05 5.91278e-05
4 1 0.954931 0.16685 0.275927 0 -2.09808e-05 6.67572e-05
5 1 0.851296 -0.000233634 0.418382 0 -1.33514e-05 -6.10352e-05
6 1 0.058526 9.11659e-06 0.133673 0 5.91278e-05 -4.95911e-05
7 1 0.985247 0.495072 0.0617868 0 1.71661e-05 2.28882e-05
8 1 0.808527 0.166658 0.133673 0 -5.72205e-05 -5.91278e-05
9 1 0.735248 0.671596 0.0617865 0 -2.28882e-05 2.67029e-05
10 1 0.704932 -0.000183358 0.275927 0 2.09808e-05 6.48499e-05
11 1 0.601295 0.166902 0.418382 0 7.62939e-06 -7.05719e-05
12 1 0.497652 -0.000220382 0.560888 0 1.90735e-06 -7.62939e-06
13 1 0.247653 0.166888 0.560888 0 3.8147e-06 -5.72205e-06
14 1 0.14402 -0.000200679 0.703427 0 8.2016e-05 -8.7738e-05
15 1 0.89402 0.166867 0.703427 0 -8.7738e-05 -7.82013e-05
16 1 0.79041 0.000183798 0.84609 0 1.14441e-05 -1.14441e-05
17 1 0.631717 0.500184 0.204363 0 5.72205e-06 9.53674e-06
18 1 0.454931 0.16685 0.275927 0 -2.09808e-05 8.2016e-05
19 1 0.381718 0.666483 0.204363 0 -1.33514e-05 1.52588e-05
20 1 0.351296 -0.000233667 0.418382 0 -1.33514e-05 -7.05719e-05
21 1 0.278107 0.4998 0.347026 0 8.58307e-05 7.62939e-05
22 1 0.101296 0.166901 0.418382 0 1.14441e-05 -7.05719e-05
23 1 0.0281066 0.666867 0.347026 0 -8.58307e-05 7.82013e-05
24 1 0.997653 -0.000220559 0.560888 0 1.90735e-06 -1.52588e-05
25 1 0.924473 0.499779 0.489564 0 0 1.90735e-06
26 1 0.747654 0.166888 0.560889 0 -1.90735e-06 -5.72205e-06
27 1 0.674474 0.666888 0.489565 0 5.72205e-06 7.62939e-06
28 1 0.485247 0.495071 0.0617865 0 2.86102e-05 3.24249e-05
29 1 0.235247 0.671596 0.0617868 0 -2.28882e-05 1.52588e-05
30 1 0.131717 0.500184 0.204363 0 7.62939e-06 1.52588e-05
31 1 0.881717 0.666482 0.204363 0 -9.53674e-06 1.33514e-05
32 1 0.778107 0.499799 0.347026 0 9.53674e-05 7.82013e-05
33 1 0.540409 0.166483 0.84609 0 -1.71661e-05 -2.09808e-05
34 1 0.43688 -0.00492822 0.988666 0 1.14441e-05 -1.90735e-05
35 1 0.18688 0.171596 0.988666 0 -2.47955e-05 -1.90735e-05
36 1 0.644019 -0.000201516 0.703426 0 9.72748e-05 -7.82013e-05
37 1 0.570829 0.499766 0.63207 0 -1.52588e-05 7.05719e-05
38 1 0.39402 0.166867 0.703427 0 -8.58307e-05 -7.62939e-05
39 1 0.32083 0.666901 0.63207 0 7.62939e-06 7.43866e-05
40 1 0.290409 0.00018382 0.84609 0 1.14441e-05 -1.90735e-05
41 1 0.217195 0.499817 0.774526 0 1.90735e-05 -7.05719e-05
42 1 0.0404087 0.166483 0.84609 0 -1.90735e-05 -1.71661e-05
43 1 0.967195 0.666849 0.774526 0 -1.14441e-05 -7.82013e-05
44 1 0.93688 -0.00492812 0.988666 0 2.86102e-05 -2.28882e-05
45 1 0.863601 0.500009 0.91678 0 6.10352e-05 5.14984e-05
46 1 0.528106 0.666868 0.347026 0 -8.2016e-05 7.82013e-05
47 1 0.424473 0.49978 0.489564 0 0 1.14441e-05
48 1 0.174473 0.666888 0.489564 0 -3.8147e-06 1.71661e-05
49 1 0.0708303 0.499766 0.63207 0 -1.33514e-05 7.43866e-05
50 1 0.820831 0.666901 0.632071 0 5.72205e-06 7.05719e-05
51 1 0.717196 0.499817 0.774526 0 1.90735e-05 -7.05719e-05
52 1 0.686878 0.171597 0.988666 0 -3.24249e-05 -1.71661e-05
53 1 0.6136 0.666658 0.91678 0 -4.76837e-05 5.34058e-05
54 1 0.467195 0.666849 0.774526 0 -1.90735e-05 -6.86646e-05
55 1 0.3636 0.500009 0.91678 0 5.91278e-05 5.34058e-05
56 1 0.1136 0.666658 0.91678 0 -5.53131e-05 5.91278e-05
ITEM: TIMESTEP
8
ITEM: NUMBER OF ATOMS
56
ITEM: BOX BOUNDS xy xz yz pp pp pp
-7.9167997837066650e-01 1.2203788340091705e+01 0.0000000000000000e+00
-8.4733366966247559e-03 5.5348814725875854e+00 -7.7299147844314575e-01
-2.9168844223022461e-02 1.9049128890037537e+01 0.0000000000000000e+00
ITEM: ATOMS id type xs ys zs fx fy fz
1 1 0.558525 8.9859e-06 0.133673 0 5.14984e-05 -5.34058e-05
2 1 0.308526 0.166658 0.133673 0 -4.76837e-05 -5.53131e-05
3 1 0.204931 -0.000183 0.275927 0 2.67029e-05 5.91278e-05
4 1 0.954931 0.16685 0.275927 0 -2.09808e-05 6.67572e-05
5 1 0.851296 -0.000233634 0.418382 0 -1.33514e-05 -6.10352e-05
6 1 0.058526 9.11659e-06 0.133673 0 5.91278e-05 -4.95911e-05
7 1 0.985247 0.495072 0.0617868 0 1.71661e-05 2.28882e-05
8 1 0.808527 0.166658 0.133673 0 -5.72205e-05 -5.91278e-05
9 1 0.735248 0.671596 0.0617865 0 -2.28882e-05 2.67029e-05
10 1 0.704932 -0.000183358 0.275927 0 2.09808e-05 6.48499e-05
11 1 0.601295 0.166902 0.418382 0 7.62939e-06 -7.05719e-05
12 1 0.497652 -0.000220382 0.560888 0 1.90735e-06 -7.62939e-06
13 1 0.247653 0.166888 0.560888 0 3.8147e-06 -5.72205e-06
14 1 0.14402 -0.000200679 0.703427 0 8.2016e-05 -8.7738e-05
15 1 0.89402 0.166867 0.703427 0 -8.7738e-05 -7.82013e-05