LAMMPS (4 May 2022)
## variable
variable        temp            equal 1000
variable        eql_step        equal 500000
variable        rd_seed         equal 3

variable        temp_damp       equal 0.2 # tau_NVT = timestep * 100
variable        t_step          equal 0.002
variable        rlx_step        equal 20000

variable        thermo_freq     equal 100
variable        dump_freq       equal 100

## units
dimension       3
boundary        p p p
units           metal
atom_style      atomic
neighbor        1.0 bin
neigh_modify    every 10 delay 0 check no

## data.lmp, potential
read_data       data.lmp
Reading data file ...
  orthogonal box = (0 0 0) to (26.67021 26.67021 25.5908)
  1 by 1 by 1 MPI processor grid
  reading atoms ...
  900 atoms
  read_data CPU = 0.002 seconds
pair_style      mdpu model.pb
pair_coeff * *

## velocity, timestep
velocity        all create ${temp} ${rd_seed} loop geom
velocity        all create 1000 ${rd_seed} loop geom
velocity        all create 1000 3 loop geom
timestep        ${t_step}
timestep        0.002

## nvt-relax
fix             equil all nvt temp ${temp} ${temp} ${temp_damp}
fix             equil all nvt temp 1000 ${temp} ${temp_damp}
fix             equil all nvt temp 1000 1000 ${temp_damp}
fix             equil all nvt temp 1000 1000 0.2
run             ${rlx_step}
run             20000
Generated 0 of 6 mixed pair_coeff terms from geometric mixing rule
Neighbor list info ...
  update every 10 steps, delay 0 steps, check no
  max neighbors/atom: 2000, page size: 100000
  master list distance cutoff = 8
  ghost atom cutoff = 8
  binsize = 4, bins = 7 7 7
  1 neighbor lists, perpetual/occasional/extra = 1 0 0
  (1) pair mdpu, perpetual
      attributes: full, newton on
      pair build: full/bin/atomonly
      stencil: full/bin/3d
      bin: standard
Per MPI rank memory allocation (min/avg/max) = 2.672 | 2.672 | 2.672 Mbytes
   Step          Temp          E_pair         E_mol          TotEng         Press     
         0   1000           198.43733      0              314.6422       4100.7571    
     20000   991.93934      322.1588       0              437.42699      14519.311    
Loop time of 12.0242 on 1 procs for 20000 steps with 900 atoms

Performance: 287.419 ns/day, 0.084 hours/ns, 1663.306 timesteps/s
53.6% CPU use with 1 MPI tasks x no OpenMP threads

MPI task timing breakdown:
Section |  min time  |  avg time  |  max time  |%varavg| %total
---------------------------------------------------------------
Pair    | 7.6753     | 7.6753     | 7.6753     |   0.0 | 63.83
Neigh   | 4.0574     | 4.0574     | 4.0574     |   0.0 | 33.74
Comm    | 0.14102    | 0.14102    | 0.14102    |   0.0 |  1.17
Output  | 1.6899e-05 | 1.6899e-05 | 1.6899e-05 |   0.0 |  0.00
Modify  | 0.1272     | 0.1272     | 0.1272     |   0.0 |  1.06
Other   |            | 0.02339    |            |       |  0.19

Nlocal:            900 ave         900 max         900 min
Histogram: 1 0 0 0 0 0 0 0 0 0
Nghost:           2763 ave        2763 max        2763 min
Histogram: 1 0 0 0 0 0 0 0 0 0
Neighs:              0 ave           0 max           0 min
Histogram: 1 0 0 0 0 0 0 0 0 0
FullNghs:        94926 ave       94926 max       94926 min
Histogram: 1 0 0 0 0 0 0 0 0 0

Total # of neighbors = 94926
Ave neighs/atom = 105.47333
Neighbor list builds = 2000
Dangerous builds not checked
unfix           equil

## nvt-equal
reset_timestep  0
fix             equil all nvt temp ${temp} ${temp} ${temp_damp}
fix             equil all nvt temp 1000 ${temp} ${temp_damp}
fix             equil all nvt temp 1000 1000 ${temp_damp}
fix             equil all nvt temp 1000 1000 0.2
fix             com all recenter INIT INIT INIT

## thermo_style
thermo_style    custom step time temp ke etotal press
thermo          ${thermo_freq}
thermo          100
thermo_modify   flush yes
dump            1 all custom ${dump_freq} dump.lammpstraj id type x y z
dump            1 all custom 100 dump.lammpstraj id type x y z
run             500000
Generated 0 of 6 mixed pair_coeff terms from geometric mixing rule
Per MPI rank memory allocation (min/avg/max) = 3.956 | 3.956 | 3.956 Mbytes
   Step          Time           Temp          KinEng         TotEng         Press     
         0   0              991.93934      115.26818      437.42699      14519.311    
       100   0.2            1033.5755      120.10651      436.63085      13695.888    
       200   0.4            991.91415      115.26526      430.95752      13556.199    
       300   0.6            946.54199      109.99279      426.61694      14925.944    
       400   0.8            1001.6752      116.39953      430.56967      14873.414    
       500   1              991.20859      115.18327      436.06625      14935.512    
       600   1.2            1007.3769      117.0621       437.09191      16890.225    
       700   1.4            991.01478      115.16074      435.08145      13925.505    
       800   1.6            992.51902      115.33554      431.50949      13852.359    
       900   1.8            960.1882       111.57855      429.81732      12792.991    
      1000   2              994.87728      115.60959      430.17212      12574.407    
      1100   2.2            989.46118      114.98021      437.13434      13786.835    
      1200   2.4            1021.06        118.65215      439.70004      14054.952    
      1300   2.6            1004.2657      116.70056      436.37027      11873.115    
      1400   2.8            978.728        113.73296      430.68687      15816.881    
      1500   3              995.04995      115.62965      428.02993      12554.737    
      1600   3.2            993.25124      115.42063      432.60509      14110.08     
      1700   3.4            1041.8829      121.07187      440.89896      15113.428    
      1800   3.6            1049.9245      122.00634      441.2147       15602.268    
      1900   3.8            1002.0538      116.44353      435.72218      13364.062    
      2000   4              990.74604      115.12952      432.0578       13825.114    
      2100   4.2            1000.5894      116.27336      432.06289      15049.531    
      2200   4.4            1037.4664      120.55865      439.25937      15309.985    
      2300   4.6            1050.3745      122.05864      442.73482      14998.705    
      2400   4.8            999.91527      116.19502      438.5608       15143.16     
      2500   5              1005.6418      116.86047      434.22028      14131.931    
      2600   5.2            996.92627      115.84769      430.88991      11532.304    
      2700   5.4            993.12553      115.40602      430.62009      13896.341    
      2800   5.6            973.34493      113.10742      432.13881      14542.898    
      2900   5.8            977.36966      113.57511      434.80111      10090.331    
      3000   6              1024.1441      119.01053      437.97275      15813.974    
      3100   6.2            999.35071      116.12942      438.96565      15654.982    
      3200   6.4            1028.6164      119.53024      438.19717      14396.642    
      3300   6.6            971.49932      112.89295      431.83113      12981.481    
      3400   6.8            976.55154      113.48005      429.85199      14420.95     
      3500   7              988.12308      114.82471      432.42697      12270.896    
      3600   7.2            1038.5835      120.68846      438.36444      13471.196    
      3700   7.4            1051.0297      122.13477      440.76495      16168.262    
      3800   7.6            1005.2333      116.81301      438.56636      13032.008    
      3900   7.8            978.48242      113.70442      429.38031      15874.697    
      4000   8              969.03258      112.60631      427.99155      13452.585    
      4100   8.2            999.27115      116.12017      432.18977      12385.703    
      4200   8.4            1007.6713      117.09632      436.41523      11799.064    
      4300   8.6            995.41721      115.67233      437.95913      14713.011    
      4400   8.8            977.78517      113.6234       437.79216      15562.014    
      4500   9              979.81434      113.8592       435.95211      13564.971    
      4600   9.2            921.5153       107.08457      425.12849      13684.861    
      4700   9.4            948.37893      110.20625      424.73516      14861.658    
      4800   9.6            951.00355      110.51124      431.58339      16922.981    
      4900   9.8            1004.0269      116.67281      437.19219      15898.288    
      5000   10             1013.5599      117.7806       440.18844      14713.551    
      5100   10.2           997.01878      115.85844      439.18918      14131.948    
      5200   10.4           1013.2126      117.74023      430.94213      13424.971    
      5300   10.6           966.56911      112.32004      428.30716      11657.36     
      5400   10.8           957.67383      111.28636      431.53367      14090.036    
      5500   11             977.35858      113.57383      435.93877      14932.901    
      5600   11.2           990.48737      115.09946      438.33785      13173.845    
      5700   11.4           1028.8145      119.55325      436.98941      14421.853    
      5800   11.6           977.83185      113.62882      430.66182      14917.589    
      5900   11.8           938.37463      109.0437       422.72309      14440.33     
      6000   12             953.33602      110.78229      428.09782      14068.898    
      6100   12.2           1009.6121      117.32184      434.22803      16863.514    
      6200   12.4           1039.5438      120.80006      438.74439      16138.633    
      6300   12.6           1050.9284      122.12299      439.35916      13461.43     
      6400   12.8           998.08612      115.98247      434.22828      14782.152    
      6500   13             974.16593      113.20283      428.69177      15578.623    
      6600   13.2           970.86772      112.81956      428.23951      12464.853    
      6700   13.4           1010.5306      117.42857      439.02485      13630.643    
      6800   13.6           1007.79        117.1101       440.83075      11256.377    
      6900   13.8           997.37795      115.90018      437.85351      15637.719    
      7000   14             1004.2774      116.70192      432.6489       16053.317    
      7100   14.2           971.18932      112.85693      429.72188      14847.123    
      7200   14.4           997.25593      115.886        432.10475      11909.249    
      7300   14.6           1051.5675      122.19726      441.67387      17342.401    
      7400   14.8           1030.1723      119.71103      442.25737      14941.544    
      7500   15             1005.2842      116.81892      437.34104      12754.785    
      7600   15.2           983.24452      114.2578       432.3988       15716.636    
      7700   15.4           987.66586      114.77158      432.10332      12129.23     
      7800   15.6           1011.2248      117.50924      434.40501      13057.719    
      7900   15.8           1013.5103      117.77483      437.66386      14897.784    
      8000   16             1004.1935      116.69218      438.03986      13601.341    
      8100   16.2           1004.6698      116.74752      436.37154      14776.462    
      8200   16.4           996.49033      115.79703      432.79649      14547.033    
      8300   16.6           971.89788      112.93927      429.4224       11965.423    
      8400   16.8           979.46076      113.81811      424.49195      15067.892    
      8500   17             949.78334      110.36945      424.63166      14742.849    
      8600   17.2           983.09007      114.23985      433.07521      13179.707    
      8700   17.4           993.33914      115.43085      436.70047      14307.624    
      8800   17.6           1012.7854      117.69059      437.33515      15898.472    
      8900   17.8           1015.8388      118.04541      434.74532      15624.34     
      9000   18             967.37761      112.41399      429.91396      14361.398    
      9100   18.2           997.38904      115.90146      427.07671      11794.238    
      9200   18.4           960.89249      111.66039      431.86739      12731.23     
      9300   18.6           999.04172      116.09351      438.85359      14460.778    
      9400   18.8           1064.5942      123.71103      440.04055      15068.6      
      9500   19             989.91425      115.03286      434.55879      15657.647    
      9600   19.2           990.56396      115.10836      431.38445      15960.466    
      9700   19.4           1007.7499      117.10545      432.04207      14844.003    
      9800   19.6           1020.6245      118.60153      440.46319      14231.055    
      9900   19.8           1058.4453      122.9965       444.99369      16124.269    
     10000   20             1025.9165      119.21649      439.78039      14262.727    
     10100   20.2           1023.3872      118.92257      435.0522       12651.722    
     10200   20.4           981.83248      114.09372      431.24172      14135.248    
     10300   20.6           1020.4019      118.57568      431.7104       15572.437    
     10400   20.8           1004.8234      116.76537      436.89557      17593.275    
     10500   21             1059.484       123.1172       445.88277      15251.683    
     10600   21.2           1038.2236      120.64664      444.14441      14023.614    
     10700   21.4           1014.7776      117.9221       438.33434      15589.612    
     10800   21.6           995.11005      115.63663      435.93417      15609.143    
     10900   21.8           960.60734      111.62725      433.53291      14368.794    
     11000   22             994.96943      115.62029      432.32241      14369.379    
     11100   22.2           1004.9533      116.78047      433.27937      13730.348    
     11200   22.4           998.92595      116.08006      438.16795      13519.887    
     11300   22.6           1038.7771      120.71095      441.08981      15836.765    
     11400   22.8           1004.3594      116.71145      438.65154      16007.751    
     11500   23             964.11773      112.03518      430.44076      12683.38     
     11600   23.2           993.7362       115.47699      428.98478      10476.051    
     11700   23.4           968.6335       112.55993      431.43376      16071.821    
     11800   23.6           1039.1832      120.75814      437.04349      13720.26     
     11900   23.8           1018.5112      118.35596      438.75913      13363.822    
     12000   24             967.42523      112.41952      437.71363      13498.892    
     12100   24.2           1042.2721      121.11709      436.74629      14978.489    
     12200   24.4           1016.0436      118.06921      433.44826      14571.767    
     12300   24.6           976.73195      113.50101      426.20742      15800.171    
     12400   24.8           934.67386      108.61366      423.77315      15401.87     
     12500   25             992.03362      115.27914      429.88258      13612.636    
     12600   25.2           1019.6599      118.48945      433.33258      13224.511    
     12700   25.4           985.28036      114.49438      436.15945      13859.077    
     12800   25.6           1017.041       118.18512      440.29198      17275.134    
     12900   25.8           1008.9992      117.25062      437.32294      14372.492    
     13000   26             966.37498      112.29748      429.69572      13354.746    
     13100   26.2           1025.0563      119.11653      430.24891      11948.95     
     13200   26.4           967.30921      112.40604      432.84114      16628.484    
     13300   26.6           1048.1257      121.79731      436.76836      13600.019    
     13400   26.8           1041.1949      120.99192      442.06768      13019.436    
     13500   27             1061.1331      123.30883      447.04774      16901.547    
     13600   27.2           1058.1173      122.95838      444.19731      14845.433    
     13700   27.4           1027.2286      119.36896      436.46641      16394.769    
     13800   27.6           993.57858      115.45867      433.15565      12950.276    
     13900   27.8           976.92729      113.52371      432.18603      12118.411    
     14000   28             1011.5228      117.54387      437.06228      14484.224    
     14100   28.2           995.8049       115.71738      442.07066      13998.562    
     14200   28.4           991.65905      115.23561      439.58367      12230.268    
     14300   28.6           1021.5152      118.70504      435.87327      13618.798    
     14400   28.8           1024.8868      119.09684      433.74199      15282.556    
     14500   29             968.32984      112.52464      431.73173      13853.558    
     14600   29.2           1009.7816      117.34154      434.50823      14440.672    
     14700   29.4           980.31428      113.91729      439.57375      16195.521    
     14800   29.6           1033.8412      120.13738      448.11226      16597.694    
     14900   29.8           1035.9124      120.37807      449.45927      14542.155    
     15000   30             1026.6772      119.30489      441.39055      15677.672    
     15100   30.2           1013.8758      117.8173       438.217        14369.616    
     15200   30.4           972.54118      113.01402      432.98892      15379.026    
     15300   30.6           991.4514       115.21148      430.92637      15727.813    
     15400   30.8           1024.7357      119.07928      432.90106      13308.245    
     15500   31             1021.0141      118.64681      439.22229      15859.3      
     15600   31.2           1024.7579      119.08186      442.89945      16008.606    
     15700   31.4           987.00673      114.69499      438.87624      12687.686    
     15800   31.6           1005.1686      116.80549      434.50562      13993.095    
     15900   31.8           941.2535       109.37824      433.87053      18511.148    
     16000   32             1027.2849      119.37551      436.05483      12448.418    
     16100   32.2           1016.426       118.11365      439.09678      16315.691    
     16200   32.4           1004.5434      116.73284      441.56618      15120.567    
     16300   32.6           1048.2379      121.81035      444.71786      14297.694    
     16400   32.8           1013.3442      117.75553      439.24195      16911.764    
     16500   33             964.62601      112.09424      432.40548      14061.87     
     16600   33.2           961.1805       111.69386      432.23325      13492.874    
     16700   33.4           989.18263      114.94784      437.48281      13332.646    
     16800   33.6           1078.719       125.3524       440.80323      14955.986    
     16900   33.8           1017.3637      118.22262      439.26627      13167.284    
     17000   34             978.29919      113.68313      434.80716      16133.904    
     17100   34.2           958.14969      111.34166      424.36473      14586.248    
     17200   34.4           961.98495      111.78734      423.04981      14365.648    
     17300   34.6           965.65568      112.21389      429.33491      12375.589    
     17400   34.8           999.27013      116.12006      435.45756      16025.909    
     17500   35             1037.0157      120.50627      438.6499       15721.035    
     17600   35.2           1007.537       117.08071      439.02973      14486.294    
     17700   35.4           1010.3745      117.41044      435.22653      13486.29     
     17800   35.6           964.60716      112.09205      428.37074      13731.24     
     17900   35.8           1013.2858      117.74875      429.73864      13437.647    
     18000   36             1001.8729      116.42251      434.34289      14078.014    
     18100   36.2           1020.4848      118.58531      436.12316      15249.457    
     18200   36.4           984.35148      114.38644      435.99255      13140.892    
     18300   36.6           1009.9242      117.35811      436.63599      12589.863    
     18400   36.8           1004.2787      116.70207      438.4894       17916.624    
     18500   37             1004.3965      116.71577      442.39942      15328.836    
     18600   37.2           1033.694       120.12028      442.80621      12839.853    
     18700   37.4           1016.4448      118.11583      436.44771      14679.247    
     18800   37.6           977.30227      113.56728      431.61343      16928.93     
     18900   37.8           980.56285      113.94618      432.1655       13011.086    
     19000   38             973.94381      113.17701      434.4994       11745.551    
     19100   38.2           978.57342      113.715        442.01907      13843.746    
     19200   38.4           1034.836       120.25299      446.61023      14715.448    
     19300   38.6           1038.03        120.62414      441.55091      16407.763    
     19400   38.8           1016.3844      118.10882      436.77261      14179.318    
     19500   39             971.32328      112.8725       434.05542      14002.767    
     19600   39.2           1022.5786      118.82862      433.94243      13388.886    
     19700   39.4           977.97254      113.64517      433.93925      14215.181    
     19800   39.6           992.18653      115.29691      436.80482      14294.759    
     19900   39.8           1038.4561      120.67366      441.16628      15608.604    
     20000   40             1047.2648      121.69727      439.36463      16032.929    
     20100   40.2           981.18413      114.01837      432.84257      14145.865    
     20200   40.4           969.16763      112.622        430.43734      13073.241    
     20300   40.6           997.07828      115.86535      433.10171      14273.361    
     20400   40.8           997.49879      115.91422      435.11755      12699.423    
     20500   41             1047.62        121.73855      436.18175      15519.205    
     20600   41.2           1032.988       120.03824      437.64635      14887.891    
     20700   41.4           987.66715      114.77173      438.02073      17398.466    
     20800   41.6           990.56145      115.10807      436.24214      13216.214    
     20900   41.8           963.03718      111.90961      431.14682      15349.424    
     21000   42             968.11581      112.49977      429.68978      11969.29     
     21100   42.2           984.04009      114.35025      434.66258      15201.44     
     21200   42.4           1035.1902      120.29414      440.88554      13557.08     
     21300   42.6           1025.2275      119.13643      439.76909      11738.981    
     21400   42.8           1006.6611      116.97892      436.78166      15310.838    
     21500   43             998.54373      116.03564      434.59418      14636.009    
     21600   43.2           1008.7293      117.21926      432.39748      13179.03     
     21700   43.4           1028.3727      119.50192      433.18159      12080.422    
     21800   43.6           984.3592       114.38733      438.6107       15301.686    
     21900   43.8           998.49022      116.02943      443.83379      16192.257    
     22000   44             1036.5869      120.45644      442.31064      13370.197    
     22100   44.2           1005.7587      116.87406      435.33051      16079.279    
     22200   44.4           934.435        108.5859       433.45686      13263.574    
     22300   44.6           978.83094      113.74492      434.9081       12337.832    
     22400   44.8           1005.5599      116.85096      437.95886      15233.44     
     22500   45             1017.9994      118.29649      442.52381      15436.346    
     22600   45.2           1016.5472      118.12773      450.39555      15601.102    
     22700   45.4           1075.1225      124.93447      444.66752      16977.23     
     22800   45.6           1032.3456      119.96359      438.3253       16173.427    
     22900   45.8           993.52488      115.45243      433.80105      12234.837    
     23000   46             984.01613      114.34747      430.26798      13428.24     
     23100   46.2           972.99518      113.06678      430.39424      12889.437    
     23200   46.4           1017.988       118.29516      436.69755      15718.265    
     23300   46.6           1032.8022      120.01665      441.76473      12494.751    
     23400   46.8           1042.4613      121.13908      439.22432      13607.321    
     23500   47             961.91402      111.77909      435.89798      15580.402    
     23600   47.2           1030.958       119.80234      435.21002      11873.166    
     23700   47.4           997.04056      115.86097      434.11063      14220.054    
     23800   47.6           962.59099      111.85776      432.63955      12139.586    
     23900   47.8           945.15636      109.83177      428.70657      14461.775    
     24000   48             964.89497      112.1255       427.58476      15057.889    
     24100   48.2           1013.7441      117.802        434.83264      13300.621    
     24200   48.4           976.48298      113.47208      438.46356      13658.786    
     24300   48.6           1004.1686      116.68929      438.32987      15102.768    
     24400   48.8           1014.1005      117.84342      434.18257      13024.188    
     24500   49             976.72548      113.50026      427.96066      15282.266    
     24600   49.2           967.51278      112.4297       427.77514      13953.052    
     24700   49.4           1015.9161      118.0544       431.83179      15083.055    
     24800   49.6           1012.4823      117.65538      433.53013      11024.341    
     24900   49.8           998.95671      116.08364      434.36357      16830.727    
     25000   50             985.57298      114.52838      434.72937      12099.233    
     25100   50.2           998.46591      116.0266       436.69572      15809.079    
     25200   50.4           984.68747      114.42548      438.81612      15729.961    
     25300   50.6           983.99309      114.34479      438.9854       14102.082    
     25400   50.8           969.12572      112.61713      435.73516      17736.213    
     25500   51             1000.2884      116.23838      431.36356      14927.099    
     25600   51.2           971.72352      112.91901      432.71556      13359.536    
     25700   51.4           1023.8541      118.97684      441.05812      16536.427    
     25800   51.6           1012.9732      117.71242      442.5326       14512.445    
     25900   51.8           1040.104       120.86515      438.30494      14931.139    
     26000   52             1052.2776      122.27979      435.46334      15315.368    
     26100   52.2           998.41803      116.02104      434.05457      15636.589    
     26200   52.4           1027.3734      119.38579      435.35269      14252.489    
     26300   52.6           1030.5132      119.75066      440.36801      15671.722    
     26400   52.8           1083.1938      125.8724       448.64468      14513.242    
     26500   53             1057.513       122.88816      442.80658      13786.782    
     26600   53.2           1021.1118      118.65816      436.86876      14239.706    
     26700   53.4           1010.2546      117.39651      433.75323      14834.558    
     26800   53.6           971.77134      112.92456      432.16073      12827.758    
     26900   53.8           988.58458      114.87834      432.31386      13472.455    
     27000   54             1034.7077      120.23807      437.76073      14544.349    
     27100   54.2           1031.6595      119.88385      441.99285      12546.658    
     27200   54.4           989.56036      114.99173      440.64762      15447.088    
     27300   54.6           961.22949      111.69955      432.75941      16984.573    
     27400   54.8           1002.6815      116.51647      430.93366      13248.503    
     27500   55             987.16796      114.71372      432.89665      16042.769    
     27600   55.2           1014.5196      117.89212      435.34338      13306.933    
     27700   55.4           997.67128      115.93426      439.84384      12565.899    
     27800   55.6           1013.9526      117.82623      446.81299      15273.436    
     27900   55.8           1043.021       121.20412      446.17454      16881.597    
     28000   56             1001.7895      116.41282      436.7238       13765.29     
     28100   56.2           1029.7665      119.66388      434.42663      14003.189    
     28200   56.4           995.18621      115.64548      434.51843      16779.949    
     28300   56.6           973.89268      113.17107      433.44592      16493.2      
     28400   56.8           971.63037      112.90818      434.14165      14698.579    
     28500   57             1009.5242      117.31163      439.17805      14857.498    
     28600   57.2           1030.5379      119.75352      442.69109      16761.054    
     28700   57.4           1048.3195      121.81984      439.07293      14668.684    
     28800   57.6           990.40307      115.08966      431.77659      14113.233    
     28900   57.8           976.21512      113.44095      432.18962      15992.157    
     29000   58             1010.7597      117.4552       434.98833      15104.819    
     29100   58.2           1011.4762      117.53846      438.65275      12277.878    
     29200   58.4           998.81303      116.06694      438.23688      15505.259    
     29300   58.6           1014.8232      117.9274       436.74158      15424.152    
     29400   58.8           952.34199      110.66678      425.3032       15059.433    
     29500   59             959.34942      111.48107      425.71164      12957.734    
     29600   59.2           978.66873      113.72607      433.2495       17599.025    
     29700   59.4           984.66797      114.42321      438.20092      13106.084    
     29800   59.6           992.07893      115.2844       440.8691       14764.686    
     29900   59.8           1013.0097      117.71666      439.4746       15113.726    
     30000   60             985.57598      114.52873      432.15654      14115.688    
     30100   60.2           976.28059      113.44856      428.78154      13569.089    
     30200   60.4           982.94327      114.2228       431.14676      12898.884    
     30300   60.6           982.8009       114.20625      434.46392      16147.075    
     30400   60.8           999.63385      116.16232      436.37045      12578.25     
     30500   61             997.97431      115.96947      436.62667      12542.17     
     30600   61.2           1025.251       119.13916      435.73452      15670.261    
     30700   61.4           1039.3029      120.77206      434.89446      14317.121    
     30800   61.6           979.15153      113.78218      432.96009      12941.776    
     30900   61.8           1003.1801      116.57441      431.25298      13453.424    
     31000   62             995.69546      115.70466      433.21863      14980.921    
     31100   62.2           1012.9007      117.70399      438.92499      14618.136    
     31200   62.4           1002.6075      116.50788      441.00616      17519.106    
     31300   62.6           1045.5004      121.49224      437.74983      12631.456    
     31400   62.8           974.33164      113.22208      429.16476      13757.035    
     31500   63             968.88258      112.58887      428.87869      14764.747    
     31600   63.2           986.38444      114.62268      434.22976      14343.484    
     31700   63.4           1025.4625      119.16374      438.63085      14303.203    
     31800   63.6           991.37159      115.20221      436.91707      15311.802    
     31900   63.8           968.95235      112.59698      434.85795      14221.126    
     32000   64             991.13639      115.17488      432.15392      15519.946    
     32100   64.2           943.1549       109.59919      423.94831      14486.634    
     32200   64.4           950.94652      110.50462      425.67736      13403.802    
     32300   64.6           972.42285      113.00027      431.45247      16481.407    
     32400   64.8           1043.631       121.275        434.04696      13406.367    
     32500   65             981.74992      114.08412      435.07009      14322.677    
     32600   65.2           1020.5406      118.59179      433.13723      16586.696    
     32700   65.4           963.4555       111.95822      427.0781       15058.994    
     32800   65.6           970.16868      112.73833      425.43338      13942.676    
     32900   65.8           983.84053      114.32706      432.92833      13323.62     
     33000   66             1004.0072      116.67053      437.14031      13539.561    
     33100   66.2           1077.2487      125.18155      438.40929      16891.147    
     33200   66.4           996.09542      115.75114      436.35452      14496.651    
     33300   66.6           995.1911       115.64605      430.73434      12931.781    
     33400   66.8           940.50135      109.29084      426.8338       11638.441    
     33500   67             1008.5297      117.19607      432.1989       14304.706    
     33600   67.2           994.25203      115.53693      439.40674      16773.774    
     33700   67.4           1006.2214      116.92783      439.42275      14226.604    
     33800   67.6           993.78095      115.48219      436.31003      18670.14     
     33900   67.8           995.94164      115.73327      431.45373      17703.59     
     34000   68             997.5474       115.91987      426.93865      13007.059    
     34100   68.2           955.87328      111.07713      429.63433      16402.919    
     34200   68.4           1042.3799      121.12962      438.72504      15508.943    
     34300   68.6           1004.0993      116.68123      439.38701      11924.31     
     34400   68.8           998.97165      116.08537      435.82995      16491.062    
     34500   69             990.59998      115.11254      430.4344       16153.776    
     34600   69.2           989.76806      115.01587      430.43595      15048.47     
     34700   69.4           1041.0477      120.97481      437.62881      13609.652    
     34800   69.6           1018.7372      118.38223      439.73105      14087.382    
     34900   69.8           992.32257      115.31272      437.17625      14212.862    
     35000   70             965.18549      112.15925      432.8591       11888.832    
     35100   70.2           943.88868      109.68446      430.91965      13555.596    
     35200   70.4           1004.0645      116.67718      435.86399      17687.69     
     35300   70.6           1040.9219      120.96019      442.15635      14084.449    
     35400   70.8           1028.8332      119.55543      441.65968      16283.329    
     35500   71             998.02905      115.97584      438.08107      10840.313    
     35600   71.2           1004.9745      116.78293      435.47159      13412.866    
     35700   71.4           1012.5         117.65744      434.04281      13381.23     
     35800   71.6           977.14547      113.54906      434.4021       14013.656    
     35900   71.8           1003.7383      116.63927      435.71853      15202.334    
     36000   72             1007.7608      117.10671      438.12951      13880.877    
     36100   72.2           1023.2995      118.91239      437.93477      14173.872    
     36200   72.4           1012.5308      117.66101      434.293        17104.223    
     36300   72.6           978.52969      113.70992      430.52045      13035.468    
     36400   72.8           973.77252      113.15711      429.93422      14351.766    
     36500   73             990.74367      115.12924      437.88298      14846.156    
     36600   73.2           1010.453       117.41956      440.72574      15807.853    
     36700   73.4           1032.0878      119.93363      438.24589      15527.606    
     36800   73.6           1003.0741      116.56209      432.63898      13618.117    
     36900   73.8           1001.9648      116.4332       429.57092      16475.19     
     37000   74             993.69926      115.47269      431.12003      15328.025    
     37100   74.2           995.43963      115.67493      433.72276      14262.37     
     37200   74.4           1034.2573      120.18574      437.27251      15274.917    
     37300   74.6           1031.5242      119.86813      437.88462      17853.042    
     37400   74.8           1006.0168      116.90405      432.95406      13179.559    
     37500   75             1003.9186      116.66024      427.60515      13594.592    
     37600   75.2           977.08149      113.54163      427.45592      12800.856    
     37700   75.4           993.89704      115.49568      433.40543      14802.436    
     37800   75.6           996.77004      115.82953      439.32197      19273.081    
     37900   75.8           1014.9601      117.9433       438.91354      18658.439    
     38000   76             1010.6233      117.43935      435.5181       14921.467    
     38100   76.2           967.25488      112.39973      431.71595      15657.393    
     38200   76.4           976.42843      113.46574      434.20066      15830.616    
     38300   76.6           1038.1995      120.64384      443.7611       15632.906    
     38400   76.8           991.33589      115.19806      441.25439      16239.992    
     38500   77             1005.0056      116.78654      437.9738       12232.695    
     38600   77.2           1021.1282      118.66007      434.46329      15711.276    
     38700   77.4           938.41248      109.0481       427.31705      13290.705    
     38800   77.6           955.42745      111.02532      424.35306      15072.569    
     38900   77.8           969.49904      112.66051      430.40204      14309.943    
     39000   78             984.81659      114.44048      433.8741       13550.016    
     39100   78.2           1016.5132      118.12378      435.96654      13562.298    
     39200   78.4           1025.2056      119.13388      437.02293      12384.604    
     39300   78.6           991.8188       115.25418      434.38855      13702.099    
     39400   78.8           960.79001      111.64848      429.98024      12755.834    
     39500   79             987.5224       114.75491      427.84433      12464.861    
     39600   79.2           972.80624      113.04482      429.85761      14709.921    
     39700   79.4           1024.0764      119.00266      436.88086      14376.453    
     39800   79.6           1038.8504      120.71948      438.8208       13916.457    
     39900   79.8           992.45841      115.3285       434.91664      14186.199    
     40000   80             974.82661      113.2796       429.88829      15159.377    
     40100   80.2           1027.3802      119.38658      423.6359       12801.642    
     40200   80.4           947.90982      110.15174      419.64936      12756.308    
     40300   80.6           951.47593      110.56614      428.11432      13429.598    
     40400   80.8           1005.8129      116.88035      433.8674       16211.836    
     40500   81             1018.2147      118.32151      437.50548      11676.21     
     40600   81.2           1054.1715      122.49986      440.28036      15202.773    
     40700   81.4           995.60318      115.69394      438.56518      13777.05     
     40800   81.6           963.12232      111.9195       432.31244      12641.054    
     40900   81.8           965.58462      112.20564      428.67139      12438.487    
     41000   82             975.51869      113.36002      430.68428      16046.536    
     41100   82.2           1049.1725      121.91896      441.28626      13900.023    
     41200   82.4           997.96374      115.96825      440.54215      13254.515    
     41300   82.6           1013.645       117.79049      434.98431      15198.234    
     41400   82.8           994.01448      115.50932      429.50588      14283.421    
     41500   83             973.82457      113.16316      430.10177      11703.926    
     41600   83.2           1005.7686      116.87521      436.29557      14836.522    
     41700   83.4           992.1105       115.28807      438.76669      16627.103    
     41800   83.6           984.715        114.42868      437.49236      13521.509    
     41900   83.8           940.92705      109.34031      434.91328      14959.792    
     42000   84             1032.616       119.995        435.06033      13845.73     
     42100   84.2           1021.6406      118.71961      435.30977      13926.121    
     42200   84.4           1022.3332      118.8001       441.396        15304.722    
     42300   84.6           1068.292       124.14073      444.5645       13077.17     
     42400   84.8           1017.2638      118.21101      439.0493       14375.926    
     42500   85             963.79558      111.99774      433.88848      15315.507    
     42600   85.2           977.72141      113.61599      433.65098      12725.017    
     42700   85.4           1012.374       117.64278      434.37149      15173.654    
     42800   85.6           976.09062      113.42648      431.99858      14569.511    
     42900   85.8           948.83775      110.25957      430.13727      11615.998    
     43000   86             1013.9726      117.82856      434.54999      11827.807    
     43100   86.2           1065.1552      123.77623      439.92419      11917.351    
     43200   86.4           1008.3709      117.17761      441.267        15867.949    
     43300   86.6           998.03063      115.97602      436.18328      12553.798    
     43400   86.8           978.7423       113.73462      428.85196      10714.736    
     43500   87             997.24938      115.88523      430.70114      15365.948    
     43600   87.2           984.80517      114.43916      435.11237      13269.802    
     43700   87.4           1022.2399      118.78926      438.39171      11842.951    
     43800   87.6           999.42739      116.13833      438.45873      15279.897    
     43900   87.8           1025.8014      119.20312      436.30727      12874.037    
     44000   88             947.67002      110.12387      427.96799      11727.332    
     44100   88.2           937.93498      108.99261      423.24611      12579.383    
     44200   88.4           947.60219      110.11599      429.54284      17317.478    
     44300   88.6           996.95576      115.85111      435.61047      11132.552    
     44400   88.8           988.10052      114.82209      438.42619      13141.458    
     44500   89             1006.196       116.92487      438.47036      18466.617    
     44600   89.2           1026.6488      119.30159      431.73901      13048.501    
     44700   89.4           972.63972      113.02547      428.29373      11543.505    
     44800   89.6           980.31565      113.91745      430.29092      12392.939    
     44900   89.8           1004.9484      116.7799       434.46823      12535.559    
     45000   90             1024.6929      119.07431      434.85873      15444.28     
     45100   90.2           993.32369      115.42905      434.45361      14661.66     
     45200   90.4           1002.2605      116.46755      436.31405      13713.028    
     45300   90.6           1033.9665      120.15194      441.24673      13880.11     
     45400   90.8           993.24229      115.41959      441.73416      15530.369    
     45500   91             1010.4942      117.42435      432.36629      14725.474    
     45600   91.2           938.71181      109.08288      428.7683       12283.803    
     45700   91.4           1017.0578      118.18707      432.53359      13693.643    
     45800   91.6           1021.3817      118.68953      437.80205      17940.469    
     45900   91.8           1010.1872      117.38868      439.92538      17117.48     
     46000   92             1010.154       117.38481      436.94         13430.045    
     46100   92.2           952.28019      110.6596       428.24906      14061.884    
     46200   92.4           988.3525       114.85137      428.28866      14783.915    
     46300   92.6           970.54674      112.78226      431.67825      13269.129    
     46400   92.8           981.69805      114.07809      436.0314       15899.575    
     46500   93             1012.7223      117.68326      437.46503      15909.256    
     46600   93.2           1035.5326      120.33393      437.12863      12361.118    
     46700   93.4           982.03482      114.11723      436.10148      13745.501    
     46800   93.6           981.55201      114.06112      432.85974      12339.801    
     46900   93.8           958.3514       111.3651       424.44268      12697.146    
     47000   94             996.88797      115.84324      426.09687      13939.014    
     47100   94.2           999.03162      116.09234      432.78898      9809.733     
     47200   94.4           991.91513      115.26537      436.01696      13220.713    
     47300   94.6           1021.7874      118.73668      436.63063      12640.55     
     47400   94.8           998.40709      116.01977      437.6258       13812.491    
     47500   95             976.9085       113.52153      438.1214       12919.871    
     47600   95.2           1008.9852      117.249        436.31276      11375.235    
     47700   95.4           982.91091      114.21904      431.93654      13884.422    
     47800   95.6           975.64349      113.37453      428.88837      15463.26     
     47900   95.8           948.48362      110.21842      428.65991      12176.92     
     48000   96             1011.4939      117.54051      437.65991      13948.614    
     48100   96.2           1036.4781      120.4438       438.92209      17065.548    
     48200   96.4           1012.6918      117.67973      436.04593      13753.955    
     48300   96.6           972.8152       113.04586      432.70275      12817.505    
     48400   96.8           1012.858       117.69903      431.59972      14578.159    
     48500   97             998.78283      116.06343      432.24971      15219.699    
     48600   97.2           995.59648      115.69316      436.88992      13626.537    
     48700   97.4           1007.9523      117.12896      440.89768      15454.915    
     48800   97.6           1027.7914      119.43437      441.48216      14249.937    
     48900   97.8           994.56106      115.57284      435.99836      11301.343    
     49000   98             947.59028      110.11461      429.75857      13638.932    
     49100   98.2           990.36364      115.08508      432.32791      14529.741    
     49200   98.4           997.89305      115.96003      437.41439      14938.731    
     49300   98.6           1010.4434      117.41844      440.33544      16868.25     
     49400   98.8           999.0002       116.08869      439.07498      14532.505    
     49500   99             992.53835      115.33779      437.88869      17017.15     
     49600   99.2           993.31106      115.42758      435.47227      14510.299    
     49700   99.4           944.58956      109.76591      435.73112      11620.47     
     49800   99.6           1044.2865      121.35118      442.5999       13797.384    
     49900   99.8           1017.8248      118.2762       445.86659      14858.996    
     50000   100            1021.9083      118.75072      440.17359      11867.226    
     50100   100.2          1009.3201      117.28792      436.42766      12751.857    
     50200   100.4          1015.0145      117.94963      435.14648      13854.798    
     50300   100.6          974.20456      113.20732      433.56083      15117.118    
     50400   100.8          955.00294      110.97599      434.22364      19873.502    
     50500   101            1025.2007      119.13331      439.67508      15112.926    
     50600   101.2          1022.5263      118.82254      441.5882       14164.787    
     50700   101.4          988.75758      114.89845      434.80837      12818.714    
     50800   101.6          970.47216      112.77359      431.25495      17613.611    
     50900   101.8          973.43731      113.11816      433.05949      14588.336    
     51000   102            989.32111      114.96393      434.62607      15779.421    
     51100   102.2          1030.999       119.8071       439.42682      14880.314    
     51200   102.4          1080.1073      125.51373      446.23115      17817.286    
     51300   102.6          1051.959       122.24276      443.40836      15585.249    
     51400   102.8          1013.3648      117.75793      437.2371       13419.822    
     51500   103            1013.222       117.74133      435.88194      12941.939    
     51600   103.2          998.45798      116.02568      435.04695      14367.038    
     51700   103.4          1017.3923      118.22593      432.86875      13705.157    
     51800   103.6          986.91556      114.68439      427.55432      13757.516    
     51900   103.8          984.98111      114.4596       425.82583      14746.463    
     52000   104            963.62954      111.97845      433.51316      15649.677    
     52100   104.2          1016.0028      118.06447      437.55154      17968.392    
     52200   104.4          1020.2677      118.56008      437.24488      17314.001    
     52300   104.6          966.01695      112.25587      435.56636      12081.593    
     52400   104.8          979.09692      113.77583      432.14644      15361.288    
     52500   105            970.46386      112.77263      426.92737      14404.892    
     52600   105.2          969.43681      112.65328      425.81425      12790.014    
     52700   105.4          976.82429      113.51174      434.68366      14599.395    
     52800   105.6          984.67155      114.42363      437.39075      13461.156    
     52900   105.8          1018.015       118.2983       437.97542      12720.868    
     53000   106            1008.4276      117.1842       434.0194       16102.457    
     53100   106.2          975.03325      113.30361      429.15073      14897.294    
     53200   106.4          978.92307      113.75563      427.63651      15061.833    
     53300   106.6          1030.9298      119.79907      434.4056       15800.182    
     53400   106.8          1031.2839      119.84022      439.94864      14007.345    
     53500   107            1006.6294      116.97523      439.98531      15314.152    
     53600   107.2          1009.7465      117.33746      435.29334      14172.157    
     53700   107.4          1003.4369      116.60426      430.06101      15856.917    
     53800   107.6          1007.9428      117.12786      431.62026      10031.607    
     53900   107.8          983.16118      114.24812      435.53496      14885.458    
     54000   108            1005.3931      116.83157      437.23212      15939.773    
     54100   108.2          989.44907      114.9788       435.77599      11812.823    
     54200   108.4          1002.8246      116.5331       433.40267      13003.469    
     54300   108.6          996.08627      115.75008      429.49183      15191.756    
     54400   108.8          999.71448      116.17169      426.04732      12673.046    
     54500   109            974.09391      113.19446      428.74397      14081.569    
     54600   109.2          1029.2339      119.60199      437.39746      12159.179    
     54700   109.4          1037.5162      120.56444      438.75792      13622.643    
     54800   109.6          988.08384      114.82015      436.06615      14380.241    
     54900   109.8          1013.0544      117.72185      431.88504      14506.038    
     55000   110            943.76947      109.67061      429.06588      14365.227    
     55100   110.2          978.77274      113.73816      431.10453      16358.446    
     55200   110.4          989.79983      115.01956      438.40924      11780.229    
     55300   110.6          1031.1975      119.83017      441.23644      13694.535    
     55400   110.8          964.94744      112.13159      436.92071      14933.801    
     55500   111            961.84692      111.7713       432.5223       11872.518    
     55600   111.2          987.1079       114.70675      431.98265      13058.581    
     55700   111.4          968.36651      112.5289       432.91483      12919.728    
     55800   111.6          970.52843      112.78013      433.75909      12755.472    
     55900   111.8          1031.7849      119.89843      436.43704      13418.85     
     56000   112            1027.0967      119.35364      439.92592      14960.099    
     56100   112.2          1025.2879      119.14345      441.51365      15307.453    
     56200   112.4          1009.9785      117.36442      434.28         13907.428    
     56300   112.6          971.34085      112.87454      429.83603      13247.814    
     56400   112.8          998.80754      116.0663       432.92065      14093.373    
     56500   113            1016.934       118.17268      437.95711      15065.532    
     56600   113.2          987.03995      114.69885      438.42305      16712.462    
     56700   113.4          1015.9588      118.05936      438.00776      15890.18     
     56800   113.6          983.45656      114.28244      436.45816      12989.531    
     56900   113.8          978.68527      113.72799      435.26753      16529.378    
     57000   114            1011.9658      117.59536      434.91337      11318.91     
     57100   114.2          1007.4337      117.06871      434.6349       14111.875    
     57200   114.4          1020.6602      118.60568      434.71674      20009.304    
     57300   114.6          1004.6238      116.74218      435.74744      12846.14     
     57400   114.8          1003.1855      116.57504      438.22355      14620.556    
     57500   115            1039.2854      120.77003      444.3097       19332.419    
     57600   115.2          1040.8374      120.95037      447.27494      17290.133    
     57700   115.4          1002.8939      116.54116      439.67645      14072.811    
     57800   115.6          991.73496      115.24443      434.60417      14370.037    
     57900   115.8          996.70598      115.82209      433.0795       13132.633    
     58000   116            979.74747      113.85143      435.17878      15361.083    
     58100   116.2          995.71116      115.70649      439.32501      14057.762    
     58200   116.4          1034.2143      120.18074      444.24698      14287.309    
     58300   116.6          1041.3378      121.00852      440.34579      16811.431    
     58400   116.8          986.3505       114.61873      432.64833      11774.95     
     58500   117            997.24313      115.88451      432.11463      14075.271    
     58600   117.2          982.10602      114.1255       432.26287      14501.753    
     58700   117.4          994.07484      115.51634      435.24864      12806.696    
     58800   117.6          1048.7334      121.86792      441.08266      12481.428    
     58900   117.8          1037.5781      120.57163      442.27915      14350.919    
     59000   118            974.4599       113.23699      434.65771      14393.012    
     59100   118.2          935.8111       108.74581      429.69815      12332.836    
     59200   118.4          1024.7601      119.08212      431.62536      13409.688    
     59300   118.6          966.48725      112.31053      436.3142       15492.346    
     59400   118.8          1013.3251      117.75331      441.26351      14041.755    
     59500   119            1004.4672      116.72399      439.71454      12403.025    
     59600   119.2          1009.0114      117.25204      435.53221      13319.933    
     59700   119.4          1006.7769      116.99238      432.3709       14549.007    
     59800   119.6          997.82587      115.95223      432.5009       14192.607    
     59900   119.8          982.95721      114.22441      436.30798      14045.043    
     60000   120            1058.3435      122.98467      446.1081       15432.309    
     60100   120.2          1051.9531      122.24207      447.27988      15111.78     
     60200   120.4          1025.5829      119.17773      442.21605      15427.424    
     60300   120.6          982.67568      114.1917       436.0679       15555.854    
     60400   120.8          995.21349      115.64865      432.7507       14176.2      
     60500   121            959.79724      111.53311      432.15208      13874.726    
     60600   121.2          1025.3604      119.15187      437.89492      17294.642    
     60700   121.4          1024.0699      119.00191      443.3011       14018.414    
     60800   121.6          1003.8289      116.64981      440.81826      12343.107    
     60900   121.8          1006.3138      116.93857      438.31178      14504.331    
     61000   122            1014.2259      117.85799      436.5319       14748.598    
     61100   122.2          999.92136      116.19573      434.87731      12240.771    
     61200   122.4          975.49174      113.35689      431.18901      17136.998    
     61300   122.6          939.92767      109.22417      424.91635      13114.793    
     61400   122.8          955.93182      111.08393      422.39134      13610.437    
     61500   123            962.7792       111.87963      430.75557      14153.084    
     61600   123.2          1017.7331      118.26554      435.32415      13398.695    
     61700   123.4          1010.5427      117.42998      437.24043      13969.841    
     61800   123.6          1010.4143      117.41506      438.81156      13580.279    
     61900   123.8          1010.954       117.47777      438.31106      16369.124    
     62000   124            993.66637      115.46887      431.40802      12649.464    
     62100   124.2          982.7012       114.19467      428.23443      13176.635    
     62200   124.4          997.40829      115.9037       431.56454      13283.756    
     62300   124.6          1000.0546      116.21121      436.87872      15921.449    
     62400   124.8          1012.5341      117.66139      437.98678      13237.966    
     62500   125            1007.2386      117.04603      436.89257      14530.661    
     62600   125.2          1014.741       117.91785      434.41975      14152.422    
     62700   125.4          961.97258      111.7859       428.39148      14961.521    
     62800   125.6          952.69918      110.70828      425.19149      14660.377    
     62900   125.8          988.53856      114.87299      431.49867      16511.143    
     63000   126            1028.7746      119.54862      438.46826      13973.643    
     63100   126.2          1002.0816      116.44676      439.64643      11829.596    
     63200   126.4          1000.3906      116.25027      436.58244      14401.756    
     63300   126.6          979.66132      113.84142      431.47133      14146.658    
     63400   126.8          997.28494      115.88937      429.65738      10201.566    
     63500   127            980.41866      113.92942      436.03191      13010.663    
     63600   127.2          1037.1284      120.51937      442.18164      14279.012    
     63700   127.4          1026.8585      119.32595      440.24133      14229.082    
     63800   127.6          1012.3556      117.64065      434.64284      11406.665    
     63900   127.8          1026.2479      119.25501      430.00871      15119.466    
     64000   128            1018.39        118.34188      430.80842      12787.93     
     64100   128.2          1005.688       116.86585      434.00805      12097.77     
     64200   128.4          981.57097      114.06333      435.08907      14467.909    
     64300   128.6          1001.5651      116.38674      435.31119      16672.472    
     64400   128.8          991.64853      115.23439      434.10337      15866.368    
     64500   129            1008.0669      117.14228      430.94401      14167.397    
     64600   129.2          984.11809      114.35931      425.36838      16545.542    
     64700   129.4          968.13294      112.50176      429.20846      13870.776    
     64800   129.6          1008.5905      117.20313      435.28227      13226.212    
     64900   129.8          1038.5217      120.68128      437.21873      14561.041    
     65000   130            997.77019      115.94576      436.70214      14646.103    
     65100   130.2          1002.0886      116.44758      436.15305      14481.272    
     65200   130.4          980.03857      113.88526      435.98464      14969.276    
     65300   130.6          987.74615      114.78091      436.04138      12943.023    
     65400   130.8          1030.6585      119.76753      436.30584      15264.393    
     65500   131            970.74941      112.80581      433.432        11135.874    
     65600   131.2          965.07906      112.14689      429.98495      10485.526    
     65700   131.4          956.43938      111.14291      430.72067      14743.401    
     65800   131.6          997.93068      115.96441      438.60361      19034.206    
     65900   131.8          1040.1599      120.87164      440.14547      11765.247    
     66000   132            991.88467      115.26183      437.02474      13234.104    
     66100   132.2          1001.666       116.39847      431.03796      17301.026    
     66200   132.4          942.58089      109.53249      428.55123      15398.844    
     66300   132.6          952.47354      110.68206      430.71576      10462.834    
     66400   132.8          979.56305      113.83         435.81657      14063.865    
     66500   133            1003.8454      116.65173      439.74109      15859.584    
     66600   133.2          978.54297      113.71146      438.03165      14057.304    
     66700   133.4          966.36278      112.29606      432.18216      14528.456    
     66800   133.6          996.84845      115.83864      431.33717      13234.17     
     66900   133.8          977.81773      113.62718      439.02787      16729.995    
     67000   134            1019.6791      118.49168      443.81355      16860.332    
     67100   134.2          1020.026       118.53199      439.81374      14232.982    
     67200   134.4          1026.4505      119.27855      433.64165      15365.692    
     67300   134.6          973.9099       113.17307      431.29762      13088.541    
     67400   134.8          1004.8132      116.76419      432.84702      14446.655    
     67500   135            1041.9272      121.07701      440.72032      13307.813    
     67600   135.2          1035.3088      120.30792      442.70478      14376.226    
     67700   135.4          1005.9268      116.8936       440.36496      14634.499    
     67800   135.6          997.5183       115.91648      437.69094      14882.486    
     67900   135.8          1012.4407      117.65054      436.82569      14345.766    
     68000   136            978.55859      113.71327      429.97259      15561.985    
     68100   136.2          951.55578      110.57542      426.92489      13335.216    
     68200   136.4          994.34677      115.54794      431.16562      16975.296    
     68300   136.6          989.78498      115.01783      434.35877      15630.874    
     68400   136.8          994.01975      115.50994      434.96784      12531.49     
     68500   137            1010.5527      117.43114      436.5053       14575.938    
     68600   137.2          1068.592       124.1756       441.4949       16656.614    
     68700   137.4          1043.1036      121.21372      446.62413      14452.753    
     68800   137.6          1026.6405      119.30062      440.69158      15332.696    
     68900   137.8          978.6209       113.72051      434.38205      15591.857    
     69000   138            950.38367      110.43921      433.67434      13318.272    
     69100   138.2          970.08489      112.72859      435.06795      13441.539    
     69200   138.4          1024.4479      119.04583      438.36032      12795.147    
     69300   138.6          1000.1908      116.22704      437.73838      14113.272    
     69400   138.8          970.95226      112.82938      431.40239      10973.219    
     69500   139            942.80174      109.55815      427.96226      11981.001    
     69600   139.2          972.22981      112.97784      429.87608      13670.765    
     69700   139.4          1013.7653      117.80446      438.3174       12149.921    
     69800   139.6          1034.1834      120.17715      439.06769      14521.804    
     69900   139.8          1006.2153      116.92711      436.38594      15406.122    
     70000   140            927.24017      107.74982      432.80911      17206.079    
     70100   140.2          998.35463      116.01367      431.14839      13686.694    
     70200   140.4          983.83517      114.32644      425.76387      14768.791    
     70300   140.6          939.17426      109.13662      424.05178      14761.708    
     70400   140.8          1018.7952      118.38897      431.93747      15581.951    
     70500   141            1036.8211      120.48366      436.07399      10338.019    
     70600   141.2          1005.7592      116.87412      438.66514      11903.89     
     70700   141.4          1020.4357      118.57959      439.90415      16165.937    
     70800   141.6          970.38841      112.76386      435.31221      10252.826    
     70900   141.8          998.41349      116.02051      429.35584      13868.073    
     71000   142            972.28758      112.98455      428.78179      13144.407    
     71100   142.2          1038.6821      120.69992      435.10233      12924.719    
     71200   142.4          1011.7755      117.57324      438.46202      15966.812    
     71300   142.6          1036.9116      120.49418      436.86212      14977.964    
     71400   142.8          997.29137      115.89011      433.70528      14005.991    
     71500   143            984.69886      114.4268       430.33919      13455.341    
     71600   143.2          978.95735      113.75961      430.39508      15470.49     
     71700   143.4          1012.1014      117.61111      437.88338      15570.128    
     71800   143.6          1006.3087      116.93798      440.32143      13826.026    
     71900   143.8          1015.1625      117.96683      438.16532      16820.258    
     72000   144            1005.7024      116.86752      431.46317      11702.077    
     72100   144.2          952.41346      110.67508      428.79477      12343.763    
     72200   144.4          999.22045      116.11428      431.63319      12436.573    
     72300   144.6          986.80873      114.67198      434.08377      14181.169    
     72400   144.8          1002.9479      116.54743      436.44812      13384.007    
     72500   145            1004.9255      116.77724      437.81024      14743.682    
     72600   145.2          991.53305      115.22097      439.76986      14987.926    
     72700   145.4          1040.1063      120.86542      440.92195      11546.992    
     72800   145.6          982.81561      114.20796      439.18505      15178.954    
     72900   145.8          966.96926      112.36654      432.12547      13539.945    
     73000   146            965.67194      112.21578      429.46248      14413.31     
     73100   146.2          993.48611      115.44792      433.57677      15291.683    
     73200   146.4          1000.241       116.23288      438.12422      15588.246    
     73300   146.6          996.47402      115.79513      438.27462      15920.884    
     73400   146.8          1004.5822      116.73734      436.0161       16454.269    
     73500   147            981.89619      114.10112      431.7659       11112.681    
     73600   147.2          948.24476      110.19066      424.92718      12524.935    
     73700   147.4          986.30031      114.6129       427.62713      13617.119    
     73800   147.6          998.0378       115.97685      436.50599      11725.291    
     73900   147.8          1039.7952      120.82927      437.76246      13387.152    
     74000   148            993.56604      115.45721      433.94648      13925.867    
     74100   148.2          982.98212      114.22731      429.82932      15186.868    
     74200   148.4          979.18794      113.78641      428.4069       12442.2      
     74300   148.6          998.51464      116.03226      437.1222       12341.691    
     74400   148.8          1042.7589      121.17366      440.88097      14274.542    
     74500   149            1008.8746      117.23615      438.98329      15152.35     
     74600   149.2          1004.6638      116.74682      433.74492      14900.463    
     74700   149.4          983.49376      114.28676      429.25983      13997.92     
     74800   149.6          983.58292      114.29713      430.31009      15511.184    
     74900   149.8          977.54308      113.59527      432.61314      17401.927    
     75000   150            979.73732      113.85025      434.88375      13936.879    
     75100   150.2          1022.6472      118.83658      437.55384      14030.986    
     75200   150.4          1036.1696      120.40795      438.34256      16189.369    
     75300   150.6          1024.1016      119.00559      437.36217      12623.406    
     75400   150.8          939.68396      109.19585      433.81076      12933.602    
     75500   151            994.27261      115.53932      430.74566      16343.983    
     75600   151.2          977.66159      113.60904      429.96959      15646.695    
     75700   151.4          1016.3123      118.10044      437.00128      12666.759    
     75800   151.6          1039.2029      120.76044      442.11966      17797.515    
     75900   151.8          986.42238      114.62709      440.22513      15973.847    
     76000   152            1045.305       121.46953      435.05243      12979.048    
     76100   152.2          1000.4689      116.25936      431.16725      16240.244    
     76200   152.4          975.15189      113.3174       431.74265      13859.911    
     76300   152.6          919.11942      106.80615      433.81078      11633.405    
     76400   152.8          999.80313      116.18199      436.48074      12514.461    
     76500   153            1025.7616      119.19849      438.31182      13055.476    
     76600   153.2          1037.0288      120.50779      436.79236      13195.477    
     76700   153.4          964.07464      112.03017      428.12322      12628.469    
     76800   153.6          956.61233      111.16301      424.57498      11989.383    
     76900   153.8          979.00119      113.76471      430.2915       13298.467    
     77000   154            1013.604       117.78572      435.24172      12283.944    
     77100   154.2          1037.0177      120.5065       437.0027       15281.915    
     77200   154.4          1032.7291      120.00816      437.32721      16607.778    
     77300   154.6          1033.1901      120.06172      437.36135      14704.482    
     77400   154.8          1012.1295      117.61438      432.99779      15017.265    
     77500   155            966.71534      112.33703      429.64962      14353.175    
     77600   155.2          1010.9523      117.47758      429.19483      11617.15     
     77700   155.4          1043.9951      121.31731      435.97567      14023.39     
     77800   155.6          992.90201      115.38005      440.60755      12660.789    
     77900   155.8          1039.123       120.75116      439.08452      15370.254    
     78000   156            1023.739       118.96346      434.72053      15015.265    
     78100   156.2          997.83912      115.95377      430.94822      13652.975    
     78200   156.4          962.84858      111.88769      430.99653      13127.238    
     78300   156.6          986.92051      114.68497      432.73938      15487.027    
     78400   156.8          984.25119      114.37478      433.85265      12299.307    
     78500   157            1057.4956      122.88613      438.45776      15689.272    
     78600   157.2          1048.4583      121.83596      442.72144      15140.535    
     78700   157.4          1002.7501      116.52444      440.97956      15144.632    
     78800   157.6          966.99603      112.36965      431.91299      15963.459    
     78900   157.8          1006.9383      117.01113      431.61465      11432.567    
     79000   158            951.06458      110.51834      433.37884      13935.534    
     79100   158.2          1008.6869      117.21434      439.09045      19308.899    
     79200   158.4          1023.915       118.98391      441.00227      14458.719    
     79300   158.6          1026.3139      119.26268      438.02092      13074.686    
     79400   158.8          952.40391      110.67397      436.63994      13959.48     
     79500   159            1026.3961      119.27222      437.5677       15098.2      
     79600   159.2          1011.231       117.50996      437.09326      16875.196    
     79700   159.4          989.84891      115.02526      432.69692      11604.913    
     79800   159.6          947.56626      110.11181      427.44518      15042.733    
     79900   159.8          966.41948      112.30265      427.26827      14480.102    
     80000   160            991.19662      115.18187      436.79699      12379.78     
     80100   160.2          1013.8638      117.81592      440.8309       17378.366    
     80200   160.4          1011.2927      117.51713      440.3147       14527.736    
     80300   160.6          1010.4327      117.4172       436.0029       12130.553    
     80400   160.8          985.8533       114.56096      432.47471      14989.692    
     80500   161            990.45873      115.09613      432.02742      14571.372    
     80600   161.2          1039.6712      120.81486      438.26796      13579.008    
     80700   161.4          1035.1339      120.2876       442.19375      13446.277    
     80800   161.6          1017.8621      118.28053      438.23845      13276.358    
     80900   161.8          978.45006      113.70066      432.50376      15767.534    
     81000   162            987.08128      114.70365      433.51022      13898.463    
     81100   162.2          961.73477      111.75826      436.12786      14296.084    
     81200   162.4          1005.202       116.80937      438.40699      17871.315    
     81300   162.6          1010.13        117.38203      438.28117      13258.489    
     81400   162.8          1005.0643      116.79337      431.43594      13053.558    
     81500   163            985.00358      114.46221      428.78728      15052.066    
     81600   163.2          982.26373      114.14383      431.9866       12087.532    
     81700   163.4          1012.59        117.66789      438.44702      15444.368    
     81800   163.6          995.47761      115.67935      438.84466      15835.225    
     81900   163.8          1021.1019      118.65701      437.381        13662.521    
     82000   164            1001.9661      116.43334      435.02267      12869.179    
     82100   164.2          1019.9198      118.51964      433.95741      12138.855    
     82200   164.4          985.72691      114.54627      433.51429      13353.896    
     82300   164.6          1010.5903      117.43551      433.85134      12936.058    
     82400   164.8          980.50589      113.93956      433.7176       15712.676    
     82500   165            976.74246      113.50223      433.8973       13534.469    
     82600   165.2          986.31543      114.61466      435.68784      14261.709    
     82700   165.4          1023.0334      118.88147      439.96691      14151.519    
     82800   165.6          1042.0631      121.09281      443.67797      12063.777    
     82900   165.8          1025.5479      119.17366      444.19199      12104.59     
     83000   166            1030.0752      119.69975      437.00072      17751.591    
     83100   166.2          973.28574      113.10054      432.13502      15223.865    
     83200   166.4          1009.8387      117.34817      432.17659      11259.169    
     83300   166.6          1012.3586      117.641        436.32599      15844.021    
     83400   166.8          1044.8285      121.41416      442.55037      17515.883    
     83500   167            1006.9099      117.00783      443.11008      14355.745    
     83600   167.2          967.01083      112.37137      432.67132      12928.635    
     83700   167.4          971.0108       112.83618      430.35247      14777.248    
     83800   167.6          958.71879      111.40779      431.94876      13997.69     
     83900   167.8          1018.3178      118.33349      438.16023      15688.038    
     84000   168            1007.6769      117.09696      440.39275      13487.075    
     84100   168.2          1015.0973      117.95925      437.59343      15035.982    
     84200   168.4          997.74591      115.94293      434.5456       14055.656    
     84300   168.6          953.76606      110.83226      433.73807      12391.252    
     84400   168.8          991.49787      115.21688      434.76471      14132.816    
     84500   169            990.79649      115.13538      435.69275      12196.236    
     84600   169.2          995.83446      115.72081      434.49333      13423.153    
     84700   169.4          983.38616      114.27426      431.76942      12886.766    
     84800   169.6          991.90671      115.26439      430.7083       15172.873    
     84900   169.8          994.62103      115.57981      434.56352      11693.529    
     85000   170            1053.8419      122.46156      439.70637      15043.181    
     85100   170.2          1009.8109      117.34494      439.46839      13449.014    
     85200   170.4          1005.2171      116.81112      432.38827      15024.695    
     85300   170.6          935.54517      108.71491      427.33324      14095.382    
     85400   170.8          975.41925      113.34847      430.62722      11761.868    
     85500   171            996.21335      115.76484      435.02139      14478.484    
     85600   171.2          1020.641       118.60346      438.33408      14188.847    
     85700   171.4          971.09193      112.84561      437.90057      12148.577    
     85800   171.6          1005.9536      116.8967       437.65242      13941.374    
     85900   171.8          1003.5273      116.61476      437.06214      13550.662    
     86000   172            1011.5858      117.5512       436.33419      13524.346    
     86100   172.2          1003.4776      116.60898      432.72409      14334.428    
     86200   172.4          986.07638      114.58688      425.81683      11716.788    
     86300   172.6          957.25798      111.23804      423.60046      10714.905    
     86400   172.8          1008.0164      117.13642      432.07884      14230.775    
     86500   173            999.55249      116.15287      434.56716      13750.699    
     86600   173.2          997.74227      115.94251      436.13345      14771.708    
     86700   173.4          1021.7866      118.73658      437.07953      14768.437    
     86800   173.6          1007.9421      117.12778      434.85545      13471.54     
     86900   173.8          985.27998      114.49433      429.81695      17075.976    
     87000   174            987.34913      114.73478      428.11148      13074.6      
[...]
    478600   957.2          996.00295      115.74039      443.95915      10939.33     
    478700   957.4          1049.5004      121.95706      441.28798      13312.26     
    478800   957.6          1000.5283      116.26626      434.54202      13718.184    
    478900   957.8          1024.0786      119.00292      433.19707      15542.393    
    479000   958            984.86838      114.4465       432.40744      13657.306    
    479100   958.2          1003.4756      116.60875      437.17193      12905.386    
    479200   958.4          1011.0344      117.48713      444.37464      13756.433    
    479300   958.6          991.10582      115.17132      442.43248      15509.904    
    479400   958.8          1012.3035      117.6346       436.92452      13752.199    
    479500   959            983.12555      114.24398      434.64186      12238.003    
    479600   959.2          1016.2426      118.09234      433.19216      15422.585    
    479700   959.4          966.81281      112.34836      431.39427      13392.365    
    479800   959.6          988.59634      114.87971      435.88624      14354.581    
    479900   959.8          1032.306       119.95898      442.09631      16903.853    
    480000   960            1006.0929      116.91289      441.41543      14239.063    
    480100   960.2          988.39026      114.85576      435.8201       16625.87     
    480200   960.4          1001.4573      116.37421      432.67518      12317.897    
    480300   960.6          954.21676      110.88464      432.95666      12660.42     
    480400   960.8          999.69603      116.16955      443.53316      17071.057    
    480500   961            1020.8907      118.63247      445.8789       14639.569    
    480600   961.2          1044.7288      121.40258      439.68474      15312.22     
    480700   961.4          995.51227      115.68337      433.93894      14523.505    
    480800   961.6          994.70119      115.58912      431.20372      11124.682    
    480900   961.8          979.42179      113.81358      431.72826      16442.815    
    481000   962            1019.2637      118.4434       439.00631      15800.192    
    481100   962.2          1065.953       123.86893      442.5124       12449.211    
    481200   962.4          1030.9609      119.80268      439.20203      11692.869    
    481300   962.6          1018.2067      118.32058      436.2442       14972.78     
    481400   962.8          1005.5792      116.8532       434.01565      14106.062    
    481500   963            984.99736      114.46149      432.82962      15295.399    
    481600   963.2          981.57039      114.06326      432.89387      14398.72     
    481700   963.4          998.26032      116.00271      436.68044      13000.312    
    481800   963.6          993.30591      115.42698      441.10805      14829.757    
    481900   963.8          1005.2668      116.8169       440.21391      13649.182    
    482000   964            989.36003      114.96845      434.34234      17374.861    
    482100   964.2          997.92135      115.96332      429.47378      14307.351    
    482200   964.4          1029.8809      119.67718      430.53149      15218.606    
    482300   964.6          963.12228      111.9195       433.63128      11409.344    
    482400   964.8          965.96815      112.2502       436.4272       16605.528    
    482500   965            970.6372       112.79277      437.34225      15426.679    
    482600   965.2          1015.1297      117.96301      436.56121      13213.602    
    482700   965.4          1024.1787      119.01456      433.55943      13981.155    
    482800   965.6          963.69994      111.98663      429.88459      13326.095    
    482900   965.8          946.53177      109.9916       426.55446      12639.928    
    483000   966            993.82604      115.48743      429.72901      10661.751    
    483100   966.2          1015.2484      117.97681      436.52855      16373.503    
    483200   966.4          1004.5861      116.7378       440.11297      13959.908    
    483300   966.6          1006.3243      116.93979      439.60807      13951.821    
    483400   966.8          1005.1338      116.80144      432.18441      15332.761    
    483500   967            967.39223      112.41569      430.15523      11935.415    
    483600   967.2          982.1343       114.12879      432.58982      14760.407    
    483700   967.4          1025.3334      119.14874      436.37145      13503.288    
    483800   967.6          957.37003      111.25106      437.16923      16422.582    
    483900   967.8          995.75353      115.71141      437.32601      13114.081    
    484000   968            1006.6839      116.98157      433.81596      12693.202    
    484100   968.2          975.23501      113.32706      430.01691      13287.72     
    484200   968.4          1020.4555      118.5819       429.57511      12728.809    
    484300   968.6          979.95025      113.87499      433.80532      13801.2      
    484400   968.8          1032.0577      119.93013      440.29602      18256.22     
    484500   969            1017.6387      118.25458      438.85413      12034.208    
    484600   969.2          981.98749      114.11173      435.27509      14693.386    
    484700   969.4          970.34804      112.75917      434.23797      16060.821    
    484800   969.6          992.17935      115.29607      435.19969      13805.176    
    484900   969.8          1018.4303      118.34656      436.98534      15748.834    
    485000   970            1031.0234      119.80994      437.87032      15986.636    
    485100   970.2          1019.6564      118.48904      434.50053      14929.049    
    485200   970.4          966.75929      112.34214      426.8178       13621.343    
    485300   970.6          999.7074       116.17087      429.41651      15586.374    
    485400   970.8          1016.825       118.16002      433.9654       14110.286    
    485500   971            1009.7254      117.33501      437.60639      17396.254    
    485600   971.2          1006.5951      116.97126      438.44721      14259.397    
    485700   971.4          1009.9359      117.35947      430.47921      12243.26     
    485800   971.6          969.56848      112.66858      426.96988      11845.587    
    485900   971.8          1009.5193      117.31106      429.59111      15331.799    
    486000   972            1012.6369      117.67334      435.50348      13953.885    
    486100   972.2          1031.4143      119.85537      438.46266      12264.969    
    486200   972.4          1001.9644      116.43314      437.25042      16426.032    
    486300   972.6          1014.302       117.86683      432.15253      16146.297    
    486400   972.8          936.47717      108.82321      423.78045      13216.379    
    486500   973            1004.5805      116.73714      427.77296      14633.051    
    486600   973.2          956.37466      111.13539      433.72795      16842.603    
    486700   973.4          1007.988       117.13312      438.05496      10070.909    
    486800   973.6          991.19437      115.18161      438.70301      13694.601    
    486900   973.8          981.83514      114.09403      433.63717      14339.108    
    487000   974            988.63222      114.88388      427.34782      14157.09     
    487100   974.2          960.63286      111.63022      428.65127      11816.602    
    487200   974.4          998.69938      116.05373      433.10008      16262.272    
    487300   974.6          992.2292       115.30187      437.66439      17001.298    
    487400   974.8          1047.7285      121.75115      440.77345      15878.086    
    487500   975            1004.8314      116.7663       439.46741      14756.463    
    487600   975.2          951.83943      110.60838      431.25124      13187.042    
    487700   975.4          985.00672      114.46258      429.60655      14729.84     
    487800   975.6          985.09959      114.47337      432.28071      16337.654    
    487900   975.8          1015.9992      118.06405      436.20556      12269.738    
    488000   976            992.20947      115.29957      438.8435       16868.555    
    488100   976.2          999.33445      116.12753      438.00975      16437.907    
    488200   976.4          1009.355       117.29197      436.30447      14920.148    
    488300   976.6          1003.5292      116.61498      432.70913      13142.1      
    488400   976.8          961.10674      111.68528      426.01831      12821.905    
    488500   977            938.28315      109.03307      426.8524       14965.795    
    488600   977.2          1013.7197      117.79917      435.65936      14283.347    
    488700   977.4          1024.0503      118.99963      437.68956      12698.683    
    488800   977.6          1025.0088      119.11102      437.96159      12703.442    
    488900   977.8          981.76518      114.0859       434.31603      12690.01     
    489000   978            979.87727      113.86651      431.21502      11694.889    
    489100   978.2          990.51633      115.10282      429.80338      9850.5837    
    489200   978.4          984.40729      114.39292      435.90519      14455.454    
    489300   978.6          1017.0415      118.18518      442.27876      16007.215    
    489400   978.8          1060.9963      123.29293      441.2401       12549.072    
    489500   979            983.5735       114.29603      435.45751      15445.51     
    489600   979.2          985.02387      114.46457      432.76686      15494.6      
    489700   979.4          1019.5742      118.47949      433.8276       14938.081    
    489800   979.6          984.25595      114.37533      434.90108      13240.344    
    489900   979.8          1006.1784      116.92283      435.53989      17049.199    
    490000   980            1006.6312      116.97545      434.45571      12781.829    
    490100   980.2          983.85908      114.32922      434.19887      15286.082    
    490200   980.4          995.64654      115.69898      435.90364      14349.817    
    490300   980.6          1065.5057      123.81696      440.4881       14392.495    
    490400   980.8          1034.2089      120.18011      441.23167      13707.177    
    490500   981            996.71945      115.82365      435.89639      14604.678    
    490600   981.2          1006.1607      116.92077      430.55111      12654.744    
    490700   981.4          927.11018      107.73472      430.29566      12421.817    
    490800   981.6          988.48787      114.8671       433.5464       11776.128    
    490900   981.8          963.09719      111.91658      435.11243      15725.942    
    491000   982            1020.663       118.60601      436.21553      13528.771    
    491100   982.2          1011.4657      117.53724      435.60925      13475.316    
    491200   982.4          985.32945      114.50008      432.54703      12663.748    
    491300   982.6          964.77082      112.11107      428.00107      13579.889    
    491400   982.8          940.40255      109.27936      426.92052      13633.869    
    491500   983            1004.8928      116.77344      434.36268      14806.422    
    491600   983.2          979.55319      113.82885      438.16998      15401.906    
    491700   983.4          1009.6705      117.32863      438.76061      14180.695    
    491800   983.6          1000.7511      116.29215      438.27707      13044.338    
    491900   983.8          974.98817      113.29837      431.5802       16440.62     
    492000   984            946.57574      109.99671      426.77716      11356.846    
    492100   984.2          931.18544      108.20828      429.55149      13345.305    
    492200   984.4          1033.2373      120.0672       435.50968      12674.147    
    492300   984.6          1007.3148      117.05488      436.10455      14491.201    
    492400   984.8          976.75809      113.50405      433.02955      14326.518    
    492500   985            983.80521      114.32296      429.86022      13664.504    
    492600   985.2          942.32687      109.50297      427.39781      14201.192    
    492700   985.4          1004.2119      116.69431      431.52617      14106.936    
    492800   985.6          995.84815      115.72241      438.05036      14316.07     
    492900   985.8          1052.8284      122.34379      441.77868      16839.174    
    493000   986            1021.2874      118.67857      438.91151      13526.26     
    493100   986.2          962.5252       111.85012      431.27447      13612.951    
    493200   986.4          982.54863      114.17694      430.56241      14612.351    
    493300   986.6          998.95772      116.08375      433.91426      11997.667    
    493400   986.8          1025.7232      119.19404      438.09375      14051.896    
    493500   987            1021.7467      118.73195      441.06958      14412.191    
    493600   987.2          1049.5349      121.96107      446.78391      13569.358    
    493700   987.4          1089.4524      126.59968      447.0628       14094.062    
    493800   987.6          988.26613      114.84134      438.67847      14881.745    
    493900   987.8          974.57754      113.25066      434.26758      13339.46     
    494000   988            966.43334      112.30426      434.14179      12614.242    
    494100   988.2          988.41689      114.85886      435.90005      14279.725    
    494200   988.4          992.28262      115.30807      440.03083      13362.153    
    494300   988.6          1068.5869      124.175        444.88963      13402.205    
    494400   988.8          1045.299       121.46884      442.8076       17048.072    
    494500   989            980.9583       113.99213      434.0905       13712.034    
    494600   989.2          971.59355      112.9039       432.88183      15657.655    
    494700   989.4          1002.7845      116.52845      435.70632      13591.775    
    494800   989.6          1010.479       117.42258      438.53552      17005.624    
    494900   989.8          1034.81        120.24996      443.6859       14090.388    
    495000   990            1053.0821      122.37327      447.36535      13773.795    
    495100   990.2          1024.5814      119.06134      441.73323      13615.127    
    495200   990.4          997.60022      115.926        435.48719      14297.074    
    495300   990.6          1003.4046      116.6005       432.97491      13889.797    
    495400   990.8          1003.6081      116.62415      432.5631       12606.376    
    495500   991            989.16897      114.94625      436.98032      11889.099    
    495600   991.2          1047.3851      121.71125      442.00469      13603.428    
    495700   991.4          1033.1022      120.05151      440.19101      14677.958    
    495800   991.6          972.40644      112.99836      432.79618      15546.215    
    495900   991.8          993.74697      115.47824      430.17718      13004.228    
    496000   992            961.72506      111.75714      432.57439      11392.326    
    496100   992.2          1022.8874      118.86449      436.71121      15258.166    
    496200   992.4          1016.6011      118.134        439.59688      15635.33     
    496300   992.6          1049.1296      121.91396      438.76643      15240.563    
    496400   992.8          977.10704      113.5446       429.69234      13997.686    
    496500   993            967.59437      112.43918      428.60575      13349.368    
    496600   993.2          998.7511       116.05974      434.28686      12988.43     
    496700   993.4          991.83948      115.25658      438.33385      13441.21     
    496800   993.6          1005.6844      116.86543      440.39116      17000.87     
    496900   993.8          1045.389       121.47929      438.48048      14592.207    
    497000   994            960.84654      111.65505      432.55358      13068.176    
    497100   994.2          956.99608      111.20761      426.16805      16109.317    
    497200   994.4          969.70463      112.6844       429.64294      13175.537    
    497300   994.6          1013.344       117.7555       434.61973      14616.072    
    497400   994.8          1012.0014      117.59949      436.98562      15083.701    
    497500   995            1037.5784      120.57167      439.20131      14319.299    
    497600   995.2          974.00275      113.18386      439.35611      11689.236    
    497700   995.4          991.04616      115.16439      433.69521      14348.837    
    497800   995.6          1006.5021      116.96045      430.15293      14016.72     
    497900   995.8          984.19861      114.36867      430.53693      12023.123    
    498000   996            1028.8241      119.55437      437.39652      12484.46     
    498100   996.2          1022.8092      118.85542      442.03634      14872.798    
    498200   996.4          1041.4978      121.02712      441.06333      14520.174    
    498300   996.6          1012.7831      117.69033      436.35761      14595.85     
    498400   996.8          1003.6528      116.62934      433.71685      15374.124    
    498500   997            1037.5997      120.57414      434.43477      14234.072    
    498600   997.2          984.63537      114.41943      432.9976       11435.52     
    498700   997.4          993.3304       115.42983      429.7438       14807.26     
    498800   997.6          943.50191      109.63952      425.41611      14306.305    
    498900   997.8          1009.1845      117.27216      430.21417      10912.385    
    499000   998            990.05302      115.04898      436.33504      13224.915    
    499100   998.2          1024.2664      119.02475      438.69953      14732.928    
    499200   998.4          1028.1916      119.48087      437.52162      13165.562    
    499300   998.6          998.76255      116.06107      433.06656      13224.724    
    499400   998.8          975.86722      113.40052      426.23122      15410.605    
    499500   999            963.77468      111.99531      425.95654      11934.495    
    499600   999.2          1024.7452      119.08039      435.98318      16136.468    
    499700   999.4          1003.3671      116.59615      437.42471      15797.184    
    499800   999.6          977.53969      113.59487      435.51424      14858.215    
    499900   999.8          973.61353      113.13863      430.3992       14956.345    
    500000   1000           972.49206      113.00831      426.85445      13962.518    
Loop time of 326.083 on 1 procs for 500000 steps with 900 atoms

Performance: 264.963 ns/day, 0.091 hours/ns, 1533.350 timesteps/s
53.9% CPU use with 1 MPI tasks x no OpenMP threads

MPI task timing breakdown:
Section |  min time  |  avg time  |  max time  |%varavg| %total
---------------------------------------------------------------
Pair    | 209.43     | 209.43     | 209.43     |   0.0 | 64.23
Neigh   | 104.31     | 104.31     | 104.31     |   0.0 | 31.99
Comm    | 4.0023     | 4.0023     | 4.0023     |   0.0 |  1.23
Output  | 2.1489     | 2.1489     | 2.1489     |   0.0 |  0.66
Modify  | 5.5179     | 5.5179     | 5.5179     |   0.0 |  1.69
Other   |            | 0.6808     |            |       |  0.21

Nlocal:            900 ave         900 max         900 min
Histogram: 1 0 0 0 0 0 0 0 0 0
Nghost:           2800 ave        2800 max        2800 min
Histogram: 1 0 0 0 0 0 0 0 0 0
Neighs:              0 ave           0 max           0 min
Histogram: 1 0 0 0 0 0 0 0 0 0
FullNghs:        95000 ave       95000 max       95000 min
Histogram: 1 0 0 0 0 0 0 0 0 0

Total # of neighbors = 95000
Ave neighs/atom = 105.55556
Neighbor list builds = 50000
Dangerous builds not checked

Total wall time: 0:05:45
