ITEM: TIMESTEP
0
ITEM: NUMBER OF ATOMS
32
ITEM: BOX BOUNDS xy xz yz pp pp pp
-2.4071335792541504e-03 6.3992393016815186e+00 0.0000000000000000e+00
-9.1621279716491699e-03 8.7091094255447388e+00 0.0000000000000000e+00
5.4966151714324951e-02 2.0670420289039612e+01 3.1795161366462708e+00
ITEM: ATOMS id type xs ys zs fx fy fz
1 1 0.999986 0.631986 0.0597547 0 0 0.185045
2 1 0.499986 0.631986 0.0597547 0 0 0.185045
3 1 0.249986 0.131987 0.0597528 0 0 0.185204
4 1 0.749986 0.131987 0.0597528 0 0 0.185204
5 1 0.999986 0.488484 0.309759 0 0 0.000236511
6 1 0.249986 0.394326 0.184759 0 0 0.0254536
7 1 0.749986 0.394326 0.184759 0 0 0.0254536
8 1 0.499986 0.488484 0.309759 0 0 0.000236511
9 1 0.999986 0.894327 0.184758 0 0 0.0255299
10 1 0.249986 0.988483 0.309758 0 0 0.000305176
11 1 0.499986 0.894327 0.184758 0 0 0.0255299
12 1 0.749986 0.988483 0.309758 0 0 0.000305176
13 1 0.999986 0.34496 0.559748 0 0 0.000812531
14 1 0.499986 0.34496 0.559748 0 0 0.000812531
15 1 0.249986 0.844961 0.559748 0 0 0.000799179
16 1 0.749986 0.844961 0.559748 0 0 0.000799179
17 1 0.249986 0.250819 0.434754 0 0 -0.000810623
18 1 0.749986 0.250819 0.434754 0 0 -0.000810623
19 1 0.999986 0.75082 0.434754 0 0 -0.000827789
20 1 0.499986 0.75082 0.434754 0 0 -0.000827789
21 1 0.999986 0.201444 0.809743 0 0 -0.0254993
22 1 0.249986 0.107293 0.684743 0 0 -0.000307083
23 1 0.499986 0.201444 0.809743 0 0 -0.0254993
24 1 0.749986 0.107293 0.684743 0 0 -0.000307083
25 1 0.999986 0.607292 0.684742 0 0 -0.000257492
26 1 0.249986 0.701445 0.809742 0 0 -0.0254669
27 1 0.749986 0.701445 0.809742 0 0 -0.0254669
28 1 0.499986 0.607292 0.684742 0 0 -0.000257492
29 1 0.249986 0.963782 0.934748 0 0 -0.185173
30 1 0.749986 0.963782 0.934748 0 0 -0.185173
31 1 0.999986 0.463782 0.934746 0 0 -0.185043
32 1 0.499986 0.463782 0.934746 0 0 -0.185043
ITEM: TIMESTEP
1
ITEM: NUMBER OF ATOMS
32
ITEM: BOX BOUNDS xy xz yz pp pp pp
-2.4071335792541504e-03 6.3992393016815186e+00 0.0000000000000000e+00
-9.1621279716491699e-03 8.7091094255447388e+00 0.0000000000000000e+00
5.4966151714324951e-02 2.0670420289039612e+01 3.1795161366462708e+00
ITEM: ATOMS id type xs ys zs fx fy fz
1 1 0.999986 0.630757 0.0618956 0 0 -0.0256405
2 1 0.499986 0.630757 0.0618956 0 0 -0.0256405
3 1 0.249986 0.130757 0.0618956 0 0 -0.0256367
4 1 0.749986 0.130757 0.0618956 0 0 -0.0256367
5 1 0.999986 0.488482 0.309762 0 0 0.00955582
6 1 0.249986 0.394156 0.185054 0 0 0.0732574
7 1 0.749986 0.394156 0.185054 0 0 0.0732574
8 1 0.499986 0.488482 0.309762 0 0 0.00955582
9 1 0.999986 0.894157 0.185053 0 0 0.0732861
10 1 0.249986 0.988481 0.309762 0 0 0.00958443
11 1 0.499986 0.894157 0.185053 0 0 0.0732861
12 1 0.749986 0.988481 0.309762 0 0 0.00958443
13 1 0.999986 0.344955 0.559757 0 0 -0.0010376
14 1 0.499986 0.344955 0.559757 0 0 -0.0010376
15 1 0.249986 0.844956 0.559757 0 0 -0.0010376
16 1 0.749986 0.844956 0.559757 0 0 -0.0010376
17 1 0.249986 0.250824 0.434745 0 0 0.00102806
18 1 0.749986 0.250824 0.434745 0 0 0.00102806
19 1 0.999986 0.750825 0.434745 0 0 0.00103951
20 1 0.499986 0.750825 0.434745 0 0 0.00103951
21 1 0.999986 0.201613 0.809448 0 0 -0.0732975
22 1 0.249986 0.107295 0.68474 0 0 -0.00957298
23 1 0.499986 0.201613 0.809448 0 0 -0.0732975
24 1 0.749986 0.107295 0.68474 0 0 -0.00957298
25 1 0.999986 0.607294 0.684739 0 0 -0.009552
26 1 0.249986 0.701614 0.809448 0 0 -0.0732727
27 1 0.749986 0.701614 0.809448 0 0 -0.0732727
28 1 0.499986 0.607294 0.684739 0 0 -0.009552
29 1 0.249986 0.965012 0.932605 0 0 0.0256538
30 1 0.749986 0.965012 0.932605 0 0 0.0256538
31 1 0.999986 0.465011 0.932605 0 0 0.0256424
32 1 0.499986 0.465011 0.932605 0 0 0.0256424
ITEM: TIMESTEP
2
ITEM: NUMBER OF ATOMS
32
ITEM: BOX BOUNDS xy xz yz pp pp pp
-2.4071335792541504e-03 6.3992393016815186e+00 0.0000000000000000e+00
-9.1621279716491699e-03 8.7091094255447388e+00 0.0000000000000000e+00
5.4966151714324951e-02 2.0670420289039612e+01 3.1795161366462708e+00
ITEM: ATOMS id type xs ys zs fx fy fz
1 1 0.999986 0.630542 0.0622702 0 0 -0.0177307
2 1 0.499986 0.630542 0.0622702 0 0 -0.0177307
3 1 0.249986 0.130542 0.0622709 0 0 -0.017786
4 1 0.749986 0.130542 0.0622709 0 0 -0.017786
5 1 0.999986 0.488388 0.309926 0 0 0.0429325
6 1 0.249986 0.393378 0.18641 0 0 0.000167847
7 1 0.749986 0.393378 0.18641 0 0 0.000167847
8 1 0.499986 0.488388 0.309926 0 0 0.0429325
9 1 0.999986 0.893378 0.18641 0 0 0.000165939
10 1 0.249986 0.988387 0.309926 0 0 0.0429173
11 1 0.499986 0.893378 0.18641 0 0 0.000165939
12 1 0.749986 0.988387 0.309926 0 0 0.0429173
13 1 0.999986 0.344963 0.559743 0 0 -0.0051899
14 1 0.499986 0.344963 0.559743 0 0 -0.0051899
15 1 0.249986 0.844964 0.559743 0 0 -0.00517082
16 1 0.749986 0.844964 0.559743 0 0 -0.00517082
17 1 0.249986 0.250816 0.434759 0 0 0.00517654
18 1 0.749986 0.250816 0.434759 0 0 0.00517654
19 1 0.999986 0.750817 0.434759 0 0 0.00518227
20 1 0.499986 0.750817 0.434759 0 0 0.00518227
21 1 0.999986 0.202392 0.808091 0 0 -0.000146866
22 1 0.249986 0.107389 0.684576 0 0 -0.0429306
23 1 0.499986 0.202392 0.808091 0 0 -0.000146866
24 1 0.749986 0.107389 0.684576 0 0 -0.0429306
25 1 0.999986 0.607388 0.684576 0 0 -0.0429497
26 1 0.249986 0.702393 0.808091 0 0 -0.000146866
27 1 0.749986 0.702393 0.808091 0 0 -0.000146866
28 1 0.499986 0.607388 0.684576 0 0 -0.0429497
29 1 0.249986 0.965227 0.93223 0 0 0.0177841
30 1 0.749986 0.965227 0.93223 0 0 0.0177841
31 1 0.999986 0.465226 0.932231 0 0 0.017725
32 1 0.499986 0.465226 0.932231 0 0 0.017725
ITEM: TIMESTEP
3
ITEM: NUMBER OF ATOMS
32
ITEM: BOX BOUNDS xy xz yz pp pp pp
-2.4071335792541504e-03 6.3992393016815186e+00 0.0000000000000000e+00
-9.1621279716491699e-03 8.7091094255447388e+00 0.0000000000000000e+00
5.4966151714324951e-02 2.0670420289039612e+01 3.1795161366462708e+00
ITEM: ATOMS id type xs ys zs fx fy fz
1 1 0.999986 0.630677 0.0620341 0 0 0.014122
2 1 0.499986 0.630677 0.0620341 0 0 0.014122
3 1 0.249986 0.130678 0.0620339 0 0 0.0141563
4 1 0.749986 0.130678 0.0620339 0 0 0.0141563
5 1 0.999986 0.487921 0.31074 0 0 0.00226784
6 1 0.249986 0.3932 0.186721 0 0 -0.0010643
7 1 0.749986 0.3932 0.186721 0 0 -0.0010643
8 1 0.499986 0.487921 0.31074 0 0 0.00226784
9 1 0.999986 0.8932 0.186721 0 0 -0.0010891
10 1 0.249986 0.987919 0.31074 0 0 0.00224686
11 1 0.499986 0.8932 0.186721 0 0 -0.0010891
12 1 0.749986 0.987919 0.31074 0 0 0.00224686
13 1 0.999986 0.345019 0.559646 0 0 -0.0212193
14 1 0.499986 0.345019 0.559646 0 0 -0.0212193
15 1 0.249986 0.845019 0.559646 0 0 -0.0212326
16 1 0.749986 0.845019 0.559646 0 0 -0.0212326
17 1 0.249986 0.250761 0.434856 0 0 0.0212193
18 1 0.749986 0.250761 0.434856 0 0 0.0212193
19 1 0.999986 0.750762 0.434856 0 0 0.0212097
20 1 0.499986 0.750762 0.434856 0 0 0.0212097
21 1 0.999986 0.20257 0.807781 0 0 0.00107002
22 1 0.249986 0.107856 0.683761 0 0 -0.00224876
23 1 0.499986 0.20257 0.807781 0 0 0.00107002
24 1 0.749986 0.107856 0.683761 0 0 -0.00224876
25 1 0.999986 0.607855 0.683761 0 0 -0.00223732
26 1 0.249986 0.702571 0.807781 0 0 0.00105667
27 1 0.749986 0.702571 0.807781 0 0 0.00105667
28 1 0.499986 0.607855 0.683761 0 0 -0.00223732
29 1 0.249986 0.965091 0.932467 0 0 -0.0141487
30 1 0.749986 0.965091 0.932467 0 0 -0.0141487
31 1 0.999986 0.46509 0.932467 0 0 -0.0141087
32 1 0.499986 0.46509 0.932467 0 0 -0.0141087
ITEM: TIMESTEP
4
ITEM: NUMBER OF ATOMS
32
ITEM: BOX BOUNDS xy xz yz pp pp pp
-2.4071335792541504e-03 6.3992393016815186e+00 0.0000000000000000e+00
-9.1621279716491699e-03 8.7091094255447388e+00 0.0000000000000000e+00
5.4966151714324951e-02 2.0670420289039612e+01 3.1795161366462708e+00
ITEM: ATOMS id type xs ys zs fx fy fz
1 1 0.999986 0.630601 0.0621676 0 0 0.00372124
2 1 0.499986 0.630601 0.0621676 0 0 0.00372124
3 1 0.249986 0.130601 0.0621678 0 0 0.00371552
4 1 0.749986 0.130601 0.0621678 0 0 0.00371552
5 1 0.999986 0.487792 0.310964 0 0 -0.000907898
6 1 0.249986 0.393165 0.18678 0 0 0.00642014
7 1 0.749986 0.393165 0.18678 0 0 0.00642014
8 1 0.499986 0.487792 0.310964 0 0 -0.000907898
9 1 0.999986 0.893166 0.18678 0 0 0.00642014
10 1 0.249986 0.987791 0.310964 0 0 -0.000894547
11 1 0.499986 0.893166 0.18678 0 0 0.00642014
12 1 0.749986 0.987791 0.310964 0 0 -0.000894547
13 1 0.999986 0.345196 0.559337 0 0 0.00155449
14 1 0.499986 0.345196 0.559337 0 0 0.00155449
15 1 0.249986 0.845196 0.559338 0 0 0.00155449
16 1 0.749986 0.845196 0.559338 0 0 0.00155449
17 1 0.249986 0.250584 0.435164 0 0 -0.00155449
18 1 0.749986 0.250584 0.435164 0 0 -0.00155449
19 1 0.999986 0.750585 0.435164 0 0 -0.00155258
20 1 0.499986 0.750585 0.435164 0 0 -0.00155258
21 1 0.999986 0.202605 0.807721 0 0 -0.0064106
22 1 0.249986 0.107985 0.683537 0 0 0.000894547
23 1 0.499986 0.202605 0.807721 0 0 -0.0064106
24 1 0.749986 0.107985 0.683537 0 0 0.000894547
25 1 0.999986 0.607984 0.683537 0 0 0.000894547
26 1 0.249986 0.702605 0.807721 0 0 -0.00641632
27 1 0.749986 0.702605 0.807721 0 0 -0.00641632
28 1 0.499986 0.607984 0.683537 0 0 0.000894547
29 1 0.249986 0.965167 0.932334 0 0 -0.00372696
30 1 0.749986 0.965167 0.932334 0 0 -0.00372696
31 1 0.999986 0.465167 0.932334 0 0 -0.0037117
32 1 0.499986 0.465167 0.932334 0 0 -0.0037117
ITEM: TIMESTEP
5
ITEM: NUMBER OF ATOMS
32
ITEM: BOX BOUNDS xy xz yz pp pp pp
-2.4071335792541504e-03 6.3992393016815186e+00 0.0000000000000000e+00
-9.1621279716491699e-03 8.7091094255447388e+00 0.0000000000000000e+00
5.4966151714324951e-02 2.0670420289039612e+01 3.1795161366462708e+00
ITEM: ATOMS id type xs ys zs fx fy fz
1 1 0.999986 0.630547 0.0622611 0 0 -0.000566483
2 1 0.499986 0.630547 0.0622611 0 0 -0.000566483
3 1 0.249986 0.130547 0.0622611 0 0 -0.000572205
4 1 0.749986 0.130547 0.0622611 0 0 -0.000572205
5 1 0.999986 0.487788 0.310971 0 0 0.00327301
6 1 0.249986 0.393084 0.186922 0 0 0.000253677
7 1 0.749986 0.393084 0.186922 0 0 0.000253677
8 1 0.499986 0.487788 0.310971 0 0 0.00327301
9 1 0.999986 0.893084 0.186922 0 0 0.000259399
10 1 0.249986 0.987787 0.310971 0 0 0.00326729
11 1 0.499986 0.893084 0.186922 0 0 0.000259399
12 1 0.749986 0.987787 0.310971 0 0 0.00326729
13 1 0.999986 0.345197 0.559335 0 0 0.00144196
14 1 0.499986 0.345197 0.559335 0 0 0.00144196
15 1 0.249986 0.845198 0.559335 0 0 0.00144005
16 1 0.749986 0.845198 0.559335 0 0 0.00144577
17 1 0.249986 0.250583 0.435166 0 0 -0.00144577
18 1 0.749986 0.250583 0.435166 0 0 -0.00144768
19 1 0.999986 0.750583 0.435166 0 0 -0.00144386
20 1 0.499986 0.750583 0.435166 0 0 -0.00144386
21 1 0.999986 0.202686 0.807579 0 0 -0.000272751
22 1 0.249986 0.107989 0.683531 0 0 -0.00325775
23 1 0.499986 0.202686 0.807579 0 0 -0.000272751
24 1 0.749986 0.107989 0.683531 0 0 -0.00325394
25 1 0.999986 0.607988 0.683531 0 0 -0.00325394
26 1 0.249986 0.702686 0.807579 0 0 -0.000270844
27 1 0.749986 0.702686 0.807579 0 0 -0.000270844
28 1 0.499986 0.607988 0.683531 0 0 -0.00325394
29 1 0.249986 0.965221 0.93224 0 0 0.000574112
30 1 0.749986 0.965221 0.93224 0 0 0.000574112
31 1 0.999986 0.46522 0.93224 0 0 0.000570297
32 1 0.499986 0.46522 0.93224 0 0 0.000570297
ITEM: TIMESTEP
6
ITEM: NUMBER OF ATOMS
32
ITEM: BOX BOUNDS xy xz yz pp pp pp
-2.4071335792541504e-03 6.3992393016815186e+00 0.0000000000000000e+00
-9.1621279716491699e-03 8.7091094255447388e+00 0.0000000000000000e+00
5.4966151714324951e-02 2.0670420289039612e+01 3.1795161366462708e+00
ITEM: ATOMS id type xs ys zs fx fy fz
1 1 0.999986 0.630543 0.0622677 0 0 -0.000429153
2 1 0.499986 0.630543 0.0622677 0 0 -0.000429153
3 1 0.249986 0.130544 0.0622677 0 0 -0.000429153
4 1 0.749986 0.130544 0.0622677 0 0 -0.000429153
5 1 0.999986 0.487764 0.311014 0 0 0.000679016
6 1 0.249986 0.39307 0.186947 0 0 0.000238419
7 1 0.749986 0.39307 0.186947 0 0 0.000238419
8 1 0.499986 0.487764 0.311014 0 0 0.000679016
9 1 0.999986 0.89307 0.186947 0 0 0.000234604
10 1 0.249986 0.987762 0.311014 0 0 0.000679016
11 1 0.499986 0.89307 0.186947 0 0 0.000234604
12 1 0.749986 0.987762 0.311014 0 0 0.000679016
13 1 0.999986 0.345187 0.559353 -1.90735e-06 0 -0.00169182
14 1 0.499986 0.345187 0.559353 1.90735e-06 0 -0.00169182
15 1 0.249986 0.845187 0.559354 0 0 -0.00169563
16 1 0.749986 0.845187 0.559354 0 0 -0.00169373
17 1 0.249986 0.250593 0.435148 0 0 0.00170135
18 1 0.749986 0.250593 0.435148 0 0 0.00170135
19 1 0.999986 0.750594 0.435148 0 0 0.00169563
20 1 0.499986 0.750594 0.435148 0 0 0.00169563
21 1 0.999986 0.2027 0.807555 0 0 -0.000228882
22 1 0.249986 0.108013 0.683488 0 0 -0.00069809
23 1 0.499986 0.2027 0.807555 0 0 -0.000228882
24 1 0.749986 0.108013 0.683488 0 0 -0.000699997
25 1 0.999986 0.608012 0.683488 0 0 -0.000699997
26 1 0.249986 0.702701 0.807555 0 0 -0.000219345
27 1 0.749986 0.702701 0.807555 0 0 -0.000219345
28 1 0.499986 0.608012 0.683488 0 0 -0.000699997
29 1 0.249986 0.965225 0.932234 0 0 0.000434875
30 1 0.749986 0.965225 0.932234 0 0 0.000434875
31 1 0.999986 0.465224 0.932234 0 0 0.000429153
32 1 0.499986 0.465224 0.932234 0 0 0.000429153
ITEM: TIMESTEP
7
ITEM: NUMBER OF ATOMS
32
ITEM: BOX BOUNDS xy xz yz pp pp pp
-2.4071335792541504e-03 6.3992393016815186e+00 0.0000000000000000e+00
-9.1621279716491699e-03 8.7091094255447388e+00 0.0000000000000000e+00
5.4966151714324951e-02 2.0670420289039612e+01 3.1795161366462708e+00
ITEM: ATOMS id type xs ys zs fx fy fz
1 1 0.999986 0.630547 0.0622621 0 0 0.000541687
2 1 0.499986 0.630547 0.0622621 0 0 0.000541687
3 1 0.249986 0.130547 0.062262 0 0 0.000534058
4 1 0.749986 0.130547 0.062262 0 0 0.000534058
5 1 0.999986 0.487746 0.311044 0 0 -9.15527e-05
6 1 0.249986 0.393062 0.186961 0 0 9.72748e-05
7 1 0.749986 0.393062 0.186961 0 0 9.72748e-05
8 1 0.499986 0.487746 0.311044 0 0 -9.15527e-05
9 1 0.999986 0.893062 0.186961 0 0 9.72748e-05
10 1 0.249986 0.987745 0.311044 0 0 -8.7738e-05
11 1 0.499986 0.893062 0.186961 0 0 9.72748e-05
12 1 0.749986 0.987745 0.311044 0 0 -8.7738e-05
13 1 0.999986 0.345201 0.559328 0 0 -0.000162125
14 1 0.499986 0.345201 0.559328 0 0 -0.000162125
15 1 0.249986 0.845202 0.559328 0 0 -0.000150681
16 1 0.749986 0.845202 0.559328 0 0 -0.000160217
17 1 0.249986 0.250578 0.435174 0 0 0.000152588
18 1 0.749986 0.250578 0.435173 0 0 0.000152588
19 1 0.999986 0.750579 0.435174 0 0 0.000156403
20 1 0.499986 0.750579 0.435174 0 0 0.000156403
21 1 0.999986 0.202708 0.80754 -1.90735e-06 0 -0.000106812
22 1 0.249986 0.108031 0.683457 0 0 0.000116348
23 1 0.499986 0.202708 0.80754 1.90735e-06 0 -0.000106812
24 1 0.749986 0.108031 0.683457 0 0 0.000108719
25 1 0.999986 0.60803 0.683457 3.8147e-06 0 0.000112534
26 1 0.249986 0.702709 0.807541 0 0 -0.000118256
27 1 0.749986 0.702709 0.807541 0 0 -0.000116348
28 1 0.499986 0.60803 0.683457 -3.8147e-06 0 0.000112534
29 1 0.249986 0.965222 0.932239 0 0 -0.00053978
30 1 0.749986 0.965222 0.932239 0 0 -0.00053978
31 1 0.999986 0.465221 0.932239 0 0 -0.000543594
32 1 0.499986 0.465221 0.932239 0 0 -0.000543594
ITEM: TIMESTEP
8
ITEM: NUMBER OF ATOMS
32
ITEM: BOX BOUNDS xy xz yz pp pp pp
-2.4071335792541504e-03 6.3992393016815186e+00 0.0000000000000000e+00
-9.1621279716491699e-03 8.7091094255447388e+00 0.0000000000000000e+00
5.4966151714324951e-02 2.0670420289039612e+01 3.1795161366462708e+00
ITEM: ATOMS id type xs ys zs fx fy fz
1 1 0.999986 0.630543 0.0622687 0 0 3.8147e-06
2 1 0.499986 0.630543 0.0622687 0 0 3.8147e-06
3 1 0.249986 0.130543 0.0622685 0 0 1.52588e-05
4 1 0.749986 0.130543 0.0622685 0 0 1.52588e-05
5 1 0.999986 0.487746 0.311045 0 0 5.34058e-05
6 1 0.249986 0.39306 0.186963 0 0 0.000190735
7 1 0.749986 0.39306 0.186963 0 0 0.000190735
8 1 0.499986 0.487746 0.311045 0 0 5.34058e-05
9 1 0.999986 0.893061 0.186963 0 0 0.000179291
10 1 0.249986 0.987745 0.311045 0 0 4.95911e-05
11 1 0.499986 0.893061 0.186963 0 0 0.000179291
12 1 0.749986 0.987745 0.311045 0 0 4.76837e-05
13 1 0.999986 0.345203 0.559324 0 0 0.000171661
14 1 0.499986 0.345203 0.559324 0 0 0.000171661
15 1 0.249986 0.845204 0.559324 0 0 0.000165939
16 1 0.749986 0.845204 0.559324 0 0 0.000167847
17 1 0.249986 0.250576 0.435177 0 0 -0.000156403
18 1 0.749986 0.250576 0.435177 0 0 -0.000160217
19 1 0.999986 0.750577 0.435177 0 0 -0.00015831
20 1 0.499986 0.750577 0.435177 0 0 -0.000156403
21 1 0.999986 0.20271 0.807538 -3.8147e-06 0 -0.000188828
22 1 0.249986 0.108031 0.683457 0 0 -5.72205e-05
23 1 0.499986 0.20271 0.807538 3.8147e-06 0 -0.000188828
24 1 0.749986 0.108031 0.683457 0 0 -4.95911e-05
25 1 0.999986 0.60803 0.683457 -3.8147e-06 0 -5.72205e-05
26 1 0.249986 0.70271 0.807538 0 0 -0.000185013
27 1 0.749986 0.70271 0.807538 0 0 -0.000183105
28 1 0.499986 0.60803 0.683457 3.8147e-06 0 -5.72205e-05
29 1 0.249986 0.965225 0.932233 0 0 -1.14441e-05
30 1 0.749986 0.965225 0.932233 0 0 -1.52588e-05
31 1 0.999986 0.465225 0.932233 0 0 -1.71661e-05
32 1 0.499986 0.465225 0.932233 0 0 -1.71661e-05
ITEM: TIMESTEP
9
ITEM: NUMBER OF ATOMS
32
ITEM: BOX BOUNDS xy xz yz pp pp pp
-2.4071335792541504e-03 6.3992393016815186e+00 0.0000000000000000e+00
-9.1621279716491699e-03 8.7091094255447388e+00 0.0000000000000000e+00
5.4966151714324951e-02 2.0670420289039612e+01 3.1795161366462708e+00
ITEM: ATOMS id type xs ys zs fx fy fz
1 1 0.999986 0.630543 0.0622687 0 0 3.8147e-06
2 1 0.499986 0.630543 0.0622687 0 0 3.8147e-06
3 1 0.249986 0.130543 0.0622685 0 0 1.52588e-05
4 1 0.749986 0.130543 0.0622685 0 0 1.52588e-05
5 1 0.999986 0.487746 0.311045 0 0 5.34058e-05
6 1 0.249986 0.39306 0.186963 0 0 0.000190735
7 1 0.749986 0.39306 0.186963 0 0 0.000190735
8 1 0.499986 0.487746 0.311045 0 0 5.34058e-05
9 1 0.999986 0.893061 0.186963 0 0 0.000179291
10 1 0.249986 0.987745 0.311045 0 0 4.95911e-05
11 1 0.499986 0.893061 0.186963 0 0 0.000179291
12 1 0.749986 0.987745 0.311045 0 0 4.76837e-05
13 1 0.999986 0.345203 0.559324 0 0 0.000171661
14 1 0.499986 0.345203 0.559324 0 0 0.000171661
15 1 0.249986 0.845204 0.559324 0 0 0.000165939
16 1 0.749986 0.845204 0.559324 0 0 0.000167847
17 1 0.249986 0.250576 0.435177 0 0 -0.000156403
18 1 0.749986 0.250576 0.435177 0 0 -0.000160217
19 1 0.999986 0.750577 0.435177 0 0 -0.00015831
20 1 0.499986 0.750577 0.435177 0 0 -0.000156403
21 1 0.999986 0.20271 0.807538 -3.8147e-06 0 -0.000188828
22 1 0.249986 0.108031 0.683457 0 0 -5.72205e-05
23 1 0.499986 0.20271 0.807538 3.8147e-06 0 -0.000188828
24 1 0.749986 0.108031 0.683457 0 0 -4.95911e-05
25 1 0.999986 0.60803 0.683457 -3.8147e-06 0 -5.72205e-05
26 1 0.249986 0.70271 0.807538 0 0 -0.000185013
27 1 0.749986 0.70271 0.807538 0 0 -0.000183105
28 1 0.499986 0.60803 0.683457 3.8147e-06 0 -5.72205e-05
29 1 0.249986 0.965225 0.932233 0 0 -1.14441e-05
30 1 0.749986 0.965225 0.932233 0 0 -1.52588e-05
31 1 0.999986 0.465225 0.932233 0 0 -1.71661e-05
32 1 0.499986 0.465225 0.932233 0 0 -1.71661e-05
