ITEM: TIMESTEP
0
ITEM: NUMBER OF ATOMS
32
ITEM: BOX BOUNDS xy xz yz pp pp pp
-4.0532350540161133e-03 6.4008854031562805e+00 0.0000000000000000e+00
-9.1640949249267578e-03 8.7091125249862671e+00 0.0000000000000000e+00
-4.7960281372070312e-02 2.0773346722126007e+01 3.1795172691345215e+00
ITEM: ATOMS id type xs ys zs fx fy fz
1 1 0.999986 0.631859 0.0597509 0 0 0.13648
2 1 0.499986 0.631859 0.0597509 0 0 0.13648
3 1 0.249986 0.131859 0.0597519 0 0 0.136404
4 1 0.749986 0.131859 0.0597519 0 0 0.136404
5 1 0.999986 0.488359 0.309753 0 0 0.00037384
6 1 0.249986 0.394457 0.184753 0 0 0.00150871
7 1 0.749986 0.394457 0.184753 0 0 0.00150871
8 1 0.499986 0.488359 0.309753 0 0 0.00037384
9 1 0.999986 0.894456 0.184753 0 0 0.00152397
10 1 0.249986 0.988359 0.309753 0 0 0.000326157
11 1 0.499986 0.894456 0.184753 0 0 0.00152397
12 1 0.749986 0.988359 0.309753 0 0 0.000326157
13 1 0.999986 0.344835 0.559749 0 0 6.10352e-05
14 1 0.499986 0.344835 0.559749 0 0 6.10352e-05
15 1 0.249986 0.844833 0.55975 0 0 4.76837e-05
16 1 0.749986 0.844833 0.55975 0 0 4.76837e-05
17 1 0.249986 0.250946 0.434752 0 0 -6.10352e-05
18 1 0.749986 0.250946 0.434752 0 0 -6.10352e-05
19 1 0.999986 0.750946 0.434752 0 0 -3.8147e-05
20 1 0.499986 0.750946 0.434752 0 0 -3.8147e-05
21 1 0.999986 0.201315 0.809748 0 0 -0.00152016
22 1 0.249986 0.107417 0.684748 0 0 -0.000352859
23 1 0.499986 0.201315 0.809748 0 0 -0.00152016
24 1 0.749986 0.107417 0.684748 0 0 -0.000352859
25 1 0.999986 0.607417 0.684749 0 0 -0.000371933
26 1 0.249986 0.701315 0.809748 0 0 -0.00150681
27 1 0.749986 0.701315 0.809748 0 0 -0.00150681
28 1 0.499986 0.607417 0.684749 0 0 -0.000371933
29 1 0.249986 0.96391 0.934749 0 0 -0.1364
30 1 0.749986 0.96391 0.934749 0 0 -0.1364
31 1 0.999986 0.46391 0.93475 0 0 -0.136475
32 1 0.499986 0.46391 0.93475 0 0 -0.136475
ITEM: TIMESTEP
1
ITEM: NUMBER OF ATOMS
32
ITEM: BOX BOUNDS xy xz yz pp pp pp
-4.0532350540161133e-03 6.4008854031562805e+00 0.0000000000000000e+00
-9.1640949249267578e-03 8.7091125249862671e+00 0.0000000000000000e+00
-4.7960281372070312e-02 2.0773346722126007e+01 3.1795172691345215e+00
ITEM: ATOMS id type xs ys zs fx fy fz
1 1 0.999986 0.63096 0.0613174 0 0 -0.00869751
2 1 0.499986 0.63096 0.0613174 0 0 -0.00869751
3 1 0.249986 0.13096 0.0613176 0 0 -0.00870132
4 1 0.749986 0.13096 0.0613176 0 0 -0.00870132
5 1 0.999986 0.488356 0.309757 0 0 0.00308228
6 1 0.249986 0.394447 0.184771 0 0 0.0412807
7 1 0.749986 0.394447 0.184771 0 0 0.0412807
8 1 0.499986 0.488356 0.309757 0 0 0.00308228
9 1 0.999986 0.894445 0.184771 0 0 0.0412846
10 1 0.249986 0.988357 0.309757 0 0 0.00307274
11 1 0.499986 0.894445 0.184771 0 0 0.0412846
12 1 0.749986 0.988357 0.309757 0 0 0.00307274
13 1 0.999986 0.344835 0.55975 0 0 3.8147e-05
14 1 0.499986 0.344835 0.55975 0 0 3.8147e-05
15 1 0.249986 0.844833 0.55975 0 0 2.67029e-05
16 1 0.749986 0.844833 0.55975 0 0 2.67029e-05
17 1 0.249986 0.250946 0.434752 0 0 -4.3869e-05
18 1 0.749986 0.250946 0.434752 0 0 -4.3869e-05
19 1 0.999986 0.750946 0.434751 0 0 -2.47955e-05
20 1 0.499986 0.750946 0.434751 0 0 -2.47955e-05
21 1 0.999986 0.201325 0.809731 0 0 -0.0412903
22 1 0.249986 0.107419 0.684744 0 0 -0.00306892
23 1 0.499986 0.201325 0.809731 0 0 -0.0412903
24 1 0.749986 0.107419 0.684744 0 0 -0.00306892
25 1 0.999986 0.607419 0.684745 0 0 -0.00308228
26 1 0.249986 0.701325 0.809731 0 0 -0.0412865
27 1 0.749986 0.701325 0.809731 0 0 -0.0412865
28 1 0.499986 0.607419 0.684745 0 0 -0.00308228
29 1 0.249986 0.964808 0.933184 0 0 0.00870895
30 1 0.749986 0.964808 0.933184 0 0 0.00870895
31 1 0.999986 0.464809 0.933184 0 0 0.00870132
32 1 0.499986 0.464809 0.933184 0 0 0.00870132
ITEM: TIMESTEP
2
ITEM: NUMBER OF ATOMS
32
ITEM: BOX BOUNDS xy xz yz pp pp pp
-4.0532350540161133e-03 6.4008854031562805e+00 0.0000000000000000e+00
-9.1640949249267578e-03 8.7091125249862671e+00 0.0000000000000000e+00
-4.7960281372070312e-02 2.0773346722126007e+01 3.1795172691345215e+00
ITEM: ATOMS id type xs ys zs fx fy fz
1 1 0.999986 0.630801 0.0615945 0 0 -0.00880241
2 1 0.499986 0.630801 0.0615945 0 0 -0.00880241
3 1 0.249986 0.130801 0.0615943 0 0 -0.00878334
4 1 0.749986 0.130801 0.0615943 0 0 -0.00878334
5 1 0.999986 0.488317 0.309826 0 0 0.022131
6 1 0.249986 0.393925 0.185679 0 0 0.00137901
7 1 0.749986 0.393925 0.185679 0 0 0.00137901
8 1 0.499986 0.488317 0.309826 0 0 0.022131
9 1 0.999986 0.893924 0.18568 0 0 0.00137711
10 1 0.249986 0.988317 0.309826 0 0 0.0221405
11 1 0.499986 0.893924 0.18568 0 0 0.00137711
12 1 0.749986 0.988317 0.309826 0 0 0.0221405
13 1 0.999986 0.344834 0.559751 0 0 -0.00301552
14 1 0.499986 0.344834 0.559751 0 0 -0.00301552
15 1 0.249986 0.844833 0.559751 0 0 -0.00301933
16 1 0.749986 0.844833 0.559751 0 0 -0.00301933
17 1 0.249986 0.250947 0.43475 0 0 0.00303078
18 1 0.749986 0.250947 0.43475 0 0 0.00303078
19 1 0.999986 0.750946 0.434751 0 0 0.00300598
20 1 0.499986 0.750946 0.434751 0 0 0.00300598
21 1 0.999986 0.201847 0.808822 0 0 -0.00136757
22 1 0.249986 0.107459 0.684676 0 0 -0.0221443
23 1 0.499986 0.201847 0.808822 0 0 -0.00136757
24 1 0.749986 0.107459 0.684676 0 0 -0.0221443
25 1 0.999986 0.607459 0.684676 0 0 -0.0221348
26 1 0.249986 0.701847 0.808822 0 0 -0.00137329
27 1 0.749986 0.701847 0.808822 0 0 -0.00137329
28 1 0.499986 0.607459 0.684676 0 0 -0.0221348
29 1 0.249986 0.964967 0.932907 0 0 0.0087738
30 1 0.749986 0.964967 0.932907 0 0 0.0087738
31 1 0.999986 0.464968 0.932907 0 0 0.00880241
32 1 0.499986 0.464968 0.932907 0 0 0.00880241
ITEM: TIMESTEP
3
ITEM: NUMBER OF ATOMS
32
ITEM: BOX BOUNDS xy xz yz pp pp pp
-4.0532350540161133e-03 6.4008854031562805e+00 0.0000000000000000e+00
-9.1640949249267578e-03 8.7091125249862671e+00 0.0000000000000000e+00
-4.7960281372070312e-02 2.0773346722126007e+01 3.1795172691345215e+00
ITEM: ATOMS id type xs ys zs fx fy fz
1 1 0.999986 0.630881 0.0614542 0 0 0.00999832
2 1 0.499986 0.630881 0.0614542 0 0 0.00999832
3 1 0.249986 0.130881 0.0614544 0 0 0.00999641
4 1 0.749986 0.130881 0.0614544 0 0 0.00999641
5 1 0.999986 0.488018 0.310347 0 0 0.00210762
6 1 0.249986 0.393793 0.185911 0 0 -0.00161934
7 1 0.749986 0.393793 0.185911 0 0 -0.00161934
8 1 0.499986 0.488018 0.310347 0 0 0.00210762
9 1 0.999986 0.893791 0.185911 0 0 -0.00163269
10 1 0.249986 0.988018 0.310347 0 0 0.00211906
11 1 0.499986 0.893791 0.185911 0 0 -0.00163269
12 1 0.749986 0.988018 0.310347 0 0 0.00211906
13 1 0.999986 0.344874 0.559682 0 0 -0.0100021
14 1 0.499986 0.344874 0.559682 0 0 -0.0100021
15 1 0.249986 0.844872 0.559682 0 0 -0.00999641
16 1 0.749986 0.844872 0.559682 0 0 -0.00999641
17 1 0.249986 0.250907 0.434819 0 0 0.0100002
18 1 0.749986 0.250907 0.434819 0 0 0.0100002
19 1 0.999986 0.750907 0.434819 0 0 0.00999832
20 1 0.499986 0.750907 0.434819 0 0 0.00999832
21 1 0.999986 0.201979 0.80859 0 0 0.00163078
22 1 0.249986 0.107758 0.684154 0 0 -0.00212097
23 1 0.499986 0.201979 0.80859 0 0 0.00163078
24 1 0.749986 0.107758 0.684154 0 0 -0.00212097
25 1 0.999986 0.607758 0.684155 0 0 -0.00211906
26 1 0.249986 0.70198 0.80859 0 0 0.00162315
27 1 0.749986 0.70198 0.80859 0 0 0.00162315
28 1 0.499986 0.607758 0.684155 0 0 -0.00211906
29 1 0.249986 0.964887 0.933047 0 0 -0.00998306
30 1 0.749986 0.964887 0.933047 0 0 -0.00998306
31 1 0.999986 0.464888 0.933047 0 0 -0.0100002
32 1 0.499986 0.464888 0.933047 0 0 -0.0100002
ITEM: TIMESTEP
4
ITEM: NUMBER OF ATOMS
32
ITEM: BOX BOUNDS xy xz yz pp pp pp
-4.0532350540161133e-03 6.4008854031562805e+00 0.0000000000000000e+00
-9.1640949249267578e-03 8.7091125249862671e+00 0.0000000000000000e+00
-4.7960281372070312e-02 2.0773346722126007e+01 3.1795172691345215e+00
ITEM: ATOMS id type xs ys zs fx fy fz
1 1 0.999986 0.630811 0.0615767 0 0 0.000650406
2 1 0.499986 0.630811 0.0615767 0 0 0.000650406
3 1 0.249986 0.130811 0.0615769 0 0 0.000631332
4 1 0.749986 0.130811 0.0615769 0 0 0.000631332
5 1 0.999986 0.487919 0.310519 0 0 -0.0017128
6 1 0.249986 0.393772 0.185947 0 0 0.00408745
7 1 0.749986 0.393772 0.185947 0 0 0.00408745
8 1 0.499986 0.487919 0.310519 0 0 -0.0017128
9 1 0.999986 0.89377 0.185947 0 0 0.00409126
10 1 0.249986 0.987919 0.310519 0 0 -0.00172615
11 1 0.499986 0.89377 0.185947 0 0 0.00409126
12 1 0.749986 0.987919 0.310519 0 0 -0.00172615
13 1 0.999986 0.344976 0.559504 0 0 -0.000513077
14 1 0.499986 0.344976 0.559504 0 0 -0.000513077
15 1 0.249986 0.844974 0.559504 0 0 -0.000495911
16 1 0.749986 0.844974 0.559504 0 0 -0.000495911
17 1 0.249986 0.250805 0.434998 0 0 0.000494003
18 1 0.749986 0.250805 0.434998 0 0 0.000494003
19 1 0.999986 0.750805 0.434997 0 0 0.00050354
20 1 0.499986 0.750805 0.434997 0 0 0.00050354
21 1 0.999986 0.202 0.808555 0 0 -0.00410271
22 1 0.249986 0.107857 0.683982 0 0 0.00173187
23 1 0.499986 0.202 0.808555 0 0 -0.00410271
24 1 0.749986 0.107857 0.683982 0 0 0.00173187
25 1 0.999986 0.607857 0.683982 0 0 0.00172424
26 1 0.249986 0.702 0.808555 0 0 -0.00408173
27 1 0.749986 0.702 0.808555 0 0 -0.00408173
28 1 0.499986 0.607857 0.683982 0 0 0.00172424
29 1 0.249986 0.964957 0.932925 0 0 -0.000637054
30 1 0.749986 0.964957 0.932925 0 0 -0.000637054
31 1 0.999986 0.464958 0.932925 0 0 -0.000644684
32 1 0.499986 0.464958 0.932925 0 0 -0.000644684
ITEM: TIMESTEP
5
ITEM: NUMBER OF ATOMS
32
ITEM: BOX BOUNDS xy xz yz pp pp pp
-4.0532350540161133e-03 6.4008854031562805e+00 0.0000000000000000e+00
-9.1640949249267578e-03 8.7091125249862671e+00 0.0000000000000000e+00
-4.7960281372070312e-02 2.0773346722126007e+01 3.1795172691345215e+00
ITEM: ATOMS id type xs ys zs fx fy fz
1 1 0.999986 0.630798 0.0615993 0 0 0.000497818
2 1 0.499986 0.630798 0.0615993 0 0 0.000497818
3 1 0.249986 0.130798 0.0615992 0 0 0.000501633
4 1 0.749986 0.130798 0.0615992 0 0 0.000501633
5 1 0.999986 0.487925 0.310507 0 0 0.00126839
6 1 0.249986 0.393731 0.186018 0 0 0.000627518
7 1 0.749986 0.393731 0.186018 0 0 0.000627518
8 1 0.499986 0.487925 0.310507 0 0 0.00126839
9 1 0.999986 0.89373 0.186018 0 0 0.000629425
10 1 0.249986 0.987926 0.310507 0 0 0.00126839
11 1 0.499986 0.89373 0.186018 0 0 0.000629425
12 1 0.749986 0.987926 0.310507 0 0 0.00126839
13 1 0.999986 0.344991 0.559479 0 0 0.00162315
14 1 0.499986 0.344991 0.559479 0 0 0.00162315
15 1 0.249986 0.844989 0.559479 0 0 0.00161934
16 1 0.749986 0.844989 0.559479 0 0 0.00161934
17 1 0.249986 0.25079 0.435023 0 0 -0.00162697
18 1 0.749986 0.25079 0.435023 0 0 -0.00162697
19 1 0.999986 0.75079 0.435023 0 0 -0.00163651
20 1 0.499986 0.75079 0.435023 0 0 -0.00163651
21 1 0.999986 0.202041 0.808484 0 0 -0.000623703
22 1 0.249986 0.10785 0.683994 0 0 -0.00125885
23 1 0.499986 0.202041 0.808484 0 0 -0.000623703
24 1 0.749986 0.10785 0.683994 0 0 -0.00125885
25 1 0.999986 0.60785 0.683994 0 0 -0.00126076
26 1 0.249986 0.702041 0.808484 0 0 -0.000637054
27 1 0.749986 0.702041 0.808484 0 0 -0.000637054
28 1 0.499986 0.60785 0.683994 0 0 -0.00126076
29 1 0.249986 0.96497 0.932902 0 0 -0.000501633
30 1 0.749986 0.96497 0.932902 0 0 -0.000501633
31 1 0.999986 0.464971 0.932902 0 0 -0.000490189
32 1 0.499986 0.464971 0.932902 0 0 -0.000490189
ITEM: TIMESTEP
6
ITEM: NUMBER OF ATOMS
32
ITEM: BOX BOUNDS xy xz yz pp pp pp
-4.0532350540161133e-03 6.4008854031562805e+00 0.0000000000000000e+00
-9.1640949249267578e-03 8.7091125249862671e+00 0.0000000000000000e+00
-4.7960281372070312e-02 2.0773346722126007e+01 3.1795172691345215e+00
ITEM: ATOMS id type xs ys zs fx fy fz
1 1 0.999986 0.63079 0.0616125 0 0 8.2016e-05
2 1 0.499986 0.63079 0.0616125 0 0 8.2016e-05
3 1 0.249986 0.130791 0.0616124 0 0 8.2016e-05
4 1 0.749986 0.130791 0.0616124 0 0 8.2016e-05
5 1 0.999986 0.487915 0.310525 0 0 0.000574112
6 1 0.249986 0.393716 0.186045 0 0 -6.48499e-05
7 1 0.749986 0.393716 0.186045 0 0 -6.48499e-05
8 1 0.499986 0.487915 0.310525 0 0 0.000574112
9 1 0.999986 0.893714 0.186044 0 0 -6.86646e-05
10 1 0.249986 0.987916 0.310525 0 0 0.00056839
11 1 0.499986 0.893714 0.186044 0 0 -6.86646e-05
12 1 0.749986 0.987916 0.310525 0 0 0.00056839
13 1 0.999986 0.344979 0.559498 0 0 -0.00031662
14 1 0.499986 0.344979 0.559498 0 0 -0.00031662
15 1 0.249986 0.844978 0.559498 0 0 -0.000326157
16 1 0.749986 0.844978 0.559498 0 0 -0.000326157
17 1 0.249986 0.250802 0.435003 0 0 0.000322342
18 1 0.749986 0.250802 0.435003 0 0 0.000322342
19 1 0.999986 0.750801 0.435003 0 0 0.000335693
20 1 0.499986 0.750801 0.435003 0 0 0.000335693
21 1 0.999986 0.202056 0.808457 0 0 7.24792e-05
22 1 0.249986 0.10786 0.683977 0 0 -0.000581741
23 1 0.499986 0.202056 0.808457 0 0 7.24792e-05
24 1 0.749986 0.10786 0.683977 0 0 -0.000581741
25 1 0.999986 0.60786 0.683977 0 0 -0.000577927
26 1 0.249986 0.702056 0.808457 0 0 6.86646e-05
27 1 0.749986 0.702056 0.808457 0 0 6.86646e-05
28 1 0.499986 0.60786 0.683977 0 0 -0.000577927
29 1 0.249986 0.964977 0.932889 0 0 -8.39233e-05
30 1 0.749986 0.964977 0.932889 0 0 -8.39233e-05
31 1 0.999986 0.464978 0.932889 0 0 -8.58307e-05
32 1 0.499986 0.464978 0.932889 0 0 -8.58307e-05
ITEM: TIMESTEP
7
ITEM: NUMBER OF ATOMS
32
ITEM: BOX BOUNDS xy xz yz pp pp pp
-4.0532350540161133e-03 6.4008854031562805e+00 0.0000000000000000e+00
-9.1640949249267578e-03 8.7091125249862671e+00 0.0000000000000000e+00
-4.7960281372070312e-02 2.0773346722126007e+01 3.1795172691345215e+00
ITEM: ATOMS id type xs ys zs fx fy fz
1 1 0.999986 0.63079 0.0616125 0 0 8.2016e-05
2 1 0.499986 0.63079 0.0616125 0 0 8.2016e-05
3 1 0.249986 0.130791 0.0616124 0 0 8.2016e-05
4 1 0.749986 0.130791 0.0616124 0 0 8.2016e-05
5 1 0.999986 0.487915 0.310525 0 0 0.000574112
6 1 0.249986 0.393716 0.186045 0 0 -6.48499e-05
7 1 0.749986 0.393716 0.186045 0 0 -6.48499e-05
8 1 0.499986 0.487915 0.310525 0 0 0.000574112
9 1 0.999986 0.893714 0.186044 0 0 -6.86646e-05
10 1 0.249986 0.987916 0.310525 0 0 0.00056839
11 1 0.499986 0.893714 0.186044 0 0 -6.86646e-05
12 1 0.749986 0.987916 0.310525 0 0 0.00056839
13 1 0.999986 0.344979 0.559498 0 0 -0.00031662
14 1 0.499986 0.344979 0.559498 0 0 -0.00031662
15 1 0.249986 0.844978 0.559498 0 0 -0.000326157
16 1 0.749986 0.844978 0.559498 0 0 -0.000326157
17 1 0.249986 0.250802 0.435003 0 0 0.000322342
18 1 0.749986 0.250802 0.435003 0 0 0.000322342
19 1 0.999986 0.750801 0.435003 0 0 0.000335693
20 1 0.499986 0.750801 0.435003 0 0 0.000335693
21 1 0.999986 0.202056 0.808457 0 0 7.24792e-05
22 1 0.249986 0.10786 0.683977 0 0 -0.000581741
23 1 0.499986 0.202056 0.808457 0 0 7.24792e-05
24 1 0.749986 0.10786 0.683977 0 0 -0.000581741
25 1 0.999986 0.60786 0.683977 0 0 -0.000577927
26 1 0.249986 0.702056 0.808457 0 0 6.86646e-05
27 1 0.749986 0.702056 0.808457 0 0 6.86646e-05
28 1 0.499986 0.60786 0.683977 0 0 -0.000577927
29 1 0.249986 0.964977 0.932889 0 0 -8.39233e-05
30 1 0.749986 0.964977 0.932889 0 0 -8.39233e-05
31 1 0.999986 0.464978 0.932889 0 0 -8.58307e-05
32 1 0.499986 0.464978 0.932889 0 0 -8.58307e-05
