ITEM: TIMESTEP
0
ITEM: NUMBER OF ATOMS
32
ITEM: BOX BOUNDS xy xz yz pp pp pp
-9.5987319946289062e-04 6.3977920413017273e+00 -0.0000000000000000e+00
-1.0525226593017578e-02 9.9557214975357056e+00 0.0000000000000000e+00
-5.8505058288574219e-02 2.0783891499042511e+01 4.4247651100158691e+00
ITEM: ATOMS id type xs ys zs fx fy fz
1 1 0.999986 0.618957 0.0597507 -2.38419e-06 0 0.0863403
2 1 0.499986 0.618956 0.0597507 2.02656e-06 0 0.0863407
3 1 0.249986 0.118957 0.0597507 0 0 0.0863428
4 1 0.749986 0.118957 0.0597507 -4.76837e-07 0 0.086342
5 1 0.999986 0.419336 0.309751 1.19209e-07 0 0.000153661
6 1 0.249986 0.35248 0.184751 -1.3113e-06 0 -0.00290775
7 1 0.749986 0.35248 0.184751 9.53674e-07 0 -0.00290835
8 1 0.499986 0.419337 0.309751 1.07288e-06 0 0.000154614
9 1 0.999986 0.85248 0.184751 4.76837e-07 0 -0.00290787
10 1 0.249986 0.919337 0.309751 -1.90735e-06 0 0.000151753
11 1 0.499986 0.85248 0.184751 -1.19209e-07 0 -0.00290883
12 1 0.749986 0.919336 0.309751 1.43051e-06 0 0.00015223
13 1 0.999986 0.219716 0.559751 -2.38419e-06 0 5.68628e-05
14 1 0.499986 0.219716 0.559751 2.5034e-06 0 5.6982e-05
15 1 0.249986 0.719716 0.559751 -7.15256e-07 0 5.72205e-05
16 1 0.749986 0.719716 0.559751 8.34465e-07 0 5.78165e-05
17 1 0.249986 0.15286 0.434751 4.76837e-07 0 -5.68628e-05
18 1 0.749986 0.15286 0.434751 -2.38419e-06 0 -5.71012e-05
19 1 0.999986 0.65286 0.434751 9.53674e-07 0 -5.67436e-05
20 1 0.499986 0.65286 0.434751 2.38419e-07 0 -5.6386e-05
21 1 0.999986 0.020096 0.809751 1.19209e-07 0 0.00290728
22 1 0.249986 0.95324 0.684751 2.38419e-07 0 -0.000152826
23 1 0.499986 0.020096 0.809751 -9.53674e-07 0 0.00290787
24 1 0.749986 0.95324 0.684751 4.76837e-07 0 -0.000154495
25 1 0.999986 0.45324 0.684751 -5.96046e-07 0 -0.000153065
26 1 0.249986 0.520096 0.809751 1.19209e-07 0 0.00290823
27 1 0.749986 0.520096 0.809751 2.38419e-07 0 0.00290775
28 1 0.499986 0.45324 0.684751 2.38419e-07 0 -0.000153899
29 1 0.249986 0.753619 0.934751 -3.57628e-07 0 -0.0863422
30 1 0.749986 0.75362 0.934751 7.15256e-07 0 -0.0863384
31 1 0.999986 0.253619 0.934751 -3.57628e-07 0 -0.0863414
32 1 0.499986 0.253619 0.934751 7.15256e-07 0 -0.0863419
ITEM: TIMESTEP
1
ITEM: NUMBER OF ATOMS
32
ITEM: BOX BOUNDS xy xz yz pp pp pp
-9.5987319946289062e-04 6.3977920413017273e+00 -0.0000000000000000e+00
-1.0525226593017578e-02 9.9557214975357056e+00 0.0000000000000000e+00
-5.8505058288574219e-02 2.0783891499042511e+01 4.4247651100158691e+00
ITEM: ATOMS id type xs ys zs fx fy fz
1 1 0.999986 0.618146 0.0607659 3.57628e-07 0 -0.00583017
2 1 0.499986 0.618146 0.0607659 -2.38419e-07 0 -0.00583053
3 1 0.249986 0.118146 0.0607659 1.19209e-07 0 -0.00582957
4 1 0.749986 0.118146 0.060766 -5.96046e-07 0 -0.00582969
5 1 0.999986 0.419335 0.309752 7.15256e-07 0 0.000547051
6 1 0.249986 0.352507 0.184717 1.19209e-07 0 0.0254894
7 1 0.749986 0.352507 0.184717 0 0 0.025489
8 1 0.499986 0.419335 0.309753 -8.34465e-07 0 0.000547051
9 1 0.999986 0.852507 0.184717 1.19209e-07 0 0.0254892
10 1 0.249986 0.919335 0.309753 3.57628e-07 0 0.000546455
11 1 0.499986 0.852507 0.184717 1.19209e-07 0 0.025489
12 1 0.749986 0.919335 0.309753 -2.38419e-07 0 0.000546455
13 1 0.999986 0.219716 0.559751 3.57628e-07 0 0.000104427
14 1 0.499986 0.219716 0.559751 -7.15256e-07 0 0.000104547
15 1 0.249986 0.719716 0.559751 7.15256e-07 0 0.000105023
16 1 0.749986 0.719716 0.559751 -3.57628e-07 0 0.000104666
17 1 0.249986 0.15286 0.43475 -1.19209e-07 0 -0.000104427
18 1 0.749986 0.15286 0.43475 1.19209e-07 0 -0.000104547
19 1 0.999986 0.65286 0.43475 -2.38419e-07 0 -0.000104547
20 1 0.499986 0.65286 0.43475 1.19209e-07 0 -0.000104547
21 1 0.999986 0.0200687 0.809785 -4.76837e-07 0 -0.0254896
22 1 0.249986 0.953241 0.684749 1.19209e-07 0 -0.000546217
23 1 0.499986 0.0200687 0.809785 1.19209e-07 0 -0.025489
24 1 0.749986 0.953241 0.684749 -2.38419e-07 0 -0.000546694
25 1 0.999986 0.453241 0.684749 0 0 -0.000546813
26 1 0.249986 0.520069 0.809785 1.19209e-07 0 -0.0254894
27 1 0.749986 0.520069 0.809785 1.19209e-07 0 -0.0254894
28 1 0.499986 0.453241 0.684749 2.38419e-07 0 -0.000547171
29 1 0.249986 0.75443 0.933735 -2.38419e-07 0 0.00583017
30 1 0.749986 0.75443 0.933735 1.19209e-07 0 0.00583029
31 1 0.999986 0.25443 0.933735 0 0 0.00583005
32 1 0.499986 0.25443 0.933735 2.38419e-07 0 0.00582957
ITEM: TIMESTEP
2
ITEM: NUMBER OF ATOMS
32
ITEM: BOX BOUNDS xy xz yz pp pp pp
-9.5987319946289062e-04 6.3977920413017273e+00 -0.0000000000000000e+00
-1.0525226593017578e-02 9.9557214975357056e+00 0.0000000000000000e+00
-5.8505058288574219e-02 2.0783891499042511e+01 4.4247651100158691e+00
ITEM: ATOMS id type xs ys zs fx fy fz
1 1 0.999986 0.618002 0.0609464 7.15256e-07 0 -0.00759649
2 1 0.499986 0.618002 0.0609464 -9.53674e-07 0 -0.00759625
3 1 0.249986 0.118002 0.0609464 -2.38419e-07 0 -0.00759768
4 1 0.749986 0.118002 0.0609464 4.76837e-07 0 -0.00759697
5 1 0.999986 0.419326 0.309764 -5.96046e-07 0 0.0133159
6 1 0.249986 0.352096 0.185231 0 0 0.00245798
7 1 0.749986 0.352096 0.185231 -3.57628e-07 0 0.00245857
8 1 0.499986 0.419326 0.309764 5.96046e-07 0 0.0133153
9 1 0.999986 0.852096 0.185231 0 0 0.0024581
10 1 0.249986 0.919326 0.309764 3.57628e-07 0 0.0133157
11 1 0.499986 0.852096 0.185231 1.19209e-07 0 0.00245845
12 1 0.749986 0.919326 0.309764 0 0 0.0133156
13 1 0.999986 0.219714 0.559754 2.38419e-07 0 -0.00100827
14 1 0.499986 0.219714 0.559754 0 0 -0.0010078
15 1 0.249986 0.719714 0.559754 -3.57628e-07 0 -0.00100851
16 1 0.749986 0.719714 0.559754 2.38419e-07 0 -0.00100899
17 1 0.249986 0.152862 0.434748 1.19209e-07 0 0.00100887
18 1 0.749986 0.152862 0.434748 1.19209e-07 0 0.00100815
19 1 0.999986 0.652862 0.434748 -2.38419e-07 0 0.00100827
20 1 0.499986 0.652862 0.434748 -1.19209e-07 0 0.00100827
21 1 0.999986 0.0204798 0.80927 0 0 -0.0024575
22 1 0.249986 0.95325 0.684737 -4.76837e-07 0 -0.0133164
23 1 0.499986 0.0204797 0.80927 2.38419e-07 0 -0.00245786
24 1 0.749986 0.95325 0.684737 0 0 -0.0133159
25 1 0.999986 0.45325 0.684737 0 0 -0.0133159
26 1 0.249986 0.52048 0.80927 0 0 -0.00245798
27 1 0.749986 0.52048 0.80927 -1.19209e-07 0 -0.00245774
28 1 0.499986 0.45325 0.684737 3.57628e-07 0 -0.0133154
29 1 0.249986 0.754574 0.933555 2.38419e-07 0 0.00759649
30 1 0.749986 0.754574 0.933555 -3.57628e-07 0 0.00759554
31 1 0.999986 0.254574 0.933555 2.38419e-07 0 0.00759697
32 1 0.499986 0.254574 0.933555 -2.38419e-07 0 0.00759757
ITEM: TIMESTEP
3
ITEM: NUMBER OF ATOMS
32
ITEM: BOX BOUNDS xy xz yz pp pp pp
-9.5987319946289062e-04 6.3977920413017273e+00 -0.0000000000000000e+00
-1.0525226593017578e-02 9.9557214975357056e+00 0.0000000000000000e+00
-5.8505058288574219e-02 2.0783891499042511e+01 4.4247651100158691e+00
ITEM: ATOMS id type xs ys zs fx fy fz
1 1 0.999986 0.618095 0.0608302 -1.19209e-06 0 0.00632501
2 1 0.499986 0.618095 0.0608302 9.53674e-07 0 0.00632501
3 1 0.249986 0.118095 0.0608302 1.19209e-07 0 0.00632501
4 1 0.749986 0.118095 0.0608302 -1.19209e-07 0 0.00632489
5 1 0.999986 0.419117 0.310026 1.19209e-07 0 0.00309694
6 1 0.249986 0.351985 0.18537 3.57628e-07 0 -0.00137269
7 1 0.749986 0.351985 0.18537 2.38419e-07 0 -0.00137281
8 1 0.499986 0.419117 0.310026 -2.38419e-07 0 0.00309646
9 1 0.999986 0.851985 0.18537 -1.19209e-07 0 -0.00137269
10 1 0.249986 0.919117 0.310026 -1.19209e-07 0 0.00309694
11 1 0.499986 0.851985 0.18537 0 0 -0.00137317
12 1 0.749986 0.919117 0.310026 -1.19209e-07 0 0.00309682
13 1 0.999986 0.219729 0.559734 3.57628e-07 0 -0.00606227
14 1 0.499986 0.219729 0.559734 0 0 -0.00606251
15 1 0.249986 0.719729 0.559734 -2.38419e-07 0 -0.00606251
16 1 0.749986 0.719729 0.559734 0 0 -0.00606227
17 1 0.249986 0.152847 0.434767 0 0 0.00606179
18 1 0.749986 0.152847 0.434767 3.57628e-07 0 0.00606239
19 1 0.999986 0.652847 0.434767 2.38419e-07 0 0.00606215
20 1 0.499986 0.652847 0.434767 -4.76837e-07 0 0.00606251
21 1 0.999986 0.0205909 0.809131 3.57628e-07 0 0.00137246
22 1 0.249986 0.95346 0.684475 -3.57628e-07 0 -0.00309622
23 1 0.499986 0.0205909 0.809131 -3.57628e-07 0 0.0013721
24 1 0.749986 0.953459 0.684475 0 0 -0.00309646
25 1 0.999986 0.45346 0.684475 7.15256e-07 0 -0.00309634
26 1 0.249986 0.520591 0.809131 -1.19209e-07 0 0.00137269
27 1 0.749986 0.520591 0.809131 1.19209e-07 0 0.00137293
28 1 0.499986 0.453459 0.684475 -3.57628e-07 0 -0.00309622
29 1 0.249986 0.754481 0.933671 -1.19209e-07 0 -0.00632524
30 1 0.749986 0.754482 0.933671 1.19209e-07 0 -0.00632453
31 1 0.999986 0.254481 0.933671 -1.19209e-07 0 -0.00632489
32 1 0.499986 0.254481 0.933671 0 0 -0.00632524
ITEM: TIMESTEP
4
ITEM: NUMBER OF ATOMS
32
ITEM: BOX BOUNDS xy xz yz pp pp pp
-9.5987319946289062e-04 6.3977920413017273e+00 -0.0000000000000000e+00
-1.0525226593017578e-02 9.9557214975357056e+00 0.0000000000000000e+00
-5.8505058288574219e-02 2.0783891499042511e+01 4.4247651100158691e+00
ITEM: ATOMS id type xs ys zs fx fy fz
1 1 0.999986 0.618036 0.0609034 1.19209e-07 0 0.00091958
2 1 0.499986 0.618036 0.0609034 0 0 0.00091958
3 1 0.249986 0.118036 0.0609034 0 0 0.000920534
4 1 0.749986 0.118036 0.0609034 -1.19209e-07 0 0.000920057
5 1 0.999986 0.418998 0.310174 0 0 -0.00133181
6 1 0.249986 0.351966 0.185395 0 0 0.00318813
7 1 0.749986 0.351966 0.185395 0 0 0.00318801
8 1 0.499986 0.418998 0.310174 2.38419e-07 0 -0.00133133
9 1 0.999986 0.851966 0.185395 2.38419e-07 0 0.00318766
10 1 0.249986 0.918998 0.310174 -4.76837e-07 0 -0.00133169
11 1 0.499986 0.851966 0.185395 -2.38419e-07 0 0.00318754
12 1 0.749986 0.918998 0.310174 0 0 -0.00133145
13 1 0.999986 0.219822 0.559618 -3.57628e-07 0 -0.00048542
14 1 0.499986 0.219822 0.559618 -1.19209e-07 0 -0.000485659
15 1 0.249986 0.719822 0.559618 5.96046e-07 0 -0.000484824
16 1 0.749986 0.719822 0.559618 -2.38419e-07 0 -0.000484586
17 1 0.249986 0.152754 0.434883 0 0 0.000485301
18 1 0.749986 0.152754 0.434883 0 0 0.000485301
19 1 0.999986 0.652754 0.434883 2.38419e-07 0 0.000485182
20 1 0.499986 0.652754 0.434883 3.57628e-07 0 0.000485063
21 1 0.999986 0.0206103 0.809107 -2.38419e-07 0 -0.00318801
22 1 0.249986 0.953578 0.684327 5.96046e-07 0 0.00133169
23 1 0.499986 0.0206103 0.809107 2.38419e-07 0 -0.00318813
24 1 0.749986 0.953578 0.684327 -1.19209e-07 0 0.00133121
25 1 0.999986 0.453578 0.684327 -5.96046e-07 0 0.00133145
26 1 0.249986 0.52061 0.809107 0 0 -0.00318778
27 1 0.749986 0.52061 0.809107 1.19209e-07 0 -0.00318789
28 1 0.499986 0.453578 0.684327 -2.38419e-07 0 0.00133133
29 1 0.249986 0.75454 0.933598 0 0 -0.000919461
30 1 0.749986 0.75454 0.933598 0 0 -0.000919342
31 1 0.999986 0.25454 0.933598 -2.38419e-07 0 -0.000920057
32 1 0.499986 0.25454 0.933598 2.38419e-07 0 -0.000920177
ITEM: TIMESTEP
5
ITEM: NUMBER OF ATOMS
32
ITEM: BOX BOUNDS xy xz yz pp pp pp
-9.5987319946289062e-04 6.3977920413017273e+00 -0.0000000000000000e+00
-1.0525226593017578e-02 9.9557214975357056e+00 0.0000000000000000e+00
-5.8505058288574219e-02 2.0783891499042511e+01 4.4247651100158691e+00
ITEM: ATOMS id type xs ys zs fx fy fz
1 1 0.999986 0.618015 0.0609303 4.76837e-07 0 0.000210881
2 1 0.499986 0.618015 0.0609303 -2.38419e-07 0 0.000210762
3 1 0.249986 0.118015 0.0609303 -4.76837e-07 0 0.000210404
4 1 0.749986 0.118015 0.0609303 3.57628e-07 0 0.000210047
5 1 0.999986 0.419 0.310172 0 0 0.00101304
6 1 0.249986 0.351917 0.185455 -4.76837e-07 0 0.00058794
7 1 0.749986 0.351918 0.185455 -1.19209e-07 0 0.00058794
8 1 0.499986 0.419 0.310172 -3.57628e-07 0 0.0010134
9 1 0.999986 0.851917 0.185455 -4.76837e-07 0 0.000588059
10 1 0.249986 0.919 0.310172 2.38419e-07 0 0.00101364
11 1 0.499986 0.851917 0.185455 7.15256e-07 0 0.000588298
12 1 0.749986 0.919 0.310172 5.96046e-07 0 0.00101316
13 1 0.999986 0.219842 0.559593 0 0 0.00151718
14 1 0.499986 0.219842 0.559593 4.76837e-07 0 0.00151706
15 1 0.249986 0.719842 0.559593 -5.96046e-07 0 0.00151682
16 1 0.749986 0.719842 0.559593 2.38419e-07 0 0.00151682
17 1 0.249986 0.152734 0.434908 -1.19209e-07 0 -0.0015173
18 1 0.749986 0.152734 0.434908 0 0 -0.00151706
19 1 0.999986 0.652734 0.434908 -5.96046e-07 0 -0.00151694
20 1 0.499986 0.652734 0.434908 2.38419e-07 0 -0.00151753
21 1 0.999986 0.0206585 0.809046 -1.19209e-07 0 -0.000588298
22 1 0.249986 0.953576 0.68433 1.19209e-07 0 -0.00101328
23 1 0.499986 0.0206585 0.809046 1.19209e-07 0 -0.00058794
24 1 0.749986 0.953576 0.68433 1.19209e-07 0 -0.00101304
25 1 0.999986 0.453576 0.68433 -1.19209e-07 0 -0.00101292
26 1 0.249986 0.520659 0.809046 0 0 -0.000587821
27 1 0.749986 0.520659 0.809046 0 0 -0.000588655
28 1 0.499986 0.453576 0.68433 0 0 -0.00101292
29 1 0.249986 0.754561 0.933571 -2.38419e-07 0 -0.000210643
30 1 0.749986 0.754561 0.933571 4.76837e-07 0 -0.000210285
31 1 0.999986 0.254561 0.933571 0 0 -0.000210524
32 1 0.499986 0.254561 0.933571 -2.38419e-07 0 -0.000210285
ITEM: TIMESTEP
6
ITEM: NUMBER OF ATOMS
32
ITEM: BOX BOUNDS xy xz yz pp pp pp
-9.5987319946289062e-04 6.3977920413017273e+00 -0.0000000000000000e+00
-1.0525226593017578e-02 9.9557214975357056e+00 0.0000000000000000e+00
-5.8505058288574219e-02 2.0783891499042511e+01 4.4247651100158691e+00
ITEM: ATOMS id type xs ys zs fx fy fz
1 1 0.999986 0.618007 0.0609402 0 0 2.07424e-05
2 1 0.499986 0.618007 0.0609402 1.19209e-07 0 2.06232e-05
3 1 0.249986 0.118007 0.0609402 5.96046e-07 0 2.01464e-05
4 1 0.749986 0.118007 0.0609402 -3.57628e-07 0 2.07424e-05
5 1 0.999986 0.418988 0.310187 -3.57628e-07 0 0.000416756
6 1 0.249986 0.351898 0.185479 2.38419e-07 0 -9.14335e-05
7 1 0.749986 0.351898 0.185479 -1.19209e-07 0 -9.16719e-05
8 1 0.499986 0.418988 0.310187 0 0 0.000416636
9 1 0.999986 0.851898 0.185479 3.57628e-07 0 -9.10759e-05
10 1 0.249986 0.918988 0.310187 4.76837e-07 0 0.000416517
11 1 0.499986 0.851898 0.185479 -2.38419e-07 0 -9.11951e-05
12 1 0.749986 0.918988 0.310187 -5.96046e-07 0 0.000416875
13 1 0.999986 0.219829 0.55961 4.76837e-07 0 -0.000247836
14 1 0.499986 0.219829 0.55961 -2.38419e-07 0 -0.000247478
15 1 0.249986 0.719829 0.55961 3.57628e-07 0 -0.000247598
16 1 0.749986 0.719829 0.55961 -4.76837e-07 0 -0.000247598
17 1 0.249986 0.152748 0.434891 3.57628e-07 0 0.000247836
18 1 0.749986 0.152748 0.434891 -2.38419e-07 0 0.000247478
19 1 0.999986 0.652748 0.434891 1.19209e-07 0 0.000248075
20 1 0.499986 0.652748 0.434891 -3.57628e-07 0 0.000247717
21 1 0.999986 0.0206777 0.809022 4.76837e-07 0 9.17912e-05
22 1 0.249986 0.953588 0.684315 -4.76837e-07 0 -0.000416994
23 1 0.499986 0.0206777 0.809022 -1.19209e-07 0 9.19104e-05
24 1 0.749986 0.953588 0.684315 3.57628e-07 0 -0.000416875
25 1 0.999986 0.453588 0.684315 3.57628e-07 0 -0.000417233
26 1 0.249986 0.520678 0.809022 1.19209e-07 0 9.14335e-05
27 1 0.749986 0.520678 0.809022 -5.96046e-07 0 9.17912e-05
28 1 0.499986 0.453588 0.684315 0 0 -0.000417352
29 1 0.249986 0.754569 0.933561 1.19209e-07 0 -2.07424e-05
30 1 0.749986 0.754569 0.933561 -2.38419e-07 0 -2.08616e-05
31 1 0.999986 0.254569 0.933561 2.38419e-07 0 -2.07424e-05
32 1 0.499986 0.254569 0.933561 -3.57628e-07 0 -2.03848e-05
ITEM: TIMESTEP
7
ITEM: NUMBER OF ATOMS
32
ITEM: BOX BOUNDS xy xz yz pp pp pp
-9.5987319946289062e-04 6.3977920413017273e+00 -0.0000000000000000e+00
-1.0525226593017578e-02 9.9557214975357056e+00 0.0000000000000000e+00
-5.8505058288574219e-02 2.0783891499042511e+01 4.4247651100158691e+00
ITEM: ATOMS id type xs ys zs fx fy fz
1 1 0.999986 0.618006 0.0609416 -2.38419e-07 0 -7.86781e-05
2 1 0.499986 0.618006 0.0609416 1.19209e-07 0 -7.85589e-05
3 1 0.249986 0.118006 0.0609416 -3.57628e-07 0 -7.82013e-05
4 1 0.749986 0.118006 0.0609416 7.15256e-07 0 -7.89165e-05
5 1 0.999986 0.41898 0.310198 1.19209e-07 0 -6.69956e-05
6 1 0.249986 0.351898 0.185479 -1.19209e-07 0 0.000216603
7 1 0.749986 0.351898 0.185479 3.57628e-07 0 0.000216842
8 1 0.499986 0.41898 0.310198 0 0 -6.7234e-05
9 1 0.999986 0.851898 0.185479 -2.38419e-07 0 0.000216246
10 1 0.249986 0.91898 0.310198 -2.38419e-07 0 -6.68764e-05
11 1 0.499986 0.851898 0.185479 -2.38419e-07 0 0.000216603
12 1 0.749986 0.91898 0.310198 1.19209e-07 0 -6.68764e-05
13 1 0.999986 0.219832 0.559606 -5.96046e-07 0 -0.000201225
14 1 0.499986 0.219832 0.559606 3.57628e-07 0 -0.000201702
15 1 0.249986 0.719832 0.559606 -2.38419e-07 0 -0.000201344
16 1 0.749986 0.719832 0.559606 4.76837e-07 0 -0.000201821
17 1 0.249986 0.152744 0.434895 -2.38419e-07 0 0.000200987
18 1 0.749986 0.152744 0.434895 1.19209e-07 0 0.000201821
19 1 0.999986 0.652744 0.434895 -3.57628e-07 0 0.000200868
20 1 0.499986 0.652744 0.434895 4.76837e-07 0 0.000201702
21 1 0.999986 0.0206779 0.809022 -2.38419e-07 0 -0.000216961
22 1 0.249986 0.953597 0.684304 2.38419e-07 0 6.73532e-05
23 1 0.499986 0.0206779 0.809022 1.19209e-07 0 -0.00021708
24 1 0.749986 0.953597 0.684304 -3.57628e-07 0 6.75917e-05
25 1 0.999986 0.453597 0.684304 -3.57628e-07 0 6.73532e-05
26 1 0.249986 0.520678 0.809022 -2.38419e-07 0 -0.00021708
27 1 0.749986 0.520678 0.809022 5.96046e-07 0 -0.000217319
28 1 0.499986 0.453596 0.684304 3.57628e-07 0 6.80685e-05
29 1 0.249986 0.75457 0.93356 0 0 7.90358e-05
30 1 0.749986 0.75457 0.93356 0 0 7.85589e-05
31 1 0.999986 0.25457 0.93356 -2.38419e-07 0 7.89165e-05
32 1 0.499986 0.25457 0.93356 1.19209e-07 0 7.83205e-05
ITEM: TIMESTEP
8
ITEM: NUMBER OF ATOMS
32
ITEM: BOX BOUNDS xy xz yz pp pp pp
-9.5987319946289062e-04 6.3977920413017273e+00 -0.0000000000000000e+00
-1.0525226593017578e-02 9.9557214975357056e+00 0.0000000000000000e+00
-5.8505058288574219e-02 2.0783891499042511e+01 4.4247651100158691e+00
ITEM: ATOMS id type xs ys zs fx fy fz
1 1 0.999986 0.618006 0.0609409 -1.19209e-07 0 6.74725e-05
2 1 0.499986 0.618006 0.0609409 0 0 6.77109e-05
3 1 0.249986 0.118006 0.0609409 -2.38419e-07 0 6.78301e-05
4 1 0.749986 0.118006 0.0609409 -4.76837e-07 0 6.77109e-05
5 1 0.999986 0.418978 0.310199 5.96046e-07 0 1.04904e-05
6 1 0.249986 0.351896 0.185483 -4.76837e-07 0 8.01086e-05
7 1 0.749986 0.351896 0.185483 1.19209e-07 0 8.02279e-05
8 1 0.499986 0.418978 0.310199 -1.19209e-07 0 1.0252e-05
9 1 0.999986 0.851895 0.185483 -2.38419e-07 0 7.96318e-05
10 1 0.249986 0.918978 0.310199 -3.57628e-07 0 1.01328e-05
11 1 0.499986 0.851895 0.185483 5.96046e-07 0 7.95126e-05
12 1 0.749986 0.918978 0.310199 1.19209e-07 0 1.00136e-05
13 1 0.999986 0.219835 0.559602 1.19209e-07 0 5.78165e-05
14 1 0.499986 0.219835 0.559602 -3.57628e-07 0 5.79357e-05
15 1 0.249986 0.719835 0.559602 -1.19209e-07 0 5.79357e-05
16 1 0.749986 0.719835 0.559602 3.57628e-07 0 5.79357e-05
17 1 0.249986 0.152741 0.434899 -5.96046e-07 0 -5.80549e-05
18 1 0.749986 0.152741 0.434899 0 0 -5.78165e-05
19 1 0.999986 0.652741 0.434899 7.15256e-07 0 -5.79357e-05
20 1 0.499986 0.652741 0.434899 -2.38419e-07 0 -5.80549e-05
21 1 0.999986 0.0206804 0.809019 0 0 -7.98702e-05
22 1 0.249986 0.953598 0.684302 2.38419e-07 0 -1.0252e-05
23 1 0.499986 0.0206804 0.809019 0 0 -7.99894e-05
24 1 0.749986 0.953598 0.684302 -2.38419e-07 0 -1.06096e-05
25 1 0.999986 0.453598 0.684302 2.38419e-07 0 -1.0252e-05
26 1 0.249986 0.52068 0.809019 0 0 -7.96318e-05
27 1 0.749986 0.520681 0.809019 1.19209e-07 0 -7.96318e-05
28 1 0.499986 0.453598 0.684302 -2.38419e-07 0 -1.0252e-05
29 1 0.249986 0.75457 0.933561 0 0 -6.74725e-05
30 1 0.749986 0.75457 0.933561 0 0 -6.74725e-05
31 1 0.999986 0.25457 0.933561 2.38419e-07 0 -6.75917e-05
32 1 0.499986 0.25457 0.933561 3.57628e-07 0 -6.78301e-05
ITEM: TIMESTEP
9
ITEM: NUMBER OF ATOMS
32
ITEM: BOX BOUNDS xy xz yz pp pp pp
-9.5987319946289062e-04 6.3977920413017273e+00 -0.0000000000000000e+00
-1.0525226593017578e-02 9.9557214975357056e+00 0.0000000000000000e+00
-5.8505058288574219e-02 2.0783891499042511e+01 4.4247651100158691e+00
ITEM: ATOMS id type xs ys zs fx fy fz
1 1 0.999986 0.618005 0.0609424 1.19209e-07 0 1.64509e-05
2 1 0.499986 0.618005 0.0609424 -4.76837e-07 0 1.63317e-05
3 1 0.249986 0.118005 0.0609424 1.19209e-07 0 1.60933e-05
4 1 0.749986 0.118005 0.0609424 2.38419e-07 0 1.5974e-05
5 1 0.999986 0.418978 0.3102 -3.57628e-07 0 3.37362e-05
6 1 0.249986 0.351893 0.185485 8.34465e-07 0 -1.77622e-05
7 1 0.749986 0.351893 0.185485 -4.76837e-07 0 -1.77622e-05
8 1 0.499986 0.418978 0.3102 2.38419e-07 0 3.43323e-05
9 1 0.999986 0.851893 0.185485 2.38419e-07 0 -1.72853e-05
10 1 0.249986 0.918978 0.3102 0 0 3.37362e-05
11 1 0.499986 0.851893 0.185485 -7.15256e-07 0 -1.71661e-05
12 1 0.749986 0.918978 0.3102 0 0 3.39746e-05
13 1 0.999986 0.219834 0.559603 -4.76837e-07 0 1.19209e-07
14 1 0.499986 0.219834 0.559603 4.76837e-07 0 -1.19209e-07
15 1 0.249986 0.719834 0.559603 2.38419e-07 0 1.19209e-07
16 1 0.749986 0.719834 0.559603 -2.38419e-07 0 1.19209e-07
17 1 0.249986 0.152742 0.434899 4.76837e-07 0 1.19209e-07
18 1 0.749986 0.152742 0.434899 -2.38419e-07 0 -3.57628e-07
19 1 0.999986 0.652742 0.434899 -4.76837e-07 0 0
20 1 0.499986 0.652742 0.434899 2.38419e-07 0 -1.19209e-07
21 1 0.999986 0.0206827 0.809016 -2.38419e-07 0 1.74046e-05
22 1 0.249986 0.953599 0.684301 2.38419e-07 0 -3.38554e-05
23 1 0.499986 0.0206827 0.809016 1.19209e-07 0 1.75238e-05
24 1 0.749986 0.953599 0.684301 1.19209e-07 0 -3.34978e-05
25 1 0.999986 0.453599 0.684301 -1.19209e-07 0 -3.38554e-05
26 1 0.249986 0.520683 0.809016 0 0 1.7643e-05
27 1 0.749986 0.520683 0.809016 0 0 1.75238e-05
28 1 0.499986 0.453598 0.684301 0 0 -3.43323e-05
29 1 0.249986 0.754571 0.933559 3.57628e-07 0 -1.63317e-05
30 1 0.749986 0.754571 0.933559 1.19209e-07 0 -1.64509e-05
31 1 0.999986 0.254571 0.933559 -2.38419e-07 0 -1.62125e-05
32 1 0.499986 0.254571 0.933559 -1.19209e-07 0 -1.60933e-05
ITEM: TIMESTEP
10
ITEM: NUMBER OF ATOMS
32
ITEM: BOX BOUNDS xy xz yz pp pp pp
-9.5987319946289062e-04 6.3977920413017273e+00 -0.0000000000000000e+00
-1.0525226593017578e-02 9.9557214975357056e+00 0.0000000000000000e+00
-5.8505058288574219e-02 2.0783891499042511e+01 4.4247651100158691e+00
ITEM: ATOMS id type xs ys zs fx fy fz
1 1 0.999986 0.618005 0.0609427 1.19209e-07 0 -1.01328e-05
2 1 0.499986 0.618005 0.0609427 -1.19209e-07 0 -1.01328e-05
3 1 0.249986 0.118005 0.0609427 0 0 -1.0252e-05
4 1 0.749986 0.118005 0.0609427 1.19209e-07 0 -1.00136e-05
5 1 0.999986 0.418977 0.310201 -2.38419e-07 0 7.15256e-06
6 1 0.249986 0.351893 0.185485 -2.38419e-07 0 5.48363e-06
7 1 0.749986 0.351893 0.185485 0 0 5.48363e-06
8 1 0.499986 0.418977 0.310201 2.38419e-07 0 7.51019e-06
9 1 0.999986 0.851893 0.185485 0 0 5.60284e-06
10 1 0.249986 0.918977 0.310201 0 0 7.62939e-06
11 1 0.499986 0.851893 0.185485 0 0 5.60284e-06
12 1 0.749986 0.918977 0.310201 1.19209e-07 0 7.62939e-06
13 1 0.999986 0.219834 0.559603 1.19209e-07 0 -1.38283e-05
14 1 0.499986 0.219834 0.559603 0 0 -1.38283e-05
15 1 0.249986 0.719834 0.559603 -3.57628e-07 0 -1.40667e-05
16 1 0.749986 0.719834 0.559603 -1.19209e-07 0 -1.38283e-05
17 1 0.249986 0.152742 0.434899 2.38419e-07 0 1.43051e-05
18 1 0.749986 0.152742 0.434899 2.38419e-07 0 1.39475e-05
19 1 0.999986 0.652742 0.434899 -2.38419e-07 0 1.38283e-05
20 1 0.499986 0.652742 0.434899 0 0 1.40667e-05
21 1 0.999986 0.0206827 0.809016 -1.19209e-07 0 -5.60284e-06
22 1 0.249986 0.953599 0.684301 -3.57628e-07 0 -7.51019e-06
23 1 0.499986 0.0206826 0.809016 0 0 -5.60284e-06
24 1 0.749986 0.953599 0.684301 3.57628e-07 0 -7.62939e-06
25 1 0.999986 0.453599 0.684301 -1.19209e-07 0 -7.62939e-06
26 1 0.249986 0.520683 0.809016 1.19209e-07 0 -5.84126e-06
27 1 0.749986 0.520683 0.809016 -1.19209e-07 0 -5.48363e-06
28 1 0.499986 0.453599 0.684301 3.57628e-07 0 -7.39098e-06
29 1 0.249986 0.754571 0.933559 -1.19209e-07 0 1.01328e-05
30 1 0.749986 0.754571 0.933559 1.19209e-07 0 1.00136e-05
31 1 0.999986 0.254571 0.933559 -1.19209e-07 0 1.00136e-05
32 1 0.499986 0.254571 0.933559 1.19209e-07 0 1.03712e-05
ITEM: TIMESTEP
11
ITEM: NUMBER OF ATOMS
32
ITEM: BOX BOUNDS xy xz yz pp pp pp
-9.5987319946289062e-04 6.3977920413017273e+00 -0.0000000000000000e+00
-1.0525226593017578e-02 9.9557214975357056e+00 0.0000000000000000e+00
-5.8505058288574219e-02 2.0783891499042511e+01 4.4247651100158691e+00
ITEM: ATOMS id type xs ys zs fx fy fz
1 1 0.999986 0.618005 0.0609426 -2.38419e-07 0 1.66893e-06
2 1 0.499986 0.618005 0.0609426 2.38419e-07 0 1.19209e-06
3 1 0.249986 0.118005 0.0609426 1.19209e-07 0 1.3113e-06
4 1 0.749986 0.118005 0.0609426 0 0 1.78814e-06
5 1 0.999986 0.418977 0.310201 3.57628e-07 0 2.38419e-07
6 1 0.249986 0.351893 0.185486 -2.38419e-07 0 6.07967e-06
7 1 0.749986 0.351893 0.185485 2.38419e-07 0 5.84126e-06
8 1 0.499986 0.418977 0.310201 -3.57628e-07 0 -1.19209e-07
9 1 0.999986 0.851893 0.185485 -2.38419e-07 0 6.31809e-06
10 1 0.249986 0.918977 0.310201 0 0 1.19209e-07
11 1 0.499986 0.851893 0.185485 2.38419e-07 0 6.55651e-06
12 1 0.749986 0.918977 0.310201 -1.19209e-07 0 1.19209e-07
13 1 0.999986 0.219835 0.559603 4.76837e-07 0 1.78814e-06
14 1 0.499986 0.219835 0.559603 -7.15256e-07 0 1.66893e-06
15 1 0.249986 0.719835 0.559603 7.15256e-07 0 1.43051e-06
16 1 0.749986 0.719835 0.559603 -2.38419e-07 0 1.3113e-06
17 1 0.249986 0.152741 0.434899 -5.96046e-07 0 -2.02656e-06
18 1 0.749986 0.152742 0.434899 2.38419e-07 0 -1.43051e-06
19 1 0.999986 0.652742 0.434899 3.57628e-07 0 -1.43051e-06
20 1 0.499986 0.652742 0.434899 0 0 -1.54972e-06
21 1 0.999986 0.0206827 0.809016 3.57628e-07 0 -6.07967e-06
22 1 0.249986 0.953599 0.6843 4.76837e-07 0 -1.19209e-07
23 1 0.499986 0.0206827 0.809016 -2.38419e-07 0 -5.84126e-06
24 1 0.749986 0.953599 0.6843 -2.38419e-07 0 -1.19209e-07
25 1 0.999986 0.453599 0.6843 -3.57628e-07 0 2.38419e-07
26 1 0.249986 0.520683 0.809016 -3.57628e-07 0 -6.31809e-06
27 1 0.749986 0.520683 0.809016 3.57628e-07 0 -6.55651e-06
28 1 0.499986 0.453599 0.6843 -1.19209e-07 0 1.19209e-07
29 1 0.249986 0.754571 0.933559 -1.19209e-07 0 -1.66893e-06
30 1 0.749986 0.754571 0.933559 0 0 -1.54972e-06
31 1 0.999986 0.254571 0.933559 2.38419e-07 0 -1.3113e-06
32 1 0.499986 0.254571 0.933559 -2.38419e-07 0 -1.66893e-06
ITEM: TIMESTEP
12
ITEM: NUMBER OF ATOMS
32
ITEM: BOX BOUNDS xy xz yz pp pp pp
-9.5987319946289062e-04 6.3977920413017273e+00 -0.0000000000000000e+00
-1.0525226593017578e-02 9.9557214975357056e+00 0.0000000000000000e+00
-5.8505058288574219e-02 2.0783891499042511e+01 4.4247651100158691e+00
ITEM: ATOMS id type xs ys zs fx fy fz
1 1 0.999986 0.618005 0.0609426 -2.38419e-07 0 4.52995e-06
2 1 0.499986 0.618005 0.0609426 -1.19209e-07 0 4.88758e-06
3 1 0.249986 0.118005 0.0609426 0 0 5.36442e-06
4 1 0.749986 0.118005 0.0609426 4.76837e-07 0 4.29153e-06
5 1 0.999986 0.418977 0.310201 -2.38419e-07 0 1.43051e-06
6 1 0.249986 0.351893 0.185486 2.38419e-07 0 -1.07288e-06
7 1 0.749986 0.351893 0.185486 -4.76837e-07 0 -5.96046e-07
8 1 0.499986 0.418977 0.310201 2.38419e-07 0 1.3113e-06
9 1 0.999986 0.851893 0.185486 4.76837e-07 0 -1.43051e-06
10 1 0.249986 0.918977 0.310201 1.19209e-07 0 1.19209e-06
11 1 0.499986 0.851893 0.185486 -3.57628e-07 0 -1.54972e-06
12 1 0.749986 0.918977 0.310201 1.19209e-07 0 9.53674e-07
13 1 0.999986 0.219835 0.559603 -3.57628e-07 0 2.38419e-07
14 1 0.499986 0.219835 0.559603 8.34465e-07 0 -4.76837e-07
15 1 0.249986 0.719835 0.559603 -9.53674e-07 0 8.34465e-07
16 1 0.749986 0.719835 0.559603 5.96046e-07 0 8.34465e-07
17 1 0.249986 0.152741 0.434899 2.38419e-07 0 0
18 1 0.749986 0.152742 0.434899 -2.38419e-07 0 -7.15256e-07
19 1 0.999986 0.652742 0.434899 -3.57628e-07 0 -3.57628e-07
20 1 0.499986 0.652742 0.434899 1.19209e-07 0 -2.38419e-07
21 1 0.999986 0.0206829 0.809016 -3.57628e-07 0 9.53674e-07
22 1 0.249986 0.953599 0.6843 -3.57628e-07 0 -1.07288e-06
23 1 0.499986 0.0206828 0.809016 4.76837e-07 0 8.34465e-07
24 1 0.749986 0.953599 0.6843 1.19209e-07 0 -1.07288e-06
25 1 0.999986 0.453599 0.6843 4.76837e-07 0 -1.3113e-06
26 1 0.249986 0.520683 0.809016 4.76837e-07 0 1.3113e-06
27 1 0.749986 0.520683 0.809016 -3.57628e-07 0 1.43051e-06
28 1 0.499986 0.453599 0.6843 -4.76837e-07 0 -1.43051e-06
29 1 0.249986 0.754571 0.933559 3.57628e-07 0 -4.76837e-06
30 1 0.749986 0.754571 0.933559 -2.38419e-07 0 -4.41074e-06
31 1 0.999986 0.254571 0.933559 -5.96046e-07 0 -5.126e-06
32 1 0.499986 0.254571 0.933559 3.57628e-07 0 -4.76837e-06
ITEM: TIMESTEP
13
ITEM: NUMBER OF ATOMS
32
ITEM: BOX BOUNDS xy xz yz pp pp pp
-9.5987319946289062e-04 6.3977920413017273e+00 -0.0000000000000000e+00
-1.0525226593017578e-02 9.9557214975357056e+00 0.0000000000000000e+00
-5.8505058288574219e-02 2.0783891499042511e+01 4.4247651100158691e+00
ITEM: ATOMS id type xs ys zs fx fy fz
1 1 0.999986 0.618005 0.0609426 8.34465e-07 0 3.57628e-07
2 1 0.499986 0.618005 0.0609426 -3.57628e-07 0 9.53674e-07
3 1 0.249986 0.118005 0.0609427 2.38419e-07 0 5.96046e-07
4 1 0.749986 0.118005 0.0609427 -3.57628e-07 0 7.15256e-07
5 1 0.999986 0.418977 0.310201 -2.38419e-07 0 1.19209e-07
6 1 0.249986 0.351893 0.185486 1.19209e-07 0 -5.96046e-07
7 1 0.749986 0.351893 0.185486 -3.57628e-07 0 -3.57628e-07
8 1 0.499986 0.418977 0.310201 2.38419e-07 0 3.57628e-07
9 1 0.999986 0.851893 0.185486 -3.57628e-07 0 -1.07288e-06
10 1 0.249986 0.918977 0.310201 1.19209e-07 0 4.76837e-07
11 1 0.499986 0.851893 0.185486 4.76837e-07 0 -1.19209e-06
12 1 0.749986 0.918977 0.310201 0 0 2.38419e-07
13 1 0.999986 0.219835 0.559603 -5.96046e-07 0 -1.54972e-06
14 1 0.499986 0.219835 0.559603 4.76837e-07 0 -9.53674e-07
15 1 0.249986 0.719835 0.559603 -1.19209e-07 0 -1.19209e-06
16 1 0.749986 0.719835 0.559603 3.57628e-07 0 -1.3113e-06
17 1 0.249986 0.152741 0.434899 5.96046e-07 0 1.43051e-06
18 1 0.749986 0.152742 0.434899 -5.96046e-07 0 1.43051e-06
19 1 0.999986 0.652742 0.434899 1.19209e-07 0 1.19209e-06
20 1 0.499986 0.652742 0.434899 -2.38419e-07 0 1.3113e-06
21 1 0.999986 0.0206829 0.809016 0 0 8.34465e-07
22 1 0.249986 0.953599 0.6843 -3.57628e-07 0 -3.57628e-07
23 1 0.499986 0.0206829 0.809016 0 0 5.96046e-07
24 1 0.749986 0.953599 0.6843 1.19209e-07 0 -2.38419e-07
25 1 0.999986 0.453599 0.6843 2.38419e-07 0 -8.34465e-07
26 1 0.249986 0.520683 0.809016 2.38419e-07 0 1.19209e-06
27 1 0.749986 0.520683 0.809016 -3.57628e-07 0 8.34465e-07
28 1 0.499986 0.453599 0.6843 1.19209e-07 0 -7.15256e-07
29 1 0.249986 0.754571 0.933559 -5.96046e-07 0 -4.76837e-07
30 1 0.749986 0.754571 0.933559 3.57628e-07 0 -7.15256e-07
31 1 0.999986 0.254571 0.933559 2.38419e-07 0 -3.57628e-07
32 1 0.499986 0.254571 0.933559 -3.57628e-07 0 -7.15256e-07
