ITEM: TIMESTEP
0
ITEM: NUMBER OF ATOMS
56
ITEM: BOX BOUNDS xy xz yz pp pp pp
-2.0581388473510742e+00 1.2206987559795380e+01 -4.7683715820312500e-07
-7.5370073318481445e-03 5.5339480042457581e+00 -2.0362506508827209e+00
-3.2569408416748047e-02 1.9052529454231262e+01 2.8610229492187500e-06
ITEM: ATOMS id type xs ys zs fx fy fz
1 1 0.571611 1 0.132369 0 0.0183014 0.730863
2 1 0.321611 0.166667 0.132369 0 -0.0183015 0.730864
3 1 0.232293 1 0.275226 0 0.00151801 -0.00485444
4 1 0.982293 0.166667 0.275226 0 -0.00151837 -0.00485456
5 1 0.892976 5.00995e-07 0.418084 0 -0.000248313 0.000877738
6 1 0.0716111 1 0.132369 0 0.0183011 0.730863
7 1 0.99127 0.5 0.0609408 0 -0.0277674 0.733626
8 1 0.821611 0.166667 0.132369 0 -0.0183015 0.730864
9 1 0.74127 0.666667 0.0609408 0 0.0277683 0.733626
10 1 0.732293 1 0.275226 0 0.00151801 -0.00485468
11 1 0.642976 0.166667 0.418084 0 0.00024879 0.000878215
12 1 0.553659 5.53965e-07 0.560941 0 -2.21729e-05 -0.000135899
13 1 0.303659 0.166667 0.560941 0 2.22921e-05 -0.000136137
14 1 0.214343 1.60387e-07 0.703798 0 -0.000560641 -0.0017035
15 1 0.964343 0.166667 0.703798 0 0.000561118 -0.00170338
16 1 0.875025 1 0.846655 0 0.00670207 0.000137091
17 1 0.651952 0.5 0.203798 0 0.00670218 -0.000136971
18 1 0.482293 0.166667 0.275226 0 -0.00151801 -0.00485456
19 1 0.401952 0.666667 0.203798 0 -0.00670171 -0.000136733
20 1 0.392976 5.02326e-07 0.418084 0 -0.000248432 0.000877619
21 1 0.312634 0.5 0.346655 0 -0.000560999 0.0017035
22 1 0.142976 0.166667 0.418084 0 0.00024879 0.000877976
23 1 0.0626342 0.666667 0.346655 0 0.000560641 0.00170338
24 1 0.0536593 5.42012e-07 0.560941 0 -2.16961e-05 -0.000136256
25 1 0.973317 0.500001 0.489512 0 -2.24113e-05 0.000136495
26 1 0.803659 0.166667 0.560941 0 2.24113e-05 -0.000136852
27 1 0.723317 0.666667 0.489512 0 2.19345e-05 0.000136375
28 1 0.49127 0.5 0.0609408 0 -0.0277677 0.733626
29 1 0.24127 0.666667 0.0609408 0 0.0277677 0.733627
30 1 0.151952 0.5 0.203798 0 0.0067023 -0.00013721
31 1 0.901952 0.666667 0.203798 0 -0.00670183 -0.000136614
32 1 0.812634 0.5 0.346655 0 -0.00056088 0.0017035
33 1 0.625025 0.166667 0.846655 0 -0.00670254 0.000137091
34 1 0.535706 1 0.989512 0 -0.0277683 -0.733627
35 1 0.285706 0.166667 0.989512 0 0.0277678 -0.733626
36 1 0.714343 1.92026e-07 0.703798 0 -0.000560522 -0.00170338
37 1 0.634001 0.500001 0.632369 0 -0.000249028 -0.000877857
38 1 0.464343 0.166667 0.703798 0 0.000560999 -0.00170362
39 1 0.384001 0.666667 0.632369 0 0.000248313 -0.000877857
40 1 0.375025 1 0.846655 0 0.00670207 0.000137091
41 1 0.294684 0.5 0.775226 0 0.00151837 0.0048548
42 1 0.125025 0.166667 0.846655 0 -0.00670195 0.000136733
43 1 0.0446839 0.666667 0.775226 0 -0.00151765 0.00485432
44 1 0.0357064 1 0.989512 0 -0.0277681 -0.733627
45 1 0.955366 0.5 0.918083 0 0.0183012 -0.730864
46 1 0.562634 0.666667 0.346655 0 0.000560164 0.00170326
47 1 0.473317 0.500001 0.489512 0 -2.21729e-05 0.000136256
48 1 0.223317 0.666667 0.489512 0 2.18153e-05 0.000136137
49 1 0.134001 0.5 0.632369 0 -0.000249028 -0.000877738
50 1 0.884001 0.666667 0.632369 0 0.000248313 -0.000877738
51 1 0.794684 0.5 0.775226 0 0.00151837 0.00485444
52 1 0.785706 0.166667 0.989512 0 0.0277674 -0.733627
53 1 0.705366 0.666667 0.918083 0 -0.0183012 -0.730863
54 1 0.544684 0.666667 0.775226 0 -0.00151777 0.00485432
55 1 0.455366 0.5 0.918083 0 0.0183014 -0.730863
56 1 0.205366 0.666667 0.918083 0 -0.0183014 -0.730864
ITEM: TIMESTEP
1
ITEM: NUMBER OF ATOMS
56
ITEM: BOX BOUNDS xy xz yz pp pp pp
-2.0581388473510742e+00 1.2206987559795380e+01 -4.7683715820312500e-07
-7.5370073318481445e-03 5.5339480042457581e+00 -2.0362506508827209e+00
-3.2569408416748047e-02 1.9052529454231262e+01 2.8610229492187500e-06
ITEM: ATOMS id type xs ys zs fx fy fz
1 1 0.57248 1.00045 0.137589 0 2.07424e-05 0.110434
2 1 0.32248 0.166217 0.137589 0 -2.07424e-05 0.110435
3 1 0.232287 1.00004 0.275192 0 -0.0182167 0.10663
4 1 0.982287 0.16663 0.275192 0 0.0182164 0.106631
5 1 0.892977 -5.607e-06 0.41809 0 -0.00151229 0.00153375
6 1 0.0724803 1.00045 0.137589 0 2.09808e-05 0.110435
7 1 0.992143 0.499317 0.0661805 0 -0.0547702 0.0864317
8 1 0.82248 0.166217 0.137589 0 -2.07424e-05 0.110435
9 1 0.742143 0.66735 0.0661805 0 0.0547702 0.0864317
10 1 0.732287 1.00004 0.275192 0 -0.0182165 0.10663
11 1 0.642977 0.166673 0.41809 0 0.00151181 0.00153387
12 1 0.553659 8.55747e-09 0.56094 0 0.000329614 0.00237548
13 1 0.303659 0.166667 0.56094 0 -0.000328898 0.00237548
14 1 0.214341 -1.36302e-05 0.703786 0 -0.0048517 -0.0122434
15 1 0.964341 0.166681 0.703786 0 0.00485182 -0.0122433
16 1 0.875025 1.00016 0.846656 0 0.000356674 -0.124934
17 1 0.651952 0.500165 0.203797 0 0.000357151 0.124935
18 1 0.482287 0.16663 0.275192 0 0.0182166 0.106631
19 1 0.401952 0.666503 0.203797 0 -0.000356555 0.124934
20 1 0.392977 -5.6086e-06 0.41809 0 -0.00151193 0.00153422
21 1 0.312636 0.499986 0.346667 0 -0.0048517 0.0122436
22 1 0.142977 0.166673 0.41809 0 0.00151193 0.00153339
23 1 0.0626363 0.666681 0.346667 0 0.00485182 0.0122433
24 1 0.0536591 8.33304e-09 0.56094 0 0.000329256 0.00237513
25 1 0.973318 0.5 0.489513 0 0.000328898 -0.00237489
26 1 0.803659 0.166667 0.56094 0 -0.00032866 0.00237405
27 1 0.723318 0.666667 0.489513 0 -0.000329375 -0.00237501
28 1 0.492143 0.499317 0.0661805 0 -0.0547705 0.0864319
29 1 0.242143 0.66735 0.0661805 0 0.0547701 0.0864315
30 1 0.151952 0.500165 0.203797 0 0.00035727 0.124934
31 1 0.901952 0.666503 0.203797 0 -0.000356555 0.124934
32 1 0.812636 0.499986 0.346667 0 -0.00485158 0.0122434
33 1 0.625025 0.166503 0.846656 0 -0.000357032 -0.124934
34 1 0.534834 0.999317 0.984272 0 -0.0547704 -0.0864316
35 1 0.284834 0.16735 0.984272 0 0.05477 -0.0864317
36 1 0.714341 -1.35957e-05 0.703786 0 -0.00485218 -0.0122433
37 1 0.634 0.499994 0.632363 0 -0.00151205 -0.00153363
38 1 0.464341 0.166681 0.703786 0 0.00485134 -0.0122437
39 1 0.384 0.666673 0.632363 0 0.00151205 -0.00153399
40 1 0.375025 1.00016 0.846656 0 0.000356436 -0.124935
41 1 0.29469 0.500037 0.775261 0 -0.0182163 -0.10663
42 1 0.125025 0.166503 0.846656 0 -0.000356555 -0.124935
43 1 0.0446897 0.66663 0.775261 0 0.0182165 -0.10663
44 1 0.0348339 0.999317 0.984272 0 -0.0547701 -0.0864315
45 1 0.954496 0.50045 0.912864 0 2.03848e-05 -0.110435
46 1 0.562636 0.666681 0.346667 0 0.00485182 0.0122432
47 1 0.473318 0.5 0.489513 0 0.000328898 -0.00237548
48 1 0.223318 0.666667 0.489513 0 -0.000329256 -0.00237513
49 1 0.134 0.499994 0.632363 0 -0.00151181 -0.00153375
50 1 0.884 0.666673 0.632363 0 0.00151229 -0.00153375
51 1 0.79469 0.500037 0.775261 0 -0.0182167 -0.10663
52 1 0.784834 0.16735 0.984272 0 0.0547704 -0.0864319
53 1 0.704496 0.666217 0.912864 0 -2.07424e-05 -0.110435
54 1 0.54469 0.66663 0.775261 0 0.0182168 -0.10663
55 1 0.454496 0.50045 0.912864 0 2.03848e-05 -0.110434
56 1 0.204496 0.666217 0.912864 0 -2.08616e-05 -0.110435
ITEM: TIMESTEP
2
ITEM: NUMBER OF ATOMS
56
ITEM: BOX BOUNDS xy xz yz pp pp pp
-2.0581388473510742e+00 1.2206987559795380e+01 -4.7683715820312500e-07
-7.5370073318481445e-03 5.5339480042457581e+00 -2.0362506508827209e+00
-3.2569408416748047e-02 1.9052529454231262e+01 2.8610229492187500e-06
ITEM: ATOMS id type xs ys zs fx fy fz
1 1 0.572996 1.00045 0.140687 0 -0.024981 -0.0445329
2 1 0.322996 0.166215 0.140687 0 0.0249809 -0.0445338
3 1 0.232785 0.998277 0.278183 0 0.00101852 0.0390607
4 1 0.982785 0.16839 0.278183 0 -0.00101769 0.0390599
5 1 0.892984 -0.000151717 0.418133 0 -0.010237 0.0574784
6 1 0.0729961 1.00045 0.140687 0 -0.0249809 -0.044533
7 1 0.992547 0.494025 0.0686052 0 -0.0126652 -0.0727739
8 1 0.822996 0.166215 0.140687 0 0.0249813 -0.0445336
9 1 0.742547 0.672642 0.0686051 0 0.0126653 -0.0727732
10 1 0.732785 0.998277 0.278183 0 0.00101852 0.0390607
11 1 0.642984 0.166819 0.418133 0 0.0102371 0.0574784
12 1 0.55367 3.18542e-05 0.561006 0 -0.00489628 -0.00943053
13 1 0.30367 0.166635 0.561006 0 0.00489521 -0.00943041
14 1 0.214283 -0.000482378 0.703442 0 -0.0108968 -0.0761328
15 1 0.964283 0.167149 0.703442 0 0.0108972 -0.0761334
16 1 0.874441 1.0002 0.843151 0 -0.012256 -0.0218678
17 1 0.652535 0.500199 0.207302 0 -0.0122561 0.021867
18 1 0.482785 0.16839 0.278183 0 -0.00101817 0.0390606
19 1 0.402535 0.666468 0.207302 0 0.0122555 0.0218678
20 1 0.392984 -0.000151684 0.418133 0 -0.010237 0.0574781
21 1 0.312693 0.499518 0.347011 0 -0.0108967 0.0761324
22 1 0.142984 0.166819 0.418133 0 0.0102366 0.0574791
23 1 0.0626934 0.667149 0.347011 0 0.0108969 0.0761329
24 1 0.0536702 3.18195e-05 0.561006 0 -0.00489581 -0.009431
25 1 0.973307 0.500032 0.489446 0 -0.00489485 0.00942969
26 1 0.80367 0.166635 0.561006 0 0.00489473 -0.00942874
27 1 0.723307 0.666635 0.489446 0 0.00489581 0.00943029
28 1 0.492547 0.494025 0.0686052 0 -0.0126649 -0.0727737
29 1 0.242547 0.672642 0.0686051 0 0.0126653 -0.0727739
30 1 0.152535 0.500199 0.207302 0 -0.0122561 0.0218691
31 1 0.902535 0.666468 0.207302 0 0.0122554 0.0218676
32 1 0.812693 0.499518 0.347011 0 -0.010897 0.076133
33 1 0.624441 0.166468 0.843151 0 0.012256 -0.021868
34 1 0.53443 0.994025 0.981848 0 -0.0126653 0.072773
35 1 0.28443 0.172642 0.981848 0 0.0126653 0.0727738
36 1 0.714283 -0.00048239 0.703442 0 -0.0108968 -0.076133
37 1 0.633993 0.499848 0.63232 0 -0.0102369 -0.0574785
38 1 0.464283 0.167149 0.703442 0 0.0108978 -0.0761325
39 1 0.383993 0.666819 0.63232 0 0.0102365 -0.0574782
40 1 0.374441 1.0002 0.843151 0 -0.012255 -0.0218664
41 1 0.294192 0.498277 0.77227 0 0.00101781 -0.0390608
42 1 0.124441 0.166468 0.843151 0 0.0122558 -0.0218674
43 1 0.0441916 0.66839 0.77227 0 -0.00101817 -0.0390611
44 1 0.0344302 0.994025 0.981848 0 -0.0126656 0.0727732
45 1 0.953981 0.500452 0.909766 0 -0.024981 0.0445335
46 1 0.562693 0.667149 0.347011 0 0.0108969 0.0761328
47 1 0.473307 0.500032 0.489446 0 -0.00489521 0.00943029
48 1 0.223307 0.666635 0.489446 0 0.00489604 0.00943053
49 1 0.133993 0.499848 0.63232 0 -0.0102371 -0.057478
50 1 0.883993 0.666819 0.63232 0 0.010237 -0.0574785
51 1 0.794192 0.498277 0.77227 0 0.00101805 -0.0390601
52 1 0.78443 0.172642 0.981848 0 0.012665 0.0727742
53 1 0.703981 0.666215 0.909766 0 0.0249809 0.0445333
54 1 0.544192 0.66839 0.77227 0 -0.00101912 -0.0390615
55 1 0.453981 0.500452 0.909766 0 -0.024981 0.0445329
56 1 0.203981 0.666215 0.909766 0 0.0249814 0.0445337
ITEM: TIMESTEP
3
ITEM: NUMBER OF ATOMS
56
ITEM: BOX BOUNDS xy xz yz pp pp pp
-2.0581388473510742e+00 1.2206987559795380e+01 -4.7683715820312500e-07
-7.5370073318481445e-03 5.5339480042457581e+00 -2.0362506508827209e+00
-3.2569408416748047e-02 1.9052529454231262e+01 2.8610229492187500e-06
ITEM: ATOMS id type xs ys zs fx fy fz
1 1 0.573014 0.998391 0.140793 0 -0.00814033 0.0255814
2 1 0.323014 0.168276 0.140793 0 0.0081408 0.0255814
3 1 0.23313 0.997695 0.280252 0 0.00762177 -0.0249332
4 1 0.98313 0.168972 0.280252 0 -0.00762105 -0.0249333
5 1 0.893216 -0.00105207 0.419527 0 -0.00753152 0.0356638
6 1 0.0730137 0.998391 0.140793 0 -0.00814068 0.0255812
7 1 0.992409 0.490976 0.0677791 0 0.0149302 0.0152301
8 1 0.823014 0.168276 0.140793 0 0.00814009 0.0255822
9 1 0.742409 0.675691 0.0677791 0 -0.0149297 0.0152284
10 1 0.73313 0.997695 0.280252 0 0.00762105 -0.0249333
11 1 0.643216 0.167719 0.419527 0 0.00753212 0.0356641
12 1 0.553637 -0.000360259 0.560806 0 -0.0123566 -0.0168408
13 1 0.303637 0.167027 0.560806 0 0.0123564 -0.0168411
14 1 0.213958 -0.00155937 0.701487 0 -0.0041039 -0.0329911
15 1 0.963958 0.168226 0.701487 0 0.00410366 -0.0329906
16 1 0.874133 0.9992 0.8413 0 -0.00267899 0.0375344
17 1 0.652844 0.4992 0.209153 0 -0.00267875 -0.0375338
18 1 0.48313 0.168972 0.280252 0 -0.00762129 -0.0249341
19 1 0.402844 0.667467 0.209153 0 0.00267911 -0.0375347
20 1 0.393216 -0.00105203 0.419527 0 -0.007532 0.0356636
21 1 0.313019 0.498441 0.348966 0 -0.00410426 0.0329908
22 1 0.143216 0.167719 0.419527 0 0.00753295 0.0356637
23 1 0.0630189 0.668226 0.348965 0 0.00410318 0.0329913
24 1 0.0536368 -0.000360267 0.560806 0 -0.0123564 -0.0168397
25 1 0.97334 0.49964 0.489647 0 -0.0123569 0.0168408
26 1 0.803637 0.167027 0.560806 0 0.0123566 -0.0168407
27 1 0.72334 0.667027 0.489647 0 0.0123566 0.0168405
28 1 0.492409 0.490976 0.0677791 0 0.01493 0.015229
29 1 0.242409 0.675691 0.067779 0 -0.0149301 0.0152304
30 1 0.152844 0.4992 0.209153 0 -0.00267911 -0.0375355
31 1 0.902844 0.667467 0.209153 0 0.00267899 -0.0375342
32 1 0.813019 0.498441 0.348966 0 -0.0041039 0.0329905
33 1 0.624133 0.167467 0.8413 0 0.00267828 0.0375342
34 1 0.534568 0.990976 0.982674 0 0.0149301 -0.0152284
35 1 0.284568 0.175691 0.982674 0 -0.0149302 -0.0152291
36 1 0.713958 -0.0015594 0.701487 0 -0.00410342 -0.0329911
37 1 0.633761 0.498948 0.630926 0 -0.00753212 -0.0356637
38 1 0.463958 0.168227 0.701487 0 0.00410283 -0.0329907
39 1 0.383761 0.667719 0.630926 0 0.00753248 -0.0356638
40 1 0.374133 0.9992 0.8413 0 -0.00267947 0.0375335
41 1 0.293847 0.497695 0.770201 0 0.00762153 0.0249343
42 1 0.124133 0.167467 0.8413 0 0.00267863 0.0375342
43 1 0.0438471 0.668972 0.770201 0 -0.00762057 0.0249337
44 1 0.0345677 0.990976 0.982674 0 0.0149299 -0.0152289
45 1 0.953963 0.498391 0.90966 0 -0.00814033 -0.0255822
46 1 0.563019 0.668226 0.348965 0 0.00410366 0.0329911
47 1 0.47334 0.49964 0.489647 0 -0.012356 0.0168408
48 1 0.22334 0.667027 0.489647 0 0.0123562 0.0168407
49 1 0.133761 0.498948 0.630926 0 -0.00753212 -0.0356642
50 1 0.883761 0.667719 0.630926 0 0.00753129 -0.0356637
51 1 0.793847 0.497695 0.770201 0 0.00762129 0.0249333
52 1 0.784568 0.175691 0.982674 0 -0.0149305 -0.0152298
53 1 0.703963 0.668276 0.90966 0 0.00814044 -0.0255811
54 1 0.543847 0.668972 0.770201 0 -0.00762033 0.0249341
55 1 0.453963 0.498391 0.90966 0 -0.00813997 -0.025582
56 1 0.203963 0.668276 0.90966 0 0.00814033 -0.0255826
ITEM: TIMESTEP
4
ITEM: NUMBER OF ATOMS
56
ITEM: BOX BOUNDS xy xz yz pp pp pp
-2.0581388473510742e+00 1.2206987559795380e+01 -4.7683715820312500e-07
-7.5370073318481445e-03 5.5339480042457581e+00 -2.0362506508827209e+00
-3.2569408416748047e-02 1.9052529454231262e+01 2.8610229492187500e-06
ITEM: ATOMS id type xs ys zs fx fy fz
1 1 0.573081 0.997626 0.141195 0 0.00253701 -0.000896692
2 1 0.323081 0.169041 0.141195 0 -0.00253749 -0.000896454
3 1 0.233125 0.997992 0.280222 0 -0.000155687 0.00283802
4 1 0.983125 0.168675 0.280222 0 0.000155091 0.0028373
5 1 0.893344 -0.00159181 0.420295 0 -0.0036869 -0.00350153
6 1 0.0730807 0.997626 0.141195 0 0.00253701 -0.000896692
7 1 0.992424 0.49124 0.0678702 0 0.00762534 -0.00103736
8 1 0.823081 0.169041 0.141195 0 -0.00253713 -0.00089705
9 1 0.742424 0.675427 0.0678702 0 -0.00762606 -0.00103676
10 1 0.733125 0.997992 0.280222 0 -0.00015521 0.00283778
11 1 0.643344 0.168259 0.420295 0 0.00368738 -0.00350189
12 1 0.553589 -0.00106495 0.560519 0 -0.00928259 -0.00519204
13 1 0.303589 0.167732 0.560519 0 0.00928354 -0.00519276
14 1 0.213821 -0.0019512 0.700666 0 0.000135303 0.00392604
15 1 0.963821 0.168618 0.700666 0 -0.000135064 0.00392592
16 1 0.874176 0.998895 0.841555 0 0.0034883 0.0038358
17 1 0.652801 0.498895 0.208898 0 0.00348842 -0.00383604
18 1 0.483125 0.168675 0.280222 0 0.00015533 0.00283718
19 1 0.402801 0.667772 0.208898 0 -0.00348771 -0.00383568
20 1 0.393344 -0.00159179 0.420295 0 -0.00368774 -0.00350153
21 1 0.313156 0.498049 0.349787 0 0.000135183 -0.00392544
22 1 0.143344 0.168259 0.420295 0 0.00368702 -0.00350201
23 1 0.0631557 0.668618 0.349787 0 -0.000134468 -0.00392568
24 1 0.0535891 -0.00106494 0.560519 0 -0.00928283 -0.00519192
25 1 0.973388 0.498935 0.489934 0 -0.0092833 0.00519264
26 1 0.803589 0.167732 0.560519 0 0.00928307 -0.00519252
27 1 0.723388 0.667732 0.489934 0 0.00928295 0.00519192
28 1 0.492424 0.49124 0.0678702 0 0.00762534 -0.00103736
29 1 0.242424 0.675427 0.0678702 0 -0.00762534 -0.0010376
30 1 0.152801 0.498895 0.208898 0 0.00348806 -0.00383615
31 1 0.902801 0.667772 0.208898 0 -0.00348771 -0.0038358
32 1 0.813156 0.498049 0.349787 0 0.000134706 -0.0039258
33 1 0.624176 0.167772 0.841555 0 -0.00348794 0.00383627
34 1 0.534553 0.99124 0.982583 0 0.00762558 0.00103712
35 1 0.284553 0.175427 0.982583 0 -0.00762522 0.00103664
36 1 0.713821 -0.00195121 0.700666 0 0.000135303 0.00392592
37 1 0.633633 0.498408 0.630158 0 -0.00368738 0.00350213
38 1 0.463821 0.168618 0.700666 0 -0.000134945 0.00392544
39 1 0.383633 0.668259 0.630158 0 0.0036869 0.00350153
40 1 0.374176 0.998895 0.841555 0 0.00348794 0.0038358
41 1 0.293852 0.497992 0.770231 0 -0.00015533 -0.00283706
42 1 0.124176 0.167772 0.841555 0 -0.00348854 0.00383544
43 1 0.0438521 0.668675 0.770231 0 0.000154853 -0.00283778
44 1 0.0345525 0.99124 0.982583 0 0.00762594 0.00103724
45 1 0.953896 0.497626 0.909258 0 0.00253701 0.000896931
46 1 0.563156 0.668618 0.349787 0 -0.000134826 -0.00392556
47 1 0.473388 0.498935 0.489934 0 -0.00928319 0.00519252
48 1 0.223388 0.667732 0.489934 0 0.00928259 0.0051918
49 1 0.133633 0.498408 0.630158 0 -0.00368714 0.00350153
50 1 0.883633 0.668259 0.630158 0 0.00368714 0.00350177
51 1 0.793852 0.497992 0.770231 0 -0.00015521 -0.00283742
52 1 0.784553 0.175427 0.982583 0 -0.00762498 0.00103736
53 1 0.703896 0.669041 0.909258 0 -0.00253749 0.000896096
54 1 0.543852 0.668675 0.770231 0 0.00015533 -0.0028373
55 1 0.453896 0.497626 0.909258 0 0.00253713 0.000896692
56 1 0.203896 0.669041 0.909258 0 -0.00253737 0.00089705
ITEM: TIMESTEP
5
ITEM: NUMBER OF ATOMS
56
ITEM: BOX BOUNDS xy xz yz pp pp pp
-2.0581388473510742e+00 1.2206987559795380e+01 -4.7683715820312500e-07
-7.5370073318481445e-03 5.5339480042457581e+00 -2.0362506508827209e+00
-3.2569408416748047e-02 1.9052529454231262e+01 2.8610229492187500e-06
ITEM: ATOMS id type xs ys zs fx fy fz
1 1 0.57308 0.997825 0.14119 0 0.0040282 -0.000401497
2 1 0.32308 0.168842 0.14119 0 -0.00402701 -0.000401735
3 1 0.233137 0.997992 0.280297 0 0.000732303 -0.00251436
4 1 0.983137 0.168675 0.280297 0 -0.000731707 -0.00251389
5 1 0.893334 -0.00196033 0.420237 0 -0.00252771 -0.00120699
6 1 0.0730798 0.997825 0.14119 0 0.00402772 -0.000401139
7 1 0.99242 0.491962 0.0678465 0 0.00187445 -0.00185466
8 1 0.82308 0.168842 0.14119 0 -0.00402737 -0.000400662
9 1 0.74242 0.674706 0.0678465 0 -0.00187409 -0.00185561
10 1 0.733137 0.997992 0.280297 0 0.000731826 -0.00251389
11 1 0.643334 0.168627 0.420237 0 0.00252688 -0.00120687
12 1 0.553563 -0.00196144 0.560365 0 -0.000226259 0.00390041
13 1 0.303563 0.168629 0.560365 0 0.000224948 0.00390124
14 1 0.213832 -0.00195739 0.700733 0 8.66652e-05 -0.00116754
15 1 0.963832 0.168625 0.700733 0 -8.7142e-05 -0.0011673
16 1 0.874195 0.999205 0.841671 0 -0.000676632 -0.00121129
17 1 0.652782 0.499205 0.208782 0 -0.000676751 0.00121224
18 1 0.483137 0.168675 0.280297 0 -0.000731707 -0.00251365
19 1 0.402782 0.667462 0.208782 0 0.000675559 0.001212
20 1 0.393334 -0.00196038 0.420237 0 -0.0025264 -0.00120699
21 1 0.313145 0.498043 0.34972 0 8.65459e-05 0.0011673
22 1 0.143334 0.168627 0.420237 0 0.00252724 -0.00120652
23 1 0.0631446 0.668625 0.34972 0 -8.74996e-05 0.00116694
24 1 0.0535635 -0.00196145 0.560365 0 -0.000225902 0.00390053
25 1 0.973413 0.498039 0.490088 0 -0.000225186 -0.00390112
26 1 0.803563 0.168629 0.560365 0 0.000225902 0.00390089
27 1 0.723413 0.668629 0.490088 0 0.000225782 -0.00390005
28 1 0.49242 0.491962 0.0678465 0 0.00187409 -0.00185466
29 1 0.24242 0.674706 0.0678465 0 -0.00187469 -0.00185466
30 1 0.152782 0.499205 0.208782 0 -0.000676274 0.00121224
31 1 0.902782 0.667462 0.208782 0 0.000675797 0.00121188
32 1 0.813145 0.498043 0.34972 0 8.76188e-05 0.00116754
33 1 0.624195 0.167462 0.841671 0 0.000676274 -0.00121212
34 1 0.534556 0.991962 0.982606 0 0.00187397 0.00185478
35 1 0.284556 0.174706 0.982606 0 -0.00187469 0.00185513
36 1 0.713832 -0.00195739 0.700733 0 8.63075e-05 -0.00116765
37 1 0.633642 0.49804 0.630216 0 -0.00252628 0.00120628
38 1 0.463832 0.168625 0.700733 0 -8.70228e-05 -0.00116682
39 1 0.383642 0.668627 0.630216 0 0.00252783 0.00120723
40 1 0.374195 0.999205 0.841671 0 -0.000676036 -0.00121188
41 1 0.29384 0.497992 0.770156 0 0.000731945 0.00251305
42 1 0.124195 0.167462 0.841671 0 0.000676394 -0.00121152
43 1 0.0438395 0.668675 0.770155 0 -0.000731826 0.00251377
44 1 0.0345565 0.991962 0.982606 0 0.00187433 0.00185466
45 1 0.953897 0.497825 0.909263 0 0.0040282 0.000401139
46 1 0.563145 0.668625 0.34972 0 -8.72612e-05 0.00116718
47 1 0.473413 0.498039 0.490088 0 -0.000226021 -0.003901
48 1 0.223413 0.668629 0.490088 0 0.000226021 -0.00390053
49 1 0.133642 0.49804 0.630216 0 -0.00252688 0.00120687
50 1 0.883642 0.668627 0.630216 0 0.00252748 0.0012064
51 1 0.79384 0.497992 0.770155 0 0.000732183 0.00251377
52 1 0.784556 0.174706 0.982606 0 -0.00187504 0.0018549
53 1 0.703897 0.668842 0.909263 0 -0.00402689 0.000401974
54 1 0.54384 0.668675 0.770155 0 -0.000732303 0.00251353
55 1 0.453897 0.497825 0.909263 0 0.00402772 0.000401497
56 1 0.203897 0.668842 0.909263 0 -0.00402761 0.000401258
ITEM: TIMESTEP
6
ITEM: NUMBER OF ATOMS
56
ITEM: BOX BOUNDS xy xz yz pp pp pp
-2.0581388473510742e+00 1.2206987559795380e+01 -4.7683715820312500e-07
-7.5370073318481445e-03 5.5339480042457581e+00 -2.0362506508827209e+00
-3.2569408416748047e-02 1.9052529454231262e+01 2.8610229492187500e-06
ITEM: ATOMS id type xs ys zs fx fy fz
1 1 0.573078 0.998129 0.141181 0 0.000350714 -0.000561595
2 1 0.323078 0.168539 0.141181 0 -0.00035131 -0.000561714
3 1 0.233131 0.998042 0.280259 0 -6.63996e-05 -0.000683784
4 1 0.983131 0.168626 0.280259 0 6.61612e-05 -0.000684023
5 1 0.893329 -0.00218767 0.420205 0 0.000664711 0.000640035
6 1 0.0730784 0.998129 0.141181 0 0.00035131 -0.000562191
7 1 0.992414 0.492198 0.0678064 0 0.00101125 0.000874639
8 1 0.823078 0.168539 0.141181 0 -0.00035131 -0.000561833
9 1 0.742414 0.674469 0.0678064 0 -0.00101089 0.000875354
10 1 0.733131 0.998042 0.280259 0 -6.65188e-05 -0.000684619
11 1 0.643329 0.168855 0.420205 0 -0.000664115 0.000640512
12 1 0.553572 -0.00211288 0.560419 0 0.000551105 1.52588e-05
13 1 0.303572 0.16878 0.560419 0 -0.000550985 1.54972e-05
14 1 0.21383 -0.00195245 0.70072 0 -0.000687838 0.000622272
15 1 0.96383 0.16862 0.70072 0 0.000688195 0.000622392
16 1 0.874194 0.999206 0.841665 0 0.000819921 -0.000114918
17 1 0.652783 0.499206 0.208788 0 0.000819921 0.000114083
18 1 0.483131 0.168626 0.280259 0 6.63996e-05 -0.000684619
19 1 0.402783 0.667461 0.208788 0 -0.000819683 0.000114202
20 1 0.393329 -0.00218765 0.420205 0 0.000664473 0.000639915
21 1 0.313147 0.498048 0.349733 0 -0.000687957 -0.000622869
22 1 0.143329 0.168855 0.420205 0 -0.000664473 0.000640154
23 1 0.0631468 0.66862 0.349733 0 0.000688195 -0.000622153
24 1 0.0535724 -0.00211287 0.560419 0 0.000550985 1.50204e-05
25 1 0.973404 0.497887 0.490034 0 0.000550985 -1.54972e-05
26 1 0.803572 0.16878 0.560419 0 -0.000551105 1.51396e-05
27 1 0.723404 0.66878 0.490034 0 -0.000551105 -1.51396e-05
28 1 0.492414 0.492198 0.0678064 0 0.00101137 0.000875235
29 1 0.242414 0.674469 0.0678064 0 -0.00101137 0.000874996
30 1 0.152783 0.499206 0.208788 0 0.000819683 0.00011456
31 1 0.902783 0.667461 0.208788 0 -0.000819683 0.00011456
32 1 0.813147 0.498048 0.349733 0 -0.000688076 -0.000622272
33 1 0.624194 0.167461 0.841665 0 -0.000819325 -0.000114799
34 1 0.534563 0.992198 0.982646 0 0.00101125 -0.000874758
35 1 0.284563 0.174469 0.982646 0 -0.00101125 -0.000875115
36 1 0.71383 -0.00195248 0.70072 0 -0.000687599 0.000622511
37 1 0.633648 0.497812 0.630248 0 0.000663757 -0.000640512
38 1 0.46383 0.16862 0.70072 0 0.000688195 0.000622153
39 1 0.383648 0.668855 0.630248 0 -0.00066483 -0.000640273
40 1 0.374194 0.999206 0.841665 0 0.000819921 -0.00011456
41 1 0.293846 0.498042 0.770194 0 -6.63996e-05 0.000684261
42 1 0.124194 0.167461 0.841665 0 -0.000819445 -0.000114441
43 1 0.0438459 0.668626 0.770194 0 6.6638e-05 0.0006845
44 1 0.0345631 0.992198 0.982646 0 0.00101113 -0.000874519
45 1 0.953898 0.498129 0.909271 0 0.000350595 0.000561953
46 1 0.563147 0.66862 0.349733 0 0.000688076 -0.000622272
47 1 0.473404 0.497887 0.490034 0 0.000551105 -1.46627e-05
48 1 0.223404 0.66878 0.490034 0 -0.000550747 -1.50204e-05
49 1 0.133648 0.497812 0.630248 0 0.000663877 -0.000640392
50 1 0.883648 0.668855 0.630248 0 -0.000664473 -0.000639796
51 1 0.793846 0.498042 0.770194 0 -6.68764e-05 0.000684023
52 1 0.784563 0.174469 0.982646 0 -0.00101089 -0.000875115
53 1 0.703898 0.668539 0.909271 0 -0.000351429 0.000561953
54 1 0.543846 0.668626 0.770194 0 6.65188e-05 0.000684619
55 1 0.453898 0.498129 0.909271 0 0.000350952 0.000561953
56 1 0.203898 0.668539 0.909271 0 -0.00035131 0.000561714
ITEM: TIMESTEP
7
ITEM: NUMBER OF ATOMS
56
ITEM: BOX BOUNDS xy xz yz pp pp pp
-2.0581388473510742e+00 1.2206987559795380e+01 -4.7683715820312500e-07
-7.5370073318481445e-03 5.5339480042457581e+00 -2.0362506508827209e+00
-3.2569408416748047e-02 1.9052529454231262e+01 2.8610229492187500e-06
ITEM: ATOMS id type xs ys zs fx fy fz
1 1 0.573076 0.998201 0.141165 0 3.21865e-05 -0.000563145
2 1 0.323076 0.168466 0.141165 0 -3.21865e-05 -0.000562668
3 1 0.233127 0.998042 0.280236 0 5.10216e-05 0.00039351
4 1 0.983127 0.168625 0.280236 0 -5.10216e-05 0.000394464
5 1 0.893331 -0.00215662 0.420218 0 0.00018084 -0.000403404
6 1 0.0730757 0.998201 0.141165 0 3.17097e-05 -0.00056231
7 1 0.992417 0.492323 0.0678245 0 0.000214934 -5.44786e-05
8 1 0.823076 0.168466 0.141165 0 -3.14713e-05 -0.000562906
9 1 0.742417 0.674344 0.0678245 0 -0.000215054 -5.54323e-05
10 1 0.733127 0.998042 0.280236 0 5.126e-05 0.000395179
11 1 0.643331 0.168824 0.420218 0 -0.000181079 -0.000404
12 1 0.553574 -0.00208221 0.560426 0 0.000379801 7.9751e-05
13 1 0.303574 0.168749 0.560426 0 -0.00037992 7.95126e-05
14 1 0.213832 -0.00201521 0.700735 0 0.000205636 -7.62939e-05
15 1 0.963832 0.168682 0.700735 0 -0.000206351 -7.66516e-05
16 1 0.874193 0.999282 0.841661 0 -0.000101566 0.000194192
17 1 0.652783 0.499282 0.208792 0 -0.000101686 -0.000193238
18 1 0.483127 0.168625 0.280236 0 -5.16176e-05 0.000395298
19 1 0.402783 0.667385 0.208792 0 0.000101686 -0.000193954
20 1 0.393331 -0.00215661 0.420218 0 0.000180602 -0.000403047
21 1 0.313144 0.497985 0.349718 0 0.000206351 7.71284e-05
22 1 0.143331 0.168824 0.420218 0 -0.000181079 -0.000403285
23 1 0.0631443 0.668682 0.349718 0 -0.000206351 7.65324e-05
24 1 0.0535736 -0.00208221 0.560426 0 0.000380039 7.98702e-05
25 1 0.973403 0.497918 0.490027 0 0.000379562 -7.9751e-05
26 1 0.803574 0.168749 0.560426 0 -0.000379682 8.04663e-05
27 1 0.723403 0.668749 0.490027 0 -0.000379682 -8.01086e-05
28 1 0.492417 0.492323 0.0678245 0 0.000214934 -5.55515e-05
29 1 0.242417 0.674344 0.0678245 0 -0.000214815 -5.51939e-05
30 1 0.152784 0.499282 0.208792 0 -0.000101209 -0.000194192
31 1 0.902783 0.667385 0.208792 0 0.000101447 -0.000193834
32 1 0.813144 0.497985 0.349718 0 0.000206351 7.64132e-05
33 1 0.624193 0.167385 0.841661 0 0.000100851 0.00019443
34 1 0.53456 0.992323 0.982628 0 0.000215173 5.49555e-05
35 1 0.28456 0.174344 0.982628 0 -0.000215173 5.55515e-05
36 1 0.713832 -0.00201523 0.700735 0 0.000205636 -7.66516e-05
37 1 0.633646 0.497843 0.630235 0 0.000181079 0.000403762
38 1 0.463832 0.168682 0.700735 0 -0.000206232 -7.64132e-05
39 1 0.383646 0.668824 0.630235 0 -0.000180721 0.000403166
40 1 0.374193 0.999282 0.841661 0 -0.000101924 0.000193954
41 1 0.29385 0.498042 0.770217 0 5.14984e-05 -0.000394464
42 1 0.124193 0.167385 0.841661 0 0.000101209 0.000193596
43 1 0.0438498 0.668625 0.770217 0 -5.09024e-05 -0.000394106
44 1 0.0345601 0.992323 0.982628 0 0.000214815 5.43594e-05
45 1 0.953901 0.498201 0.909288 0 3.23057e-05 0.00056231
46 1 0.563144 0.668682 0.349718 0 -0.000205874 7.689e-05
47 1 0.473403 0.497918 0.490027 0 0.000380278 -8.05855e-05
48 1 0.223403 0.668749 0.490027 0 -0.000380039 -7.96318e-05
49 1 0.133646 0.497843 0.630235 0 0.000181556 0.000403166
50 1 0.883646 0.668824 0.630235 0 -0.000181079 0.000402808
51 1 0.79385 0.498042 0.770217 0 5.19753e-05 -0.000394464
52 1 0.78456 0.174344 0.982628 0 -0.000215054 5.50747e-05
53 1 0.703901 0.668466 0.909288 0 -3.18289e-05 0.000562668
54 1 0.54385 0.668625 0.770217 0 -5.11408e-05 -0.00039494
55 1 0.453901 0.498201 0.909288 0 3.17097e-05 0.000562787
56 1 0.203901 0.668466 0.909288 0 -3.17097e-05 0.000562906
ITEM: TIMESTEP
8
ITEM: NUMBER OF ATOMS
56
ITEM: BOX BOUNDS xy xz yz pp pp pp
-2.0581388473510742e+00 1.2206987559795380e+01 -4.7683715820312500e-07
-7.5370073318481445e-03 5.5339480042457581e+00 -2.0362506508827209e+00
-3.2569408416748047e-02 1.9052529454231262e+01 2.8610229492187500e-06
ITEM: ATOMS id type xs ys zs fx fy fz
1 1 0.573074 0.998212 0.141153 0 4.69685e-05 0.000130296
2 1 0.323074 0.168455 0.141153 0 -4.72069e-05 0.000130296
3 1 0.233128 0.998045 0.28024 0 4.8995e-05 -0.000200868
4 1 0.983128 0.168622 0.28024 0 -4.91142e-05 -0.000201106
5 1 0.89333 -0.00214176 0.420212 0 8.28505e-05 -1.97887e-05
6 1 0.0730737 0.998212 0.141153 0 4.70877e-05 0.0001297
7 1 0.992417 0.492351 0.0678257 0 5.84126e-05 2.0504e-05
8 1 0.823074 0.168455 0.141153 0 -4.70877e-05 0.000130296
9 1 0.742417 0.674316 0.0678257 0 -5.80549e-05 2.11e-05
10 1 0.733128 0.998045 0.28024 0 4.91142e-05 -0.000201464
11 1 0.64333 0.168809 0.420212 0 -8.29697e-05 -1.95503e-05
12 1 0.553574 -0.00205514 0.560429 0 0.000131249 -0.000115752
13 1 0.303574 0.168722 0.560429 0 -0.000130773 -0.000115514
14 1 0.213833 -0.00201005 0.700735 0 0.000223517 1.95503e-05
15 1 0.963833 0.168677 0.700735 0 -0.000222683 2.00272e-05
16 1 0.874194 0.999285 0.841664 0 -0.000134945 8.2612e-05
17 1 0.652783 0.499285 0.208789 0 -0.000135422 -8.24928e-05
18 1 0.483128 0.168622 0.28024 0 -4.86374e-05 -0.000201464
19 1 0.402783 0.667382 0.208789 0 0.000135064 -8.24928e-05
20 1 0.39333 -0.00214177 0.420212 0 8.28505e-05 -2.02656e-05
21 1 0.313144 0.49799 0.349718 0 0.000223279 -2.00272e-05
22 1 0.14333 0.168809 0.420212 0 -8.2612e-05 -1.9908e-05
23 1 0.0631442 0.668677 0.349718 0 -0.000223041 -2.0504e-05
24 1 0.053574 -0.00205513 0.560429 0 0.000131249 -0.000115395
25 1 0.973403 0.497945 0.490024 0 0.00013113 0.000115991
26 1 0.803574 0.168722 0.560429 0 -0.00013113 -0.000116348
27 1 0.723403 0.668722 0.490024 0 -0.000130773 0.000115395
28 1 0.492417 0.492351 0.0678257 0 5.85318e-05 2.11e-05