LAMMPS (4 May 2022)
# bulk water

variable        nsteps equal 200000
variable        rdf_start equal 20000
variable        rdf_every equal 100
variable        rdf_repeat equal (${nsteps}-${rdf_start})/${rdf_every}
variable        rdf_repeat equal (200000-${rdf_start})/${rdf_every}
variable        rdf_repeat equal (200000-20000)/${rdf_every}
variable        rdf_repeat equal (200000-20000)/100

units           metal
boundary        p p p
atom_style      atomic

neighbor        2.0 bin
neigh_modify    every 20 delay 0 check no

read_data       water.lmp
Reading data file ...
  triclinic box = (0 0 0) to (12.4447 12.4447 12.4447) with tilt (0 0 0)
  1 by 2 by 2 MPI processor grid
  reading atoms ...
  192 atoms
  read_data CPU = 0.001 seconds
mass            1 16
mass            2 2

replicate       2 2 2
Replicating atoms ...
  triclinic box = (0 0 0) to (24.8894 24.8894 24.8894) with tilt (0 0 0)
  1 by 2 by 2 MPI processor grid
  1536 atoms
  replicate CPU = 0.000 seconds

pair_style      nvnmd model.pb
#pair_style      deepmd model.pb
pair_coeff	    * *

velocity        all create 330.0 12835

fix             1 all nvt temp 330.0 330.0 0.5
timestep        0.0005

# see lammps rdf API at https://lammps.sandia.gov/doc/compute_rdf.html
compute         myRDF all rdf 100 1 1 1 2 2 2
fix             2 all ave/time ${rdf_every} ${rdf_repeat} ${nsteps} c_myRDF[*] file tmp.rdf mode vector
fix             2 all ave/time 100 ${rdf_repeat} ${nsteps} c_myRDF[*] file tmp.rdf mode vector
fix             2 all ave/time 100 1800 ${nsteps} c_myRDF[*] file tmp.rdf mode vector
fix             2 all ave/time 100 1800 200000 c_myRDF[*] file tmp.rdf mode vector

thermo_style    custom step pe ke etotal temp press vol
thermo          200

run             ${nsteps}
run             200000
Generated 0 of 1 mixed pair_coeff terms from geometric mixing rule
Neighbor list info ...
  update every 20 steps, delay 0 steps, check no
  max neighbors/atom: 2000, page size: 100000
  master list distance cutoff = 8
  ghost atom cutoff = 8
  binsize = 4, bins = 7 7 7
  2 neighbor lists, perpetual/occasional/extra = 1 1 0
  (1) pair nvnmd, perpetual
      attributes: full, newton on
      pair build: full/bin/atomonly
      stencil: full/bin/3d
      bin: standard
  (2) compute rdf, occasional, copy from (1)
      attributes: full, newton on
      pair build: copy
      stencil: none
      bin: none
Per MPI rank memory allocation (min/avg/max) = 2.698 | 2.698 | 2.698 Mbytes
   Step         PotEng         KinEng         TotEng          Temp          Press          Volume    
         0   8868.535       65.476726      8934.0118      330            211.29098      15418.541    
       200   8887.123       62.92499       8950.048       317.13935     -109.77697      15418.541    
       400   8821.6193      64.589089      8886.2084      325.52634     -759.30167      15418.541    
       600   9012.1707      66.266796      9078.4375      333.98192     -1443.6027      15418.541    
       800   8917.696       65.024356      8982.7204      327.72007     -771.12564      15418.541    
      1000   8934.4534      64.616185      8999.0696      325.66291     -588.11478      15418.541    
      1200   9014.0942      65.411766      9079.5059      329.6726      -2510.5241      15418.541    
      1400   8856.1161      63.975487      8920.0915      322.43381      1034.3913      15418.541    
      1600   9014.4336      66.3152        9080.7488      334.22587     -1781.3687      15418.541    
      1800   8953.5168      63.985851      9017.5027      322.48605     -389.88322      15418.541    
      2000   8982.4833      67.743102      9050.2264      341.42244     -1664.2683      15418.541    
      2200   8905.1603      65.708382      8970.8687      331.16753     -547.22842      15418.541    
      2400   8889.8935      65.432773      8955.3263      329.77848     -758.14666      15418.541    
      2600   8906.3473      65.27882       8971.6261      329.00256     -2602.7454      15418.541    
      2800   8953.4414      66.357249      9019.7987      334.4378      -1548.8643      15418.541    
      3000   8840.1997      67.70124       8907.901       341.21146      478.8047       15418.541    
      3200   8906.4852      65.455357      8971.9406      329.8923      -1237.0057      15418.541    
      3400   9064.9077      67.000373      9131.9081      337.67911      350.91153      15418.541    
      3600   8793.2248      66.588498      8859.8133      335.60328     -1433.1004      15418.541    
      3800   8840.4169      67.237292      8907.6542      338.87318      791.00072      15418.541    
      4000   8857.409       66.047482      8923.4565      332.87658      674.85897      15418.541    
      4200   9031.0456      68.137225      9099.1828      343.4088      -1596.3553      15418.541    
      4400   8871.3101      67.505611      8938.8157      340.2255       1201.1007      15418.541    
      4600   8968.9144      65.454416      9034.3688      329.88756     -928.72307      15418.541    
      4800   8809.255       64.743214      8873.9983      326.30313     -1272.4589      15418.541    
      5000   8936.562       65.066568      9001.6286      327.93282      935.58214      15418.541    
      5200   8791.2595      65.953175      8857.2127      332.40128      1070.8026      15418.541    
      5400   8918.8536      65.965047      8984.8186      332.46112      2530.0019      15418.541    
      5600   8855.8674      64.609749      8920.4772      325.63047     -3796.6955      15418.541    
      5800   8854.6099      65.562937      8920.1728      330.4345      -1055.9484      15418.541    
      6000   8936.2019      63.769142      8999.971       321.39384      261.91358      15418.541    
      6200   8903.6629      64.219384      8967.8823      323.66305      267.59492      15418.541    
      6400   8949.45        66.393846      9015.8438      334.62225     -563.56081      15418.541    
      6600   8870.9512      64.89211       8935.8433      327.05356     -3154.8824      15418.541    
      6800   8950.5677      65.284222      9015.8519      329.02979     -2634.0872      15418.541    
      7000   8949.8404      66.073074      9015.9135      333.00556      611.46218      15418.541    
      7200   8793.4066      62.59777       8856.0044      315.49018     -927.9411       15418.541    
      7400   8935.5072      64.630239      9000.1375      325.73374      1026.0261      15418.541    
      7600   8854.4851      65.860083      8920.3452      331.9321      -867.46967      15418.541    
      7800   9000.2593      64.282987      9064.5423      323.9836      -1239.8884      15418.541    
      8000   8983.0381      65.728981      9048.7671      331.27135      528.44937      15418.541    
      8200   8840.0559      64.899561      8904.9554      327.09111     -2327.7144      15418.541    
      8400   8873.5094      63.665735      8937.1752      320.87268     -1094.151       15418.541    
      8600   9015.1791      66.187929      9081.3671      333.58443     -2822.5388      15418.541    
      8800   8902.8975      66.599546      8969.4971      335.65897     -1339.3626      15418.541    
      9000   8967.1662      66.443824      9033.61        334.87413     -1753.9384      15418.541    
      9200   8872.7714      64.887874      8937.6593      327.03221      1266.5782      15418.541    
      9400   8889.2714      64.466913      8953.7383      324.91058     -3153.0338      15418.541    
      9600   8935.0078      66.80234       9001.8101      336.68104     -2936.0425      15418.541    
      9800   8969.9298      63.99856       9033.9284      322.5501      -366.81032      15418.541    
     10000   8824.319       65.707519      8890.0266      331.16318      1427.909       15418.541    
     10200   8969.8213      64.283247      9034.1046      323.98491     -2151.1979      15418.541    
     10400   8905.5755      64.633372      8970.2088      325.74953     -359.17507      15418.541    
     10600   8760.1326      66.224896      8826.3575      333.77074     -2338.0025      15418.541    
     10800   8936.8313      65.7072        9002.5385      331.16158      112.5848       15418.541    
     11000   8938.2645      64.471319      9002.7358      324.93279     -1816.7215      15418.541    
     11200   8744.7103      66.260539      8810.9708      333.95038     -1582.1394      15418.541    
     11400   8794.3421      64.951599      8859.2937      327.35338      411.5096       15418.541    
     11600   8857.4729      66.20104       8923.674       333.65051     -2348.6353      15418.541    
     11800   8937.4754      66.600325      9004.0757      335.66289      2611.612       15418.541    
     12000   8809.3854      67.17175       8876.5572      338.54285     -374.51807      15418.541    
     12200   8729.4968      67.58493       8797.0817      340.62526      428.70404      15418.541    
     12400   8826.7198      66.888075      8893.6079      337.11314     -529.8452       15418.541    
     12600   8795.1348      66.943846      8862.0787      337.39422     -2235.9896      15418.541    
     12800   8860.3979      66.048184      8926.4461      332.88012      1312.3217      15418.541    
     13000   8904.8857      69.779444      8974.6652      351.68552     -245.4044       15418.541    
     13200   8969.6647      69.0052        9038.6699      347.78336     -918.52796      15418.541    
     13400   8906.0315      68.420643      8974.4521      344.83722     -278.82395      15418.541    
     13600   8857.3167      68.620098      8925.9367      345.84246     -1678.9501      15418.541    
     13800   8857.1127      68.015273      8925.128       342.79417      196.79541      15418.541    
     14000   8873.0556      67.212168      8940.2678      338.74655     -734.01104      15418.541    
     14200   8793.7182      65.712042      8859.4302      331.18598     -1656.0837      15418.541    
     14400   8712.1684      66.61855       8778.7869      335.75474      926.24562      15418.541    
     14600   8905.7931      64.500913      8970.2941      325.08194     -1158.1034      15418.541    
     14800   8840.3744      65.605048      8905.9794      330.64673      345.62832      15418.541    
     15000   8887.9918      65.748061      8953.7399      331.36751      2643.5513      15418.541    
     15200   9000.0913      65.415798      9065.5071      329.69292     -1055.8093      15418.541    
     15400   8873.6664      63.63363       8937.3         320.71087      596.40882      15418.541    
     15600   8855.3236      65.833084      8921.1567      331.79603      2981.2784      15418.541    
     15800   8951.0453      66.016876      9017.0622      332.72233     -452.66173      15418.541    
     16000   8806.2167      66.683191      8872.8999      336.08053      1269.6581      15418.541    
     16200   8823.9482      64.815781      8888.764       326.66886     -1813.1463      15418.541    
     16400   8983.5263      65.185365      9048.7116      328.53155     -694.6431       15418.541    
     16600   8966.716       65.972783      9032.6888      332.50011     -602.16428      15418.541    
     16800   8887.2983      65.402676      8952.701       329.62679      1185.9209      15418.541    
     17000   8777.0539      63.718998      8840.7729      321.14112     -889.34778      15418.541    
     17200   8921.1334      63.795582      8984.929       321.5271       279.32447      15418.541    
     17400   8969.6745      63.580674      9033.2552      320.44397      2563.8051      15418.541    
     17600   8886.8804      66.872565      8953.753       337.03497     -525.68489      15418.541    
     17800   8792.8518      65.499844      8858.3517      330.11651      1557.328       15418.541    
     18000   8745.2235      65.791793      8811.0153      331.58792     -307.1795       15418.541    
     18200   8793.5238      66.210133      8859.734       333.69634     -2082.3101      15418.541    
     18400   8842.7102      65.678193      8908.3884      331.01538     -812.39601      15418.541    
     18600   8745.4038      67.57967       8812.9835      340.59875      208.9022       15418.541    
     18800   8825.0927      68.289654      8893.3824      344.17704     -2339.4426      15418.541    
     19000   8922.6372      66.978518      8989.6157      337.56897     -3494.0703      15418.541    
     19200   8747.4688      66.287336      8813.7562      334.08544      592.88012      15418.541    
     19400   8843.6754      66.13086       8909.8062      333.29681     -1295.8129      15418.541    
     19600   8763.6205      66.195753      8829.8162      333.62387     -71.472083      15418.541    
     19800   8796.5258      65.264879      8861.7907      328.9323       1922.4085      15418.541    
     20000   8684.4501      65.278405      8749.7285      329.00047     -612.02238      15418.541    
     20200   8842.4056      67.263712      8909.6693      339.00634     -1056.4845      15418.541    
     20400   8795.0495      66.467159      8861.5166      334.99174     -2877.1311      15418.541    
     20600   8794.9255      66.328716      8861.2542      334.29399     -2615.7287      15418.541    
     20800   8970.8665      66.043869      9036.9104      332.85837     -1814.5832      15418.541    
     21000   8843.7445      64.699407      8908.444       326.08234     -938.10827      15418.541    
     21200   8906.0991      65.684747      8971.7839      331.04842     -574.96098      15418.541    
     21400   9097.9567      64.987824      9162.9445      327.53595     -4904.3372      15418.541    
     21600   8906.5259      63.51178       8970.0377      320.09675     -4588.1741      15418.541    
     21800   8936.3157      64.858218      9001.174       326.88274     -758.41293      15418.541    
     22000   8953.1521      63.361308      9016.5135      319.33838     -21.077098      15418.541    
     22200   8903.2134      64.896209      8968.1097      327.07421      1017.7413      15418.541    
     22400   8807.0341      64.843539      8871.8776      326.80876     -649.14572      15418.541    
     22600   9016.2175      63.626113      9079.8436      320.67298     -2263.4372      15418.541    
     22800   8824.9436      62.946844      8887.8905      317.2495      -1210.2486      15418.541    
     23000   8808.3063      63.782384      8872.0887      321.46058     -1902.7244      15418.541    
     23200   8838.5261      65.81024       8904.3364      331.6809      -840.00089      15418.541    
     23400   8982.342       66.284415      9048.6264      334.07072     -2496.737       15418.541    
     23600   8985.2866      63.7147        9049.0013      321.11946     -3898.1951      15418.541    
     23800   8936.6925      64.69979       9001.3923      326.08427     -2753.0796      15418.541    
     24000   8842.9067      62.853191      8905.7599      316.77749     -285.46955      15418.541    
     24200   8874.5578      63.59997       8938.1578      320.54123      1942.6352      15418.541    
     24400   8823.1861      67.371616      8890.5578      339.55017     -1187.9556      15418.541    
     24600   8923.3528      63.566377      8986.9192      320.37192     -1313.0174      15418.541    
     24800   8825.2445      66.019815      8891.2643      332.73715      114.98474      15418.541    
     25000   8858.9228      64.754064      8923.6768      326.35781     -599.3771       15418.541    
     25200   8923.2326      64.862995      8988.0956      326.90682     -63.448728      15418.541    
     25400   8906.2718      66.197995      8972.4698      333.63516     -3285.3633      15418.541    
     25600   8842.3356      66.508441      8908.844       335.1998      -330.97116      15418.541    
     25800   8777.6345      67.507219      8845.1418      340.2336       585.07911      15418.541    
     26000   9002.3543      67.014061      9069.3683      337.7481      -945.52158      15418.541    
     26200   8811.3826      66.091975      8877.4746      333.10083      182.51188      15418.541    
     26400   8890.8026      66.667492      8957.4701      336.00141     -225.66668      15418.541    
     26600   8744.6195      68.803227      8813.4227      346.76543      1312.8885      15418.541    
     26800   8891.5658      65.699324      8957.2651      331.12188     -720.97025      15418.541    
     27000   8825.5216      67.494722      8893.0164      340.17062      820.76378      15418.541    
     27200   8875.2142      65.507828      8940.722       330.15675     -437.5096       15418.541    
     27400   8778.9551      65.479622      8844.4347      330.01459     -502.91525      15418.541    
     27600   8969.8859      66.214929      9036.1009      333.72051      145.39158      15418.541    
     27800   8826.2213      65.619069      8891.8404      330.7174      -567.49085      15418.541    
     28000   8954.5125      65.123697      9019.6362      328.22074      329.79837      15418.541    
     28200   8890.3803      65.118107      8955.4985      328.19257     -737.41074      15418.541    
     28400   8889.1673      66.20587       8955.3732      333.67485     -362.85448      15418.541    
     28600   8907.2659      64.027111      8971.293       322.694       -2605.5188      15418.541    
     28800   8827.0254      64.293012      8891.3184      324.03413     -4150.8102      15418.541    
     29000   8984.7113      66.670793      9051.3821      336.01805     -390.07976      15418.541    
     29200   9003.8087      63.684446      9067.4931      320.96698     -203.18983      15418.541    
     29400   8939.6932      63.986881      9003.68        322.49124     -302.56974      15418.541    
     29600   8954.5401      65.394884      9019.9349      329.58752     -1274.5632      15418.541    
     29800   9052.1178      64.102483      9116.2203      323.07387     -558.24213      15418.541    
     30000   8858.3495      66.214026      8924.5636      333.71596     -1130.7324      15418.541    
     30200   9018.1636      66.766976      9084.9306      336.50281     -2829.5182      15418.541    
     30400   8778.4986      66.746234      8845.2449      336.39826     -2979.9304      15418.541    
     30600   8812.1429      65.365109      8877.508       329.43745      815.90478      15418.541    
     30800   8940.8385      64.923257      9005.7617      327.21053     -291.74956      15418.541    
     31000   8860.6313      65.381935      8926.0132      329.52226     -1454.7796      15418.541    
     31200   8861.1474      65.080597      8926.228       328.00352     -1141.2051      15418.541    
     31400   8956.9135      65.505243      9022.4187      330.14372     -1292.7077      15418.541    
     31600   8940.4956      66.078725      9006.5743      333.03405     -2386.2271      15418.541    
     31800   8794.5963      68.111793      8862.7081      343.28063     -1054.8412      15418.541    
     32000   8812.4745      66.272932      8878.7475      334.01284     -1856.7761      15418.541    
     32200   8986.6075      68.060423      9054.668       343.02173     -712.69616      15418.541    
     32400   8810.8405      67.641218      8878.4818      340.90895     -596.25806      15418.541    
     32600   8954.5401      67.545481      9022.0856      340.42644      133.5188       15418.541    
     32800   8828.7297      64.713087      8893.4428      326.15129      148.90736      15418.541    
     33000   8876.1639      64.43763       8940.6015      324.76299     -1074.5024      15418.541    
     33200   8987.4659      64.318105      9051.784       324.16059     -1460.3972      15418.541    
     33400   8826.2403      64.89751       8891.1378      327.08077     -399.99685      15418.541    
     33600   8793.3914      65.176391      8858.5678      328.48632     -596.25821      15418.541    
     33800   8871.4487      66.641821      8938.0905      335.87203     -2086.2748      15418.541    
     34000   8841.2668      64.438467      8905.7053      324.76721     -424.64953      15418.541    
     34200   8938.2512      63.227507      9001.4787      318.66403     -2098.6189      15418.541    
     34400   8809.6045      63.742755      8873.3473      321.26085     -642.80164      15418.541    
     34600   9033.7251      63.582751      9097.3078      320.45444     -3476.6271      15418.541    
     34800   8904.5926      64.725324      8969.3179      326.21296     -1953.4249      15418.541    
     35000   8889.0254      64.394139      8953.4195      324.5438      -2099.9352      15418.541    
     35200   8951.5099      66.122744      9017.6327      333.2559      -485.2052       15418.541    
     35400   8968.6826      65.294964      9033.9776      329.08392     -1120.335       15418.541    
     35600   8887.922       66.506316      8954.4283      335.18909     -974.9876       15418.541    
     35800   8922.9899      63.934903      8986.9248      322.22927     -2933.9639      15418.541    
     36000   9000.3351      67.11388       9067.449       338.25119      49.929261      15418.541    
     36200   8874.6549      65.253949      8939.9089      328.87721      122.90504      15418.541    
     36400   8827.782       64.551033      8892.333       325.33455      2878.1515      15418.541    
     36600   8938.7645      66.007551      9004.7721      332.67533     -1214.7509      15418.541    
     36800   8937.5812      67.628452      9005.2096      340.84461     -3125.1308      15418.541    
     37000   8873.7141      67.870823      8941.5849      342.06615     -1172.7146      15418.541    
     37200   8875.9365      65.914577      8941.8511      332.20675     -692.08792      15418.541    
     37400   8907.273       66.837545      8974.1105      336.85847      934.87364      15418.541    
     37600   8891.261       67.034001      8958.295       337.8486      -1118.4895      15418.541    
     37800   8970.9576      67.481134      9038.4388      340.10213     -1858.3179      15418.541    
     38000   8876.4766      66.094305      8942.5709      333.11257     -439.19989      15418.541    
     38200   8955.7061      66.9749        9022.681       337.55073     -652.89771      15418.541    
     38400   8957.4549      65.351288      9022.8062      329.36779      1653.069       15418.541    
     38600   9036.5029      66.370071      9102.873       334.50242     -1303.0154      15418.541    
     38800   8861.5764      65.206035      8926.7824      328.63573      653.6207       15418.541    
     39000   8971.4909      67.128195      9038.6191      338.32333     -1278.685       15418.541    
     39200   8811.3155      67.059938      8878.3755      337.97932      2268.0061      15418.541    
     39400   8875.2187      66.779963      8941.9987      336.56826     -6.8473127      15418.541    
     39600   8891.2861      66.230768      8957.5169      333.80034      99.489488      15418.541    
     39800   8730.8744      66.109482      8796.9839      333.18906     -633.71427      15418.541    
     40000   8733.6626      62.800307      8796.4629      316.51096      1114.9971      15418.541    
     40200   9000.9835      66.921094      9067.9046      337.27955     -1148.5185      15418.541    
     40400   8986.6937      64.707702      9051.4014      326.12415      232.97565      15418.541    
     40600   8905.8357      65.114228      8970.9499      328.17302     -1671.3312      15418.541    
     40800   9095.2498      67.275208      9162.525       339.06427     -442.01469      15418.541    
     41000   8761.7509      64.391234      8826.1421      324.52917     -789.22112      15418.541    
     41200   8968.6513      65.169422      9033.8207      328.4512       1339.7367      15418.541    
     41400   8918.5612      66.942528      8985.5038      337.38758     -98.004778      15418.541    
     41600   8999.771       65.435865      9065.2068      329.79406     -1334.1589      15418.541    
     41800   8887.6905      65.24254       8952.933       328.81971     -916.3855       15418.541    
     42000   8870.6538      66.044897      8936.6987      332.86355     -2428.2391      15418.541    
     42200   9031.5903      64.94404       9096.5343      327.31528     -1768.0744      15418.541    
     42400   8952.771       63.596622      9016.3677      320.52435     -245.83775      15418.541    
     42600   8983.7197      64.573733      9048.2934      325.44895     -1719.3404      15418.541    
     42800   9031.3559      64.93035       9096.2862      327.24629     -49.333232      15418.541    
     43000   8888.1515      64.209382      8952.3609      323.61263     -2704.7927      15418.541    
     43200   9032.9155      63.675681      9096.5912      320.9228      -3274.0266      15418.541    
     43400   8984.54        64.593595      9049.1336      325.54905     -419.93406      15418.541    
     43600   8841.6929      64.300058      8905.993       324.06964     -251.451        15418.541    
     43800   8777.0338      65.965066      8842.9989      332.46121      177.53181      15418.541    
     44000   8986.6988      65.262453      9051.9613      328.92007      643.28073      15418.541    
     44200   8873.666       66.97637       8940.6424      337.55814      914.91623      15418.541    
     44400   8827.1394      65.914044      8893.0535      332.20406     -1250.7734      15418.541    
     44600   8924.2684      65.048046      8989.3164      327.83947     -359.03692      15418.541    
     44800   9018.5348      66.99089       9085.5257      337.63132      212.05124      15418.541    
     45000   9018.5332      67.088552      9085.6218      338.12353     -56.573603      15418.541    
     45200   8892.2371      65.359812      8957.5969      329.41076      429.47807      15418.541    
     45400   8907.9389      65.571335      8973.5102      330.47682     -549.95824      15418.541    
     45600   8955.6163      65.745054      9021.3614      331.35236     -1401.9766      15418.541    
     45800   8923.0603      66.179619      8989.2399      333.54255     -1775.9493      15418.541    
     46000   8906.1353      66.909907      8973.0452      337.22317      66.840301      15418.541    
     46200   8891.7064      65.134704      8956.8411      328.27622     -1358.0404      15418.541    
     46400   9050.1522      66.378971      9116.5311      334.54728      93.794823      15418.541    
     46600   9034.2733      65.852552      9100.1259      331.89414     -401.84606      15418.541    
     46800   8778.1398      65.460353      8843.6001      329.91748      561.94119      15418.541    
     47000   8987.3718      63.649216      9051.021       320.78942      104.0278       15418.541    
     47200   8873.8296      64.611918      8938.4415      325.6414       1112.0898      15418.541    
     47400   9019.5821      62.338071      9081.9201      314.1813      -4.7780782      15418.541    
     47600   8761.6261      63.892723      8825.5188      322.01669      1293.5052      15418.541    
     47800   8841.1232      64.071345      8905.1945      322.91694     -468.73262      15418.541    
     48000   8935.9646      64.958936      9000.9235      327.39036      783.7916       15418.541    
     48200   8744.3231      64.372674      8808.6958      324.43562      1139.6316      15418.541    
     48400   8935.2905      65.240403      9000.5309      328.80894      266.0522       15418.541    
     48600   8873.2594      63.247088      8936.5065      318.76271     -935.5305       15418.541    
     48800   8952.1735      64.43589       9016.6094      324.75423      465.86137      15418.541    
     49000   8760.7839      64.113857      8824.8977      323.1312      -455.93378      15418.541    
     49200   8905.566       64.005666      8969.5717      322.58592      575.93903      15418.541    
     49400   8938.5352      64.182688      9002.7179      323.4781      -840.14934      15418.541    
     49600   8858.2179      65.755119      8923.973       331.40309     -2255.0233      15418.541    
     49800   8873.7856      67.082162      8940.8678      338.09133      656.19583      15418.541    
     50000   8843.9484      65.490092      8909.4385      330.06736      934.57705      15418.541    
     50200   8795.6659      66.171973      8861.8378      333.50401      1164.3747      15418.541    
     50400   8907.8249      66.226128      8974.051       333.77695     -1696.7032      15418.541    
     50600   8700.4447      65.761866      8766.2066      331.43709     -2929.9738      15418.541    
     50800   8810.7333      67.609675      8878.343       340.74997      514.0024       15418.541    
     51000   8747.3851      67.049843      8814.4349      337.92844     -796.88821      15418.541    
     51200   8893.1691      65.325187      8958.4943      329.23625     -299.83591      15418.541    
     51400   8828.6802      65.859389      8894.5396      331.9286      -1098.4124      15418.541    
     51600   8812.0425      66.539192      8878.5817      335.35478     -1551.5823      15418.541    
     51800   8926.1225      64.446336      8990.5688      324.80688     -3161.2484      15418.541    
     52000   8957.2557      65.219107      9022.4748      328.70161      136.43762      15418.541    
     52200   8861.7956      64.572773      8926.3683      325.44411      1253.5913      15418.541    
     52400   8778.9838      67.221588      8846.2054      338.79403      546.06466      15418.541    
     52600   8958.5059      63.558383      9022.0643      320.33163     -2330.6174      15418.541    
     52800   8765.2202      64.656324      8829.8765      325.86521     -3633.6084      15418.541    
     53000   8892.1709      65.519417      8957.6903      330.21516     -442.96367      15418.541    
     53200   8972.2197      65.255785      9037.4755      328.88647     -1270.3667      15418.541    
     53400   8796.1353      65.070576      8861.2059      327.95302      706.40544      15418.541    
     53600   8797.6399      63.25972       8860.8997      318.82638     -2413.9738      15418.541    
     53800   8875.8693      64.66426       8940.5335      325.9052       931.1632       15418.541    
     54000   8699.699       64.461206      8764.1602      324.88182     -40.286366      15418.541    
     54200   8875.8714      63.917139      8939.7886      322.13974     -2190.8467      15418.541    
     54400   8842.3113      65.125841      8907.4372      328.23155     -1622.3272      15418.541    
     54600   8825.8726      65.238256      8891.1108      328.79812      610.06719      15418.541    
     54800   8939.4185      63.404991      9002.8235      319.55854     -1064.7273      15418.541    
     55000   8857.1836      65.380427      8922.564       329.51465     -1523.8472      15418.541    
     55200   8841.7245      64.61225       8906.3368      325.64307     -2624.3268      15418.541    
     55400   9001.7517      64.364173      9066.1158      324.39278     -1214.1529      15418.541    
     55600   8971.8496      62.06508       9033.9147      312.80544      506.58025      15418.541    
     55800   8951.829       65.897828      9017.7268      332.12233     -1267.3666      15418.541    
     56000   8936.2058      65.274539      9001.4804      328.98099     -1384.1211      15418.541    
     56200   9000.3672      64.81256       9065.1798      326.65263     -1511.4468      15418.541    
     56400   8903.5029      65.301101      8968.804       329.11486     -836.2317       15418.541    
     56600   8935.7218      64.696888      9000.4187      326.06965     -1972.5354      15418.541    
     56800   8855.012       64.996479      8920.0085      327.57957     -1152.0135      15418.541    
     57000   8903.3643      64.288653      8967.6529      324.01216     -354.51494      15418.541    
     57200   8807.9209      63.424403      8871.3453      319.65637     -2781.5576      15418.541    
     57400   8855.3246      63.78739       8919.112       321.48581      700.74526      15418.541    
     57600   8982.3098      64.717061      9047.0269      326.17132     -239.00583      15418.541    
     57800   8950.3835      64.680889      9015.0644      325.98901     -4675.75        15418.541    
     58000   8904.6571      62.63857       8967.2957      315.69581      2453.3176      15418.541    
     58200   8824.6026      63.188984      8887.7916      318.46987      459.9885       15418.541    
     58400   8936.5612      63.930133      9000.4913      322.20523      110.50518      15418.541    
     58600   8807.3028      66.064405      8873.3672      332.96188      310.14141      15418.541    
     58800   8985.6831      64.519484      9050.2026      325.17554     -1013.7808      15418.541    
     59000   8889.0394      65.833383      8954.8728      331.79753      891.82457      15418.541    
     59200   8920.0458      67.329485      8987.3753      339.33782     -2543.384       15418.541    
     59400   8937.5195      66.181871      9003.7014      333.5539      -767.08151      15418.541    
     59600   8826.5938      65.328324      8891.9221      329.25206     -2803.8815      15418.541    
     59800   8904.9178      67.11709       8972.0349      338.26736     -2770.7977      15418.541    
     60000   8858.0222      66.018399      8924.0406      332.73001     -151.02947      15418.541    
     60200   8858.1491      65.895649      8924.0447      332.11135      874.21049      15418.541    
     60400   8922.4099      65.578758      8987.9886      330.51423     -825.17617      15418.541    
     60600   8887.8392      68.059703      8955.8989      343.0181      -1640.3896      15418.541    
     60800   8873.4314      66.24411       8939.6755      333.86758      31.048253      15418.541    
     61000   8953.5672      65.754663      9019.3219      331.40079     -144.43985      15418.541    
     61200   8809.0495      65.8586        8874.9081      331.92463      2282.7602      15418.541    
     61400   8745.3929      65.001948      8810.3949      327.60714     -1960.4008      15418.541    
     61600   8825.9846      63.906231      8889.8908      322.08477     -227.51361      15418.541    
     61800   8840.694       64.774609      8905.4686      326.46136     -170.69004      15418.541    
     62000   8742.3237      66.753247      8809.077       336.43361     -2294.4629      15418.541    
     62200   8888.583       64.148004      8952.731       323.3033      -505.18998      15418.541    
     62400   8952.4499      63.97141       9016.4213      322.41327     -480.89442      15418.541    
     62600   8887.9345      64.203804      8952.1383      323.58452      1515.6524      15418.541    
     62800   8918.3223      65.545828      8983.8681      330.34827     -48.021908      15418.541    
     63000   8838.8471      64.760708      8903.6078      326.3913      -1764.5309      15418.541    
     63200   8822.8063      64.463883      8887.2702      324.89531     -2548.9642      15418.541    
     63400   8884.0552      66.861986      8950.9172      336.98165     -2618.2688      15418.541    
     63600   8950.1083      64.323754      9014.432       324.18907      510.93239      15418.541    
     63800   8838.37        63.432806      8901.8028      319.69873     -1016.5336      15418.541    
     64000   8885.3679      63.822587      8949.1905      321.66321      628.79465      15418.541    
     64200   8899.9491      64.757133      8964.7062      326.37328     -656.88233      15418.541    
     64400   8981.2919      63.064014      9044.3559      317.84003     -1079.6292      15418.541    
     64600   8887.1148      61.113992      8948.2287      308.012        680.25791      15418.541    
     64800   8980.5747      63.703012      9044.2777      321.06055     -2736.7236      15418.541    
     65000   8902.1154      62.422414      8964.5379      314.60639     -1834.1971      15418.541    
     65200   8885.846       63.211847      8949.0578      318.5851      -207.52944      15418.541    
     65400   9030.2134      63.596663      9093.8101      320.52456     -177.3482       15418.541    
     65600   8886.9564      63.698936      8950.6553      321.04001     -2440.0122      15418.541    
     65800   8791.7463      63.690117      8855.4364      320.99556      129.16129      15418.541    
     66000   8841.5483      62.571265      8904.1195      315.35659      114.95954      15418.541    
     66200   8922.5427      62.08908       8984.6317      312.9264      -381.43466      15418.541    
     66400   8918.4602      66.571625      8985.0318      335.51824      7.7945133      15418.541    
     66600   8855.2305      66.128859      8921.3594      333.28672     -409.48674      15418.541    
     66800   8888.9369      64.766338      8953.7033      326.41967      66.260316      15418.541    
     67000   8872.2083      65.754375      8937.9626      331.39934     -1842.5564      15418.541    
     67200   9095.8096      66.344535      9162.1542      334.37372      586.9148       15418.541    
     67400   8937.4848      64.885692      9002.3705      327.02121     -1296.6224      15418.541    
     67600   8856.6421      65.949787      8922.5919      332.38421     -1077.6143      15418.541    
     67800   8858.8104      64.007758      8922.8181      322.59646     -399.4555       15418.541    
     68000   8823.6959      67.368055      8891.0639      339.53222     -256.57406      15418.541    
     68200   8922.7627      64.587882      8987.3506      325.52026     -537.31359      15418.541    
     68400   8633.4157      66.187522      8699.6033      333.58238     -825.02934      15418.541    
     68600   8953.0898      66.698077      9019.7879      336.15556     -2484.1021      15418.541    
     68800   8875.1962      64.837414      8940.0336      326.77789     -1254.6443      15418.541    
     69000   8954.678       65.670007      9020.348       330.97413     -346.97969      15418.541    
     69200   8956.2095      64.473715      9020.6832      324.94486     -1339.8297      15418.541    
     69400   8875.0172      66.062512      8941.0797      332.95233     -50.780242      15418.541    
     69600   8970.2759      67.248384      9037.5243      338.92908     -25.165797      15418.541    
     69800   8810.6208      67.25595       8877.8768      338.96721     -298.24033      15418.541    
     70000   8811.7289      66.399893      8878.1288      334.65272      373.45207      15418.541    
     70200   8861.0982      65.211321      8926.3096      328.66237     -486.69176      15418.541    
     70400   8908.0703      66.342675      8974.413       334.36434     -609.07213      15418.541    
     70600   9034.8522      67.612949      9102.4651      340.76647     -1031.7322      15418.541    
     70800   8843.0994      67.305187      8910.4046      339.21537     -2577.8852      15418.541    
     71000   8922.8918      67.308325      8990.2001      339.23118     -4005.55        15418.541    
     71200   8906.0744      67.764931      8973.8393      341.53246      1473.4929      15418.541    
     71400   8810.4155      66.861913      8877.2774      336.98128     -1017.5059      15418.541    
     71600   9019.148       65.431708      9084.5797      329.77311     -1242.3326      15418.541    
     71800   8905.4954      66.398468      8971.8938      334.64554      700.94528      15418.541    
     72000   8954.2787      64.917842      9019.1966      327.18325      700.5145       15418.541    
     72200   9097.545       65.040308      9162.5853      327.80047      539.78233      15418.541    
     72400   8840.2649      65.81825       8906.0831      331.72127     -1872.6323      15418.541    
     72600   8986.619       63.089734      9049.7088      317.96966     -349.34109      15418.541    
     72800   8937.9542      63.509338      9001.4635      320.08444      167.88867      15418.541    
     73000   8840.1324      65.172492      8905.3049      328.46667      413.69029      15418.541    
     73200   8936.4584      64.732113      9001.1905      326.24718     -645.17512      15418.541    
     73400   8728.1662      64.980614      8793.1468      327.49961     -1781.9224      15418.541    
     73600   8887.5133      65.687078      8953.2004      331.06016     -2289.8549      15418.541    
     73800   9000.1194      65.211784      9065.3312      328.6647      -1139.8859      15418.541    
     74000   8856.8181      64.706883      8921.525       326.12002     -1300.3539      15418.541    
     74200   8888.5894      65.201439      8953.7908      328.61256      359.01331      15418.541    
     74400   8840.6414      65.547024      8906.1884      330.3543      -1232.3133      15418.541    
     74600   8777.4805      65.187756      8842.6682      328.5436       513.04333      15418.541    
     74800   8970.2212      65.060158      9035.2814      327.90051     -834.2953       15418.541    
     75000   8970.4542      65.553903      9036.0081      330.38896      1175.8405      15418.541    
     75200   8811.3516      65.439688      8876.7913      329.81333     -2656.0629      15418.541    
     75400   8939.4683      66.025087      9005.4934      332.76372     -1204.8016      15418.541    
     75600   8875.8766      66.119987      8941.9966      333.242        1674.4995      15418.541    
     75800   8859.5012      66.787067      8926.2882      336.60406     -237.63333      15418.541    
     76000   8875.86        66.533302      8942.3934      335.3251      -20.571261      15418.541    
     76200   8876.3677      66.057319      8942.425       332.92616     -717.73925      15418.541    
     76400   8715.3457      67.041418      8782.3871      337.88598      310.76894      15418.541    
     76600   8860.7958      65.460637      8926.2565      329.91891     -3546.2029      15418.541    
     76800   8859.8101      66.257549      8926.0677      333.93531     -813.65754      15418.541    
     77000   8906.5272      67.2589        8973.7861      338.98208      2434.0629      15418.541    
     77200   8860.9116      64.606146      8925.5177      325.61231      569.00952      15418.541    
     77400   8843.5722      65.662173      8909.2344      330.93464     -1393.0835      15418.541    
     77600   8922.5786      66.330309      8988.9089      334.30202     -3579.7308      15418.541    
     77800   8841.5646      67.050832      8908.6155      337.93343     -1945.2923      15418.541    
     78000   8906.7994      65.574069      8972.3734      330.4906      -2286.1745      15418.541    
     78200   8939.1577      64.919818      9004.0775      327.1932      -868.25214      15418.541    
     78400   8793.7848      65.985326      8859.7701      332.56332     -1895.5512      15418.541    
     78600   8859.0413      64.417302      8923.4586      324.66054      711.91483      15418.541    
     78800   8857.7156      65.497948      8923.2135      330.10696     -442.37811      15418.541    
     79000   8857.9495      65.082779      8923.0323      328.01452      171.83775      15418.541    
     79200   8937.8063      65.134568      9002.9409      328.27554     -4192.838       15418.541    
     79400   8971.2718      63.645421      9034.9172      320.7703      -415.60833      15418.541    
     79600   8633.2175      65.692946      8698.9104      331.08974      2430.3466      15418.541    
     79800   8856.0366      66.856941      8922.8936      336.95622     -1830.1028      15418.541    
     80000   8810.3312      64.563405      8874.8946      325.3969       293.46692      15418.541    
     80200   8889.3492      65.604393      8954.9535      330.64344     -88.04531       15418.541    
     80400   8951.824       67.234817      9019.0589      338.8607      -1249.8607      15418.541    
     80600   8859.2865      63.768374      8923.0549      321.38998     -185.89957      15418.541    
     80800   8938.1874      64.864242      9003.0516      326.91311      893.67624      15418.541    
     81000   8940.0717      63.004128      9003.0759      317.53821     -548.48064      15418.541    
     81200   8873.3569      65.768512      8939.1254      331.47059      2603.4462      15418.541    
     81400   8904.9495      66.286271      8971.2357      334.08007     -243.4232       15418.541    
     81600   8940.4657      62.850583      9003.3163      316.76434      298.36275      15418.541    
     81800   8762.2487      65.208016      8827.4567      328.64571      361.00126      15418.541    
     82000   8924.752       62.964919      8987.7169      317.34059      58.700457      15418.541    
     82200   8794.7089      65.389586      8860.0985      329.56082      907.7471       15418.541    
     82400   8876.534       63.977872      8940.5118      322.44584     -731.34058      15418.541    
     82600   8984.9074      68.027956      9052.9354      342.85809     -879.03625      15418.541    
     82800   8906.5409      66.904796      8973.4456      337.19741     -1166.2456      15418.541    
     83000   8856.989       68.851184      8925.8402      347.00713     -1454.8291      15418.541    
     83200   8924.3222      65.763122      8990.0853      331.44342     -109.39041      15418.541    
     83400   8908.0577      66.208315      8974.266       333.68718     -131.88684      15418.541    
     83600   8796.3694      65.995324      8862.3647      332.61371      1222.3626      15418.541    
     83800   9081.6494      68.735168      9150.3846      346.42241     -182.219        15418.541    
     84000   8813.4729      64.791426      8878.2643      326.54611     -2612.8563      15418.541    
     84200   8954.856       67.184498      9022.0405      338.6071      -2455.6175      15418.541    
     84400   8891.2658      66.510641      8957.7764      335.21088     -3205.4996      15418.541    
     84600   8906.8221      66.545926      8973.368       335.38872      1057.6341      15418.541    
     84800   8843.1649      65.703006      8908.8679      331.14044     -984.91193      15418.541    
     85000   8905.8428      66.40675       8972.2495      334.68728      440.02531      15418.541    
     85200   8921.2446      66.354284      8987.5989      334.42285     -1756.3593      15418.541    
     85400   8890.4042      64.548193      8954.9524      325.32023     -1874.2392      15418.541    
     85600   8858.6243      63.763879      8922.3882      321.36732     -127.94463      15418.541    
     85800   8842.0039      63.959501      8905.9634      322.35324     -649.58072      15418.541    
     86000   8825.3432      64.311113      8889.6543      324.12536     -1530.8978      15418.541    
     86200   8889.758       63.737531      8953.4956      321.23452     -69.863277      15418.541    
     86400   8919.6941      65.72465       8985.4187      331.24952     -893.84522      15418.541    
     86600   8746.0233      63.408154      8809.4315      319.57448     -1539.4523      15418.541    
     86800   8952.0553      65.474764      9017.53        329.99011     -2733.0773      15418.541    
     87000   8809.4205      64.175963      8873.5965      323.44421     -2492.4182      15418.541    
     87200   8920.4929      65.190179      8985.6831      328.55582     -48.711107      15418.541    
     87400   8824.301       65.585454      8889.8864      330.54798      465.86679      15418.541    
     87600   8968.1295      66.0513        9034.1808      332.89583      366.34074      15418.541    
     87800   8841.716       64.73446       8906.4505      326.25901     -2143.206       15418.541    
     88000   8680.1218      66.588986      8746.7108      335.60574      440.35193      15418.541    
     88200   8793.3921      65.474174      8858.8663      329.98714      696.96792      15418.541    
     88400   8828.3775      62.587153      8890.9647      315.43667     -1651.1568      15418.541    
     88600   8873.8948      65.141633      8939.0365      328.31115     -420.80016      15418.541    
     88800   8858.8949      64.22771       8923.1226      323.70501     -723.40284      15418.541    
     89000   8743.5376      67.667677      8811.2053      341.0423      -1312.4555      15418.541    
     89200   8842.4347      64.79872       8907.2334      326.58287     -733.24873      15418.541    
     89400   9049.7488      65.473128      9115.2219      329.98186      673.68714      15418.541    
     89600   8872.018       67.18426       8939.2023      338.6059      -917.32871      15418.541    
     89800   8842.326       64.873828      8907.1998      326.96142     -2767.7316      15418.541    
     90000   8986.7582      64.370052      9051.1283      324.42241      525.98414      15418.541    
     90200   8937.8399      65.206273      9003.0461      328.63693     -1698.4832      15418.541    
     90400   8985.7463      65.195087      9050.9414      328.58055      325.0537       15418.541    
     90600   8968.5346      66.321576      9034.8562      334.25801     -1029.0565      15418.541    
     90800   9032.6233      66.109672      9098.733       333.19002     -1362.7992      15418.541    
     91000   8825.6092      65.007586      8890.6168      327.63555      266.86995      15418.541    
     91200   8873.4577      65.000741      8938.4584      327.60105      151.65033      15418.541    
     91400   8857.6924      64.61751       8922.3099      325.66959     -1570.4826      15418.541    
     91600   8920.1489      66.016872      8986.1658      332.72231     -1263.1462      15418.541    
     91800   8809.1882      64.791831      8873.98        326.54816      426.33988      15418.541    
     92000   8888.052       65.710097      8953.7621      331.17618     -103.04061      15418.541    
     92200   8823.8825      65.645175      8889.5277      330.84897     -364.54057      15418.541    
     92400   8871.2472      65.93494       8937.1821      332.30938     -324.07676      15418.541    
     92600   8884.6499      68.003376      8952.6533      342.73421      1614.9222      15418.541    
     92800   8918.3483      65.465464      8983.8138      329.94324     -61.412905      15418.541    
     93000   8967.2072      63.716358      9030.9235      321.12782     -1005.408       15418.541    
     93200   8838.7128      63.389396      8902.1022      319.47994      927.26449      15418.541    
     93400   9014.0887      63.510402      9077.5991      320.08981     -671.91752      15418.541    
     93600   8919.0966      62.188202      8981.2848      313.42597     -1111.8381      15418.541    
     93800   8854.3583      62.820209      8917.1785      316.61126      1810.3029      15418.541    
     94000   8999.6205      61.692891      9061.3134      310.92963     -2288.0048      15418.541    
     94200   8917.3114      64.322293      8981.6336      324.1817      -243.83855      15418.541    
     94400   8821.8308      64.267783      8886.0986      323.90697     -633.22469      15418.541    
     94600   9013.6537      64.973358      9078.6271      327.46304     -2748.3833      15418.541    
     94800   8885.0342      66.141269      8951.1754      333.34927      65.299149      15418.541    
     95000   8886.4372      65.227349      8951.6646      328.74315     -2337.6564      15418.541    
     95200   8840.4506      63.650698      8904.1013      320.79689     -879.30082      15418.541    
     95400   8870.8083      65.684368      8936.4926      331.04651     -3138.7382      15418.541    
     95600   9000.5297      64.279517      9064.8092      323.96611     -1140.173       15418.541    
     95800   8840.3687      64.724611      8905.0933      326.20937     -1985.5758      15418.541    
     96000   8950.9995      66.309386      9017.3089      334.19657     -1093.1794      15418.541    
     96200   8841.0444      64.554175      8905.5986      325.35038     -716.17423      15418.541    
     96400   8936.5948      65.319063      9001.9139      329.20538     -816.85772      15418.541    
     96600   8922.8773      63.3683        8986.2456      319.37362      800.64831      15418.541    
     96800   8889.6826      64.893355      8954.5759      327.05983      114.9008       15418.541    
     97000   8890.6896      64.271838      8954.9615      323.92741     -699.94999      15418.541    
     97200   8953.1846      66.198106      9019.3827      333.63572      886.65361      15418.541    
     97400   8889.9781      65.760388      8955.7385      331.42964     -1033.5929      15418.541    
     97600   8889.6444      66.360869      8956.0052      334.45604     -697.62106      15418.541    
     97800   8825.1631      67.094629      8892.2577      338.15416     -868.11522      15418.541    
     98000   8841.8928      66.535816      8908.4286      335.33777      876.82066      15418.541    
     98200   8810.7218      65.877097      8876.5989      332.01785      180.63847      15418.541    
     98400   8827.1337      65.527857      8892.6616      330.25769      819.96895      15418.541    
     98600   8873.6981      66.950753      8940.6488      337.42903      2017.4711      15418.541    
     98800   8827.2293      65.358393      8892.5877      329.4036      -195.71527      15418.541    
     99000   8953.9005      66.561357      9020.4618      335.46649     -2037.3819      15418.541    
     99200   8842.8106      65.395642      8908.2062      329.59134      118.04406      15418.541    
     99400   8776.8608      66.974912      8843.8357      337.55079      1328.1431      15418.541    
     99600   8937.6345      65.57456       9003.2091      330.49308     -73.337902      15418.541    
     99800   8951.8763      66.495881      9018.3722      335.1365      -68.796674      15418.541    
    100000   9077.4453      67.921759      9145.3671      342.32286      1520.6171      15418.541    
    100200   8933.7939      66.531511      9000.3254      335.31607      1645.9256      15418.541    
    100400   8967.6195      63.951001      9031.5705      322.31041     -2813.884       15418.541    
    100600   8902.2689      64.869082      8967.138       326.9375       89.05772       15418.541    
    100800   8887.1916      63.720929      8950.9126      321.15085     -1859.8373      15418.541    
    101000   8855.3487      63.471002      8918.8197      319.89123      1881.5271      15418.541    
    101200   8870.965       63.922003      8934.887       322.16426     -2352.7176      15418.541    
    101400   8742.9979      64.082148      8807.08        322.97138      1107.3476      15418.541    
    101600   9014.9171      64.355081      9079.2722      324.34695      467.79605      15418.541    
    101800   8997.66        65.886964      9063.547       332.06758     -1318.3818      15418.541    
    102000   8823.9824      63.879912      8887.8623      321.95212     -76.674399      15418.541    
    102200   8934.5011      65.730608      9000.2317      331.27955      3402.0632      15418.541    
    102400   8775.0653      65.615474      8840.6808      330.69928      213.17956      15418.541    
    102600   8807.2601      65.862682      8873.1228      331.9452       1249.1827      15418.541    
    102800   8999.2674      66.249795      9065.5172      333.89623     -906.698        15418.541    
    103000   8967.9538      65.912963      9033.8667      332.19862      1341.6616      15418.541    
    103200   8935.3701      66.851018      9002.2211      336.92637      829.92204      15418.541    
    103400   8968.518       66.018681      9034.5367      332.73143     -2534.1496      15418.541    
    103600   8791.9463      66.875105      8858.8214      337.04777      3846.0217      15418.541    
    103800   9049.8964      65.162243      9115.0586      328.41502     -2272.472       15418.541    
    104000   8905.604       65.665843      8971.2698      330.95314      1158.1043      15418.541    
    104200   8936.6586      66.829669      9003.4882      336.81878     -1168.7253      15418.541    
    104400   8936.4964      67.197379      9003.6938      338.67202     -1040.4343      15418.541    
    104600   8808.4655      67.37902       8875.8445      339.58748      540.23519      15418.541    
    104800   8937.6572      66.328868      9003.9861      334.29476     -520.0819       15418.541    
    105000   8970.4698      65.741721      9036.2115      331.33556      1386.7932      15418.541    
    105200   8796.5785      63.908669      8860.4872      322.09705     -1036.2811      15418.541    
    105400   8953.3224      67.432613      9020.755       339.85759     -1111.8748      15418.541    
    105600   8858.494       66.489751      8924.9838      335.1056      -1113.4758      15418.541    
    105800   8875.3722      65.853054      8941.2253      331.89667     -1415.9631      15418.541    
    106000   8956.2179      65.301827      9021.5198      329.11851     -594.63725      15418.541    
    106200   8892.6554      65.041995      8957.6974      327.80897      1620.9212      15418.541    
    106400   8891.2967      66.477037      8957.7737      335.04152      701.29896      15418.541    
    106600   8844.1782      65.661105      8909.8393      330.92926      621.95672      15418.541    
    106800   8796.2963      65.563823      8861.8602      330.43896      2511.8087      15418.541    
    107000   8985.5455      68.199993      9053.7454      343.72515      738.19559      15418.541    
    107200   8811.0458      66.392252      8877.438       334.61421      2350.4272      15418.541    
    107400   8779.174       65.921364      8845.0953      332.24096     -155.54858      15418.541    
    107600   8922.4491      66.206612      8988.6557      333.67859      1038.0007      15418.541    
    107800   8907.6461      64.495331      8972.1414      325.05381     -923.13765      15418.541    
    108000   8922.4399      65.159455      8987.5993      328.40096     -50.726981      15418.541    
    108200   8938.2772      64.750824      9003.028       326.34148     -2368.7015      15418.541    
    108400   8908.384       62.122402      8970.5064      313.09435      1436.1917      15418.541    
    108600   8906.6587      63.514984      8970.1737      320.1129      -2204.8365      15418.541    
    108800   8934.8477      67.054434      9001.9021      337.95158     -1681.6065      15418.541    
    109000   8792.9075      64.77231       8857.6798      326.44977     -1018.2371      15418.541    
    109200   8856.7156      64.825465      8921.5411      326.71767     -696.51819      15418.541    
    109400   8951.9428      65.540841      9017.4837      330.32314     -1808.1582      15418.541    
    109600   8935.0014      66.514332      9001.5157      335.22949     -329.77151      15418.541    
    109800   9000.4971      65.078561      9065.5757      327.99326     -1631.9452      15418.541    
    110000   8791.2896      66.388416      8857.6781      334.59488      2251.9958      15418.541    
    110200   8871.5885      66.252393      8937.8409      333.90933     -1782.5606      15418.541    
    110400   8808.2152      65.83976       8874.0549      331.82967     -357.67217      15418.541    
    110600   8919.8055      66.514772      8986.3203      335.23171     -395.77043      15418.541    
    110800   8935.9273      66.811429      9002.7387      336.72685      479.68235      15418.541    
    111000   8841.3357      66.076969      8907.4126      333.0252      -3230.4532      15418.541    
    111200   8938.3464      65.87012       9004.2165      331.98269     -1357.1503      15418.541    
    111400   8825.6925      67.372179      8893.0647      339.553       -35.342206      15418.541    
    111600   8971.5856      66.256054      9037.8417      333.92778     -1800.4696      15418.541    
    111800   8844.0193      66.423083      8910.4424      334.7696       302.97311      15418.541    
    112000   8953.4149      69.417634      9022.8325      349.86201     -949.12823      15418.541    
    112200   8908.4384      66.527424      8974.9659      335.29547     -372.0055       15418.541    
    112400   8827.317       67.693632      8895.0106      341.17311     -2530.1472      15418.541    
    112600   8844.7566      66.213819      8910.9705      333.71491     -362.8156       15418.541    
    112800   8795.9166      66.946605      8862.8632      337.40813      217.13046      15418.541    
    113000   8959.4154      63.307077      9022.7225      319.06506     -2959.5989      15418.541    
    113200   8893.1362      65.399694      8958.5359      329.61176     -735.23679      15418.541    
    113400   8796.2957      65.97365       8862.2693      332.50448      560.28712      15418.541    
    113600   8828.7867      65.14476       8893.9315      328.3269      -2546.486       15418.541    
    113800   8844.0941      65.368941      8909.463       329.45677      849.45016      15418.541    
    114000   8842.8379      66.031334      8908.8692      332.7952      -2163.1249      15418.541    
    114200   8909.6976      62.469834      8972.1674      314.84539     -720.84231      15418.541    
    114400   8842.1133      65.398647      8907.512       329.60649     -1254.2568      15418.541    
    114600   8939.5704      63.359011      9002.9295      319.3268       378.03476      15418.541    
    114800   8731.1756      63.349428      8794.525       319.2785      -603.7263       15418.541    
    115000   8859.9511      62.297366      8922.2485      313.97616      918.6574       15418.541    
    115200   8825.6346      64.479236      8890.1139      324.97269     -2485.9071      15418.541    
    115400   8936.2364      65.833979      9002.0704      331.80054     -957.45568      15418.541    
    115600   8953.1265      64.978956      9018.1055      327.49126     -4534.1536      15418.541    
    115800   8902.5958      67.576048      8970.1719      340.58049     -1060.8793      15418.541    
    116000   8937.1857      65.022693      9002.2084      327.71169     -1713.9874      15418.541    
    116200   8874.1207      64.130641      8938.2513      323.21579     -922.03825      15418.541    
    116400   8921.0434      65.295177      8986.3386      329.085       -152.55513      15418.541    
    116600   8938.1487      64.293189      9002.4419      324.03502     -799.08339      15418.541    
    116800   8936.4027      66.146463      9002.5491      333.37545      307.30509      15418.541    
    117000   8905.7748      64.908552      8970.6834      327.13642     -3790.7867      15418.541    
    117200   8873.9496      64.903584      8938.8531      327.11139     -2104.9384      15418.541    
    117400   8873.4878      65.587511      8939.0753      330.55835     -290.73054      15418.541    
    117600   8921.7595      65.52661       8987.2861      330.25141     -2216.6859      15418.541    
    117800   9032.7139      66.754087      9099.468       336.43784      1070.0706      15418.541    
    118000   9036.1722      63.471048      9099.6433      319.89147     -1399.1248      15418.541    
    118200   8906.7701      65.052366      8971.8225      327.86124     -2558.2462      15418.541    
    118400   8779.9524      64.058165      8844.0106      322.85051      1996.3772      15418.541    
    118600   8920.7673      67.434085      8988.2013      339.86501      2664.2778      15418.541    
    118800   8829.5176      62.82742       8892.345       316.6476      -826.95978      15418.541    
    119000   8797.2349      63.227577      8860.4625      318.66438     -1282.1747      15418.541    
    119200   8921.8017      66.863563      8988.6652      336.9896      -588.09903      15418.541    
    119400   8859.1378      65.894447      8925.0322      332.1053       855.31666      15418.541    
    119600   8940.7994      64.830617      9005.63        326.74364     -3018.5767      15418.541    
    119800   8858.5039      67.946842      8926.4508      342.44928     -1971.9549      15418.541    
    120000   8670.9015      64.524884      8735.4264      325.20275     -134.51455      15418.541    
    120200   8815.3332      64.987567      8880.3207      327.53466     -3226.3351      15418.541    
    120400   8912.0621      64.912897      8976.975       327.15832     -462.82005      15418.541    
    120600   8895.3193      66.108294      8961.4276      333.18307     -3591.3957      15418.541    
    120800   8894.4707      67.23049       8961.7012      338.8389      -525.0425       15418.541    
    121000   8845.3388      68.428443      8913.7672      344.87653     -1151.2805      15418.541    
    121200   8892.8325      68.781332      8961.6139      346.65507     -187.76014      15418.541    
    121400   8748.6903      68.577962      8817.2683      345.6301      -114.4082       15418.541    
    121600   8909.8312      66.9622        8976.7934      337.48672      366.37557      15418.541    
    121800   8846.804       65.403651      8912.2076      329.6317       745.33519      15418.541    
    122000   8732.8384      66.810838      8799.6492      336.72387     -650.94543      15418.541    
    122200   8988.0862      66.98833       9055.0745      337.61842     -1039.4228      15418.541    
    122400   8907.682       66.861656      8974.5437      336.97999      1974.8078      15418.541    
    122600   8813.9002      64.211329      8878.1116      323.62245     -2288.8456      15418.541    
    122800   8875.8431      65.938135      8941.7812      332.32548     -354.59928      15418.541    
    123000   9018.3923      67.128179      9085.5205      338.32325      530.73892      15418.541    
    123200   8812.7917      64.54161       8877.3334      325.28705     -1573.5143      15418.541    
    123400   8906.7905      66.371538      8973.1621      334.50981      627.34311      15418.541    
    123600   8843.8435      65.148666      8908.9921      328.34659     -550.64462      15418.541    
    123800   8892.1826      64.727478      8956.91        326.22382      435.05229      15418.541    
    124000   8875.6784      65.154646      8940.8331      328.37673     -880.15319      15418.541    
    124200   8811.3884      65.330307      8876.7187      329.26205      146.23253      15418.541    
    124400   8793.0744      67.443856      8860.5182      339.91425      350.64035      15418.541    
    124600   8875.2244      65.067575      8940.2919      327.9379       544.94902      15418.541    
    124800   8873.161       66.866738      8940.0277      337.0056      -807.49422      15418.541    
    125000   8746.2126      65.505262      8811.7179      330.14382     -126.46914      15418.541    
    125200   8938.3371      64.993642      9003.3307      327.56527     -1082.0832      15418.541    
    125400   8827.1547      63.704279      8890.859       321.06694     -674.6598       15418.541    
    125600   8921.5166      64.804602      8986.3212      326.61252     -1333.8062      15418.541    
    125800   8920.1255      65.558176      8985.6836      330.4105      -213.51308      15418.541    
    126000   8936.017       64.976262      9000.9933      327.47768     -1448.5164      15418.541    
    126200   8873.1376      63.107829      8936.2454      318.06085     -734.81721      15418.541    
    126400   8936.3221      63.205275      8999.5274      318.55198     -4094.8206      15418.541    
    126600   8730.3369      60.588448      8790.9254      305.36328     -54.73031       15418.541    
    126800   8982.4224      64.115605      9046.538       323.14001      1197.133       15418.541    
    127000   8984.4199      61.904144      9046.324       311.99433      1347.8722      15418.541    
    127200   8918.6585      63.644453      8982.3029      320.76542      509.46847      15418.541    
    127400   8999.812       62.658758      9062.4708      315.79755     -2415.5388      15418.541    
    127600   8951.6176      63.372243      9014.9898      319.39349     -681.74454      15418.541    
    127800   8968.0434      63.842812      9031.8863      321.76514     -1410.4091      15418.541    
    128000   8999.9262      65.239083      9065.1652      328.80229      861.32288      15418.541    
    128200   8857.2599      65.047639      8922.3075      327.83741     -3479.9906      15418.541    
    128400   8955.1717      63.854145      9019.0259      321.82225     -1076.8588      15418.541    
    128600   8905.5426      65.912372      8971.455       332.19564     -4451.1302      15418.541    
    128800   8843.7719      64.027862      8907.7998      322.69778     -96.939539      15418.541    
    129000   8764.8167      63.368584      8828.1853      319.37505     -2970.691       15418.541    
    129200   8908.1787      64.407221      8972.5859      324.60974      893.89828      15418.541    
    129400   8892.1352      64.881949      8957.0171      327.00235      843.62833      15418.541    
    129600   8717.0045      64.435901      8781.4404      324.75428      1487.3355      15418.541    
    129800   8860.4326      65.454581      8925.8872      329.88839     -1344.0904      15418.541    
    130000   8829.0193      65.307634      8894.327       329.14778     -2839.4733      15418.541    
    130200   8893.6075      65.16094       8958.7684      328.40845     -2604.8906      15418.541    
    130400   8782.676       64.545145      8847.2211      325.30487     -1836.1856      15418.541    
    130600   8752.081       63.566127      8815.6471      320.37066     -143.94002      15418.541    
    130800   8798.3873      65.691845      8864.0791      331.08419     -2817.1745      15418.541    
    131000   8814.5125      66.029654      8880.5422      332.78673      10.621513      15418.541    
    131200   8828.6722      68.210618      8896.8828      343.7787      -1980.4759      15418.541    
    131400   8894.5702      66.496749      8961.067       335.14087     -3388.3208      15418.541    
    131600   8878.3931      66.739277      8945.1324      336.3632      -2515.281       15418.541    
    131800   8735.2158      65.871731      8801.0876      331.99081      72.550418      15418.541    
    132000   8783.5885      65.343222      8848.9317      329.32714     -0.77097002     15418.541    
    132200   8878.1818      66.484948      8944.6667      335.08139     -3673.2263      15418.541    
    132400   8734.4525      65.860492      8800.313       331.93416     -865.58035      15418.541    
    132600   8860.5346      67.255621      8927.7902      338.96556     -1557.693       15418.541    
    132800   8956.0226      67.060804      9023.0835      337.98369     -467.85236      15418.541    
    133000   8973.8746      64.441486      9038.3161      324.78243     -1017.8049      15418.541    
    133200   8938.1837      67.390742      9005.5745      339.64656     -533.93791      15418.541    
    133400   8908.3013      64.680114      8972.9814      325.98511     -1360.2867      15418.541    
    133600   8955.5439      65.004502      9020.5484      327.62001     -971.68296      15418.541    
    133800   8811.9965      64.241913      8876.2384      323.77659      888.64411      15418.541    
    134000   8810.2749      65.794663      8876.0696      331.60239      109.38614      15418.541    
    134200   8908.371       63.657599      8972.0286      320.83167     -3149.4723      15418.541    
    134400   8955.1237      64.922433      9020.0461      327.20638     -736.54034      15418.541    
    134600   8922.6945      65.44756       8988.1421      329.853       -1725.4134      15418.541    
    134800   8909.4472      62.842948      8972.2902      316.72586     -100.69943      15418.541    
    135000   8810.1412      66.338943      8876.4802      334.34554     -282.66162      15418.541    
    135200   8747.8843      64.836348      8812.7206      326.77252      2637.9777      15418.541    
    135400   8939.1143      65.87544       9004.9897      332.0095      -891.28274      15418.541    
    135600   8924.0861      65.173823      8989.26        328.47338      1038.08        15418.541    
    135800   8732.1534      65.330411      8797.4838      329.26258      557.56067      15418.541    
    136000   8876.0205      65.718489      8941.7389      331.21847      542.61527      15418.541    
    136200   8843.397       66.551696      8909.9487      335.4178      -2711.8859      15418.541    
    136400   8925.7131      64.464769      8990.1778      324.89977     -2792.0647      15418.541    
    136600   8813.4142      65.031775      8878.4459      327.75746     -806.26526      15418.541    
    136800   8797.1993      65.528293      8862.7275      330.25989      934.9261       15418.541    
    137000   8845.1395      65.972757      8911.1123      332.49997     -421.35299      15418.541    
    137200   8843.9173      67.683103      8911.6004      341.12005     -604.64329      15418.541    
    137400   8972.676       67.505973      9040.182       340.22732      962.21461      15418.541    
    137600   8971.8777      68.794383      9040.672       346.72085     -843.43686      15418.541    
    137800   8798.7106      66.409201      8865.1198      334.69963      664.91863      15418.541    
    138000   8687.5269      66.060779      8753.5877      332.9436      -241.10763      15418.541    
    138200   8735.2581      66.735295      8801.9934      336.34314      1073.4285      15418.541    
    138400   8863.177       67.089547      8930.2666      338.12855     -852.84513      15418.541    
    138600   8831.1366      67.213569      8898.3502      338.75361     -1031.8565      15418.541    
    138800   8734.3709      67.880586      8802.2515      342.11535      1324.2192      15418.541    
    139000   8862.0552      67.925509      8929.9807      342.34176      1714.8285      15418.541    
    139200   8845.6718      67.82584       8913.4976      341.83944     -2338.5521      15418.541    
    139400   8780.7708      67.986106      8848.7569      342.64717     -571.33542      15418.541    
    139600   8878.7208      65.16706       8943.8879      328.43929      343.99902      15418.541    
    139800   8764.416       66.601556      8831.0175      335.6691      -363.8602       15418.541    
    140000   8700.7259      65.636016      8766.362       330.80281      1230.9272      15418.541    
    140200   8940.2381      65.626297      9005.8644      330.75383     -1051.4272      15418.541    
    140400   8827.602       65.929043      8893.531       332.27966     -501.35982      15418.541    
    140600   8844.746       64.494407      8909.2404      325.04915      596.81507      15418.541    
    140800   8781.8658      63.273108      8845.1389      318.89385     -465.8828       15418.541    
    141000   8858.8064      66.294222      8925.1006      334.12014     -997.91204      15418.541    
    141200   8940.2351      64.845784      9005.0809      326.82007     -290.78614      15418.541    
    141400   8845.0225      64.08996       8909.1125      323.01076     -1064.5839      15418.541    
    141600   8860.0596      65.106055      8925.1656      328.13183     -667.62256      15418.541    
    141800   8877.1604      64.15315       8941.3136      323.32923      325.86134      15418.541    
    142000   8779.8276      65.679528      8845.5071      331.02211     -1981.795       15418.541    
    142200   8844.0544      65.722975      8909.7774      331.24108      593.90624      15418.541    
    142400   8829.0761      64.940905      8894.017       327.29948     -753.94141      15418.541    
    142600   8938.809       67.48726       9006.2962      340.13301     -762.27446      15418.541    
    142800   8892.8273      65.763309      8958.5906      331.44436     -2371.0604      15418.541    
    143000   8970.8204      68.098737      9038.9192      343.21482     -1990.9316      15418.541    
    143200   8826.8211      68.405319      8895.2264      344.75998     -376.15417      15418.541    
    143400   8844.1318      67.379702      8911.5115      339.59092     -453.64323      15418.541    
    143600   8781.7568      66.000933      8847.7577      332.64198     -2204.0056      15418.541    
    143800   8829.8539      66.046463      8895.9004      332.87145     -1022.1075      15418.541    
    144000   8812.7618      67.208157      8879.97        338.72634     -2161.3412      15418.541    
    144200   8844.2145      67.684086      8911.8986      341.125       -557.09315      15418.541    
    144400   8877.4773      66.173567      8943.6509      333.51205      430.39376      15418.541    
    144600   8732.4974      66.699813      8799.1972      336.1643      -350.21603      15418.541    
    144800   8859.2515      67.313333      8926.5648      339.25642      1138.9365      15418.541    
    145000   8921.8941      67.900221      8989.7943      342.21431      393.18921      15418.541    
    145200   8890.8896      66.054777      8956.9444      332.91335     -739.47785      15418.541    
    145400   9034.1316      66.000558      9100.1321      332.64009     -580.92578      15418.541    
    145600   8906.0997      65.375389      8971.4751      329.48926      1551.9679      15418.541    
    145800   9016.7741      66.142775      9082.9169      333.35686     -2411.9875      15418.541    
    146000   8825.3592      65.155636      8890.5148      328.38172      315.70863      15418.541    
    146200   8920.6125      65.587458      8986.2         330.55808     -1397.5166      15418.541    
    146400   8873.1176      64.831745      8937.9493      326.74932     -2307.6074      15418.541    
    146600   8950.2154      67.527047      9017.7425      340.33353     -769.38501      15418.541    
    146800   8935.5263      66.024086      9001.5504      332.75867      12.811346      15418.541    
    147000   9065.5388      63.832356      9129.3712      321.71244     -2140.194       15418.541    
    147200   8872.4504      64.863482      8937.3139      326.90927      538.6004       15418.541    
    147400   8855.1588      66.062023      8921.2208      332.94987     -783.61071      15418.541    
    147600   8920.1859      64.952891      8985.1388      327.35989     -1661.5977      15418.541    
    147800   8837.2469      67.808999      8905.0559      341.75456      48.772511      15418.541    
    148000   8825.3313      63.549535      8888.8809      320.28704      489.75225      15418.541    
    148200   8968.2142      64.488048      9032.7022      325.0171       127.34183      15418.541    
    148400   8823.6076      64.963604      8888.5712      327.41388     -55.02386       15418.541    
    148600   9030.9164      65.556415      9096.4728      330.40163     -1645.2699      15418.541    
    148800   8970.4911      61.905273      9032.3963      312.00002     -211.93371      15418.541    
    149000   8856.5949      63.754416      8920.3493      321.31963      1996.8857      15418.541    
    149200   8934.8698      65.510065      9000.3798      330.16802     -330.34479      15418.541    
    149400   8934.657       65.809765      9000.4668      331.6785      -1024.9581      15418.541    
    149600   8967.6398      64.988854      9032.6287      327.54114     -2072.999       15418.541    
    149800   9031.3294      65.51345       9096.8429      330.18509      366.88847      15418.541    
    150000   8919.0694      66.100133      8985.1695      333.14194      374.97249      15418.541    
    150200   9048.2647      65.307923      9113.5726      329.14924     -896.64474      15418.541    
    150400   8889.576       64.435688      8954.0117      324.75321     -357.26888      15418.541    
    150600   8728.5928      65.870101      8794.4629      331.98259      1272.605       15418.541    
    150800   8904.8361      66.09897       8970.9351      333.13608      1362.3842      15418.541    
    151000   8999.7272      67.556156      9067.2834      340.48024      1111.116       15418.541    
    151200   8952.3494      67.170763      9019.5201      338.53788     -1241.404       15418.541    
    151400   8889.2675      66.362907      8955.6304      334.46631      271.44314      15418.541    
    151600   8696.6472      67.035912      8763.6831      337.85823      896.7552       15418.541    
[...]
    163400   9000.0254      65.03451       9065.0599      327.77125     -877.01667      15418.541    
    163600   8873.7145      64.009833      8937.7244      322.60692     -128.13397      15418.541    
    163800   8889.4754      64.896193      8954.3716      327.07413     -1722.0593      15418.541    
    164000   8809.1258      65.839133      8874.965       331.82651     -325.91103      15418.541    
    164200   9016.4221      66.994723      9083.4168      337.65064     -1392.3873      15418.541    
    164400   8954.6354      65.09916       9019.7346      328.09708     -2186.8523      15418.541    
    164600   9032.4719      67.462734      9099.9347      340.0094      -2248.1651      15418.541    
    164800   8713.9471      66.1051        8780.0522      333.16698     -965.84087      15418.541    
    165000   8826.0772      66.022979      8892.1001      332.75309      2775.9707      15418.541    
    165200   8808.3476      67.76772       8876.1153      341.54651     -308.51103      15418.541    
    165400   8969.2841      66.701975      9035.986       336.1752      -1148.272       15418.541    
    165600   8969.8044      65.978985      9035.7834      332.53136     -941.19746      15418.541    
    165800   8794.2296      65.293444      8859.523       329.07626     -589.7282       15418.541    
    166000   8682.626       64.658538      8747.2845      325.87636      230.85071      15418.541    
    166200   8809.4923      65.58234       8875.0747      330.53229     -1698.1781      15418.541    
    166400   8793.1591      65.711016      8858.8701      331.18081      219.25338      15418.541    
    166600   8937.0873      65.574981      9002.6622      330.4952      -1165.0833      15418.541    
    166800   8775.3789      67.035375      8842.4143      337.85553      958.28054      15418.541    
    167000   8953.7376      64.379109      9018.1167      324.46805     -569.96238      15418.541    
    167200   8791.6605      66.0331        8857.6936      332.8041      -2453.7888      15418.541    
    167400   8905.0538      64.111301      8969.1651      323.11831     -679.77733      15418.541    
    167600   8743.8409      64.689028      8808.5299      326.03003     -358.08272      15418.541    
    167800   8901.9293      65.80359       8967.7329      331.64738     -290.68349      15418.541    
    168000   8982.1383      64.709862      9046.8481      326.13503     -1723.3773      15418.541    
    168200   8997.096       64.913119      9062.0092      327.15944      763.82154      15418.541    
    168400   8933.3304      64.059565      8997.3899      322.85757     -2655.1132      15418.541    
    168600   8995.0707      65.949687      9061.0204      332.3837       966.37391      15418.541    
    168800   9013.0894      63.702809      9076.7922      321.05953     -762.16101      15418.541    
    169000   8853.886       62.809379      8916.6954      316.55668      236.96581      15418.541    
    169200   8997.389       63.396552      9060.7856      319.516        1291.3806      15418.541    
    169400   9061.4559      63.54336       9124.9993      320.25591     -1898.6273      15418.541    
    169600   8949.7556      63.502084      9013.2577      320.04789     -1799.7741      15418.541    
    169800   8790.9729      62.590341      8853.5632      315.45273      1343.2001      15418.541    
    170000   9014.0667      63.831017      9077.8977      321.70569     -1511.5421      15418.541    
    170200   8902.1406      64.079618      8966.2202      322.95863     -356.31315      15418.541    
    170400   8982.9238      63.640537      9046.5644      320.74568     -1165.4217      15418.541    
    170600   8869.2203      65.657157      8934.8774      330.90936     -416.31368      15418.541    
    170800   8853.8522      65.283278      8919.1355      329.02503     -2010.8033      15418.541    
    171000   8932.1562      67.213299      8999.3695      338.75225     -2129.1884      15418.541    
    171200   8950.8965      64.712608      9015.6091      326.14888     -1617.5294      15418.541    
    171400   8885.9209      65.925727      8951.8466      332.26295     -1882.7876      15418.541    
    171600   8984.3337      63.769603      9048.1033      321.39617     -532.99315      15418.541    
    171800   8694.945       65.454471      8760.3995      329.88784     -16.861233      15418.541    
    172000   9015.051       65.691604      9080.7426      331.08297     -170.09124      15418.541    
    172200   8903.6588      65.445578      8969.1044      329.84301      1210.3261      15418.541    
    172400   8840.8075      64.60461       8905.4121      325.60457      513.98165      15418.541    
    172600   8824.1787      65.509174      8889.6879      330.16354      1699.6997      15418.541    
    172800   8854.4771      67.410396      8921.8875      339.74561     -1654.4734      15418.541    
    173000   8968.3019      65.779072      9034.081       331.52381     -695.27106      15418.541    
    173200   8873.2543      64.969718      8938.224       327.4447       576.6842       15418.541    
    173400   8795.0791      63.330572      8858.4097      319.18347     -672.18841      15418.541    
    173600   8937.622       65.047906      9002.6699      327.83876     -1274.2023      15418.541    
    173800   8938.4388      64.625511      9003.0644      325.70991      839.7987       15418.541    
    174000   8907.0671      64.609192      8971.6763      325.62766      1764.0926      15418.541    
    174200   9033.3112      67.214772      9100.526       338.75968      1919.6147      15418.541    
    174400   8794.1613      67.336832      8861.4981      339.37486      2788.8942      15418.541    
    174600   8682.0397      68.266418      8750.3062      344.05993      1338.6866      15418.541    
    174800   8810.5429      68.352805      8878.8957      344.49532      1124.824       15418.541    
    175000   8827.8181      67.405033      8895.2231      339.71858     -1279.2831      15418.541    
    175200   8893.0694      66.268252      8959.3377      333.98925     -184.68224      15418.541    
    175400   8860.0424      67.245852      8927.2882      338.91632     -2333.6475      15418.541    
    175600   8940.2254      66.888225      9007.1136      337.11389     -1846.0831      15418.541    
    175800   8876.2488      66.567658      8942.8165      335.49825      486.45746      15418.541    
    176000   8779.3062      67.173914      8846.4802      338.55375      1224.9614      15418.541    
    176200   8986.8627      67.207097      9054.0698      338.721        342.65055      15418.541    
    176400   8812.9043      64.7295        8877.6338      326.23401     -1812.9337      15418.541    
    176600   9033.8166      67.355617      9101.1722      339.46953     -857.32758      15418.541    
    176800   8938.4768      66.352767      9004.8296      334.41521     -1141.8284      15418.541    
    177000   8684.1945      64.389032      8748.5835      324.51806     -1512.955       15418.541    
    177200   8826.7586      65.598973      8892.3575      330.61612     -1353.395       15418.541    
    177400   8923.3505      64.820742      8988.1712      326.69386     -676.87215      15418.541    
    177600   8842.6006      65.419236      8908.0198      329.71025     -672.62085      15418.541    
    177800   8872.3504      67.523033      8939.8735      340.3133      -960.42882      15418.541    
    178000   8793.3755      66.320995      8859.6965      334.25508      169.78083      15418.541    
    178200   8842.1702      65.339031      8907.5093      329.30602     -874.5743       15418.541    
    178400   8889.2944      66.038347      8955.3327      332.83054      1732.0282      15418.541    
    178600   8938.0345      65.128986      9003.1635      328.2474      -1156.3149      15418.541    
    178800   8936.4293      66.587159      9003.0165      335.59653     -1207.1897      15418.541    
    179000   8873.5075      65.370894      8938.8784      329.46661     -1691.4229      15418.541    
    179200   8954.2533      64.440542      9018.6938      324.77767     -2676.5107      15418.541    
    179400   8727.7211      66.73846       8794.4595      336.35909      573.92329      15418.541    
    179600   8875.9764      62.253271      8938.2297      313.75392     -1066.7248      15418.541    
    179800   8810.1827      63.812367      8873.9951      321.6117       220.73516      15418.541    
    180000   8887.2283      66.510207      8953.7385      335.2087      -611.03425      15418.541    
    180200   8793.2116      64.26799       8857.4796      323.90802      546.78533      15418.541    
    180400   8983.328       65.85225       9049.1802      331.89262     -456.58683      15418.541    
    180600   8887.5513      65.287228      8952.8386      329.04494     -661.85339      15418.541    
    180800   8856.2894      64.098911      8920.3883      323.05586     -692.97221      15418.541    
    181000   8872.7939      63.149212      8935.9431      318.26943     -1681.4658      15418.541    
    181200   8935.5321      64.034703      8999.5668      322.73226     -1834.2468      15418.541    
    181400   8808.0919      63.172054      8871.2639      318.38455      731.39781      15418.541    
    181600   8823.2004      63.847765      8887.0482      321.7901      -1994.6006      15418.541    
    181800   8902.9385      64.004602      8966.9431      322.58055      1430.3903      15418.541    
    182000   8871.2203      63.7496        8934.9699      321.29535      691.4287       15418.541    
    182200   8870.5283      64.610506      8935.1388      325.63429      1756.5594      15418.541    
    182400   8839.447       64.00042       8903.4474      322.55948     -581.0954       15418.541    
    182600   8871.9973      63.942052      8935.9393      322.2653       1603.8228      15418.541    
    182800   8839.5686      64.983924      8904.5525      327.51629      379.81678      15418.541    
    183000   8952.6277      64.656767      9017.2845      325.86744      26.200436      15418.541    
    183200   8969.0899      64.948162      9034.0381      327.33606     -454.15661      15418.541    
    183400   8951.5085      67.184189      9018.6926      338.60554     -1870.6884      15418.541    
    183600   9049.3527      65.83126       9115.1839      331.78684     -1382.4242      15418.541    
    183800   8938.2919      65.268887      9003.5608      328.9525      -429.81255      15418.541    
    184000   8891.32        64.49331       8955.8133      325.04362      2522.7012      15418.541    
    184200   8954.6339      65.372931      9020.0068      329.47688     -2501.6049      15418.541    
    184400   8923.1089      65.020173      8988.129       327.69899     -2174.446       15418.541    
    184600   8826.6258      65.634857      8892.2606      330.79697      2103.7323      15418.541    
    184800   8731.7441      64.694278      8796.4384      326.05649     -13.203177      15418.541    
    185000   8971.4883      65.063102      9036.5514      327.91535      239.37767      15418.541    
    185200   8891.2032      65.420056      8956.6232      329.71438     -1403.8169      15418.541    
    185400   8796.0132      64.65912       8860.6724      325.8793       1458.5418      15418.541    
    185600   8907.5965      65.143365      8972.7399      328.31987     -189.64463      15418.541    
    185800   8921.4976      67.368199      8988.8658      339.53295     -1418.8047      15418.541    
    186000   8952.7255      68.176124      9020.9016      343.60485     -686.78074      15418.541    
    186200   8876.8005      64.032868      8940.8334      322.72301     -1497.136       15418.541    
    186400   8859.1536      65.608054      8924.7617      330.66189     -1270.7338      15418.541    
    186600   8938.4395      66.231509      9004.671       333.80407     -464.71142      15418.541    
    186800   9019.1852      65.239893      9084.425       328.80637     -547.04618      15418.541    
    187000   8890.6495      65.36667       8956.0162      329.44532     -1378.7146      15418.541    
    187200   8905.8352      65.628072      8971.4633      330.76277      2088.8128      15418.541    
    187400   8939.1055      63.766848      9002.8723      321.38228     -1064.1023      15418.541    
    187600   9033.7966      64.530832      9098.3274      325.23273     -6138.514       15418.541    
    187800   8952.1852      65.648059      9017.8333      330.86351     -817.98506      15418.541    
    188000   8826.407       63.03432       8889.4413      317.69037      60.508208      15418.541    
    188200   8858.4065      62.747271      8921.1538      316.24366     -2717.1791      15418.541    
    188400   8952.3304      64.628703      9016.9591      325.726        870.24872      15418.541    
    188600   8650.1968      62.602027      8712.7988      315.51163     -822.34889      15418.541    
    188800   8874.114       62.621827      8936.7358      315.61142      982.02176      15418.541    
    189000   8983.5376      65.282226      9048.8198      329.01973      1518.8455      15418.541    
    189200   8873.5643      63.486205      8937.0505      319.96785     -1367.6355      15418.541    
    189400   8968.9707      64.514836      9033.4855      325.15211     -597.43637      15418.541    
    189600   8970.8202      63.301117      9034.1213      319.03502      724.80013      15418.541    
    189800   8889.3838      65.507107      8954.891       330.15311     -1302.0517      15418.541    
    190000   9019.2275      64.433709      9083.6612      324.74323     -1871.6886      15418.541    
    190200   8890.9749      65.378694      8956.3536      329.50592      2131.5709      15418.541    
    190400   8779.2076      65.667267      8844.8748      330.96031      193.77525      15418.541    
    190600   8699.5774      65.619039      8765.1965      330.71725      75.6959        15418.541    
    190800   8858.2115      67.207199      8925.4187      338.72151      265.05973      15418.541    
    191000   8890.9177      66.574687      8957.4923      335.53368     -789.8097       15418.541    
    191200   8826.8947      66.655985      8893.5507      335.94341      1373.3914      15418.541    
    191400   8920.7964      68.710532      8989.5069      346.29825     -1027.9518      15418.541    
    191600   8812.807       64.576945      8877.3839      325.46514     -3759.2366      15418.541    
    191800   8809.2592      67.942498      8877.2017      342.42739     -2840.0588      15418.541    
    192000   9048.8317      68.159023      9116.9907      343.51867     -2259.9407      15418.541    
    192200   8732.3516      64.362351      8796.714       324.38359      300.71196      15418.541    
    192400   8906.8594      65.544707      8972.4041      330.34262     -2062.5552      15418.541    
    192600   8940.7861      63.326885      9004.113       319.16489     -785.47912      15418.541    
    192800   8842.4482      65.423268      8907.8714      329.73057     -2160.2951      15418.541    
    193000   8826.8659      64.710819      8891.5767      326.13986     -1027.7455      15418.541    
    193200   9033.5263      65.72008       9099.2463      331.22649     -1277.7527      15418.541    
    193400   8970.9629      63.884784      9034.8477      321.97667     -2156.7169      15418.541    
    193600   8873.6031      64.787522      8938.3906      326.52644     -1350.2064      15418.541    
    193800   8874.6797      63.183501      8937.8632      318.44224     -1006.6819      15418.541    
    194000   8920.099       65.173833      8985.2729      328.47343      494.43908      15418.541    
    194200   8984.6115      64.008234      9048.6198      322.59886     -3055.8086      15418.541    
    194400   9000.6523      63.307262      9063.9596      319.06599      393.68777      15418.541    
    194600   8919.1853      64.218456      8983.4037      323.65837     -1078.7513      15418.541    
    194800   8933.4262      65.41709       8998.8433      329.69943      818.48087      15418.541    
    195000   8836.9102      65.459634      8902.3699      329.91386     -2248.4671      15418.541    
    195200   8901.217       64.735838      8965.9528      326.26595      1864.2897      15418.541    
    195400   8885.4224      64.215047      8949.6374      323.64119     -3392.5864      15418.541    
    195600   8884.2855      65.12517       8949.4107      328.22817      537.89442      15418.541    
    195800   8933.3068      63.930036      8997.2368      322.20474     -1118.0686      15418.541    
    196000   8918.5706      62.52663       8981.0972      315.13164      510.12888      15418.541    
    196200   8805.2717      63.731545      8869.0033      321.20436      1118.3119      15418.541    
    196400   8870.3028      62.731303      8933.0341      316.16318      1154.3263      15418.541    
    196600   8805.8132      63.5216        8869.3348      320.14624     -734.6493       15418.541    
    196800   8934.3301      63.576393      8997.9065      320.4224       761.59515      15418.541    
    197000   8919.6788      63.104432      8982.7832      318.04374     -1454.5518      15418.541    
    197200   8918.259       65.528584      8983.7876      330.26136      364.71567      15418.541    
    197400   8921.5743      63.148618      8984.7229      318.26643     -1193.6728      15418.541    
    197600   8950.7027      66.728405      9017.4311      336.30841     -655.01821      15418.541    
    197800   8918.9014      67.095472      8985.9969      338.15841     -292.52521      15418.541    
    198000   8856.4438      65.954044      8922.3979      332.40566      277.40567      15418.541    
    198200   8871.547       67.206811      8938.7538      338.71955      2813.8371      15418.541    
    198400   8888.8475      66.198346      8955.0459      333.63693     -657.82546      15418.541    
    198600   8919.4179      67.86708       8987.2849      342.04728     -1612.9837      15418.541    
    198800   8891.6953      63.692426      8955.3877      321.0072       801.62631      15418.541    
    199000   8986.1491      65.335454      9051.4845      329.28799     -3546.5516      15418.541    
    199200   8890.0495      65.520453      8955.5699      330.22038     -203.68583      15418.541    
    199400   8890.5396      65.098497      8955.6381      328.09374     -1336.4116      15418.541    
    199600   8824.5348      67.1292        8891.664       338.3284      -1021.3458      15418.541    
    199800   8954.5068      65.136845      9019.6436      328.28701     -517.45338      15418.541    
    200000   8792.8953      66.714214      8859.6095      336.23689      514.23662      15418.541    
Loop time of 286.048 on 4 procs for 200000 steps with 1536 atoms

Performance: 30.205 ns/day, 0.795 hours/ns, 699.183 timesteps/s
88.4% CPU use with 4 MPI tasks x no OpenMP threads

MPI task timing breakdown:
Section |  min time  |  avg time  |  max time  |%varavg| %total
---------------------------------------------------------------
Pair    | 147.42     | 198.02     | 248.48     | 267.8 | 69.23
Neigh   | 25.526     | 25.621     | 25.68      |   1.1 |  8.96
Comm    | 7.8661     | 58.239     | 108.86     | 493.5 | 20.36
Output  | 0.01693    | 0.020986   | 0.032965   |   4.8 |  0.01
Modify  | 3.6734     | 3.7194     | 3.7397     |   1.4 |  1.30
Other   |            | 0.4243     |            |       |  0.15

Nlocal:            384 ave         390 max         378 min
Histogram: 1 1 0 0 0 0 0 0 1 1
Nghost:           2924 ave        2942 max        2902 min
Histogram: 1 0 0 0 0 1 1 0 0 1
Neighs:              0 ave           0 max           0 min
Histogram: 4 0 0 0 0 0 0 0 0 0
FullNghs:      81878.5 ave       83444 max       80541 min
Histogram: 1 1 0 0 0 0 0 1 0 1

Total # of neighbors = 327514
Ave neighs/atom = 213.22526
Neighbor list builds = 10000
Dangerous builds not checked
Total wall time: 0:04:53
