LAMMPS (4 May 2022)


units           metal
boundary        p p p
atom_style      atomic

neighbor        1.0 bin
neigh_modify    every 10 delay 0 check no

read_data       ./crd.lmp
Reading data file ...
  orthogonal box = (0 0 0) to (12.359372 12.359372 12.359372)
  2 by 2 by 2 MPI processor grid
  reading atoms ...
  64 atoms
  read_data CPU = 0.000 seconds
replicate       2 2 2
Replicating atoms ...
  orthogonal box = (0 0 0) to (24.718744 24.718744 24.718744)
  2 by 2 by 2 MPI processor grid
  512 atoms
  replicate CPU = 0.000 seconds

pair_style      deepmd ./model.pb
Summary of lammps deepmd module ...
  >>> Info of deepmd-kit:
  installed to:       /home/mph/WorkSpace/deepmd-kit/smooth/ws-install/mdpu/dp-2.1.0/bin
  source:             v2.1.4-40-g112f3b1-dirty
  source branch:       devel
  source commit:      112f3b1
  source commit at:   2022-09-23 14:42:32 +0800
  surpport model ver.:1.1 
  build float prec:   double
  build variant:      cpu
  build with tf inc:  /home/mph/.conda/envs/dp-2.1.0/include;/home/mph/.conda/envs/dp-2.1.0/include
  build with tf lib:  /home/mph/.conda/envs/dp-2.1.0/lib/libtensorflow_cc.so;/home/mph/.conda/envs/dp-2.1.0/lib/libtensorflow_framework.so
  set tf intra_op_parallelism_threads: 0
  set tf inter_op_parallelism_threads: 0
  >>> Info of lammps module:
  use deepmd-kit at:  /home/mph/WorkSpace/deepmd-kit/smooth/ws-install/mdpu/dp-2.1.0/bin
  source:             v2.1.4-39-gbeadfeb-dirty
  source branch:      devel
  source commit:      beadfeb
  source commit at:   2022-09-16 15:20:44 +0800
  build float prec:   double
  build with tf inc:  /home/mph/.conda/envs/dp-2.1.0/include;/home/mph/.conda/envs/dp-2.1.0/include
  build with tf lib:  /home/mph/.conda/envs/dp-2.1.0/lib/libtensorflow_cc.so;/home/mph/.conda/envs/dp-2.1.0/lib/libtensorflow_framework.so
pair_coeff      * *

variable        run0    equal   5000
variable        run1    equal   250
variable        run2    equal   5000
variable        run3    equal   100
variable        run4    equal   1000
variable        run5    equal   10000

variable        temp1   equal   300.0
variable        temp2   equal   1800.0
variable        temp3   equal   1000.0
variable        temp4   equal   600.0

variable        dt          equal       2e-3
variable        tau         equal       ${dt}*100
variable        tau         equal       0.002*100
variable        showt   equal   100
variable        dumpt   equal   1

velocity        all create ${temp1} 123456789
velocity        all create 300 123456789
timestep        ${dt}
timestep        0.002
thermo_style    custom step pe ke etotal temp press vol
thermo          ${showt}
thermo          100

#### s1-crystal-300K
label		crystal
fix             0 all nvt temp ${temp1} ${temp1} ${tau}
fix             0 all nvt temp 300 ${temp1} ${tau}
fix             0 all nvt temp 300 300 ${tau}
fix             0 all nvt temp 300 300 0.2
dump            1 all custom ${dumpt} crystal.dump id type x y z
dump            1 all custom 1 crystal.dump id type x y z
run             ${run0}
run             5000

CITE-CITE-CITE-CITE-CITE-CITE-CITE-CITE-CITE-CITE-CITE-CITE-CITE

Your simulation uses code contributions which should be cited:

- USER-DEEPMD package:

@article{Wang_ComputPhysCommun_2018_v228_p178,
  author = {Wang, Han and Zhang, Linfeng and Han, Jiequn and E, Weinan},
  doi = {10.1016/j.cpc.2018.03.016},
  url = {https://doi.org/10.1016/j.cpc.2018.03.016},
  year = 2018,
  month = {jul},
  publisher = {Elsevier {BV}},
  volume = 228,
  journal = {Comput. Phys. Commun.},
  title = {{DeePMD-kit: A deep learning package for many-body potential energy representation and molecular dynamics}},
  pages = {178--184}
}

CITE-CITE-CITE-CITE-CITE-CITE-CITE-CITE-CITE-CITE-CITE-CITE-CITE

Generated 0 of 1 mixed pair_coeff terms from geometric mixing rule
Neighbor list info ...
  update every 10 steps, delay 0 steps, check no
  max neighbors/atom: 2000, page size: 100000
  master list distance cutoff = 8
  ghost atom cutoff = 8
  binsize = 4, bins = 7 7 7
  1 neighbor lists, perpetual/occasional/extra = 1 0 0
  (1) pair deepmd, perpetual
      attributes: full, newton on
      pair build: full/bin/atomonly
      stencil: full/bin/3d
      bin: standard
Per MPI rank memory allocation (min/avg/max) = 3.845 | 3.845 | 3.845 Mbytes
   Step         PotEng         KinEng         TotEng          Temp          Press          Volume    
         0  -84417.111      19.81558      -84397.296      300           -35461.35       15103.555    
       100  -84408.284      12.70749      -84395.577      192.38635     -25987.483      15103.555    
       200  -84406.424      14.319071     -84392.105      216.78503     -23004.35       15103.555    
       300  -84403.458      15.286002     -84388.172      231.42398     -26520.721      15103.555    
       400  -84402.197      17.995353     -84384.201      272.44249     -23310.733      15103.555    
       500  -84400.087      18.916916     -84381.17       286.39457     -22366.378      15103.555    
       600  -84400.497      21.389882     -84379.107      323.8343      -23115.083      15103.555    
       700  -84400.632      21.219784     -84379.412      321.25909     -24139.534      15103.555    
       800  -84400.961      20.004679     -84380.956      302.86288     -23138.293      15103.555    
       900  -84401.346      18.622237     -84382.723      281.93325     -24679.366      15103.555    
      1000  -84402.161      19.164921     -84382.996      290.14928     -24283.159      15103.555    
      1100  -84401.657      19.443568     -84382.213      294.36789     -23197.392      15103.555    
      1200  -84401.071      20.315216     -84380.756      307.56429     -23355.02       15103.555    
      1300  -84400.379      20.421298     -84379.957      309.17032     -23227.679      15103.555    
      1400  -84400.446      20.016102     -84380.43       303.03581     -22453.843      15103.555    
      1500  -84401.38       19.868655     -84381.512      300.80353     -22158.584      15103.555    
      1600  -84402.802      20.11216      -84382.69       304.4901      -23115.319      15103.555    
      1700  -84402.339      19.241967     -84383.097      291.31572     -24503.877      15103.555    
      1800  -84402.171      20.231378     -84381.939      306.29501     -24020.338      15103.555    
      1900  -84400.498      19.843706     -84380.655      300.42582     -21765.253      15103.555    
      2000  -84400.03       19.728887     -84380.301      298.68749     -21987.524      15103.555    
      2100  -84400.506      19.090723     -84381.416      289.02595     -22911.805      15103.555    
      2200  -84401.16       18.849584     -84382.31       285.3752      -22813.046      15103.555    
      2300  -84402.116      20.194207     -84381.921      305.73226     -23748.981      15103.555    
      2400  -84401.289      19.795031     -84381.494      299.68889     -23143.063      15103.555    
      2500  -84401.883      20.134783     -84381.748      304.83261     -23479.828      15103.555    
      2600  -84402.727      18.720416     -84384.007      283.41964     -23160.855      15103.555    
      2700  -84403.663      19.036449     -84384.626      288.20426     -23996.046      15103.555    
      2800  -84403.106      20.050552     -84383.055      303.55738     -23141.04       15103.555    
      2900  -84401.971      19.881323     -84382.09       300.99532     -23049.014      15103.555    
      3000  -84401.118      19.628045     -84381.49       297.16079     -23557.983      15103.555    
      3100  -84401.244      19.919191     -84381.324      301.56862     -21524.078      15103.555    
      3200  -84401.483      19.4035       -84382.08       293.76127     -22447.621      15103.555    
      3300  -84401.832      18.315895     -84383.517      277.29536     -24072.649      15103.555    
      3400  -84403.131      19.739244     -84383.392      298.8443      -23493.168      15103.555    
      3500  -84401.971      20.115303     -84381.856      304.53768     -23097.814      15103.555    
      3600  -84401.812      20.858369     -84380.954      315.7874      -23335.648      15103.555    
      3700  -84400.818      19.267368     -84381.551      291.70028     -22830.683      15103.555    
      3800  -84401.517      19.120254     -84382.396      289.47304     -23143.458      15103.555    
      3900  -84402.812      19.488555     -84383.323      295.04896     -23844.388      15103.555    
      4000  -84403.24       20.391933     -84382.848      308.72576     -23508.479      15103.555    
      4100  -84401.043      20.340275     -84380.703      307.94368     -22792.46       15103.555    
      4200  -84401.096      20.488613     -84380.607      310.18944     -22831.845      15103.555    
      4300  -84402.008      20.589833     -84381.418      311.72189     -23286.792      15103.555    
      4400  -84401.262      18.770876     -84382.491      284.18359     -23310.43       15103.555    
      4500  -84402.346      20.038524     -84382.308      303.37528     -22922.356      15103.555    
      4600  -84401.352      19.203469     -84382.149      290.73288     -23439.047      15103.555    
      4700  -84401.387      19.394478     -84381.992      293.62468     -23698.512      15103.555    
      4800  -84402.044      20.147278     -84381.897      305.02177     -22138.357      15103.555    
      4900  -84402.074      19.130464     -84382.943      289.62761     -22497.928      15103.555    
      5000  -84402.46       18.139785     -84384.32       274.62912     -23571.741      15103.555    
Loop time of 1694.09 on 8 procs for 5000 steps with 512 atoms

Performance: 0.510 ns/day, 47.058 hours/ns, 2.951 timesteps/s
43.1% CPU use with 8 MPI tasks x no OpenMP threads

MPI task timing breakdown:
Section |  min time  |  avg time  |  max time  |%varavg| %total
---------------------------------------------------------------
Pair    | 540.96     | 549.79     | 557.51     |  24.3 | 32.45
Neigh   | 0.060307   | 0.28173    | 0.61075    |  42.9 |  0.02
Comm    | 670.9      | 679.51     | 685.58     |  18.2 | 40.11
Output  | 275.43     | 292.91     | 328.34     |  94.9 | 17.29
Modify  | 148.11     | 171.53     | 192.64     | 102.0 | 10.13
Other   |            | 0.06175    |            |       |  0.00

Nlocal:             64 ave          64 max          64 min
Histogram: 8 0 0 0 0 0 0 0 0 0
Nghost:        872.875 ave         892 max         852 min
Histogram: 1 0 1 1 1 1 1 0 1 1
Neighs:              0 ave           0 max           0 min
Histogram: 8 0 0 0 0 0 0 0 0 0
FullNghs:         5071 ave        5088 max        5058 min
Histogram: 1 1 0 3 0 1 0 0 0 2

Total # of neighbors = 40568
Ave neighs/atom = 79.234375
Neighbor list builds = 500
Dangerous builds not checked
write_restart	s1-crystal.restart
System init for write_restart ...
Generated 0 of 1 mixed pair_coeff terms from geometric mixing rule
unfix           0
undump		1


#### s2-melt-2000K
## increase temperature:
variable	i loop 100
variable        t1    equal   ${temp1}
variable        t1    equal   300
label		melt
variable        t1    equal   ${t1}+50
variable        t1    equal   300+50
variable        t2    equal   ${t1}+50
variable        t2    equal   350+50
fix             1 all nvt temp ${t1} ${t1} ${tau}
fix             1 all nvt temp 350 ${t1} ${tau}
fix             1 all nvt temp 350 350 ${tau}
fix             1 all nvt temp 350 350 0.2
run             ${run1}
run             250
Generated 0 of 1 mixed pair_coeff terms from geometric mixing rule
Per MPI rank memory allocation (min/avg/max) = 2.592 | 2.592 | 2.592 Mbytes
   Step         PotEng         KinEng         TotEng          Temp          Press          Volume    
      5000  -84402.46       18.139785     -84384.32       274.62912     -23571.741      15103.555    
      5100  -84402.786      20.656477     -84382.129      312.73084     -22603.935      15103.555    
      5200  -84400.446      20.82353      -84379.623      315.25996     -22827.23       15103.555    
      5250  -84399.194      21.047114     -84378.147      318.64493     -22301.5        15103.555    
Loop time of 89.6146 on 8 procs for 250 steps with 512 atoms

Performance: 0.482 ns/day, 49.786 hours/ns, 2.790 timesteps/s
39.4% CPU use with 8 MPI tasks x no OpenMP threads

MPI task timing breakdown:
Section |  min time  |  avg time  |  max time  |%varavg| %total
---------------------------------------------------------------
Pair    | 15.007     | 16.805     | 18.214     |  21.5 | 18.75
Neigh   | 0.0031204  | 0.085253   | 0.21486    |  26.4 |  0.10
Comm    | 60.761     | 61.672     | 63.137     |   9.2 | 68.82
Output  | 0.14133    | 0.15651    | 0.17676    |   3.1 |  0.17
Modify  | 9.5271     | 10.888     | 11.72      |  22.7 | 12.15
Other   |            | 0.008176   |            |       |  0.01

Nlocal:             64 ave          64 max          64 min
Histogram: 8 0 0 0 0 0 0 0 0 0
Nghost:        877.125 ave         892 max         869 min
Histogram: 3 0 0 3 0 1 0 0 0 1
Neighs:              0 ave           0 max           0 min
Histogram: 8 0 0 0 0 0 0 0 0 0
FullNghs:      5066.75 ave        5078 max        5048 min
Histogram: 1 0 0 0 2 1 0 1 0 3

Total # of neighbors = 40534
Ave neighs/atom = 79.167969
Neighbor list builds = 25
Dangerous builds not checked
unfix           1
if		"${t2} == ${temp2}" then 		"jump SELF liquid" else		"next i" 		"jump SELF melt"
next i
jump SELF melt
variable        t1    equal   ${t1}+50
variable        t1    equal   350+50
variable        t2    equal   ${t1}+50
variable        t2    equal   400+50
fix             1 all nvt temp ${t1} ${t1} ${tau}
fix             1 all nvt temp 400 ${t1} ${tau}
fix             1 all nvt temp 400 400 ${tau}
fix             1 all nvt temp 400 400 0.2
run             ${run1}
run             250
Generated 0 of 1 mixed pair_coeff terms from geometric mixing rule
Per MPI rank memory allocation (min/avg/max) = 2.592 | 2.592 | 2.592 Mbytes
   Step         PotEng         KinEng         TotEng          Temp          Press          Volume    
      5250  -84399.194      21.047114     -84378.147      318.64493     -22301.5        15103.555    
      5300  -84399.874      22.585951     -84377.288      341.94232     -21825.12       15103.555    
      5400  -84397.468      23.054471     -84374.414      349.03551     -21558.269      15103.555    
      5500  -84396.142      24.948423     -84371.193      377.7092      -21526.113      15103.555    
Loop time of 87.3343 on 8 procs for 250 steps with 512 atoms

Performance: 0.495 ns/day, 48.519 hours/ns, 2.863 timesteps/s
39.9% CPU use with 8 MPI tasks x no OpenMP threads

MPI task timing breakdown:
Section |  min time  |  avg time  |  max time  |%varavg| %total
---------------------------------------------------------------
Pair    | 16.48      | 17.069     | 17.403     |   8.5 | 19.54
Neigh   | 0.0032122  | 0.017931   | 0.10148    |  23.8 |  0.02
Comm    | 57.82      | 59.014     | 61.024     |  11.6 | 67.57
Output  | 0.16818    | 0.19528    | 0.21828    |   3.5 |  0.22
Modify  | 9.2433     | 11.033     | 12.372     |  26.9 | 12.63
Other   |            | 0.00491    |            |       |  0.01

Nlocal:             64 ave          64 max          64 min
Histogram: 8 0 0 0 0 0 0 0 0 0
Nghost:        883.125 ave         898 max         866 min
Histogram: 2 0 0 0 0 2 2 0 0 2
Neighs:              0 ave           0 max           0 min
Histogram: 8 0 0 0 0 0 0 0 0 0
FullNghs:      5058.25 ave        5063 max        5052 min
Histogram: 1 1 0 1 0 1 0 1 1 2

Total # of neighbors = 40466
Ave neighs/atom = 79.035156
Neighbor list builds = 25
Dangerous builds not checked
unfix           1
if		"${t2} == ${temp2}" then 		"jump SELF liquid" else		"next i" 		"jump SELF melt"
next i
jump SELF melt
variable        t1    equal   ${t1}+50
variable        t1    equal   400+50
variable        t2    equal   ${t1}+50
variable        t2    equal   450+50
fix             1 all nvt temp ${t1} ${t1} ${tau}
fix             1 all nvt temp 450 ${t1} ${tau}
fix             1 all nvt temp 450 450 ${tau}
fix             1 all nvt temp 450 450 0.2
run             ${run1}
run             250
Generated 0 of 1 mixed pair_coeff terms from geometric mixing rule
Per MPI rank memory allocation (min/avg/max) = 2.592 | 2.592 | 2.592 Mbytes
   Step         PotEng         KinEng         TotEng          Temp          Press          Volume    
      5500  -84396.142      24.948423     -84371.193      377.7092      -21526.113      15103.555    
      5600  -84394.898      26.342509     -84368.556      398.81511     -22079.172      15103.555    
      5700  -84392.891      27.298234     -84365.593      413.28439     -20703.206      15103.555    
      5750  -84392.871      29.018775     -84363.852      439.3327      -20488.766      15103.555    
Loop time of 89.5209 on 8 procs for 250 steps with 512 atoms

Performance: 0.483 ns/day, 49.734 hours/ns, 2.793 timesteps/s
39.8% CPU use with 8 MPI tasks x no OpenMP threads

MPI task timing breakdown:
Section |  min time  |  avg time  |  max time  |%varavg| %total
---------------------------------------------------------------
Pair    | 15.685     | 16.773     | 18.045     |  17.2 | 18.74
Neigh   | 0.0031642  | 0.052614   | 0.22309    |  30.4 |  0.06
Comm    | 59.875     | 61.134     | 62.493     |  12.1 | 68.29
Output  | 0.12716    | 0.14329    | 0.15777    |   2.7 |  0.16
Modify  | 10.236     | 11.397     | 12.508     |  21.0 | 12.73
Other   |            | 0.02177    |            |       |  0.02

Nlocal:             64 ave          64 max          64 min
Histogram: 8 0 0 0 0 0 0 0 0 0
Nghost:        872.375 ave         881 max         864 min
Histogram: 1 0 1 1 0 3 0 1 0 1
Neighs:              0 ave           0 max           0 min
Histogram: 8 0 0 0 0 0 0 0 0 0
FullNghs:         5053 ave        5060 max        5042 min
Histogram: 2 0 0 0 1 0 1 0 1 3

Total # of neighbors = 40424
Ave neighs/atom = 78.953125
Neighbor list builds = 25
Dangerous builds not checked
unfix           1
if		"${t2} == ${temp2}" then 		"jump SELF liquid" else		"next i" 		"jump SELF melt"
next i
jump SELF melt
variable        t1    equal   ${t1}+50
variable        t1    equal   450+50
variable        t2    equal   ${t1}+50
variable        t2    equal   500+50
fix             1 all nvt temp ${t1} ${t1} ${tau}
fix             1 all nvt temp 500 ${t1} ${tau}
fix             1 all nvt temp 500 500 ${tau}
fix             1 all nvt temp 500 500 0.2
run             ${run1}
run             250
Generated 0 of 1 mixed pair_coeff terms from geometric mixing rule
Per MPI rank memory allocation (min/avg/max) = 2.592 | 2.592 | 2.592 Mbytes
   Step         PotEng         KinEng         TotEng          Temp          Press          Volume    
      5750  -84392.871      29.018775     -84363.852      439.3327      -20488.766      15103.555    
      5800  -84392.294      29.204438     -84363.089      442.14357     -20368.39       15103.555    
      5900  -84388.528      28.873844     -84359.655      437.13851     -20681.596      15103.555    
      6000  -84388.433      32.309879     -84356.123      489.15872     -20268.686      15103.555    
Loop time of 88.0267 on 8 procs for 250 steps with 512 atoms

Performance: 0.491 ns/day, 48.904 hours/ns, 2.840 timesteps/s
39.4% CPU use with 8 MPI tasks x no OpenMP threads

MPI task timing breakdown:
Section |  min time  |  avg time  |  max time  |%varavg| %total
---------------------------------------------------------------
Pair    | 16.216     | 17.706     | 19.215     |  18.4 | 20.11
Neigh   | 0.0032414  | 0.028247   | 0.080411   |  16.3 |  0.03
Comm    | 58.227     | 59.487     | 60.7       |  11.3 | 67.58
Output  | 0.05706    | 0.087591   | 0.10854    |   6.5 |  0.10
Modify  | 9.8305     | 10.717     | 11.803     |  17.8 | 12.17
Other   |            | 0.0006624  |            |       |  0.00

Nlocal:             64 ave          64 max          64 min
Histogram: 8 0 0 0 0 0 0 0 0 0
Nghost:          875.5 ave         881 max         871 min
Histogram: 1 1 0 2 1 0 0 1 1 1
Neighs:              0 ave           0 max           0 min
Histogram: 8 0 0 0 0 0 0 0 0 0
FullNghs:         5036 ave        5057 max        5027 min
Histogram: 3 1 1 0 1 1 0 0 0 1

Total # of neighbors = 40288
Ave neighs/atom = 78.6875
Neighbor list builds = 25
Dangerous builds not checked
unfix           1
if		"${t2} == ${temp2}" then 		"jump SELF liquid" else		"next i" 		"jump SELF melt"
next i
jump SELF melt
variable        t1    equal   ${t1}+50
variable        t1    equal   500+50
variable        t2    equal   ${t1}+50
variable        t2    equal   550+50
fix             1 all nvt temp ${t1} ${t1} ${tau}
fix             1 all nvt temp 550 ${t1} ${tau}
fix             1 all nvt temp 550 550 ${tau}
fix             1 all nvt temp 550 550 0.2
run             ${run1}
run             250
Generated 0 of 1 mixed pair_coeff terms from geometric mixing rule
Per MPI rank memory allocation (min/avg/max) = 2.592 | 2.592 | 2.592 Mbytes
   Step         PotEng         KinEng         TotEng          Temp          Press          Volume    
      6000  -84388.433      32.309879     -84356.123      489.15872     -20268.686      15103.555    
      6100  -84387.513      34.593414     -84352.919      523.73052     -20262.607      15103.555    
      6200  -84385.133      35.474965     -84349.658      537.07686     -19656.238      15103.555    
      6250  -84383.412      35.4018       -84348.01       535.96916     -18623.531      15103.555    
Loop time of 89.5208 on 8 procs for 250 steps with 512 atoms

Performance: 0.483 ns/day, 49.734 hours/ns, 2.793 timesteps/s
39.2% CPU use with 8 MPI tasks x no OpenMP threads

MPI task timing breakdown:
Section |  min time  |  avg time  |  max time  |%varavg| %total
---------------------------------------------------------------
Pair    | 15.048     | 16.689     | 18.25      |  23.4 | 18.64
Neigh   | 0.0031635  | 0.10346    | 0.33669    |  35.0 |  0.12
Comm    | 60.425     | 61.756     | 63.286     |  10.9 | 68.98
Output  | 0.11784    | 0.13343    | 0.15026    |   3.0 |  0.15
Modify  | 9.3283     | 10.837     | 12.268     |  27.5 | 12.11
Other   |            | 0.002335   |            |       |  0.00

Nlocal:             64 ave          64 max          64 min
Histogram: 8 0 0 0 0 0 0 0 0 0
Nghost:         857.25 ave         872 max         843 min
Histogram: 1 1 1 0 1 1 1 0 1 1
Neighs:              0 ave           0 max           0 min
Histogram: 8 0 0 0 0 0 0 0 0 0
FullNghs:         5016 ave        5043 max        4993 min
Histogram: 1 1 0 1 2 0 1 1 0 1

Total # of neighbors = 40128
Ave neighs/atom = 78.375
Neighbor list builds = 25
Dangerous builds not checked
unfix           1
if		"${t2} == ${temp2}" then 		"jump SELF liquid" else		"next i" 		"jump SELF melt"
next i
jump SELF melt
variable        t1    equal   ${t1}+50
variable        t1    equal   550+50
variable        t2    equal   ${t1}+50
variable        t2    equal   600+50
fix             1 all nvt temp ${t1} ${t1} ${tau}
fix             1 all nvt temp 600 ${t1} ${tau}
fix             1 all nvt temp 600 600 ${tau}
fix             1 all nvt temp 600 600 0.2
run             ${run1}
run             250
Generated 0 of 1 mixed pair_coeff terms from geometric mixing rule
Per MPI rank memory allocation (min/avg/max) = 2.592 | 2.592 | 2.592 Mbytes
   Step         PotEng         KinEng         TotEng          Temp          Press          Volume    
      6250  -84383.412      35.4018       -84348.01       535.96916     -18623.531      15103.555    
      6300  -84381.736      34.810361     -84346.926      527.01501     -18336.479      15103.555    
      6400  -84381.669      38.389837     -84343.279      581.20686     -17439.329      15103.555    
      6500  -84378.696      38.567237     -84340.129      583.89262     -18893.908      15103.555    
Loop time of 88.6421 on 8 procs for 250 steps with 512 atoms

Performance: 0.487 ns/day, 49.246 hours/ns, 2.820 timesteps/s
39.9% CPU use with 8 MPI tasks x no OpenMP threads

MPI task timing breakdown:
Section |  min time  |  avg time  |  max time  |%varavg| %total
---------------------------------------------------------------
Pair    | 15.177     | 16.825     | 18.329     |  20.8 | 18.98
Neigh   | 0.003275   | 0.048749   | 0.19771    |  31.7 |  0.05
Comm    | 59.669     | 60.685     | 62.507     |  11.0 | 68.46
Output  | 0.072524   | 0.092427   | 0.10432    |   3.2 |  0.10
Modify  | 8.9949     | 10.985     | 12.7       |  32.8 | 12.39
Other   |            | 0.005517   |            |       |  0.01

Nlocal:             64 ave          64 max          64 min
Histogram: 8 0 0 0 0 0 0 0 0 0
Nghost:        866.375 ave         881 max         854 min
Histogram: 1 1 2 1 0 0 0 1 0 2
Neighs:              0 ave           0 max           0 min
Histogram: 8 0 0 0 0 0 0 0 0 0
FullNghs:      5009.75 ave        5040 max        4983 min
Histogram: 2 0 1 1 0 1 0 2 0 1

Total # of neighbors = 40078
Ave neighs/atom = 78.277344
Neighbor list builds = 25
Dangerous builds not checked
unfix           1
if		"${t2} == ${temp2}" then 		"jump SELF liquid" else		"next i" 		"jump SELF melt"
next i
jump SELF melt
variable        t1    equal   ${t1}+50
variable        t1    equal   600+50
variable        t2    equal   ${t1}+50
variable        t2    equal   650+50
fix             1 all nvt temp ${t1} ${t1} ${tau}
fix             1 all nvt temp 650 ${t1} ${tau}
fix             1 all nvt temp 650 650 ${tau}
fix             1 all nvt temp 650 650 0.2
run             ${run1}
run             250
Generated 0 of 1 mixed pair_coeff terms from geometric mixing rule
Per MPI rank memory allocation (min/avg/max) = 2.592 | 2.592 | 2.592 Mbytes
   Step         PotEng         KinEng         TotEng          Temp          Press          Volume    
      6500  -84378.696      38.567237     -84340.129      583.89262     -18893.908      15103.555    
      6600  -84376.135      39.281768     -84336.854      594.71034     -16883.143      15103.555    
      6700  -84373.861      39.728018     -84334.133      601.46638     -15612.428      15103.555    
      6750  -84376.181      43.771873     -84332.409      662.68874     -16349.017      15103.555    
Loop time of 87.638 on 8 procs for 250 steps with 512 atoms

Performance: 0.493 ns/day, 48.688 hours/ns, 2.853 timesteps/s
39.1% CPU use with 8 MPI tasks x no OpenMP threads

MPI task timing breakdown:
Section |  min time  |  avg time  |  max time  |%varavg| %total
---------------------------------------------------------------
Pair    | 16.332     | 17.171     | 17.683     |  10.3 | 19.59
Neigh   | 0.0031476  | 0.049133   | 0.13835    |  23.5 |  0.06
Comm    | 58.768     | 59.715     | 60.858     |   9.0 | 68.14
Output  | 0.14007    | 0.15405    | 0.15933    |   1.5 |  0.18
Modify  | 8.9546     | 10.524     | 12.375     |  32.1 | 12.01
Other   |            | 0.02467    |            |       |  0.03

Nlocal:             64 ave          64 max          64 min
Histogram: 8 0 0 0 0 0 0 0 0 0
Nghost:         874.75 ave         883 max         871 min
Histogram: 4 1 0 1 0 0 0 0 0 2
Neighs:              0 ave           0 max           0 min
Histogram: 8 0 0 0 0 0 0 0 0 0
FullNghs:       5011.5 ave        5047 max        4952 min
Histogram: 1 0 0 0 1 2 0 1 2 1

Total # of neighbors = 40092
Ave neighs/atom = 78.304688
Neighbor list builds = 25
Dangerous builds not checked
unfix           1
if		"${t2} == ${temp2}" then 		"jump SELF liquid" else		"next i" 		"jump SELF melt"
next i
jump SELF melt
variable        t1    equal   ${t1}+50
variable        t1    equal   650+50
variable        t2    equal   ${t1}+50
variable        t2    equal   700+50
fix             1 all nvt temp ${t1} ${t1} ${tau}
fix             1 all nvt temp 700 ${t1} ${tau}
fix             1 all nvt temp 700 700 ${tau}
fix             1 all nvt temp 700 700 0.2
run             ${run1}
run             250
Generated 0 of 1 mixed pair_coeff terms from geometric mixing rule
Per MPI rank memory allocation (min/avg/max) = 2.592 | 2.592 | 2.592 Mbytes
   Step         PotEng         KinEng         TotEng          Temp          Press          Volume    
      6750  -84376.181      43.771873     -84332.409      662.68874     -16349.017      15103.555    
      6800  -84374.712      42.834849     -84331.877      648.50258     -15276.972      15103.555    
      6900  -84372.662      44.940128     -84327.722      680.37566     -15812.951      15103.555    
      7000  -84372.168      46.782732     -84325.385      708.27194     -15524.6        15103.555    
Loop time of 88.9542 on 8 procs for 250 steps with 512 atoms

Performance: 0.486 ns/day, 49.419 hours/ns, 2.810 timesteps/s
39.7% CPU use with 8 MPI tasks x no OpenMP threads

MPI task timing breakdown:
Section |  min time  |  avg time  |  max time  |%varavg| %total
---------------------------------------------------------------
Pair    | 14.719     | 16.784     | 18.355     |  24.9 | 18.87
Neigh   | 0.0033018  | 0.061989   | 0.11908    |  17.1 |  0.07
Comm    | 59.665     | 61.487     | 63.068     |  14.1 | 69.12
Output  | 0.12423    | 0.13978    | 0.14977    |   2.3 |  0.16
Modify  | 8.9465     | 10.481     | 11.535     |  25.4 | 11.78
Other   |            | 0.0006812  |            |       |  0.00

Nlocal:             64 ave          64 max          64 min
Histogram: 8 0 0 0 0 0 0 0 0 0
Nghost:        874.125 ave         880 max         870 min
Histogram: 3 0 0 1 1 0 0 0 2 1
Neighs:              0 ave           0 max           0 min
Histogram: 8 0 0 0 0 0 0 0 0 0
FullNghs:      5000.75 ave        5032 max        4958 min
Histogram: 1 0 1 0 2 0 1 0 1 2

Total # of neighbors = 40006
Ave neighs/atom = 78.136719
Neighbor list builds = 25
Dangerous builds not checked
unfix           1
if		"${t2} == ${temp2}" then 		"jump SELF liquid" else		"next i" 		"jump SELF melt"
next i
jump SELF melt
variable        t1    equal   ${t1}+50
variable        t1    equal   700+50
variable        t2    equal   ${t1}+50
variable        t2    equal   750+50
fix             1 all nvt temp ${t1} ${t1} ${tau}
fix             1 all nvt temp 750 ${t1} ${tau}
fix             1 all nvt temp 750 750 ${tau}
fix             1 all nvt temp 750 750 0.2
run             ${run1}
run             250
Generated 0 of 1 mixed pair_coeff terms from geometric mixing rule
Per MPI rank memory allocation (min/avg/max) = 2.592 | 2.592 | 2.592 Mbytes
   Step         PotEng         KinEng         TotEng          Temp          Press          Volume    
      7000  -84372.168      46.782732     -84325.385      708.27194     -15524.6        15103.555    
      7100  -84365.499      42.934291     -84322.565      650.00808     -13181.434      15103.555    
      7200  -84366.535      47.092164     -84319.442      712.95663     -12336.876      15103.555    
      7250  -84368.138      49.870662     -84318.267      755.02198     -13787.842      15103.555    
Loop time of 89.0021 on 8 procs for 250 steps with 512 atoms

Performance: 0.485 ns/day, 49.446 hours/ns, 2.809 timesteps/s
40.1% CPU use with 8 MPI tasks x no OpenMP threads

MPI task timing breakdown:
Section |  min time  |  avg time  |  max time  |%varavg| %total
---------------------------------------------------------------
Pair    | 15.411     | 16.936     | 18.13      |  21.8 | 19.03
Neigh   | 0.0035895  | 0.08558    | 0.19785    |  22.8 |  0.10
Comm    | 59.085     | 60.836     | 62.115     |  10.6 | 68.35
Output  | 0.056737   | 0.091633   | 0.11751    |   7.8 |  0.10
Modify  | 9.4968     | 11.045     | 12.387     |  25.7 | 12.41
Other   |            | 0.007483   |            |       |  0.01

Nlocal:             64 ave          64 max          64 min
Histogram: 8 0 0 0 0 0 0 0 0 0
Nghost:         869.75 ave         879 max         863 min
Histogram: 1 1 2 1 0 1 0 0 0 2
Neighs:              0 ave           0 max           0 min
Histogram: 8 0 0 0 0 0 0 0 0 0
FullNghs:         4981 ave        5018 max        4944 min
Histogram: 1 1 1 0 0 1 2 0 1 1

Total # of neighbors = 39848
Ave neighs/atom = 77.828125
Neighbor list builds = 25
Dangerous builds not checked
unfix           1
if		"${t2} == ${temp2}" then 		"jump SELF liquid" else		"next i" 		"jump SELF melt"
next i
jump SELF melt
variable        t1    equal   ${t1}+50
variable        t1    equal   750+50
variable        t2    equal   ${t1}+50
variable        t2    equal   800+50
fix             1 all nvt temp ${t1} ${t1} ${tau}
fix             1 all nvt temp 800 ${t1} ${tau}
fix             1 all nvt temp 800 800 ${tau}
fix             1 all nvt temp 800 800 0.2
run             ${run1}
run             250
Generated 0 of 1 mixed pair_coeff terms from geometric mixing rule
Per MPI rank memory allocation (min/avg/max) = 2.592 | 2.592 | 2.592 Mbytes
   Step         PotEng         KinEng         TotEng          Temp          Press          Volume    
      7250  -84368.138      49.870662     -84318.267      755.02198     -13787.842      15103.555    
      7300  -84369.635      52.095016     -84317.54       788.69781     -13612.369      15103.555    
      7400  -84363.83       50.802519     -84313.027      769.12993     -11118.853      15103.555    
      7500  -84365.529      54.889605     -84310.64       831.00678     -11312.223      15103.555    
Loop time of 89.251 on 8 procs for 250 steps with 512 atoms

Performance: 0.484 ns/day, 49.584 hours/ns, 2.801 timesteps/s
40.0% CPU use with 8 MPI tasks x no OpenMP threads

MPI task timing breakdown:
Section |  min time  |  avg time  |  max time  |%varavg| %total
---------------------------------------------------------------
Pair    | 16.606     | 17.828     | 19.034     |  19.7 | 19.98
Neigh   | 0.0035308  | 0.049768   | 0.1849     |  25.5 |  0.06
Comm    | 58.693     | 60.461     | 62.517     |  13.9 | 67.74
Output  | 0.16046    | 0.18023    | 0.19634    |   3.1 |  0.20
Modify  | 9.5572     | 10.732     | 12.665     |  29.0 | 12.02
Other   |            | 0.000645   |            |       |  0.00

Nlocal:             64 ave          64 max          64 min
Histogram: 8 0 0 0 0 0 0 0 0 0
Nghost:        853.875 ave         870 max         839 min
Histogram: 1 1 1 0 2 0 1 0 1 1
Neighs:              0 ave           0 max           0 min
Histogram: 8 0 0 0 0 0 0 0 0 0
FullNghs:       4959.5 ave        4987 max        4904 min
Histogram: 1 0 0 0 0 1 2 2 0 2

Total # of neighbors = 39676
Ave neighs/atom = 77.492188
Neighbor list builds = 25
Dangerous builds not checked
unfix           1
if		"${t2} == ${temp2}" then 		"jump SELF liquid" else		"next i" 		"jump SELF melt"
next i
jump SELF melt
variable        t1    equal   ${t1}+50
variable        t1    equal   800+50
variable        t2    equal   ${t1}+50
variable        t2    equal   850+50
fix             1 all nvt temp ${t1} ${t1} ${tau}
fix             1 all nvt temp 850 ${t1} ${tau}
fix             1 all nvt temp 850 850 ${tau}
fix             1 all nvt temp 850 850 0.2
run             ${run1}
run             250
Generated 0 of 1 mixed pair_coeff terms from geometric mixing rule
Per MPI rank memory allocation (min/avg/max) = 2.592 | 2.592 | 2.592 Mbytes
   Step         PotEng         KinEng         TotEng          Temp          Press          Volume    
      7500  -84365.529      54.889605     -84310.64       831.00678     -11312.223      15103.555    
      7600  -84362.194      53.600482     -84308.594      811.48997     -9966.7713      15103.555    
      7700  -84360.749      55.953925     -84304.795      847.12016     -11319.103      15103.555    
      7750  -84360.493      56.339696     -84304.153      852.96059     -9382.8487      15103.555    
Loop time of 88.8721 on 8 procs for 250 steps with 512 atoms

Performance: 0.486 ns/day, 49.373 hours/ns, 2.813 timesteps/s
40.0% CPU use with 8 MPI tasks x no OpenMP threads

MPI task timing breakdown:
Section |  min time  |  avg time  |  max time  |%varavg| %total
---------------------------------------------------------------
Pair    | 15.569     | 16.851     | 18.002     |  20.4 | 18.96
Neigh   | 0.0034837  | 0.081558   | 0.24795    |  30.3 |  0.09
Comm    | 59.183     | 61.166     | 64.449     |  18.5 | 68.82
Output  | 0.19409    | 0.23759    | 0.26516    |   4.5 |  0.27
Modify  | 8.4972     | 10.533     | 11.944     |  31.5 | 11.85
Other   |            | 0.003366   |            |       |  0.00

Nlocal:             64 ave          64 max          64 min
Histogram: 8 0 0 0 0 0 0 0 0 0
Nghost:         845.25 ave         858 max         832 min
Histogram: 2 0 0 1 1 0 1 1 1 1
Neighs:              0 ave           0 max           0 min
Histogram: 8 0 0 0 0 0 0 0 0 0
FullNghs:      4938.75 ave        4975 max        4913 min
Histogram: 1 1 2 1 0 1 0 1 0 1

Total # of neighbors = 39510
Ave neighs/atom = 77.167969
Neighbor list builds = 25
Dangerous builds not checked
unfix           1
if		"${t2} == ${temp2}" then 		"jump SELF liquid" else		"next i" 		"jump SELF melt"
next i
jump SELF melt
variable        t1    equal   ${t1}+50
variable        t1    equal   850+50
variable        t2    equal   ${t1}+50
variable        t2    equal   900+50
fix             1 all nvt temp ${t1} ${t1} ${tau}
fix             1 all nvt temp 900 ${t1} ${tau}
fix             1 all nvt temp 900 900 ${tau}
fix             1 all nvt temp 900 900 0.2
run             ${run1}
run             250
Generated 0 of 1 mixed pair_coeff terms from geometric mixing rule
Per MPI rank memory allocation (min/avg/max) = 2.592 | 2.592 | 2.592 Mbytes
   Step         PotEng         KinEng         TotEng          Temp          Press          Volume    
      7750  -84360.493      56.339696     -84304.153      852.96059     -9382.8487      15103.555    
      7800  -84361.832      58.784782     -84303.047      889.9782      -10209.82       15103.555    
      7900  -84358.385      59.519281     -84298.866      901.09823     -8962.9538      15103.555    
      8000  -84356.907      59.578609     -84297.328      901.99644     -8592.9719      15103.555    
Loop time of 89.3903 on 8 procs for 250 steps with 512 atoms

Performance: 0.483 ns/day, 49.661 hours/ns, 2.797 timesteps/s
39.7% CPU use with 8 MPI tasks x no OpenMP threads

MPI task timing breakdown:
Section |  min time  |  avg time  |  max time  |%varavg| %total
---------------------------------------------------------------
Pair    | 15.827     | 17.021     | 18.312     |  17.5 | 19.04
Neigh   | 0.0036925  | 0.072622   | 0.19058    |  26.8 |  0.08
Comm    | 59.939     | 61.271     | 63.345     |  13.9 | 68.54
Output  | 0.17619    | 0.21025    | 0.2336     |   4.3 |  0.24
Modify  | 9.5667     | 10.8       | 12.05      |  24.9 | 12.08
Other   |            | 0.01534    |            |       |  0.02

Nlocal:             64 ave          64 max          64 min
Histogram: 8 0 0 0 0 0 0 0 0 0
Nghost:         846.75 ave         853 max         842 min
Histogram: 3 0 0 1 1 1 0 0 0 2
Neighs:              0 ave           0 max           0 min
Histogram: 8 0 0 0 0 0 0 0 0 0
FullNghs:       4939.5 ave        4966 max        4915 min
Histogram: 2 1 1 0 0 1 0 0 1 2

Total # of neighbors = 39516
Ave neighs/atom = 77.179688
Neighbor list builds = 25
Dangerous builds not checked
unfix           1
if		"${t2} == ${temp2}" then 		"jump SELF liquid" else		"next i" 		"jump SELF melt"
next i
jump SELF melt
variable        t1    equal   ${t1}+50
variable        t1    equal   900+50
variable        t2    equal   ${t1}+50
variable        t2    equal   950+50
fix             1 all nvt temp ${t1} ${t1} ${tau}
fix             1 all nvt temp 950 ${t1} ${tau}
fix             1 all nvt temp 950 950 ${tau}
fix             1 all nvt temp 950 950 0.2
run             ${run1}
run             250
Generated 0 of 1 mixed pair_coeff terms from geometric mixing rule
Per MPI rank memory allocation (min/avg/max) = 2.592 | 2.592 | 2.592 Mbytes
   Step         PotEng         KinEng         TotEng          Temp          Press          Volume    
      8000  -84356.907      59.578609     -84297.328      901.99644     -8592.9719      15103.555    
      8100  -84359.138      64.439124     -84294.699      975.5827      -9337.9036      15103.555    
      8200  -84354.395      63.884898     -84290.51       967.19193     -6130.0571      15103.555    
      8250  -84355.132      65.924855     -84289.207      998.07607     -9992.7445      15103.555    
Loop time of 88.0297 on 8 procs for 250 steps with 512 atoms

Performance: 0.491 ns/day, 48.905 hours/ns, 2.840 timesteps/s
39.8% CPU use with 8 MPI tasks x no OpenMP threads

MPI task timing breakdown:
Section |  min time  |  avg time  |  max time  |%varavg| %total
---------------------------------------------------------------
Pair    | 15.947     | 16.988     | 17.932     |  15.3 | 19.30
Neigh   | 0.0033961  | 0.077609   | 0.15858    |  17.4 |  0.09
Comm    | 58.993     | 60.395     | 62.159     |  11.9 | 68.61
Output  | 0.1901     | 0.22334    | 0.24593    |   3.7 |  0.25
Modify  | 8.7824     | 10.346     | 11.901     |  29.9 | 11.75
Other   |            | 0.0006461  |            |       |  0.00

Nlocal:             64 ave          64 max          64 min
Histogram: 8 0 0 0 0 0 0 0 0 0
Nghost:        840.125 ave         854 max         822 min
Histogram: 1 0 2 0 0 0 1 2 0 2
Neighs:              0 ave           0 max           0 min
Histogram: 8 0 0 0 0 0 0 0 0 0
FullNghs:       4925.5 ave        4961 max        4878 min
Histogram: 1 0 1 0 0 1 2 2 0 1

Total # of neighbors = 39404
Ave neighs/atom = 76.960938
Neighbor list builds = 25
Dangerous builds not checked
unfix           1
if		"${t2} == ${temp2}" then 		"jump SELF liquid" else		"next i" 		"jump SELF melt"
next i
jump SELF melt
variable        t1    equal   ${t1}+50
variable        t1    equal   950+50
variable        t2    equal   ${t1}+50
variable        t2    equal   1000+50
fix             1 all nvt temp ${t1} ${t1} ${tau}
fix             1 all nvt temp 1000 ${t1} ${tau}
fix             1 all nvt temp 1000 1000 ${tau}
fix             1 all nvt temp 1000 1000 0.2
run             ${run1}
run             250
Generated 0 of 1 mixed pair_coeff terms from geometric mixing rule
Per MPI rank memory allocation (min/avg/max) = 2.592 | 2.592 | 2.592 Mbytes
   Step         PotEng         KinEng         TotEng          Temp          Press          Volume    
      8250  -84355.132      65.924855     -84289.207      998.07607     -9992.7445      15103.555    
      8300  -84353.291      64.666902     -84288.625      979.03117     -6598.8817      15103.555    
      8400  -84348.884      64.899475     -84283.985      982.55223     -7005.184       15103.555    
      8500  -84352.195      70.286804     -84281.908      1064.1143     -6126.3409      15103.555    
Loop time of 89.9267 on 8 procs for 250 steps with 512 atoms

Performance: 0.480 ns/day, 49.959 hours/ns, 2.780 timesteps/s
39.4% CPU use with 8 MPI tasks x no OpenMP threads

MPI task timing breakdown:
Section |  min time  |  avg time  |  max time  |%varavg| %total
---------------------------------------------------------------
Pair    | 15.718     | 16.676     | 17.703     |  16.9 | 18.54
Neigh   | 0.003556   | 0.091343   | 0.20472    |  24.8 |  0.10
Comm    | 60.341     | 62.224     | 63.691     |  12.1 | 69.19
Output  | 0.18266    | 0.2144     | 0.24157    |   4.2 |  0.24
Modify  | 9.3616     | 10.72      | 11.696     |  21.3 | 11.92
Other   |            | 0.0006429  |            |       |  0.00

Nlocal:             64 ave          64 max          64 min
Histogram: 8 0 0 0 0 0 0 0 0 0
Nghost:        829.125 ave         848 max         819 min
Histogram: 2 1 0 2 1 1 0 0 0 1
Neighs:              0 ave           0 max           0 min
Histogram: 8 0 0 0 0 0 0 0 0 0
FullNghs:         4922 ave        4968 max        4887 min
Histogram: 1 0 3 0 1 0 2 0 0 1

Total # of neighbors = 39376
Ave neighs/atom = 76.90625
Neighbor list builds = 25
Dangerous builds not checked
unfix           1
if		"${t2} == ${temp2}" then 		"jump SELF liquid" else		"next i" 		"jump SELF melt"
next i
jump SELF melt
variable        t1    equal   ${t1}+50
variable        t1    equal   1000+50
variable        t2    equal   ${t1}+50
variable        t2    equal   1050+50
fix             1 all nvt temp ${t1} ${t1} ${tau}
fix             1 all nvt temp 1050 ${t1} ${tau}
fix             1 all nvt temp 1050 1050 ${tau}
fix             1 all nvt temp 1050 1050 0.2
run             ${run1}
run             250
Generated 0 of 1 mixed pair_coeff terms from geometric mixing rule
Per MPI rank memory allocation (min/avg/max) = 2.592 | 2.592 | 2.592 Mbytes
   Step         PotEng         KinEng         TotEng          Temp          Press          Volume    
      8500  -84352.195      70.286804     -84281.908      1064.1143     -6126.3409      15103.555    
      8600  -84350.074      69.098301     -84280.976      1046.1208     -6732.7362      15103.555    
      8700  -84345.49       70.02361      -84275.466      1060.1296     -5581.8276      15103.555    
      8750  -84343.718      70.944814     -84272.773      1074.0763     -3847.0891      15103.555    
Loop time of 87.4347 on 8 procs for 250 steps with 512 atoms

Performance: 0.494 ns/day, 48.575 hours/ns, 2.859 timesteps/s
39.8% CPU use with 8 MPI tasks x no OpenMP threads

MPI task timing breakdown:
Section |  min time  |  avg time  |  max time  |%varavg| %total
---------------------------------------------------------------
Pair    | 16.991     | 17.793     | 18.867     |  15.7 | 20.35
Neigh   | 0.0035336  | 0.035768   | 0.089914   |  17.7 |  0.04
Comm    | 55.661     | 58.739     | 61.368     |  22.8 | 67.18
Output  | 0.1769     | 0.20558    | 0.23185    |   3.7 |  0.24
Modify  | 8.7394     | 10.66      | 12.641     |  38.6 | 12.19
Other   |            | 0.0007123  |            |       |  0.00

Nlocal:             64 ave          64 max          64 min
Histogram: 8 0 0 0 0 0 0 0 0 0
Nghost:        837.875 ave         850 max         824 min
Histogram: 1 0 1 0 1 1 1 2 0 1
Neighs:              0 ave           0 max           0 min
Histogram: 8 0 0 0 0 0 0 0 0 0
FullNghs:      4911.75 ave        4943 max        4866 min
Histogram: 1 1 0 1 0 0 1 1 0 3

Total # of neighbors = 39294
Ave neighs/atom = 76.746094
Neighbor list builds = 25
Dangerous builds not checked
unfix           1
if		"${t2} == ${temp2}" then 		"jump SELF liquid" else		"next i" 		"jump SELF melt"
next i
jump SELF melt
variable        t1    equal   ${t1}+50
variable        t1    equal   1050+50
variable        t2    equal   ${t1}+50
variable        t2    equal   1100+50
fix             1 all nvt temp ${t1} ${t1} ${tau}
fix             1 all nvt temp 1100 ${t1} ${tau}
fix             1 all nvt temp 1100 1100 ${tau}
fix             1 all nvt temp 1100 1100 0.2
run             ${run1}
run             250
Generated 0 of 1 mixed pair_coeff terms from geometric mixing rule
Per MPI rank memory allocation (min/avg/max) = 2.592 | 2.592 | 2.592 Mbytes
   Step         PotEng         KinEng         TotEng          Temp          Press          Volume    
      8750  -84343.718      70.944814     -84272.773      1074.0763     -3847.0891      15103.555    
      8800  -84344.247      72.129827     -84272.117      1092.0169     -1816.7857      15103.555    
      8900  -84343.719      74.229711     -84269.489      1123.8083     -3948.7512      15103.555    
      9000  -84339.467      75.2332       -84264.233      1139.0007     -1429.1852      15103.555    
Loop time of 88.9839 on 8 procs for 250 steps with 512 atoms

Performance: 0.485 ns/day, 49.436 hours/ns, 2.809 timesteps/s
39.8% CPU use with 8 MPI tasks x no OpenMP threads

MPI task timing breakdown:
Section |  min time  |  avg time  |  max time  |%varavg| %total
---------------------------------------------------------------
Pair    | 15.921     | 17.351     | 18.381     |  18.2 | 19.50
Neigh   | 0.0036813  | 0.069352   | 0.13165    |  17.5 |  0.08
Comm    | 58.341     | 60.396     | 61.665     |  11.8 | 67.87
Output  | 0.25578    | 0.29958    | 0.3204     |   3.7 |  0.34
Modify  | 9.5519     | 10.868     | 12.288     |  27.8 | 12.21
Other   |            | 0.000829   |            |       |  0.00

Nlocal:             64 ave          64 max          64 min
Histogram: 8 0 0 0 0 0 0 0 0 0
Nghost:            830 ave         838 max         823 min
Histogram: 2 0 0 0 1 3 1 0 0 1
Neighs:              0 ave           0 max           0 min
Histogram: 8 0 0 0 0 0 0 0 0 0
FullNghs:      4881.25 ave        4927 max        4845 min
Histogram: 1 1 2 0 1 0 1 0 1 1

Total # of neighbors = 39050
Ave neighs/atom = 76.269531
Neighbor list builds = 25
Dangerous builds not checked
unfix           1
if		"${t2} == ${temp2}" then 		"jump SELF liquid" else		"next i" 		"jump SELF melt"
next i
jump SELF melt
variable        t1    equal   ${t1}+50
variable        t1    equal   1100+50
variable        t2    equal   ${t1}+50
variable        t2    equal   1150+50
fix             1 all nvt temp ${t1} ${t1} ${tau}
fix             1 all nvt temp 1150 ${t1} ${tau}
fix             1 all nvt temp 1150 1150 ${tau}
fix             1 all nvt temp 1150 1150 0.2
run             ${run1}
run             250
Generated 0 of 1 mixed pair_coeff terms from geometric mixing rule
Per MPI rank memory allocation (min/avg/max) = 2.592 | 2.592 | 2.592 Mbytes
   Step         PotEng         KinEng         TotEng          Temp          Press          Volume    
      9000  -84339.467      75.2332       -84264.233      1139.0007     -1429.1852      15103.555    
      9100  -84338.151      74.66531      -84263.485      1130.4031     -1772.5626      15103.555    
      9200  -84336.794      78.281977     -84258.512      1185.158      -1195.6476      15103.555    
      9250  -84334.53       78.646484     -84255.883      1190.6765      143.91427      15103.555    
Loop time of 87.6106 on 8 procs for 250 steps with 512 atoms

Performance: 0.493 ns/day, 48.673 hours/ns, 2.854 timesteps/s
39.8% CPU use with 8 MPI tasks x no OpenMP threads

MPI task timing breakdown:
Section |  min time  |  avg time  |  max time  |%varavg| %total
---------------------------------------------------------------
Pair    | 15.366     | 16.932     | 18.041     |  18.1 | 19.33
Neigh   | 0.0037435  | 0.074168   | 0.20904    |  23.2 |  0.08
Comm    | 58.277     | 59.626     | 61.763     |  13.3 | 68.06
Output  | 0.10831    | 0.14441    | 0.16138    |   4.7 |  0.16
Modify  | 9.8601     | 10.821     | 11.747     |  16.8 | 12.35
Other   |            | 0.0126     |            |       |  0.01

Nlocal:             64 ave          65 max          63 min
Histogram: 1 0 0 0 0 6 0 0 0 1
Nghost:        820.375 ave         830 max         811 min
Histogram: 2 0 0 0 2 1 1 0 1 1
Neighs:              0 ave           0 max           0 min
Histogram: 8 0 0 0 0 0 0 0 0 0
FullNghs:         4876 ave        4943 max        4776 min
Histogram: 1 0 0 0 1 0 4 1 0 1

Total # of neighbors = 39008
Ave neighs/atom = 76.1875
Neighbor list builds = 25
Dangerous builds not checked
unfix           1
if		"${t2} == ${temp2}" then 		"jump SELF liquid" else		"next i" 		"jump SELF melt"
next i
jump SELF melt
variable        t1    equal   ${t1}+50
variable        t1    equal   1150+50
variable        t2    equal   ${t1}+50
variable        t2    equal   1200+50
fix             1 all nvt temp ${t1} ${t1} ${tau}
fix             1 all nvt temp 1200 ${t1} ${tau}
fix             1 all nvt temp 1200 1200 ${tau}
fix             1 all nvt temp 1200 1200 0.2
run             ${run1}
run             250
Generated 0 of 1 mixed pair_coeff terms from geometric mixing rule
Per MPI rank memory allocation (min/avg/max) = 2.592 | 2.592 | 2.592 Mbytes
   Step         PotEng         KinEng         TotEng          Temp          Press          Volume    
      9250  -84334.53       78.646484     -84255.883      1190.6765      143.91427      15103.555    
      9300  -84332.984      77.540614     -84255.443      1173.934      -3458.4011      15103.555    
      9400  -84334.303      83.288558     -84251.014      1260.9556     -2124.8754      15103.555    
      9500  -84331.077      83.594611     -84247.482      1265.5891      1374.3097      15103.555    
Loop time of 88.8915 on 8 procs for 250 steps with 512 atoms

Performance: 0.486 ns/day, 49.384 hours/ns, 2.812 timesteps/s
39.6% CPU use with 8 MPI tasks x no OpenMP threads

MPI task timing breakdown:
Section |  min time  |  avg time  |  max time  |%varavg| %total
---------------------------------------------------------------
Pair    | 16.053     | 17.304     | 18.366     |  18.2 | 19.47
Neigh   | 0.0036775  | 0.015644   | 0.059254   |  16.1 |  0.02
Comm    | 58.713     | 60.159     | 62.18      |  14.9 | 67.68
Output  | 0.11866    | 0.12713    | 0.13556    |   1.3 |  0.14
Modify  | 9.6979     | 11.284     | 12.351     |  24.0 | 12.69
Other   |            | 0.001925   |            |       |  0.00

Nlocal:             64 ave          65 max          63 min
Histogram: 1 0 0 0 0 6 0 0 0 1
Nghost:          825.5 ave         834 max         813 min
Histogram: 1 0 2 0 0 0 0 2 1 2
Neighs:              0 ave           0 max           0 min
Histogram: 8 0 0 0 0 0 0 0 0 0
FullNghs:      4871.25 ave        4950 max        4761 min
Histogram: 1 0 0 1 0 1 2 2 0 1

Total # of neighbors = 38970
Ave neighs/atom = 76.113281
Neighbor list builds = 25
Dangerous builds not checked
unfix           1
if		"${t2} == ${temp2}" then 		"jump SELF liquid" else		"next i" 		"jump SELF melt"
next i
jump SELF melt
variable        t1    equal   ${t1}+50
variable        t1    equal   1200+50
variable        t2    equal   ${t1}+50
variable        t2    equal   1250+50
fix             1 all nvt temp ${t1} ${t1} ${tau}
fix             1 all nvt temp 1250 ${t1} ${tau}
fix             1 all nvt temp 1250 1250 ${tau}
fix             1 all nvt temp 1250 1250 0.2
run             ${run1}
run             250
Generated 0 of 1 mixed pair_coeff terms from geometric mixing rule
Per MPI rank memory allocation (min/avg/max) = 2.592 | 2.592 | 2.592 Mbytes
   Step         PotEng         KinEng         TotEng          Temp          Press          Volume    
      9500  -84331.077      83.594611     -84247.482      1265.5891      1374.3097      15103.555    
      9600  -84333.721      85.494371     -84248.226      1294.3508      223.59608      15103.555    
      9700  -84327.648      75.371534     -84252.277      1141.095       2357.9482      15103.555    
      9750  -84332.517      78.180402     -84254.337      1183.6202     -2277.3034      15103.555    
Loop time of 89.5647 on 8 procs for 250 steps with 512 atoms

Performance: 0.482 ns/day, 49.758 hours/ns, 2.791 timesteps/s
39.8% CPU use with 8 MPI tasks x no OpenMP threads

MPI task timing breakdown:
Section |  min time  |  avg time  |  max time  |%varavg| %total
---------------------------------------------------------------
Pair    | 16.062     | 17.01      | 17.961     |  14.8 | 18.99
Neigh   | 0.0035991  | 0.039065   | 0.12928    |  20.5 |  0.04
Comm    | 59.46      | 61.393     | 63.659     |  18.9 | 68.55
Output  | 0.031559   | 0.060136   | 0.072569   |   5.6 |  0.07
Modify  | 9.1224     | 11.055     | 13.197     |  37.6 | 12.34
Other   |            | 0.007661   |            |       |  0.01

Nlocal:             64 ave          65 max          63 min
Histogram: 1 0 0 0 0 6 0 0 0 1
Nghost:          812.5 ave         833 max         790 min
Histogram: 1 2 0 1 0 0 0 1 2 1
Neighs:              0 ave           0 max           0 min
Histogram: 8 0 0 0 0 0 0 0 0 0
FullNghs:       4863.5 ave        4949 max        4799 min
Histogram: 1 1 2 1 0 1 0 0 1 1

Total # of neighbors = 38908
Ave neighs/atom = 75.992188
Neighbor list builds = 25
Dangerous builds not checked
unfix           1
if		"${t2} == ${temp2}" then 		"jump SELF liquid" else		"next i" 		"jump SELF melt"
next i
jump SELF melt
variable        t1    equal   ${t1}+50
variable        t1    equal   1250+50
variable        t2    equal   ${t1}+50
variable        t2    equal   1300+50
fix             1 all nvt temp ${t1} ${t1} ${tau}
fix             1 all nvt temp 1300 ${t1} ${tau}
fix             1 all nvt temp 1300 1300 ${tau}
fix             1 all nvt temp 1300 1300 0.2
run             ${run1}
run             250
Generated 0 of 1 mixed pair_coeff terms from geometric mixing rule
Per MPI rank memory allocation (min/avg/max) = 2.592 | 2.592 | 2.592 Mbytes
   Step         PotEng         KinEng         TotEng          Temp          Press          Volume    
      9750  -84332.517      78.180402     -84254.337      1183.6202     -2277.3034      15103.555    
      9800  -84330.161      77.806193     -84252.355      1177.9548      482.9656       15103.555    
      9900  -84331.034      85.832185     -84245.202      1299.4651      398.54155      15103.555    
     10000  -84323.193      80.879858     -84242.314      1224.4889      2885.6434      15103.555    
Loop time of 87.7105 on 8 procs for 250 steps with 512 atoms

Performance: 0.493 ns/day, 48.728 hours/ns, 2.850 timesteps/s
39.4% CPU use with 8 MPI tasks x no OpenMP threads

MPI task timing breakdown:
Section |  min time  |  avg time  |  max time  |%varavg| %total
---------------------------------------------------------------
Pair    | 16.158     | 17.66      | 19.429     |  23.4 | 20.13
Neigh   | 0.0037053  | 0.0048241  | 0.012156   |   4.0 |  0.01
Comm    | 56.955     | 59.017     | 61.81      |  21.1 | 67.29
Output  | 0.18431    | 0.21128    | 0.22926    |   3.4 |  0.24
Modify  | 8.8315     | 10.802     | 12.385     |  32.0 | 12.32
Other   |            | 0.01536    |            |       |  0.02

Nlocal:             64 ave          65 max          63 min
Histogram: 1 0 0 0 0 6 0 0 0 1
Nghost:        823.375 ave         838 max         806 min
Histogram: 1 1 0 0 2 1 0 0 1 2
Neighs:              0 ave           0 max           0 min
Histogram: 8 0 0 0 0 0 0 0 0 0
FullNghs:      4849.25 ave        4906 max        4712 min
Histogram: 1 0 0 0 0 0 1 3 1 2

Total # of neighbors = 38794
Ave neighs/atom = 75.769531
Neighbor list builds = 25
Dangerous builds not checked
unfix           1
if		"${t2} == ${temp2}" then 		"jump SELF liquid" else		"next i" 		"jump SELF melt"
next i
jump SELF melt
variable        t1    equal   ${t1}+50
variable        t1    equal   1300+50
variable        t2    equal   ${t1}+50
variable        t2    equal   1350+50
fix             1 all nvt temp ${t1} ${t1} ${tau}
fix             1 all nvt temp 1350 ${t1} ${tau}
fix             1 all nvt temp 1350 1350 ${tau}
fix             1 all nvt temp 1350 1350 0.2
run             ${run1}
run             250
Generated 0 of 1 mixed pair_coeff terms from geometric mixing rule
Per MPI rank memory allocation (min/avg/max) = 2.592 | 2.592 | 2.592 Mbytes
   Step         PotEng         KinEng         TotEng          Temp          Press          Volume    
     10000  -84323.193      80.879858     -84242.314      1224.4889      2885.6434      15103.555    
     10100  -84322.085      85.708761     -84236.376      1297.5965      2634.1415      15103.555    
     10200  -84317.001      85.194983     -84231.806      1289.8181      2503.7609      15103.555    
     10250  -84314.379      85.133896     -84229.245      1288.8933      3133.6841      15103.555    
Loop time of 88.6503 on 8 procs for 250 steps with 512 atoms

Performance: 0.487 ns/day, 49.250 hours/ns, 2.820 timesteps/s
39.9% CPU use with 8 MPI tasks x no OpenMP threads

MPI task timing breakdown:
Section |  min time  |  avg time  |  max time  |%varavg| %total
---------------------------------------------------------------
Pair    | 14.907     | 17.368     | 18.475     |  26.4 | 19.59
Neigh   | 0.014174   | 0.089356   | 0.2131     |  20.0 |  0.10
Comm    | 58.651     | 59.879     | 61.876     |  12.9 | 67.55
Output  | 0.12094    | 0.15903    | 0.19357    |   5.2 |  0.18
Modify  | 9.8292     | 11.154     | 12.556     |  24.0 | 12.58
Other   |            | 0.0006334  |            |       |  0.00

Nlocal:             64 ave          65 max          63 min
Histogram: 1 0 0 0 0 6 0 0 0 1
Nghost:          797.5 ave         820 max         778 min
Histogram: 2 0 0 0 3 1 0 1 0 1
Neighs:              0 ave           0 max           0 min
Histogram: 8 0 0 0 0 0 0 0 0 0
FullNghs:      4809.25 ave        4852 max        4715 min
Histogram: 1 0 0 0 0 1 1 3 0 2

Total # of neighbors = 38474
Ave neighs/atom = 75.144531
Neighbor list builds = 25
Dangerous builds not checked
unfix           1
if		"${t2} == ${temp2}" then 		"jump SELF liquid" else		"next i" 		"jump SELF melt"
next i
jump SELF melt
variable        t1    equal   ${t1}+50
variable        t1    equal   1350+50
variable        t2    equal   ${t1}+50
variable        t2    equal   1400+50
fix             1 all nvt temp ${t1} ${t1} ${tau}
fix             1 all nvt temp 1400 ${t1} ${tau}
fix             1 all nvt temp 1400 1400 ${tau}
fix             1 all nvt temp 1400 1400 0.2
run             ${run1}
run             250
Generated 0 of 1 mixed pair_coeff terms from geometric mixing rule
Per MPI rank memory allocation (min/avg/max) = 2.592 | 2.592 | 2.592 Mbytes
   Step         PotEng         KinEng         TotEng          Temp          Press          Volume    
     10250  -84314.379      85.133896     -84229.245      1288.8933      3133.6841      15103.555    
     10300  -84317.5        89.684123     -84227.816      1357.7819      3544.7801      15103.555    
     10400  -84311.935      91.413811     -84220.521      1383.9687      3658.1177      15103.555    
     10500  -84310.417      93.898585     -84216.518      1421.5872      5608.6095      15103.555    
Loop time of 89.0563 on 8 procs for 250 steps with 512 atoms

Performance: 0.485 ns/day, 49.476 hours/ns, 2.807 timesteps/s
39.6% CPU use with 8 MPI tasks x no OpenMP threads

MPI task timing breakdown:
Section |  min time  |  avg time  |  max time  |%varavg| %total
---------------------------------------------------------------
Pair    | 15.435     | 16.656     | 17.978     |  21.0 | 18.70
Neigh   | 0.0037916  | 0.10426    | 0.29612    |  30.5 |  0.12
Comm    | 58.87      | 60.999     | 62.685     |  14.4 | 68.49
Output  | 0.27298    | 0.30264    | 0.32556    |   3.2 |  0.34
Modify  | 9.2712     | 10.962     | 12.482     |  31.3 | 12.31
Other   |            | 0.03273    |            |       |  0.04

Nlocal:             64 ave          66 max          62 min
Histogram: 1 0 1 0 0 4 0 1 0 1
Nghost:        786.625 ave         800 max         770 min
Histogram: 1 0 0 1 1 1 0 2 1 1
Neighs:              0 ave           0 max           0 min
Histogram: 8 0 0 0 0 0 0 0 0 0
FullNghs:         4795 ave        4953 max        4675 min
Histogram: 3 0 0 0 1 2 0 0 1 1

Total # of neighbors = 38360
Ave neighs/atom = 74.921875
Neighbor list builds = 25
Dangerous builds not checked
unfix           1
if		"${t2} == ${temp2}" then 		"jump SELF liquid" else		"next i" 		"jump SELF melt"
next i
jump SELF melt
variable        t1    equal   ${t1}+50
variable        t1    equal   1400+50
variable        t2    equal   ${t1}+50
variable        t2    equal   1450+50
fix             1 all nvt temp ${t1} ${t1} ${tau}
fix             1 all nvt temp 1450 ${t1} ${tau}
fix             1 all nvt temp 1450 1450 ${tau}
fix             1 all nvt temp 1450 1450 0.2
run             ${run1}
run             250
Generated 0 of 1 mixed pair_coeff terms from geometric mixing rule
Per MPI rank memory allocation (min/avg/max) = 2.592 | 2.592 | 2.592 Mbytes
   Step         PotEng         KinEng         TotEng          Temp          Press          Volume    
     10500  -84310.417      93.898585     -84216.518      1421.5872      5608.6095      15103.555    
     10600  -84306.262      92.891384     -84213.371      1406.3386      5714.8975      15103.555    
     10700  -84299.226      93.805069     -84205.421      1420.1714      8154.4957      15103.555    
     10750  -84299.923      96.373109     -84203.55       1459.0505      4750.5648      15103.555    
Loop time of 89.2499 on 8 procs for 250 steps with 512 atoms

Performance: 0.484 ns/day, 49.583 hours/ns, 2.801 timesteps/s
39.2% CPU use with 8 MPI tasks x no OpenMP threads

MPI task timing breakdown:
Section |  min time  |  avg time  |  max time  |%varavg| %total
---------------------------------------------------------------
Pair    | 15.201     | 16.434     | 17.568     |  19.3 | 18.41
Neigh   | 0.0036962  | 0.022487   | 0.092784   |  22.1 |  0.03
Comm    | 60.052     | 61.701     | 64.523     |  17.3 | 69.13
Output  | 0.17395    | 0.20344    | 0.22414    |   3.8 |  0.23
Modify  | 9.2971     | 10.888     | 12.443     |  29.5 | 12.20
Other   |            | 0.000637   |            |       |  0.00

Nlocal:             64 ave          65 max          63 min
Histogram: 2 0 0 0 0 4 0 0 0 2
Nghost:          798.5 ave         820 max         776 min
Histogram: 2 0 0 0 1 1 2 0 1 1
Neighs:              0 ave           0 max           0 min
Histogram: 8 0 0 0 0 0 0 0 0 0
FullNghs:      4789.75 ave        4873 max        4696 min
Histogram: 1 0 2 0 0 1 1 2 0 1

Total # of neighbors = 38318
Ave neighs/atom = 74.839844
Neighbor list builds = 25
Dangerous builds not checked
unfix           1
if		"${t2} == ${temp2}" then 		"jump SELF liquid" else		"next i" 		"jump SELF melt"
next i
jump SELF melt
variable        t1    equal   ${t1}+50
variable        t1    equal   1450+50
variable        t2    equal   ${t1}+50
variable        t2    equal   1500+50
fix             1 all nvt temp ${t1} ${t1} ${tau}
fix             1 all nvt temp 1500 ${t1} ${tau}
fix             1 all nvt temp 1500 1500 ${tau}
fix             1 all nvt temp 1500 1500 0.2
run             ${run1}
run             250
Generated 0 of 1 mixed pair_coeff terms from geometric mixing rule
Per MPI rank memory allocation (min/avg/max) = 2.592 | 2.592 | 2.592 Mbytes
   Step         PotEng         KinEng         TotEng          Temp          Press          Volume    
     10750  -84299.923      96.373109     -84203.55       1459.0505      4750.5648      15103.555    
     10800  -84304.539      101.93855     -84202.601      1543.3091      6446.7648      15103.555    
     10900  -84290.695      95.379628     -84195.315      1444.0096      6942.6274      15103.555    
     11000  -84280.415      92.48935      -84187.926      1400.2519      11375.818      15103.555    
Loop time of 89.9719 on 8 procs for 250 steps with 512 atoms

Performance: 0.480 ns/day, 49.984 hours/ns, 2.779 timesteps/s
39.5% CPU use with 8 MPI tasks x no OpenMP threads

MPI task timing breakdown:
Section |  min time  |  avg time  |  max time  |%varavg| %total
---------------------------------------------------------------
Pair    | 15.207     | 15.829     | 16.546     |  12.4 | 17.59
Neigh   | 0.0036642  | 0.021525   | 0.12417    |  26.9 |  0.02
Comm    | 61.124     | 62.961     | 64.043     |  11.4 | 69.98
Output  | 0.29589    | 0.30872    | 0.31784    |   1.3 |  0.34
Modify  | 9.4286     | 10.833     | 12.515     |  28.2 | 12.04
Other   |            | 0.01879    |            |       |  0.02

Nlocal:             64 ave          65 max          63 min
Histogram: 3 0 0 0 0 2 0 0 0 3
Nghost:        767.875 ave         776 max         759 min
Histogram: 1 1 0 1 1 0 1 1 1 1
Neighs:              0 ave           0 max           0 min
Histogram: 8 0 0 0 0 0 0 0 0 0
FullNghs:      4712.75 ave        4812 max        4613 min
Histogram: 2 1 0 0 2 0 0 0 1 2

Total # of neighbors = 37702
Ave neighs/atom = 73.636719
Neighbor list builds = 25
Dangerous builds not checked
unfix           1
if		"${t2} == ${temp2}" then 		"jump SELF liquid" else		"next i" 		"jump SELF melt"
next i
jump SELF melt
variable        t1    equal   ${t1}+50
variable        t1    equal   1500+50
variable        t2    equal   ${t1}+50
variable        t2    equal   1550+50
fix             1 all nvt temp ${t1} ${t1} ${tau}
fix             1 all nvt temp 1550 ${t1} ${tau}
fix             1 all nvt temp 1550 1550 ${tau}
fix             1 all nvt temp 1550 1550 0.2
run             ${run1}
run             250
Generated 0 of 1 mixed pair_coeff terms from geometric mixing rule
Per MPI rank memory allocation (min/avg/max) = 2.592 | 2.592 | 2.592 Mbytes
   Step         PotEng         KinEng         TotEng          Temp          Press          Volume    
     11000  -84280.415      92.48935      -84187.926      1400.2519      11375.818      15103.555    
     11100  -84273.921      93.84806      -84180.072      1420.8223      9347.8102      15103.555    
     11200  -84269.547      97.675434     -84171.871      1478.7672      11944.877      15103.555    
     11250  -84263.373      96.028846     -84167.344      1453.8385      12637.39       15103.555    
Loop time of 89.2053 on 8 procs for 250 steps with 512 atoms

Performance: 0.484 ns/day, 49.558 hours/ns, 2.803 timesteps/s
39.4% CPU use with 8 MPI tasks x no OpenMP threads

MPI task timing breakdown:
Section |  min time  |  avg time  |  max time  |%varavg| %total
---------------------------------------------------------------
Pair    | 15.221     | 16.699     | 18.362     |  25.1 | 18.72
Neigh   | 0.0036339  | 0.034677   | 0.1544     |  28.8 |  0.04
Comm    | 60.003     | 61.566     | 63.037     |  12.6 | 69.02
Output  | 0.18214    | 0.22003    | 0.24344    |   3.6 |  0.25
Modify  | 8.6567     | 10.663     | 13.181     |  40.4 | 11.95
Other   |            | 0.02234    |            |       |  0.03

Nlocal:             64 ave          70 max          60 min
Histogram: 1 1 0 1 3 0 1 0 0 1
Nghost:         748.75 ave         769 max         720 min
Histogram: 1 0 0 1 1 1 1 1 1 1
Neighs:              0 ave           0 max           0 min
Histogram: 8 0 0 0 0 0 0 0 0 0
FullNghs:      4667.25 ave        5125 max        4342 min
Histogram: 2 0 0 2 1 2 0 0 0 1

Total # of neighbors = 37338
Ave neighs/atom = 72.925781
Neighbor list builds = 25
Dangerous builds not checked
unfix           1
if		"${t2} == ${temp2}" then 		"jump SELF liquid" else		"next i" 		"jump SELF melt"
next i
jump SELF melt
variable        t1    equal   ${t1}+50
variable        t1    equal   1550+50
variable        t2    equal   ${t1}+50
variable        t2    equal   1600+50
fix             1 all nvt temp ${t1} ${t1} ${tau}
fix             1 all nvt temp 1600 ${t1} ${tau}
fix             1 all nvt temp 1600 1600 ${tau}
fix             1 all nvt temp 1600 1600 0.2
run             ${run1}
run             250
Generated 0 of 1 mixed pair_coeff terms from geometric mixing rule
Per MPI rank memory allocation (min/avg/max) = 2.592 | 2.592 | 2.592 Mbytes
   Step         PotEng         KinEng         TotEng          Temp          Press          Volume    
     11250  -84263.373      96.028846     -84167.344      1453.8385      12637.39       15103.555    
     11300  -84266.03       100.95931     -84165.071      1528.4838      7579.7508      15103.555    
     11400  -84252.517      96.856713     -84155.66       1466.3721      11162.086      15103.555    
     11500  -84246.578      100.00754     -84146.57       1514.0744      11178.9        15103.555    
Loop time of 87.5576 on 8 procs for 250 steps with 512 atoms

Performance: 0.493 ns/day, 48.643 hours/ns, 2.855 timesteps/s
39.2% CPU use with 8 MPI tasks x no OpenMP threads

MPI task timing breakdown:
Section |  min time  |  avg time  |  max time  |%varavg| %total
---------------------------------------------------------------
Pair    | 16.624     | 17.24      | 18.045     |  10.4 | 19.69
Neigh   | 0.038056   | 0.070545   | 0.12387    |  10.1 |  0.08
Comm    | 57.964     | 59.381     | 60.361     |  10.2 | 67.82
Output  | 0.11623    | 0.13815    | 0.16302    |   4.0 |  0.16
Modify  | 9.4115     | 10.727     | 11.851     |  23.5 | 12.25
Other   |            | 0.0006021  |            |       |  0.00

Nlocal:             64 ave          67 max          60 min
Histogram: 1 0 0 0 2 1 0 3 0 1
Nghost:        730.875 ave         736 max         720 min
Histogram: 1 0 0 0 0 1 2 0 1 3
Neighs:              0 ave           0 max           0 min
Histogram: 8 0 0 0 0 0 0 0 0 0
FullNghs:       4626.5 ave        4836 max        4330 min
Histogram: 1 0 0 1 1 1 0 3 0 1

Total # of neighbors = 37012
Ave neighs/atom = 72.289062
Neighbor list builds = 25
Dangerous builds not checked
unfix           1
if		"${t2} == ${temp2}" then 		"jump SELF liquid" else		"next i" 		"jump SELF melt"
next i
jump SELF melt
variable        t1    equal   ${t1}+50
variable        t1    equal   1600+50
variable        t2    equal   ${t1}+50
variable        t2    equal   1650+50
fix             1 all nvt temp ${t1} ${t1} ${tau}
fix             1 all nvt temp 1650 ${t1} ${tau}
fix             1 all nvt temp 1650 1650 ${tau}
fix             1 all nvt temp 1650 1650 0.2
run             ${run1}
run             250
Generated 0 of 1 mixed pair_coeff terms from geometric mixing rule
Per MPI rank memory allocation (min/avg/max) = 2.592 | 2.592 | 2.592 Mbytes
   Step         PotEng         KinEng         TotEng          Temp          Press          Volume    
     11500  -84246.578      100.00754     -84146.57       1514.0744      11178.9        15103.555    
     11600  -84238.09       99.914098     -84138.176      1512.6597      10528.571      15103.555    
     11700  -84238.265      109.32952     -84128.936      1655.2054      12865.143      15103.555    
     11750  -84231.196      106.15803     -84125.038      1607.1903      13814.624      15103.555    
Loop time of 88.4156 on 8 procs for 250 steps with 512 atoms

Performance: 0.489 ns/day, 49.120 hours/ns, 2.828 timesteps/s
39.9% CPU use with 8 MPI tasks x no OpenMP threads

MPI task timing breakdown:
Section |  min time  |  avg time  |  max time  |%varavg| %total
---------------------------------------------------------------
Pair    | 15.519     | 16.68      | 17.762     |  18.1 | 18.87
Neigh   | 0.0038237  | 0.093805   | 0.24102    |  25.6 |  0.11
Comm    | 58.778     | 60.801     | 62.54      |  14.1 | 68.77
Output  | 0.19102    | 0.21924    | 0.25197    |   4.0 |  0.25
Modify  | 8.8502     | 10.616     | 11.893     |  29.1 | 12.01
Other   |            | 0.00512    |            |       |  0.01

Nlocal:             64 ave          66 max          61 min
Histogram: 2 0 0 0 0 0 2 0 2 2
Nghost:        718.375 ave         730 max         705 min
Histogram: 1 1 1 0 0 2 0 0 1 2
Neighs:              0 ave           0 max           0 min
Histogram: 8 0 0 0 0 0 0 0 0 0
FullNghs:       4608.5 ave        4755 max        4377 min
Histogram: 2 0 0 1 0 0 0 1 1 3

Total # of neighbors = 36868
Ave neighs/atom = 72.007812
Neighbor list builds = 25
Dangerous builds not checked
unfix           1
if		"${t2} == ${temp2}" then 		"jump SELF liquid" else		"next i" 		"jump SELF melt"
next i
jump SELF melt
variable        t1    equal   ${t1}+50
variable        t1    equal   1650+50
variable        t2    equal   ${t1}+50
variable        t2    equal   1700+50
fix             1 all nvt temp ${t1} ${t1} ${tau}
fix             1 all nvt temp 1700 ${t1} ${tau}
fix             1 all nvt temp 1700 1700 ${tau}
fix             1 all nvt temp 1700 1700 0.2
run             ${run1}
run             250
Generated 0 of 1 mixed pair_coeff terms from geometric mixing rule
Per MPI rank memory allocation (min/avg/max) = 2.592 | 2.592 | 2.592 Mbytes
   Step         PotEng         KinEng         TotEng          Temp          Press          Volume    
     11750  -84231.196      106.15803     -84125.038      1607.1903      13814.624      15103.555    
     11800  -84228.221      104.55349     -84123.668      1582.8983      12261.062      15103.555    
     11900  -84220.93       107.32718     -84113.603      1624.8907      14013.948      15103.555    
     12000  -84220.681      113.51882     -84107.162      1718.6298      10782.539      15103.555    
Loop time of 88.7341 on 8 procs for 250 steps with 512 atoms

Performance: 0.487 ns/day, 49.297 hours/ns, 2.817 timesteps/s
40.0% CPU use with 8 MPI tasks x no OpenMP threads

MPI task timing breakdown:
Section |  min time  |  avg time  |  max time  |%varavg| %total
---------------------------------------------------------------
Pair    | 15.532     | 16.78      | 18.144     |  20.8 | 18.91
Neigh   | 0.0036048  | 0.089419   | 0.24824    |  28.0 |  0.10
Comm    | 59.163     | 60.74      | 61.576     |  10.3 | 68.45
Output  | 0.15509    | 0.17793    | 0.20824    |   3.5 |  0.20
Modify  | 9.5729     | 10.946     | 11.8       |  20.6 | 12.34
Other   |            | 0.0006059  |            |       |  0.00

Nlocal:             64 ave          68 max          59 min
Histogram: 1 0 0 2 1 1 0 0 2 1
Nghost:          706.5 ave         715 max         696 min
Histogram: 1 0 1 1 0 2 0 0 2 1
Neighs:              0 ave           0 max           0 min
Histogram: 8 0 0 0 0 0 0 0 0 0
FullNghs:       4601.5 ave        4875 max        4244 min
Histogram: 1 0 0 2 1 1 0 0 1 2

Total # of neighbors = 36812
Ave neighs/atom = 71.898438
Neighbor list builds = 25
Dangerous builds not checked
unfix           1
if		"${t2} == ${temp2}" then 		"jump SELF liquid" else		"next i" 		"jump SELF melt"
next i
jump SELF melt
variable        t1    equal   ${t1}+50
variable        t1    equal   1700+50
variable        t2    equal   ${t1}+50
variable        t2    equal   1750+50
fix             1 all nvt temp ${t1} ${t1} ${tau}
fix             1 all nvt temp 1750 ${t1} ${tau}
fix             1 all nvt temp 1750 1750 ${tau}
fix             1 all nvt temp 1750 1750 0.2
run             ${run1}
run             250
Generated 0 of 1 mixed pair_coeff terms from geometric mixing rule
Per MPI rank memory allocation (min/avg/max) = 2.592 | 2.592 | 2.592 Mbytes
   Step         PotEng         KinEng         TotEng          Temp          Press          Volume    
     12000  -84220.681      113.51882     -84107.162      1718.6298      10782.539      15103.555    
     12100  -84212.715      111.19302     -84101.522      1683.4181      15797.754      15103.555    
     12200  -84209.224      113.98181     -84095.243      1725.6393      12718.133      15103.555    
     12250  -84207.677      113.26218     -84094.415      1714.7443      16748.116      15103.555    
Loop time of 90.1688 on 8 procs for 250 steps with 512 atoms

Performance: 0.479 ns/day, 50.094 hours/ns, 2.773 timesteps/s
39.4% CPU use with 8 MPI tasks x no OpenMP threads

MPI task timing breakdown:
Section |  min time  |  avg time  |  max time  |%varavg| %total
---------------------------------------------------------------
Pair    | 15.709     | 16.816     | 18.237     |  17.9 | 18.65
Neigh   | 0.0036656  | 0.065397   | 0.17194    |  20.5 |  0.07
Comm    | 60.866     | 62.016     | 63.494     |  10.9 | 68.78
Output  | 0.22243    | 0.26767    | 0.2954     |   4.2 |  0.30
Modify  | 9.6426     | 10.961     | 12.84      |  29.5 | 12.16
Other   |            | 0.04192    |            |       |  0.05

Nlocal:             64 ave          69 max          61 min
Histogram: 2 0 2 0 0 3 0 0 0 1
Nghost:        716.375 ave         726 max         703 min
Histogram: 1 1 0 0 2 0 0 1 1 2
Neighs:              0 ave           0 max           0 min
Histogram: 8 0 0 0 0 0 0 0 0 0
FullNghs:      4579.75 ave        5009 max        4338 min
Histogram: 2 1 1 1 1 1 0 0 0 1

Total # of neighbors = 36638
Ave neighs/atom = 71.558594
Neighbor list builds = 25
Dangerous builds not checked
unfix           1
if		"${t2} == ${temp2}" then 		"jump SELF liquid" else		"next i" 		"jump SELF melt"
jump SELF liquid
fix             2 all nvt temp ${temp2} ${temp2} ${tau}
fix             2 all nvt temp 1800 ${temp2} ${tau}
fix             2 all nvt temp 1800 1800 ${tau}
fix             2 all nvt temp 1800 1800 0.2
dump            1 all custom ${dumpt} liquid.dump id type x y z
dump            1 all custom 1 liquid.dump id type x y z
run             ${run2}
run             5000
Generated 0 of 1 mixed pair_coeff terms from geometric mixing rule
Per MPI rank memory allocation (min/avg/max) = 3.845 | 3.845 | 3.845 Mbytes
   Step         PotEng         KinEng         TotEng          Temp          Press          Volume    
     12250  -84207.677      113.26218     -84094.415      1714.7443      16748.116      15103.555    
     12300  -84208.988      115.89615     -84093.092      1754.6215      13649.402      15103.555    
[...]
fix             1 all nvt temp 350 ${t1} ${tau}
fix             1 all nvt temp 350 350 ${tau}
fix             1 all nvt temp 350 350 0.2
run             ${run4}
run             1000
Generated 0 of 1 mixed pair_coeff terms from geometric mixing rule
Per MPI rank memory allocation (min/avg/max) = 2.592 | 2.592 | 2.592 Mbytes
   Step         PotEng         KinEng         TotEng          Temp          Press          Volume    
     30850  -84508.618      27.022012     -84481.596      409.10251     -9466.2919      15103.555    
     30900  -84506.964      24.538558     -84482.425      371.504       -8009.6508      15103.555    
     31000  -84509.707      24.453749     -84485.253      370.22003     -7952.3255      15103.555    
     31100  -84512.448      24.652888     -84487.795      373.23492     -9326.5284      15103.555    
     31200  -84512.629      22.686487     -84489.943      343.46439     -9417.3137      15103.555    
     31300  -84512.64       21.584634     -84491.056      326.78278     -5853.1596      15103.555    
     31400  -84512.933      22.357897     -84490.575      338.48967     -8669.7675      15103.555    
     31500  -84512.442      23.19696      -84489.245      351.19274     -7795.4494      15103.555    
     31600  -84512.569      24.017484     -84488.551      363.61515     -7977.0728      15103.555    
     31700  -84512.319      23.364788     -84488.954      353.7336      -8901.5942      15103.555    
     31800  -84513.226      22.620369     -84490.605      342.46339     -9369.0274      15103.555    
     31850  -84513.943      22.704019     -84491.239      343.72981     -9223.7068      15103.555    
Loop time of 357.05 on 8 procs for 1000 steps with 512 atoms

Performance: 0.484 ns/day, 49.590 hours/ns, 2.801 timesteps/s
39.6% CPU use with 8 MPI tasks x no OpenMP threads

MPI task timing breakdown:
Section |  min time  |  avg time  |  max time  |%varavg| %total
---------------------------------------------------------------
Pair    | 66.235     | 68.701     | 73.964     |  27.3 | 19.24
Neigh   | 0.18835    | 0.37025    | 0.51725    |  16.1 |  0.10
Comm    | 238.3      | 244.48     | 252.09     |  30.3 | 68.47
Output  | 0.81391    | 0.90178    | 0.97897    |   5.1 |  0.25
Modify  | 36.045     | 42.561     | 48.689     |  56.7 | 11.92
Other   |            | 0.03684    |            |       |  0.01

Nlocal:             64 ave          71 max          59 min
Histogram: 2 0 2 0 0 2 1 0 0 1
Nghost:        708.875 ave         722 max         695 min
Histogram: 1 2 0 0 1 1 0 1 0 2
Neighs:              0 ave           0 max           0 min
Histogram: 8 0 0 0 0 0 0 0 0 0
FullNghs:      4641.25 ave        5708 max        4229 min
Histogram: 3 0 2 2 0 0 0 0 0 1

Total # of neighbors = 37130
Ave neighs/atom = 72.519531
Neighbor list builds = 100
Dangerous builds not checked
unfix           1
if              "${t1} == ${temp1}" then 		"write_restart   s4-quench.restart"                 "jump SELF age" else            "next i"                 "jump SELF amorphous_quench"
next i
jump SELF amorphous_quench
variable        t1    equal   ${t1}-50
variable        t1    equal   350-50
fix             1 all nvt temp ${t1} ${t1} ${tau}
fix             1 all nvt temp 300 ${t1} ${tau}
fix             1 all nvt temp 300 300 ${tau}
fix             1 all nvt temp 300 300 0.2
run             ${run4}
run             1000
Generated 0 of 1 mixed pair_coeff terms from geometric mixing rule
Per MPI rank memory allocation (min/avg/max) = 2.592 | 2.592 | 2.592 Mbytes
   Step         PotEng         KinEng         TotEng          Temp          Press          Volume    
     31850  -84513.943      22.704019     -84491.239      343.72981     -9223.7068      15103.555    
     31900  -84514.272      22.22783      -84492.044      336.52051     -7977.6548      15103.555    
     32000  -84516.632      22.435996     -84494.196      339.67206     -8128.3347      15103.555    
     32100  -84518.522      22.103327     -84496.419      334.63558     -7894.2775      15103.555    
     32200  -84517.181      18.99781      -84498.183      287.61928     -9508.2897      15103.555    
     32300  -84518.439      19.938182     -84498.5        301.85614     -7879.2906      15103.555    
     32400  -84518.294      20.174126     -84498.119      305.42823     -8471.3247      15103.555    
     32500  -84518.41       21.094094     -84497.316      319.35619     -6790.7918      15103.555    
     32600  -84517.741      20.556731     -84497.184      311.22073     -10199.409      15103.555    
     32700  -84518.188      20.158405     -84498.03       305.19023     -7603.0976      15103.555    
     32800  -84518.464      19.024167     -84499.439      288.01832     -8913.6017      15103.555    
     32850  -84519.016      19.608898     -84499.407      296.87091     -11415.459      15103.555    
Loop time of 357.253 on 8 procs for 1000 steps with 512 atoms

Performance: 0.484 ns/day, 49.618 hours/ns, 2.799 timesteps/s
39.5% CPU use with 8 MPI tasks x no OpenMP threads

MPI task timing breakdown:
Section |  min time  |  avg time  |  max time  |%varavg| %total
---------------------------------------------------------------
Pair    | 67.03      | 69.383     | 73.092     |  25.0 | 19.42
Neigh   | 0.063348   | 0.21495    | 0.41553    |  22.9 |  0.06
Comm    | 239.54     | 243.62     | 247.19     |  16.2 | 68.19
Output  | 0.54354    | 0.65223    | 0.71991    |   7.1 |  0.18
Modify  | 37.262     | 43.385     | 48.28      |  49.3 | 12.14
Other   |            | 0.002338   |            |       |  0.00

Nlocal:             64 ave          70 max          57 min
Histogram: 1 0 1 0 3 0 1 0 0 2
Nghost:          706.5 ave         723 max         694 min
Histogram: 1 2 0 1 0 2 1 0 0 1
Neighs:              0 ave           0 max           0 min
Histogram: 8 0 0 0 0 0 0 0 0 0
FullNghs:       4642.5 ave        5655 max        4042 min
Histogram: 1 2 1 1 1 1 0 0 0 1

Total # of neighbors = 37140
Ave neighs/atom = 72.539062
Neighbor list builds = 100
Dangerous builds not checked
unfix           1
if              "${t1} == ${temp1}" then 		"write_restart   s4-quench.restart"                 "jump SELF age" else            "next i"                 "jump SELF amorphous_quench"
write_restart   s4-quench.restart
System init for write_restart ...
Generated 0 of 1 mixed pair_coeff terms from geometric mixing rule
jump SELF age
fix             4 all nvt temp ${temp1} ${temp1} ${tau}
fix             4 all nvt temp 300 ${temp1} ${tau}
fix             4 all nvt temp 300 300 ${tau}
fix             4 all nvt temp 300 300 0.2
dump            1 all custom ${dumpt} amorphous.dump id type x y z
dump            1 all custom 1 amorphous.dump id type x y z
run             ${run5}
run             10000
Generated 0 of 1 mixed pair_coeff terms from geometric mixing rule
Per MPI rank memory allocation (min/avg/max) = 3.845 | 3.845 | 3.845 Mbytes
   Step         PotEng         KinEng         TotEng          Temp          Press          Volume    
     32850  -84519.016      19.608898     -84499.407      296.87091     -11415.459      15103.555    
     32900  -84519.5        20.346494     -84499.154      308.03782     -9816.4239      15103.555    
     33000  -84518.622      20.752253     -84497.87       314.18085     -9504.6026      15103.555    
     33100  -84517.195      19.949983     -84497.245      302.03481     -9104.6854      15103.555    
     33200  -84517.65       19.860613     -84497.789      300.68178     -8987.4265      15103.555    
     33300  -84518.426      20.386602     -84498.039      308.64504     -8973.1281      15103.555    
     33400  -84518.457      20.153159     -84498.304      305.11082     -7409.4157      15103.555    
     33500  -84519.569      20.263757     -84499.305      306.78521     -8699.3952      15103.555    
     33600  -84519.48       19.332311     -84500.148      292.6835      -10219.05       15103.555    
     33700  -84518.875      19.665038     -84499.21       297.72084     -9017.124       15103.555    
     33800  -84517.714      19.816916     -84497.897      300.02022     -8783.2265      15103.555    
     33900  -84517.78       20.127222     -84497.653      304.71814     -8430.2889      15103.555    
     34000  -84517.415      19.070124     -84498.345      288.71408     -9686.5283      15103.555    
     34100  -84518.325      19.118364     -84499.207      289.44443     -7757.8803      15103.555    
     34200  -84518.988      18.971117     -84500.017      287.21517     -10396.413      15103.555    
     34300  -84519.577      19.287219     -84500.29       292.00082     -9208.1845      15103.555    
     34400  -84518.713      18.998913     -84499.714      287.63598     -8422.5447      15103.555    
     34500  -84518.878      20.453775     -84498.424      309.66201     -9698.3752      15103.555    
     34600  -84519.09       21.527635     -84497.562      325.91982     -9455.2949      15103.555    
     34700  -84518.061      19.914369     -84498.147      301.49562     -8916.616       15103.555    
     34800  -84519.333      19.582391     -84499.751      296.46961     -7654.9044      15103.555    
     34900  -84519.65       18.877267     -84500.772      285.79432     -8829.137       15103.555    
     35000  -84519.586      19.204237     -84500.381      290.74451     -9292.8311      15103.555    
     35100  -84518.953      19.129114     -84499.824      289.60717     -9551.8234      15103.555    
     35200  -84518.872      19.704672     -84499.167      298.3209      -9686.8404      15103.555    
     35300  -84518.52       19.879354     -84498.641      300.9655      -6856.4265      15103.555    
     35400  -84519.217      20.405307     -84498.812      308.92822     -9018.9037      15103.555    
     35500  -84520.164      19.208768     -84500.955      290.81311     -7359.2736      15103.555    
     35600  -84519.448      18.42425      -84501.024      278.93581     -9255.4938      15103.555    
     35700  -84519.539      19.434643     -84500.104      294.23276     -9484.0291      15103.555    
     35800  -84518.888      19.589834     -84499.299      296.5823      -10335.906      15103.555    
     35900  -84518.671      20.07938      -84498.591      303.99383     -10827.924      15103.555    
     36000  -84518.841      20.096209     -84498.745      304.24861     -10267.786      15103.555    
     36100  -84519.163      19.792226     -84499.371      299.64642     -9232.5448      15103.555    
     36200  -84519.567      20.289287     -84499.278      307.17174     -9790.2644      15103.555    
     36300  -84519.965      21.125703     -84498.84       319.83474     -7763.2978      15103.555    
     36400  -84518.638      20.122471     -84498.515      304.64621     -9613.2314      15103.555    
     36500  -84518.995      20.486566     -84498.508      310.15845     -9671.7182      15103.555    
     36600  -84519.558      19.745802     -84499.812      298.94359     -8581.5602      15103.555    
     36700  -84519.246      18.5681       -84500.678      281.11365     -10031.35       15103.555    
     36800  -84519.482      19.069916     -84500.412      288.71093     -9217.0805      15103.555    
     36900  -84518.566      20.246969     -84498.319      306.53105     -10777.864      15103.555    
     37000  -84519.098      21.691216     -84497.407      328.39638     -8752.255       15103.555    
     37100  -84518.32       20.095746     -84498.224      304.24159     -9886.5219      15103.555    
     37200  -84520.223      20.728865     -84499.495      313.82676     -7034.112       15103.555    
     37300  -84519.762      19.538779     -84500.223      295.80933     -7048.309       15103.555    
     37400  -84519.251      19.075276     -84500.176      288.79208     -9268.7864      15103.555    
     37500  -84518.334      19.080897     -84499.253      288.87719     -8912.7055      15103.555    
     37600  -84518.969      20.156691     -84498.813      305.16429     -9298.4558      15103.555    
     37700  -84518.606      19.584594     -84499.021      296.50296     -8545.7934      15103.555    
     37800  -84519.237      20.328492     -84498.908      307.76529     -7826.9275      15103.555    
     37900  -84519.138      20.138951     -84498.999      304.8957      -8566.7398      15103.555    
     38000  -84519.257      19.96091      -84499.296      302.20024     -9175.2656      15103.555    
     38100  -84519.441      20.373375     -84499.068      308.44479     -7160.8446      15103.555    
     38200  -84518.434      19.838747     -84498.595      300.35074     -8290.1357      15103.555    
     38300  -84518.863      20.677344     -84498.186      313.04676     -9707.4154      15103.555    
     38400  -84518.332      19.009232     -84499.322      287.79221     -9143.1705      15103.555    
     38500  -84519.195      19.022028     -84500.173      287.98593     -9324.9178      15103.555    
     38600  -84519.263      18.997472     -84500.265      287.61417     -7430.7434      15103.555    
     38700  -84520.037      20.72204      -84499.315      313.72343     -10627.982      15103.555    
     38800  -84518.707      20.581315     -84498.126      311.59293     -10128.958      15103.555    
     38900  -84518.513      20.191754     -84498.322      305.69512     -9521.7677      15103.555    
     39000  -84520.089      20.480803     -84499.608      310.07121     -8062.8274      15103.555    
     39100  -84520.13       19.097639     -84501.032      289.13066     -7556.0695      15103.555    
     39200  -84519.137      18.426376     -84500.71       278.96801     -7415.7223      15103.555    
     39300  -84520.16       20.135918     -84500.025      304.84978     -8498.5742      15103.555    
     39400  -84519.663      20.108955     -84499.554      304.44158     -10434.367      15103.555    
     39500  -84519.73       20.766296     -84498.963      314.39345     -8733.8234      15103.555    
     39600  -84518.421      20.109575     -84498.311      304.45097     -9790.4142      15103.555    
     39700  -84518.71       21.469075     -84497.241      325.03325     -7951.7761      15103.555    
     39800  -84518.961      20.58124      -84498.38       311.59178     -9414.9654      15103.555    
     39900  -84518.821      18.882923     -84499.938      285.87993     -7527.0787      15103.555    
     40000  -84519.601      19.295046     -84500.306      292.11932     -8382.6104      15103.555    
     40100  -84519.448      19.224575     -84500.223      291.05242     -8378.9456      15103.555    
     40200  -84518.598      19.812138     -84498.786      299.94789     -9050.2875      15103.555    
     40300  -84518.29       20.265637     -84498.025      306.81368     -7863.4297      15103.555    
     40400  -84518.917      20.046022     -84498.871      303.4888      -9536.6687      15103.555    
     40500  -84518.651      19.120592     -84499.53       289.47815     -6826.8515      15103.555    
     40600  -84519.482      19.702411     -84499.78       298.28667     -10734.349      15103.555    
     40700  -84519.527      19.87358      -84499.654      300.87809     -9363.8131      15103.555    
     40800  -84519.092      20.029501     -84499.062      303.23867     -10784.396      15103.555    
     40900  -84518.48       20.6074       -84497.873      311.98783     -6812.0901      15103.555    
     41000  -84518.357      19.781621     -84498.575      299.48587     -9611.0839      15103.555    
     41100  -84519.811      19.47991      -84500.331      294.91809     -7574.9645      15103.555    
     41200  -84519.711      18.934727     -84500.776      286.66424     -8828.3252      15103.555    
     41300  -84519.758      19.515981     -84500.242      295.46419     -7468.0701      15103.555    
     41400  -84520.77       21.661524     -84499.108      327.94685     -9434.3441      15103.555    
     41500  -84518.755      19.325967     -84499.429      292.58746     -8653.8597      15103.555    
     41600  -84520.669      20.058623     -84500.611      303.67957     -7844.4101      15103.555    
     41700  -84520.63       18.771551     -84501.859      284.19382     -7779.4806      15103.555    
     41800  -84520.551      19.153223     -84501.398      289.97217     -7763.3061      15103.555    
     41900  -84519.237      19.240195     -84499.997      291.28889     -9489.5533      15103.555    
     42000  -84519.847      20.678836     -84499.168      313.06935     -7446.2455      15103.555    
     42100  -84518.951      19.499211     -84499.452      295.21029     -9642.0654      15103.555    
     42200  -84518.811      18.697884     -84500.113      283.07852     -7649.6183      15103.555    
     42300  -84520.395      19.650465     -84500.745      297.50022     -8975.8835      15103.555    
     42400  -84521.402      18.812964     -84502.589      284.82079     -8729.2652      15103.555    
     42500  -84521.8        19.017878     -84502.782      287.92311     -8826.375       15103.555    
     42600  -84521.582      19.800887     -84501.781      299.77755     -10033.737      15103.555    
     42700  -84520.639      19.712402     -84500.927      298.43793     -7876.0167      15103.555    
     42800  -84520.516      19.916987     -84500.599      301.53526     -7392.9122      15103.555    
     42850  -84520.545      19.834102     -84500.711      300.28042     -9288.4043      15103.555    
Loop time of 3351.11 on 8 procs for 10000 steps with 512 atoms

Performance: 0.516 ns/day, 46.543 hours/ns, 2.984 timesteps/s
43.1% CPU use with 8 MPI tasks x no OpenMP threads

MPI task timing breakdown:
Section |  min time  |  avg time  |  max time  |%varavg| %total
---------------------------------------------------------------
Pair    | 1101.6     | 1123       | 1145.8     |  44.1 | 33.51
Neigh   | 0.38257    | 0.63708    | 0.96328    |  25.9 |  0.02
Comm    | 1315.6     | 1335.4     | 1360.1     |  36.9 | 39.85
Output  | 528.21     | 561.18     | 628.99     | 130.5 | 16.75
Modify  | 288.74     | 330.9      | 376.85     | 145.1 |  9.87
Other   |            | 0.05424    |            |       |  0.00

Nlocal:             64 ave          74 max          59 min
Histogram: 2 0 3 0 2 0 0 0 0 1
Nghost:        701.875 ave         710 max         692 min
Histogram: 3 0 0 0 0 1 0 1 0 3
Neighs:              0 ave           0 max           0 min
Histogram: 8 0 0 0 0 0 0 0 0 0
FullNghs:       4637.5 ave        5929 max        4169 min
Histogram: 2 2 2 1 0 0 0 0 0 1

Total # of neighbors = 37100
Ave neighs/atom = 72.460938
Neighbor list builds = 1000
Dangerous builds not checked
write_restart   s5-amorphous.restart
System init for write_restart ...
Generated 0 of 1 mixed pair_coeff terms from geometric mixing rule
unfix           4
undump		1

# ##### s4-Amo-600K: to increase temperature up to 600K
#
# fix             7 all nvt temp ${temp1} ${temp4} ${tau}
# timestep        ${dt}
# thermo_style    custom step pe ke etotal temp press vol
# thermo          ${showt}
# run                 ${run7}
# write_restart   nvt7.restart
# unfix           7
#
#
# #### s8-Amo to crys: stable a time in 600K
#
# fix             8 all nvt temp ${temp4} ${temp4} ${tau}
# timestep        ${dt}
# thermo_style    custom step pe ke etotal temp press vol
# thermo          ${showt}
# restart         100000 smc.restart
# run                 ${run8}
# write_restart   nvt8.restart
# unfix           8
#
# ##### 600K -> 300K
#
# fix             9 all nvt temp ${temp4} ${temp1} ${tau}
# timestep        ${dt}
# thermo_style    custom step pe ke etotal temp press vol
# thermo          ${showt}
# run                 ${run9}
# write_restart   nvt9.restart
# unfix           9
#
# ##### 300K -> 300K
#
# fix             10 all nvt temp ${temp1} ${temp1} ${tau}
# timestep        ${dt}
# thermo_style    custom step pe ke etotal temp press vol
# thermo          ${showt}
# run                 ${run10}
# write_restart   nvt10.restart
# unfix           10
Total wall time: 4:08:03
