ITEM: TIMESTEP
0
ITEM: NUMBER OF ATOMS
48
ITEM: BOX BOUNDS xy xz yz pp pp pp
-5.8802448511123657e+00 8.6067802309989929e+00 2.5094206929206848e+00
-9.4973444938659668e-03 9.3236122131347656e+00 -5.8682077527046204e+00
-2.8691649436950684e-02 1.9545819282531738e+01 7.1304261684417725e-02
ITEM: ATOMS id type xs ys zs fx fy fz
1 1 0.952357 0.16703 0.0320218 0 0 2.44571
2 1 0.508965 0.0738739 0.0528103 0 0 0.220341
3 1 0.654782 0.125314 0.657023 0 0 0.00126648
4 1 0.8922 0.948847 0.927808 0 0 -2.44568
5 1 0.551834 0.157156 0.802805 0 0 0.000377655
6 1 0.335592 0.0420026 0.90702 0 0 -0.220341
7 1 0.995223 0.250315 0.78202 0 0 0.00774002
8 1 0.973691 0.208712 0.407029 0 0 0.000774384
9 1 0.211393 0.0321465 0.677802 0 0 -0.00244522
10 1 0.870867 0.240498 0.552801 0 0 -0.000766754
11 1 0.849335 0.198895 0.17781 0 0 -0.00774384
12 1 0.633165 0.0837297 0.282028 0 0 0.00244141
13 1 0.292724 0.292053 0.157025 0 0 -0.000379562
14 1 0.530301 0.115534 0.427803 0 0 0.000116348
15 1 0.952358 0.500363 0.0320219 0 0 2.44568
16 1 0.508966 0.407207 0.0528103 0 0 0.220343
17 1 0.654782 0.458648 0.657023 0 0 0.00126648
18 1 0.8922 0.28218 0.927808 0 0 -2.44571
19 1 0.551833 0.49049 0.802805 0 0 0.000383377
20 1 0.335592 0.375336 0.90702 0 0 -0.220337
21 1 0.995223 0.583648 0.78202 0 0 0.00773239
22 1 0.314257 0.333676 0.532027 0 0 -0.000120163
23 1 0.973691 0.542046 0.407029 0 0 0.000768661
24 1 0.211393 0.36548 0.677802 0 0 -0.00243759
25 1 0.870867 0.573831 0.552801 0 0 -0.000770569
26 1 0.189776 0.323895 0.302807 0 0 -0.00126457
27 1 0.849335 0.532228 0.17781 0 0 -0.00773621
28 1 0.633165 0.417063 0.282028 0 0 0.00244522
29 1 0.292724 0.625387 0.157025 0 0 -0.00038147
30 1 0.530301 0.448867 0.427803 0 0 0.000116348
31 1 0.952358 0.833696 0.0320219 0 0 2.44568
32 1 0.508966 0.740541 0.0528104 0 0 0.220335
33 1 0.654782 0.791981 0.657023 0 0 0.00126457
34 1 0.8922 0.615514 0.927808 0 0 -2.44569
35 1 0.551833 0.823823 0.802805 0 0 0.000387192
36 1 0.335592 0.708669 0.90702 0 0 -0.220333
37 1 0.995223 0.916981 0.78202 0 0 0.00773621
38 1 0.314257 0.667009 0.532027 0 0 -0.00012207
39 1 0.973691 0.875379 0.407029 0 0 0.000768661
40 1 0.211393 0.698813 0.677802 0 0 -0.00244522
41 1 0.870866 0.907164 0.552801 0 0 -0.000764847
42 1 0.189776 0.657228 0.302807 0 0 -0.00126457
43 1 0.849335 0.865562 0.17781 0 0 -0.00774002
44 1 0.633165 0.750396 0.282028 0 0 0.00244331
45 1 0.292725 0.95872 0.157026 0 0 -0.000389099
46 1 0.530301 0.782201 0.427803 0 0 0.00012207
47 1 0.314257 0.000342385 0.532027 0 0 -0.00012207
48 1 0.189776 0.990562 0.302807 0 0 -0.00126266
ITEM: TIMESTEP
1
ITEM: NUMBER OF ATOMS
48
ITEM: BOX BOUNDS xy xz yz pp pp pp
-5.8802448511123657e+00 8.6067802309989929e+00 2.5094206929206848e+00
-9.4973444938659668e-03 9.3236122131347656e+00 -5.8682077527046204e+00
-2.8691649436950684e-02 1.9545819282531738e+01 7.1304261684417725e-02
ITEM: ATOMS id type xs ys zs fx fy fz
1 1 0.95728 0.16699 0.0371305 0 0 1.22534
2 1 0.509409 0.0738704 0.0532705 0 0 0.176363
3 1 0.654785 0.125314 0.657026 0 0 -0.00060463
4 1 0.887277 0.948886 0.9227 0 0 -1.22534
5 1 0.551834 0.157156 0.802806 0 0 -0.0881233
6 1 0.335148 0.0420061 0.90656 0 0 -0.176363
7 1 0.995239 0.250315 0.782036 0 0 -0.0591507
8 1 0.973693 0.208712 0.407031 0 0 -0.000642776
9 1 0.211388 0.0321465 0.677797 0 0 -0.00606918
10 1 0.870865 0.240498 0.552799 0 0 0.000644684
11 1 0.849319 0.198895 0.177794 0 0 0.0591526
12 1 0.63317 0.0837296 0.282033 0 0 0.00606918
13 1 0.292724 0.292053 0.157025 0 0 0.0881195
14 1 0.530301 0.115534 0.427803 0 0 -0.0010128
15 1 0.957281 0.500324 0.0371305 0 0 1.22534
16 1 0.509409 0.407204 0.0532706 0 0 0.176369
17 1 0.654785 0.458648 0.657025 0 0 -0.000600815
18 1 0.887277 0.28222 0.9227 0 0 -1.22533
19 1 0.551834 0.49049 0.802806 0 0 -0.0881271
20 1 0.335149 0.375339 0.90656 0 0 -0.176371
21 1 0.995238 0.583648 0.782036 0 0 -0.0591469
22 1 0.314257 0.333676 0.532027 0 0 0.00100899
23 1 0.973693 0.542046 0.407031 0 0 -0.000648499
24 1 0.211388 0.36548 0.677797 0 0 -0.00606155
25 1 0.870865 0.573831 0.552799 0 0 0.000644684
26 1 0.189773 0.323895 0.302805 0 0 0.000602722
27 1 0.849319 0.532228 0.177794 0 0 0.0591488
28 1 0.63317 0.417063 0.282033 0 0 0.00606728
29 1 0.292724 0.625387 0.157025 0 0 0.0881214
30 1 0.530301 0.448867 0.427803 0 0 -0.0010128
31 1 0.957281 0.833657 0.0371306 0 0 1.22534
32 1 0.509409 0.740537 0.0532706 0 0 0.176365
33 1 0.654785 0.791981 0.657025 0 0 -0.000600815
34 1 0.887277 0.615553 0.9227 0 0 -1.22534
35 1 0.551834 0.823823 0.802805 0 0 -0.0881214
36 1 0.335148 0.708673 0.90656 0 0 -0.176363
37 1 0.995239 0.916981 0.782036 0 0 -0.0591488
38 1 0.314257 0.667009 0.532027 0 0 0.0010128
39 1 0.973693 0.875379 0.407031 0 0 -0.000650406
40 1 0.211388 0.698813 0.677797 0 0 -0.00606537
41 1 0.870865 0.907164 0.552799 0 0 0.000646591
42 1 0.189773 0.657228 0.302805 0 0 0.000606537
43 1 0.849319 0.865562 0.177794 0 0 0.0591469
44 1 0.63317 0.750396 0.282033 0 0 0.00606728
45 1 0.292724 0.95872 0.157025 0 0 0.0881176
46 1 0.530301 0.782201 0.427803 0 0 -0.00100899
47 1 0.314256 0.000342387 0.532027 0 0 0.00101089
48 1 0.189773 0.990562 0.302805 0 0 0.000602722
ITEM: TIMESTEP
2
ITEM: NUMBER OF ATOMS
48
ITEM: BOX BOUNDS xy xz yz pp pp pp
-5.8802448511123657e+00 8.6067802309989929e+00 2.5094206929206848e+00
-9.4973444938659668e-03 9.3236122131347656e+00 -5.8682077527046204e+00
-2.8691649436950684e-02 1.9545819282531738e+01 7.1304261684417725e-02
ITEM: ATOMS id type xs ys zs fx fy fz
1 1 0.962204 0.166951 0.0422392 0 0 0.316866
2 1 0.510118 0.0738647 0.0540058 0 0 0.109339
3 1 0.654782 0.125314 0.657023 0 0 -0.00982285
4 1 0.882354 0.948926 0.917591 0 0 -0.316862
5 1 0.55148 0.157159 0.802438 0 0 -0.180111
6 1 0.33444 0.0420118 0.905824 0 0 -0.109335
7 1 0.995001 0.250317 0.78179 0 0 -0.137053
8 1 0.97369 0.208712 0.407028 0 0 -0.00122833
9 1 0.211364 0.0321467 0.677771 0 0 -0.0148373
10 1 0.870868 0.240498 0.552802 0 0 0.00123024
11 1 0.849557 0.198893 0.17804 0 0 0.137051
12 1 0.633194 0.0837294 0.282059 0 0 0.0148354
13 1 0.293078 0.29205 0.157392 0 0 0.180107
14 1 0.530297 0.115534 0.427799 0 0 -0.00112915
15 1 0.962204 0.500284 0.0422392 0 0 0.31686
16 1 0.510118 0.407198 0.0540059 0 0 0.109333
17 1 0.654782 0.458648 0.657023 0 0 -0.00981331
18 1 0.882354 0.282259 0.917591 0 0 -0.316866
19 1 0.55148 0.490493 0.802438 0 0 -0.180107
20 1 0.33444 0.375345 0.905824 0 0 -0.109333
21 1 0.995001 0.58365 0.78179 0 0 -0.13706
22 1 0.314261 0.333676 0.532031 0 0 0.00112915
23 1 0.97369 0.542046 0.407028 0 0 -0.00123405
24 1 0.211364 0.36548 0.677771 0 0 -0.0148315
25 1 0.870868 0.573831 0.552802 0 0 0.00123787
26 1 0.189776 0.323895 0.302807 0 0 0.00982285
27 1 0.849557 0.532226 0.17804 0 0 0.137051
28 1 0.633194 0.417063 0.282059 0 0 0.0148411
29 1 0.293078 0.625384 0.157392 0 0 0.180105
30 1 0.530297 0.448867 0.427799 0 0 -0.00113297
31 1 0.962204 0.833618 0.0422392 0 0 0.316856
32 1 0.510118 0.740531 0.0540059 0 0 0.109341
33 1 0.654782 0.791981 0.657023 0 0 -0.00982094
34 1 0.882354 0.615592 0.917591 0 0 -0.316858
35 1 0.55148 0.823826 0.802438 0 0 -0.180105
36 1 0.33444 0.708678 0.905824 0 0 -0.109333
37 1 0.995001 0.916983 0.78179 0 0 -0.137053
38 1 0.314261 0.667009 0.532031 0 0 0.00112343
39 1 0.97369 0.875379 0.407028 0 0 -0.00123405
40 1 0.211363 0.698813 0.677771 0 0 -0.0148373
41 1 0.870867 0.907164 0.552802 0 0 0.00123215
42 1 0.189775 0.657228 0.302807 0 0 0.00982666
43 1 0.849557 0.86556 0.17804 0 0 0.137045
44 1 0.633194 0.750396 0.282059 0 0 0.0148354
45 1 0.293078 0.958717 0.157392 0 0 0.180105
46 1 0.530297 0.782201 0.427799 0 0 -0.00113297
47 1 0.314261 0.000342355 0.532031 0 0 0.00112915
48 1 0.189776 0.990562 0.302807 0 0 0.00982857
ITEM: TIMESTEP
3
ITEM: NUMBER OF ATOMS
48
ITEM: BOX BOUNDS xy xz yz pp pp pp
-5.8802448511123657e+00 8.6067802309989929e+00 2.5094206929206848e+00
-9.4973444938659668e-03 9.3236122131347656e+00 -5.8682077527046204e+00
-2.8691649436950684e-02 1.9545819282531738e+01 7.1304261684417725e-02
ITEM: ATOMS id type xs ys zs fx fy fz
1 1 0.966193 0.166919 0.0463794 0 0 -0.176468
2 1 0.511494 0.0738537 0.0554345 0 0 0.0275517
3 1 0.654659 0.125315 0.656895 0 0 -0.0558434
4 1 0.878364 0.948957 0.913451 0 0 0.176466
5 1 0.549212 0.157177 0.800085 0 0 -0.153345
6 1 0.333063 0.0420228 0.904396 0 0 -0.0275517
7 1 0.993275 0.25033 0.779999 0 0 -0.137362
8 1 0.973675 0.208712 0.407012 0 0 0.00312996
9 1 0.211177 0.0321482 0.677578 0 0 -0.0572529
10 1 0.870883 0.240497 0.552818 0 0 -0.00311852
11 1 0.851283 0.198879 0.179831 0 0 0.137369
12 1 0.633381 0.0837279 0.282253 0 0 0.0572529
13 1 0.295346 0.292032 0.159745 0 0 0.153349
14 1 0.530283 0.115534 0.427784 0 0 0.00399208
15 1 0.966194 0.500252 0.0463793 0 0 -0.176462
16 1 0.511494 0.407187 0.0554345 0 0 0.0275517
17 1 0.654659 0.458649 0.656895 0 0 -0.0558453
18 1 0.878364 0.282291 0.913451 0 0 0.176468
19 1 0.549212 0.490511 0.800085 0 0 -0.153343
20 1 0.333063 0.375356 0.904396 0 0 -0.0275517
21 1 0.993275 0.583664 0.779999 0 0 -0.137362
22 1 0.314275 0.333675 0.532046 0 0 -0.00399017
23 1 0.973675 0.542046 0.407012 0 0 0.00311661
24 1 0.211177 0.365482 0.677578 0 0 -0.0572548
25 1 0.870883 0.57383 0.552818 0 0 -0.00312614
26 1 0.189899 0.323894 0.302935 0 0 0.0558338
27 1 0.851283 0.532213 0.179831 0 0 0.137367
28 1 0.633381 0.417061 0.282253 0 0 0.057251
29 1 0.295346 0.625366 0.159745 0 0 0.153349
30 1 0.530283 0.448868 0.427784 0 0 0.00399971
31 1 0.966194 0.833586 0.0463793 0 0 -0.176464
32 1 0.511494 0.74052 0.0554346 0 0 0.0275478
33 1 0.654658 0.791982 0.656895 0 0 -0.0558395
34 1 0.878364 0.615624 0.913451 0 0 0.176462
35 1 0.549212 0.823844 0.800085 0 0 -0.153355
36 1 0.333063 0.708689 0.904396 0 0 -0.0275517
37 1 0.993275 0.916997 0.779999 0 0 -0.137367
38 1 0.314275 0.667009 0.532046 0 0 -0.00398827
39 1 0.973675 0.875379 0.407012 0 0 0.00312233
40 1 0.211177 0.698815 0.677578 0 0 -0.0572491
41 1 0.870883 0.907164 0.552818 0 0 -0.00312042
42 1 0.189899 0.657227 0.302936 0 0 0.0558357
43 1 0.851283 0.865546 0.179831 0 0 0.137365
44 1 0.633381 0.750395 0.282253 0 0 0.057251
45 1 0.295346 0.958699 0.159745 0 0 0.153349
46 1 0.530283 0.782201 0.427784 0 0 0.00399208
47 1 0.314275 0.000342241 0.532046 0 0 -0.00399208
48 1 0.189899 0.990561 0.302936 0 0 0.05583
ITEM: TIMESTEP
4
ITEM: NUMBER OF ATOMS
48
ITEM: BOX BOUNDS xy xz yz pp pp pp
-5.8802448511123657e+00 8.6067802309989929e+00 2.5094206929206848e+00
-9.4973444938659668e-03 9.3236122131347656e+00 -5.8682077527046204e+00
-2.8691649436950684e-02 1.9545819282531738e+01 7.1304261684417725e-02
ITEM: ATOMS id type xs ys zs fx fy fz
1 1 0.966031 0.16692 0.0462104 0 0 -0.00961876
2 1 0.512792 0.0738434 0.0567809 0 0 0.00823402
3 1 0.653725 0.125323 0.655926 0 0 -0.103399
4 1 0.878527 0.948956 0.91362 0 0 0.00961685
5 1 0.545422 0.157208 0.796152 0 0 0.0487099
6 1 0.331766 0.0420332 0.903049 0 0 -0.00823975
7 1 0.990075 0.250356 0.776678 0 0 0.0113335
8 1 0.973713 0.208712 0.407052 0 0 0.021616
9 1 0.210182 0.0321562 0.676545 0 0 -0.1008
10 1 0.870845 0.240498 0.552779 0 0 -0.0216179
11 1 0.854483 0.198854 0.183152 0 0 -0.0113411
12 1 0.634376 0.08372 0.283285 0 0 0.1008
13 1 0.299135 0.292002 0.163678 0 0 -0.048708
14 1 0.530335 0.115534 0.427839 0 0 0.0242653
15 1 0.966031 0.500254 0.0462104 0 0 -0.00962067
16 1 0.512792 0.407177 0.0567809 0 0 0.00823975
17 1 0.653725 0.458656 0.655926 0 0 -0.103405
18 1 0.878527 0.28229 0.91362 0 0 0.00962067
19 1 0.545422 0.490541 0.796152 0 0 0.0487041
20 1 0.331766 0.375366 0.903049 0 0 -0.00823975
21 1 0.990075 0.583689 0.776678 0 0 0.0113468
22 1 0.314223 0.333676 0.531992 0 0 -0.0242653
23 1 0.973713 0.542045 0.407051 0 0 0.0216255
24 1 0.210182 0.365489 0.676545 0 0 -0.100798
25 1 0.870845 0.573831 0.552779 0 0 -0.0216255
26 1 0.190832 0.323887 0.303904 0 0 0.103407
27 1 0.854483 0.532187 0.183152 0 0 -0.011343
28 1 0.634376 0.417053 0.283285 0 0 0.100801
29 1 0.299135 0.625335 0.163678 0 0 -0.048708
30 1 0.530335 0.448867 0.427839 0 0 0.0242691
31 1 0.966031 0.833587 0.0462103 0 0 -0.00961304
32 1 0.512792 0.74051 0.056781 0 0 0.00823784
33 1 0.653725 0.79199 0.655926 0 0 -0.103407
34 1 0.878527 0.615623 0.91362 0 0 0.00961494
35 1 0.545422 0.823874 0.796152 0 0 0.0487156
36 1 0.331766 0.7087 0.903049 0 0 -0.00824356
37 1 0.990075 0.917023 0.776678 0 0 0.0113392
38 1 0.314223 0.667009 0.531992 0 0 -0.0242672
39 1 0.973713 0.875379 0.407051 0 0 0.0216255
40 1 0.210181 0.698823 0.676545 0 0 -0.100801
41 1 0.870845 0.907164 0.552779 0 0 -0.0216236
42 1 0.190832 0.65722 0.303904 0 0 0.103401
43 1 0.854483 0.86552 0.183152 0 0 -0.0113316
44 1 0.634376 0.750387 0.283285 0 0 0.100794
45 1 0.299136 0.958669 0.163678 0 0 -0.048708
46 1 0.530335 0.782201 0.427838 0 0 0.0242672
47 1 0.314223 0.000342657 0.531992 0 0 -0.0242634
48 1 0.190833 0.990553 0.303904 0 0 0.103403
ITEM: TIMESTEP
5
ITEM: NUMBER OF ATOMS
48
ITEM: BOX BOUNDS xy xz yz pp pp pp
-5.8802448511123657e+00 8.6067802309989929e+00 2.5094206929206848e+00
-9.4973444938659668e-03 9.3236122131347656e+00 -5.8682077527046204e+00
-2.8691649436950684e-02 1.9545819282531738e+01 7.1304261684417725e-02
ITEM: ATOMS id type xs ys zs fx fy fz
1 1 0.965761 0.166922 0.0459311 0 0 0.0488453
2 1 0.513433 0.0738382 0.0574467 0 0 -0.0201073
3 1 0.651122 0.125344 0.653225 0 0 0.00538826
4 1 0.878796 0.948954 0.913899 0 0 -0.0488396
5 1 0.545147 0.15721 0.795866 0 0 -0.00978088
6 1 0.331124 0.0420383 0.902383 0 0 0.0201054
7 1 0.989187 0.250363 0.775757 0 0 -0.0085659
8 1 0.974201 0.208708 0.407558 0 0 0.0469551
9 1 0.207614 0.0321767 0.67388 0 0 0.00912857
10 1 0.870357 0.240502 0.552272 0 0 -0.0469532
11 1 0.85537 0.198847 0.184073 0 0 0.00857353
12 1 0.636944 0.0836995 0.28595 0 0 -0.00912666
13 1 0.299411 0.292 0.163964 0 0 0.00977707
14 1 0.530887 0.115529 0.428411 0 0 0.0519333
15 1 0.965762 0.500256 0.0459311 0 0 0.0488434
16 1 0.513434 0.407172 0.0574468 0 0 -0.0201054
17 1 0.651122 0.458677 0.653225 0 0 0.00539017
18 1 0.878796 0.282287 0.913899 0 0 -0.0488491
19 1 0.545147 0.490543 0.795866 0 0 -0.00977325
20 1 0.331124 0.375372 0.902383 0 0 0.0201073
21 1 0.989188 0.583696 0.775757 0 0 -0.00858116
22 1 0.313672 0.33368 0.531419 0 0 -0.0519333
23 1 0.974201 0.542041 0.407558 0 0 0.0469551
24 1 0.207614 0.36551 0.67388 0 0 0.00912857
25 1 0.870357 0.573835 0.552272 0 0 -0.0469532
26 1 0.193436 0.323866 0.306605 0 0 -0.00538063
27 1 0.85537 0.53218 0.184073 0 0 0.00857353
28 1 0.636944 0.417033 0.28595 0 0 -0.00913239
29 1 0.299411 0.625333 0.163964 0 0 0.00977516
30 1 0.530886 0.448863 0.428411 0 0 0.0519218
31 1 0.965762 0.833589 0.0459311 0 0 0.0488434
32 1 0.513434 0.740505 0.0574468 0 0 -0.0201092
33 1 0.651122 0.79201 0.653225 0 0 0.0053978
34 1 0.878796 0.615621 0.913899 0 0 -0.0488453
35 1 0.545147 0.823877 0.795866 0 0 -0.00978279
36 1 0.331124 0.708705 0.902383 0 0 0.0201111
37 1 0.989188 0.91703 0.775757 0 0 -0.00856972
38 1 0.313671 0.667014 0.531419 0 0 -0.0519257
39 1 0.974201 0.875375 0.407558 0 0 0.0469532
40 1 0.207614 0.698843 0.67388 0 0 0.00912285
41 1 0.870357 0.907168 0.552272 0 0 -0.0469551
42 1 0.193436 0.657199 0.306605 0 0 -0.00538826
43 1 0.85537 0.865513 0.184073 0 0 0.00856972
44 1 0.636944 0.750366 0.28595 0 0 -0.00912285
45 1 0.299411 0.958666 0.163964 0 0 0.00977898
46 1 0.530887 0.782196 0.428411 0 0 0.0519199
47 1 0.313671 0.000347063 0.531419 0 0 -0.0519314
48 1 0.193436 0.990533 0.306605 0 0 -0.00538635
ITEM: TIMESTEP
6
ITEM: NUMBER OF ATOMS
48
ITEM: BOX BOUNDS xy xz yz pp pp pp
-5.8802448511123657e+00 8.6067802309989929e+00 2.5094206929206848e+00
-9.4973444938659668e-03 9.3236122131347656e+00 -5.8682077527046204e+00
-2.8691649436950684e-02 1.9545819282531738e+01 7.1304261684417725e-02
ITEM: ATOMS id type xs ys zs fx fy fz
1 1 0.966331 0.166918 0.0465223 0 0 -0.0112934
2 1 0.513304 0.0738393 0.0573125 0 0 -0.00652695
3 1 0.650675 0.125347 0.652761 0 0 0.00315285
4 1 0.878226 0.948959 0.913308 0 0 0.0112896
5 1 0.544968 0.157211 0.79568 0 0 -0.0213356
6 1 0.331253 0.0420372 0.902518 0 0 0.00652695
7 1 0.988902 0.250365 0.775461 0 0 -0.0111485
8 1 0.974897 0.208703 0.40828 0 0 0.004076
9 1 0.207222 0.0321798 0.673473 0 0 0.00477409
10 1 0.869661 0.240507 0.55155 0 0 -0.00407791
11 1 0.855655 0.198844 0.184369 0 0 0.0111504
12 1 0.637336 0.0836963 0.286357 0 0 -0.004776
13 1 0.29959 0.291998 0.16415 0 0 0.0213375
14 1 0.531658 0.115523 0.429212 0 0 0.0073719
15 1 0.966331 0.500251 0.0465222 0 0 -0.0112877
16 1 0.513304 0.407173 0.0573126 0 0 -0.00652695
17 1 0.650675 0.458681 0.652761 0 0 0.00314903
18 1 0.878226 0.282292 0.913308 0 0 0.0112896
19 1 0.544967 0.490545 0.79568 0 0 -0.0213375
20 1 0.331253 0.375371 0.902518 0 0 0.00652695
21 1 0.988902 0.583699 0.775462 0 0 -0.0111542
22 1 0.3129 0.333686 0.530619 0 0 -0.0073719
23 1 0.974897 0.542036 0.40828 0 0 0.00407791
24 1 0.207222 0.365513 0.673473 0 0 0.00477409
25 1 0.869661 0.57384 0.55155 0 0 -0.00407791
26 1 0.193883 0.323862 0.307069 0 0 -0.00315666
27 1 0.855655 0.532178 0.184369 0 0 0.0111523
28 1 0.637336 0.41703 0.286357 0 0 -0.00478172
29 1 0.29959 0.625332 0.16415 0 0 0.0213375
30 1 0.531658 0.448857 0.429212 0 0 0.00736809
31 1 0.966331 0.833585 0.0465223 0 0 -0.0112896
32 1 0.513304 0.740506 0.0573126 0 0 -0.00652695
33 1 0.650675 0.792014 0.652761 0 0 0.00315475
34 1 0.878226 0.615625 0.913308 0 0 0.0112915
35 1 0.544968 0.823878 0.79568 0 0 -0.0213337
36 1 0.331253 0.708704 0.902518 0 0 0.00652504
37 1 0.988902 0.917032 0.775461 0 0 -0.0111485
38 1 0.3129 0.66702 0.530619 0 0 -0.00736809
39 1 0.974897 0.875369 0.40828 0 0 0.00407219
40 1 0.207221 0.698847 0.673473 0 0 0.00478363
41 1 0.869661 0.907174 0.55155 0 0 -0.004076
42 1 0.193882 0.657196 0.307069 0 0 -0.00314903
43 1 0.855655 0.865511 0.184369 0 0 0.0111504
44 1 0.637336 0.750363 0.286357 0 0 -0.00477028
45 1 0.29959 0.958665 0.16415 0 0 0.0213337
46 1 0.531658 0.78219 0.429211 0 0 0.00736809
47 1 0.312899 0.000353228 0.530619 0 0 -0.0073719
48 1 0.193883 0.990529 0.307069 0 0 -0.00314713
ITEM: TIMESTEP
7
ITEM: NUMBER OF ATOMS
48
ITEM: BOX BOUNDS xy xz yz pp pp pp
-5.8802448511123657e+00 8.6067802309989929e+00 2.5094206929206848e+00
-9.4973444938659668e-03 9.3236122131347656e+00 -5.8682077527046204e+00
-2.8691649436950684e-02 1.9545819282531738e+01 7.1304261684417725e-02
ITEM: ATOMS id type xs ys zs fx fy fz
1 1 0.966232 0.166919 0.0464191 0 0 0.00721169
2 1 0.513231 0.0738398 0.0572363 0 0 0.00217819
3 1 0.650693 0.125347 0.65278 0 0 -0.00422096
4 1 0.878326 0.948958 0.913411 0 0 -0.00721169
5 1 0.544736 0.157213 0.79544 0 0 -0.00464249
6 1 0.331327 0.0420367 0.902594 0 0 -0.00218201
7 1 0.988775 0.250366 0.775329 0 0 -0.00141335
8 1 0.974964 0.208702 0.40835 0 0 -0.00218773
9 1 0.207258 0.0321795 0.673511 0 0 -0.00385094
10 1 0.869594 0.240508 0.55148 0 0 0.00217819
11 1 0.855783 0.198843 0.184501 0 0 0.00141907
12 1 0.6373 0.0836966 0.286319 0 0 0.00385094
13 1 0.299822 0.291997 0.16439 0 0 0.00464821
14 1 0.531763 0.115522 0.42932 0 0 -0.000463486
15 1 0.966232 0.500252 0.0464191 0 0 0.00721169
16 1 0.513231 0.407173 0.0572364 0 0 0.00217628
17 1 0.650693 0.45868 0.65278 0 0 -0.00422096
18 1 0.878326 0.282291 0.913411 0 0 -0.00721169
19 1 0.544736 0.490547 0.79544 0 0 -0.0046463
20 1 0.331327 0.37537 0.902594 0 0 -0.0021801
21 1 0.988775 0.5837 0.775329 0 0 -0.00142097
22 1 0.312795 0.333687 0.53051 0 0 0.000465393
23 1 0.974964 0.542035 0.40835 0 0 -0.00218773
24 1 0.207259 0.365513 0.673512 0 0 -0.00386429
25 1 0.869594 0.573841 0.55148 0 0 0.00218582
26 1 0.193865 0.323862 0.307051 0 0 0.00422096
27 1 0.855783 0.532177 0.184501 0 0 0.00142097
28 1 0.6373 0.41703 0.286319 0 0 0.00385094
29 1 0.299822 0.62533 0.16439 0 0 0.0046463
30 1 0.531763 0.448856 0.42932 0 0 -0.000461578
31 1 0.966232 0.833585 0.0464192 0 0 0.00720978
32 1 0.513231 0.740506 0.0572364 0 0 0.00217819
33 1 0.650693 0.792014 0.65278 0 0 -0.00422096
34 1 0.878326 0.615625 0.913411 0 0 -0.00720787
35 1 0.544736 0.82388 0.79544 0 0 -0.0046463
36 1 0.331327 0.708703 0.902594 0 0 -0.00217628
37 1 0.988775 0.917033 0.775329 0 0 -0.00141907
38 1 0.312795 0.667021 0.53051 0 0 0.000461578
39 1 0.974964 0.875369 0.40835 0 0 -0.00218773
40 1 0.207258 0.698846 0.673511 0 0 -0.00384903
41 1 0.869594 0.907174 0.55148 0 0 0.00218391
42 1 0.193865 0.657196 0.307051 0 0 0.00422478
43 1 0.855783 0.86551 0.184501 0 0 0.00141907
44 1 0.6373 0.750363 0.286319 0 0 0.00385284
45 1 0.299822 0.958663 0.16439 0 0 0.0046463
46 1 0.531763 0.782189 0.42932 0 0 -0.000452042
47 1 0.312795 0.000354064 0.53051 0 0 0.000463486
48 1 0.193865 0.990529 0.307051 0 0 0.00422096
ITEM: TIMESTEP
8
ITEM: NUMBER OF ATOMS
48
ITEM: BOX BOUNDS xy xz yz pp pp pp
-5.8802448511123657e+00 8.6067802309989929e+00 2.5094206929206848e+00
-9.4973444938659668e-03 9.3236122131347656e+00 -5.8682077527046204e+00
-2.8691649436950684e-02 1.9545819282531738e+01 7.1304261684417725e-02
ITEM: ATOMS id type xs ys zs fx fy fz
1 1 0.966366 0.166918 0.046558 0 0 -0.00334167
2 1 0.513255 0.0738397 0.0572613 0 0 0.00313377
3 1 0.6506 0.125348 0.652683 0 0 -0.00315094
4 1 0.878192 0.948959 0.913272 0 0 0.00333786
5 1 0.544539 0.157215 0.795235 0 0 0.00171471
6 1 0.331302 0.0420369 0.902569 0 0 -0.00312614
7 1 0.988693 0.250367 0.775244 0 0 -0.00173187
8 1 0.974937 0.208702 0.408322 0 0 0.00117302
9 1 0.207181 0.0321801 0.673431 0 0 -0.00365448
10 1 0.869621 0.240508 0.551508 0 0 -0.00117302
11 1 0.855865 0.198843 0.184586 0 0 0.00172424
12 1 0.637377 0.083696 0.286399 0 0 0.00366211
13 1 0.300019 0.291995 0.164595 0 0 -0.00172997
14 1 0.531791 0.115522 0.42935 0 0 0.000516891
15 1 0.966366 0.500251 0.046558 0 0 -0.00334167
16 1 0.513255 0.407173 0.0572614 0 0 0.00313377
17 1 0.650599 0.458681 0.652682 0 0 -0.00314522
18 1 0.878192 0.282292 0.913272 0 0 0.00334549
19 1 0.544539 0.490548 0.795235 0 0 0.00172043
20 1 0.331303 0.37537 0.902569 0 0 -0.00312805
21 1 0.988693 0.5837 0.775244 0 0 -0.00171471
22 1 0.312767 0.333688 0.530481 0 0 -0.000524521
23 1 0.974937 0.542036 0.408322 0 0 0.00117493
24 1 0.207181 0.365513 0.673431 0 0 -0.00364494
25 1 0.86962 0.573841 0.551508 0 0 -0.00117493
26 1 0.193958 0.323862 0.307148 0 0 0.00315094
27 1 0.855865 0.532176 0.184586 0 0 0.00172424
28 1 0.637377 0.417029 0.286399 0 0 0.00366402
29 1 0.300019 0.625328 0.164595 0 0 -0.00172234
30 1 0.531791 0.448856 0.42935 0 0 0.000513077
31 1 0.966366 0.833584 0.046558 0 0 -0.00333977
32 1 0.513255 0.740506 0.0572614 0 0 0.00313377
33 1 0.650599 0.792014 0.652683 0 0 -0.00315857
34 1 0.878192 0.615626 0.913272 0 0 0.00333977
35 1 0.544539 0.823881 0.795235 0 0 0.00171852
36 1 0.331303 0.708704 0.902569 0 0 -0.00313377
37 1 0.988693 0.917034 0.775244 0 0 -0.00172043
38 1 0.312767 0.667021 0.530481 0 0 -0.000522614
39 1 0.974937 0.875369 0.408322 0 0 0.00117683
40 1 0.207181 0.698847 0.673431 0 0 -0.00366211
41 1 0.86962 0.907174 0.551508 0 0 -0.00117302
42 1 0.193958 0.657195 0.307148 0 0 0.00314903
43 1 0.855865 0.865509 0.184586 0 0 0.00172615
44 1 0.637377 0.750363 0.286399 0 0 0.00366402
45 1 0.300019 0.958662 0.164595 0 0 -0.00172615
46 1 0.531791 0.782189 0.42935 0 0 0.000514984
47 1 0.312767 0.00035429 0.530481 0 0 -0.000522614
48 1 0.193959 0.990528 0.307148 0 0 0.00315094
ITEM: TIMESTEP
9
ITEM: NUMBER OF ATOMS
48
ITEM: BOX BOUNDS xy xz yz pp pp pp
-5.8802448511123657e+00 8.6067802309989929e+00 2.5094206929206848e+00
-9.4973444938659668e-03 9.3236122131347656e+00 -5.8682077527046204e+00
-2.8691649436950684e-02 1.9545819282531738e+01 7.1304261684417725e-02
ITEM: ATOMS id type xs ys zs fx fy fz
1 1 0.966345 0.166918 0.046537 0 0 0.00100136
2 1 0.513331 0.073839 0.05734 0 0 -0.000728607
3 1 0.650497 0.125349 0.652576 0 0 0.000211716
4 1 0.878212 0.948959 0.913293 0 0 -0.000988007
5 1 0.5445 0.157215 0.795195 0 0 0.000865936
6 1 0.331227 0.0420375 0.90249 0 0 0.000734329
7 1 0.988625 0.250368 0.775174 0 0 -0.00128174
8 1 0.974952 0.208702 0.408338 0 0 0.00248337
9 1 0.207073 0.032181 0.67332 0 0 0.000305176
10 1 0.869606 0.240508 0.551492 0 0 -0.00247765
11 1 0.855932 0.198842 0.184656 0 0 0.00127792
12 1 0.637485 0.0836952 0.286511 0 0 -0.000312805
13 1 0.300058 0.291995 0.164635 0 0 -0.000862122
14 1 0.531813 0.115522 0.429372 0 0 0.00174332
15 1 0.966346 0.500251 0.0465371 0 0 0.000997543
16 1 0.513331 0.407172 0.0573401 0 0 -0.000728607
17 1 0.650497 0.458682 0.652576 0 0 0.000213623
18 1 0.878212 0.282292 0.913293 0 0 -0.000999451
19 1 0.5445 0.490549 0.795195 0 0 0.000869751
20 1 0.331227 0.375371 0.90249 0 0 0.000736237
21 1 0.988625 0.583701 0.775174 0 0 -0.00128746
22 1 0.312745 0.333688 0.530458 0 0 -0.0017395
23 1 0.974952 0.542035 0.408338 0 0 0.00248528
24 1 0.207073 0.365514 0.673319 0 0 0.000312805
25 1 0.869606 0.573841 0.551492 0 0 -0.00248337
26 1 0.194061 0.323861 0.307254 0 0 -0.000219345
27 1 0.855932 0.532175 0.184656 0 0 0.00129128
28 1 0.637485 0.417029 0.286511 0 0 -0.000314713
29 1 0.300058 0.625328 0.164635 0 0 -0.000864029
30 1 0.531813 0.448855 0.429372 0 0 0.00174522
31 1 0.966346 0.833584 0.0465371 0 0 0.000993729
32 1 0.513331 0.740506 0.0573402 0 0 -0.000740051
33 1 0.650497 0.792015 0.652576 0 0 0.000219345
34 1 0.878212 0.615625 0.913293 0 0 -0.00100327
35 1 0.5445 0.823882 0.795195 0 0 0.000873566
36 1 0.331227 0.708704 0.90249 0 0 0.000736237
37 1 0.988626 0.917034 0.775174 0 0 -0.00128937
38 1 0.312745 0.667021 0.530458 0 0 -0.00174141
39 1 0.974952 0.875369 0.408338 0 0 0.00248337
40 1 0.207073 0.698848 0.673319 0 0 0.000307083
41 1 0.869605 0.907174 0.551492 0 0 -0.00248146
42 1 0.194061 0.657194 0.307254 0 0 -0.00022316
43 1 0.855933 0.865509 0.184656 0 0 0.00127983
44 1 0.637485 0.750362 0.286511 0 0 -0.000318527
45 1 0.300058 0.958661 0.164635 0 0 -0.000862122
46 1 0.531813 0.782189 0.429372 0 0 0.00174332
47 1 0.312745 0.000354465 0.530458 0 0 -0.00174522
48 1 0.194061 0.990528 0.307254 0 0 -0.000219345
ITEM: TIMESTEP
10
ITEM: NUMBER OF ATOMS
48
ITEM: BOX BOUNDS xy xz yz pp pp pp
-5.8802448511123657e+00 8.6067802309989929e+00 2.5094206929206848e+00
-9.4973444938659668e-03 9.3236122131347656e+00 -5.8682077527046204e+00
-2.8691649436950684e-02 1.9545819282531738e+01 7.1304261684417725e-02
ITEM: ATOMS id type xs ys zs fx fy fz
1 1 0.966356 0.166918 0.0465485 0 0 7.05719e-05
2 1 0.513333 0.073839 0.0573428 0 0 -0.000555038
3 1 0.650482 0.125349 0.652561 0 0 -0.000226974
4 1 0.878201 0.948959 0.913282 0 0 -7.05719e-05
5 1 0.544506 0.157215 0.795201 0 0 -0.000141144
6 1 0.331224 0.0420375 0.902487 0 0 0.000553131
7 1 0.988595 0.250368 0.775142 0 0 -0.000207901
8 1 0.974991 0.208702 0.408378 0 0 -5.14984e-05
9 1 0.207059 0.0321811 0.673305 0 0 -5.53131e-05
10 1 0.869567 0.240508 0.551452 0 0 5.91278e-05
11 1 0.855963 0.198842 0.184688 0 0 0.000207901
12 1 0.637499 0.083695 0.286526 0 0 5.14984e-05
13 1 0.300052 0.291995 0.164629 0 0 0.000143051
14 1 0.531842 0.115522 0.429403 0 0 -0.000202179
15 1 0.966357 0.500251 0.0465485 0 0 6.48499e-05
16 1 0.513333 0.407172 0.0573428 0 0 -0.000553131
17 1 0.650482 0.458682 0.652561 0 0 -0.000232697
18 1 0.878201 0.282292 0.913282 0 0 -7.43866e-05
19 1 0.544506 0.490549 0.795201 0 0 -0.000139236
20 1 0.331224 0.375371 0.902487 0 0 0.000551224
21 1 0.988595 0.583701 0.775142 0 0 -0.000213623
22 1 0.312716 0.333688 0.530428 0 0 0.000198364
23 1 0.974991 0.542035 0.408378 0 0 -5.53131e-05
24 1 0.207059 0.365514 0.673305 0 0 -5.14984e-05
25 1 0.869567 0.573841 0.551452 0 0 5.53131e-05
26 1 0.194076 0.323861 0.307269 0 0 0.000232697
27 1 0.855963 0.532175 0.184688 0 0 0.000198364
28 1 0.637499 0.417028 0.286525 0 0 4.95911e-05
29 1 0.300052 0.625328 0.164629 0 0 0.000141144
30 1 0.531842 0.448855 0.429403 0 0 -0.000196457
31 1 0.966357 0.833584 0.0465485 0 0 6.67572e-05
32 1 0.513333 0.740506 0.0573427 0 0 -0.000551224
33 1 0.650482 0.792015 0.652561 0 0 -0.000221252
34 1 0.878201 0.615626 0.913282 0 0 -5.53131e-05
35 1 0.544506 0.823882 0.795201 0 0 -0.000144958
36 1 0.331224 0.708704 0.902487 0 0 0.000551224
37 1 0.988595 0.917034 0.775142 0 0 -0.000204086
38 1 0.312716 0.667021 0.530427 0 0 0.000207901
39 1 0.974991 0.875368 0.408378 0 0 -5.72205e-05
40 1 0.207059 0.698848 0.673305 0 0 -5.14984e-05
41 1 0.869567 0.907174 0.551452 0 0 5.72205e-05
42 1 0.194076 0.657194 0.30727 0 0 0.000234604
43 1 0.855963 0.865509 0.184688 0 0 0.000204086
44 1 0.637499 0.750362 0.286526 0 0 5.14984e-05
45 1 0.300052 0.958661 0.164629 0 0 0.000143051
46 1 0.531842 0.782188 0.429403 0 0 -0.000213623
47 1 0.312715 0.000354699 0.530427 0 0 0.000207901
48 1 0.194076 0.990527 0.30727 0 0 0.000225067
ITEM: TIMESTEP
11
ITEM: NUMBER OF ATOMS
48
ITEM: BOX BOUNDS xy xz yz pp pp pp
-5.8802448511123657e+00 8.6067802309989929e+00 2.5094206929206848e+00
-9.4973444938659668e-03 9.3236122131347656e+00 -5.8682077527046204e+00
-2.8691649436950684e-02 1.9545819282531738e+01 7.1304261684417725e-02
ITEM: ATOMS id type xs ys zs fx fy fz
1 1 0.966358 0.166918 0.0465499 0 0 1.14441e-05
2 1 0.513325 0.0738391 0.0573345 0 0 4.76837e-05
3 1 0.650478 0.125349 0.652557 0 0 -7.62939e-05
4 1 0.8782 0.948959 0.91328 0 0 -1.33514e-05
5 1 0.544504 0.157215 0.795199 0 0 -6.29425e-05
6 1 0.331232 0.0420374 0.902496 0 0 -4.57764e-05
7 1 0.988591 0.250368 0.775138 0 0 1.90735e-05
8 1 0.974991 0.208702 0.408378 0 0 1.90735e-06
9 1 0.207058 0.0321811 0.673303 0 0 -3.62396e-05
10 1 0.869567 0.240508 0.551452 0 0 -1.90735e-06
11 1 0.855967 0.198842 0.184692 0 0 -1.90735e-05
12 1 0.6375 0.083695 0.286527 0 0 3.05176e-05
13 1 0.300054 0.291995 0.164631 0 0 6.48499e-05
14 1 0.53184 0.115522 0.429401 0 0 -1.14441e-05
15 1 0.966358 0.500251 0.0465499 0 0 2.09808e-05
16 1 0.513326 0.407172 0.0573346 0 0 4.95911e-05
17 1 0.650478 0.458682 0.652557 0 0 -7.24792e-05
18 1 0.8782 0.282292 0.91328 0 0 -7.62939e-06
19 1 0.544504 0.490549 0.795199 0 0 -6.48499e-05
20 1 0.331232 0.375371 0.902496 0 0 -5.14984e-05
21 1 0.988591 0.583701 0.775138 0 0 1.90735e-05
22 1 0.312718 0.333688 0.53043 0 0 1.14441e-05
23 1 0.974992 0.542035 0.408378 0 0 1.90735e-06
24 1 0.207058 0.365514 0.673304 0 0 -3.8147e-05
25 1 0.869566 0.573841 0.551452 0 0 0
26 1 0.19408 0.323861 0.307273 0 0 7.43866e-05
27 1 0.855967 0.532175 0.184692 0 0 -1.90735e-05
28 1 0.6375 0.417028 0.286527 0 0 4.00543e-05