ITEM: TIMESTEP
0
ITEM: NUMBER OF ATOMS
32
ITEM: BOX BOUNDS xy xz yz pp pp pp
2.3402176666958421e-03 8.3897740268124608e+00 1.9975652444791570e+00
-1.8700970345103249e-02 2.2101578970345098e+01 0.0000000000000000e+00
8.6472273715375633e-03 5.1738187726284668e+00 0.0000000000000000e+00
ITEM: ATOMS id type xs ys zs fx fy fz
1 1 0.91401 0.336531 0.593597 0 0.00265276 -9.15519e-06
2 1 0.414009 0.336531 0.593597 0 0.00265448 -9.0928e-06
3 1 0.176978 0.295047 0.0935968 0 -0.00195584 7.57084e-06
4 1 0.676978 0.295047 0.0935968 0 -0.0019523 8.48817e-06
5 1 0.124932 0.461534 0.593597 0 0.00204486 -9.76936e-06
6 1 0.624932 0.461534 0.593597 0 0.00203979 -9.17119e-06
7 1 0.887901 0.420048 0.0935968 0 -0.0021101 9.21882e-06
8 1 0.387901 0.420048 0.0935968 0 -0.00211256 9.10361e-06
9 1 0.835856 0.586531 0.593597 0 0.00203947 -7.7922e-06
10 1 0.335856 0.586531 0.593597 0 0.0020395 -8.58397e-06
11 1 0.0467799 0.711528 0.593597 0 0.00198174 -6.28227e-06
12 1 0.54678 0.711528 0.593597 0 0.00197681 -6.32783e-06
13 1 0.809748 0.670045 0.0935969 0 -0.00253782 6.14511e-06
14 1 0.0988243 0.545047 0.0935968 0 -0.00221197 8.88721e-06
15 1 0.598824 0.545047 0.0935968 0 -0.00220681 9.5979e-06
16 1 0.309748 0.670045 0.0935969 0 -0.00253793 6.70209e-06
17 1 0.757703 0.836529 0.593597 0 0.00957862 -3.91571e-06
18 1 0.257703 0.836529 0.593597 0 0.00957866 -3.85083e-06
19 1 0.968626 0.961528 0.593597 0 -0.340191 -2.53244e-06
20 1 0.468626 0.961528 0.593597 0 -0.340203 -2.78793e-06
21 1 0.0206704 0.795048 0.0935969 0 0.00445933 4.50434e-06
22 1 0.52067 0.795048 0.0935969 0 0.00446213 4.90708e-06
23 1 0.731596 0.920043 0.0935969 0 -0.625523 4.37589e-06
24 1 0.231595 0.920043 0.0935969 0 -0.625518 3.36648e-06
25 1 0.992165 0.0865253 0.593597 0 0.625803 -1.80785e-06
26 1 0.492165 0.0865253 0.593597 0 0.62581 -3.47985e-07
27 1 0.255133 0.0450412 0.093597 0 0.340219 7.17102e-07
28 1 0.755133 0.0450411 0.0935969 0 0.340228 9.60676e-07
29 1 0.203087 0.211528 0.593597 0 -0.00462173 -4.1539e-06
30 1 0.703087 0.211528 0.593597 0 -0.00462523 -5.05793e-06
31 1 0.966056 0.170044 0.0935969 0 -0.00962929 3.39362e-06
32 1 0.466056 0.170044 0.093597 0 -0.00963064 2.86445e-06
ITEM: TIMESTEP
11
ITEM: NUMBER OF ATOMS
32
ITEM: BOX BOUNDS xy xz yz pp pp pp
2.3402176666958421e-03 8.3897740268124608e+00 1.9975652444791570e+00
-1.8700970345103249e-02 2.2101578970345098e+01 0.0000000000000000e+00
8.6472273715375633e-03 5.1738187726284668e+00 0.0000000000000000e+00
ITEM: ATOMS id type xs ys zs fx fy fz
1 1 0.913304 0.338787 0.593597 0 -3.20383e-06 5.06091e-07
2 1 0.413304 0.338787 0.593597 0 -5.06854e-06 2.1474e-06
3 1 0.176132 0.297753 0.0935972 0 -2.62171e-05 -1.73233e-06
4 1 0.676132 0.297754 0.0935971 0 -2.78134e-05 -1.76695e-06
5 1 0.124826 0.461873 0.593597 0 8.92637e-05 2.50039e-06
6 1 0.624826 0.461873 0.593597 0 8.68778e-05 6.81786e-07
7 1 0.887476 0.421407 0.0935971 0 6.57194e-05 -9.59128e-07
8 1 0.387476 0.421407 0.0935972 0 6.38348e-05 -2.02654e-06
9 1 0.836283 0.585167 0.593597 0 -6.24608e-05 6.99454e-07
10 1 0.336282 0.585167 0.593597 0 -6.24608e-05 -4.63107e-07
11 1 0.0476262 0.708821 0.593597 0 2.91197e-05 -6.94336e-07
12 1 0.547626 0.708821 0.593597 0 2.8968e-05 -4.14646e-07
13 1 0.810454 0.667787 0.0935971 0 1.3216e-05 1.73106e-07
14 1 0.0989322 0.544702 0.0935971 0 -9.66803e-05 -1.33683e-06
15 1 0.598932 0.544702 0.0935971 0 -9.42993e-05 -2.7985e-07
16 1 0.310454 0.667787 0.093597 0 1.31822e-05 1.17752e-06
17 1 0.758648 0.833506 0.593597 0 -9.82801e-05 6.93572e-07
18 1 0.258648 0.833506 0.593597 0 -0.000103858 3.37503e-07
19 1 0.968957 0.96047 0.593597 0 -1.56863e-05 -6.85873e-08
20 1 0.468957 0.96047 0.593597 0 -1.77848e-05 -1.35189e-07
21 1 0.0220946 0.790492 0.0935971 0 -6.12222e-06 6.78603e-08
22 1 0.522095 0.790492 0.0935971 0 -1.59363e-05 -4.48939e-07
23 1 0.734235 0.9116 0.0935971 0 1.10177e-05 -3.37079e-07
24 1 0.234234 0.9116 0.0935971 0 1.04117e-05 -1.38423e-07
25 1 0.989524 0.0949745 0.593597 0 -2.1869e-06 7.84781e-07
26 1 0.489523 0.0949744 0.593597 0 1.62935e-06 2.33998e-07
27 1 0.254801 0.0461043 0.0935971 0 1.25451e-05 1.87007e-07
28 1 0.754801 0.0461044 0.0935971 0 1.12445e-05 -1.03592e-07
29 1 0.201663 0.216082 0.593597 0 3.99108e-07 1.57928e-06
30 1 0.701663 0.216082 0.593597 0 3.13878e-07 2.37629e-06
31 1 0.965111 0.173069 0.0935971 0 0.000100351 -1.75282e-06
32 1 0.46511 0.173069 0.0935971 0 9.97765e-05 -1.5143e-06
