LAMMPS data file via write_data, version 4 May 2022, timestep = 383

48 atoms
3 atom types

0.008404531315359119 6.076917901584643 xlo xhi
-0.0023252728783138264 9.245135864578316 ylo yhi
0.0009252638072130309 19.516202358592782 zlo zhi
2.512035748398148 -6.220409150921964 0.20640487290955647 xy xz yz
Masses

1 24.305
2 65.40900000000001
3 88.90600000000001

Atoms # atomic

1 1 6.018407303587094 1.5490325516824521 0.6234382459165189 0 0 0
2 1 2.973191942955357 0.6944427037378672 1.034306390178771 0 0 0
3 1 0.5414499619156875 1.2878220367760538 12.821567723523858 0 0 0
4 1 2.4763330439416777 8.963454419689544 18.109763978376296 0 0 0
5 1 5.232875217286819 1.615924052422797 15.666613399200626 0 0 0
6 1 3.0095127889003996 0.5705830221013863 17.698896119672007 0 0 0
7 1 2.2074489417783822 2.468654257234611 15.259050417570627 0 0 0
8 1 4.090677205740765 2.009320203321741 7.945888278066644 0 0 0
9 1 3.5687630782245443 0.43573804799591703 13.225994779991046 0 0 0
10 1 2.7293737412328896 2.3381918317677397 10.787313849445422 0 0 0
11 1 4.612601214045507 1.8788580243185538 3.47415157714783 0 0 0
12 1 2.4139420654228734 0.8292872057874165 5.50720807842382 0 0 0
13 1 1.5871751589974965 2.7315884225816944 3.0665888209778207 0 0 0
14 1 1.0500150996186661 1.1577309797157498 8.349298630122394 0 0 0
15 1 6.855752582819085 4.631519611072668 0.6234385292601275 0 0 0
16 1 3.810537156330045 3.7769295798211977 1.0343063884941242 0 0 0
17 1 1.3787951234562723 4.370309164818801 12.821567541799055 0 0 0
18 1 0.8016426134922452 2.7984800642747922 18.1097641497423 0 0 0
19 1 6.070220379613946 4.698411284729105 15.666613568362957 0 0 0
20 1 3.846858083142051 3.65307014823149 17.698896184948044 0 0 0
21 1 3.0447943182435733 5.5511415708715965 15.259050748794305 0 0 0
22 1 5.7700356940109545 3.189780776315086 10.383903372793753 0 0 0
23 1 4.928022421360482 5.091807125644181 7.945888094678241 0 0 0
24 1 4.406108444594946 3.518225147592609 13.225994050348428 0 0 0
25 1 3.5667189028494435 5.420678567929602 10.787314095261529 0 0 0
26 1 6.278600695099431 3.05969005600552 5.911634614343737 0 0 0
27 1 5.449946339191058 4.961345019984705 3.474151747367978 0 0 0
28 1 3.2512875599829054 3.9117742416446237 5.507208040537832 0 0 0
29 1 2.4245204354820973 5.8140756957669035 3.066589036117477 0 0 0
30 1 1.887360358130736 4.2402180266344205 8.349298862365288 0 0 0
31 1 7.693097640197614 7.71400670805365 0.6234384894926965 0 0 0
32 1 4.647882513793297 6.859416676208207 1.0343063897243918 0 0 0
33 1 2.216140559243597 7.452796063597146 12.821567661084966 0 0 0
34 1 1.6389879190379648 5.880967061062648 18.109763884630002 0 0 0
35 1 6.907565595818496 7.780898307095771 15.666613335639987 0 0 0
36 1 4.684203208774538 6.735557267785369 17.69889599698021 0 0 0
37 1 3.8821395663343607 8.633628551426302 15.259050429990591 0 0 0
38 1 6.607380965957262 6.2722676575877125 10.383903429155179 0 0 0
39 1 5.765367576879028 8.174294449118399 7.945888129720866 0 0 0
40 1 5.243453551494937 6.600712211260483 13.225994641333381 0 0 0
41 1 4.404064293713601 8.503165929795795 10.78731417449637 0 0 0
42 1 7.115945941392662 6.142177156149249 5.911634335026766 0 0 0
43 1 6.287291852207552 8.04383195235597 3.4741515975814172 0 0 0
44 1 4.088632608784577 6.994261181620379 5.507207935640119 0 0 0
45 1 3.261865501896098 8.896562509928662 3.0665889147922094 0 0 0
46 1 2.724705760045343 7.322705065182882 8.349298838063595 0 0 0
47 1 7.444726143974003 9.35475497818699 10.38390335672482 0 0 0
48 1 7.953291260270834 9.224664211963853 5.91163461140787 0 0 0

Velocities

1 0 0 0
2 0 0 0
3 0 0 0
4 0 0 0
5 0 0 0
6 0 0 0
7 0 0 0
8 0 0 0
9 0 0 0
10 0 0 0
11 0 0 0
12 0 0 0
13 0 0 0
14 0 0 0
15 0 0 0
16 0 0 0
17 0 0 0
18 0 0 0
19 0 0 0
20 0 0 0
21 0 0 0
22 0 0 0
23 0 0 0
24 0 0 0
25 0 0 0
26 0 0 0
27 0 0 0
28 0 0 0
29 0 0 0
30 0 0 0
31 0 0 0
32 0 0 0
33 0 0 0
34 0 0 0
35 0 0 0
36 0 0 0
37 0 0 0
38 0 0 0
39 0 0 0
40 0 0 0
41 0 0 0
42 0 0 0
43 0 0 0
44 0 0 0
45 0 0 0
46 0 0 0
47 0 0 0
48 0 0 0
