ITEM: TIMESTEP
0
ITEM: NUMBER OF ATOMS
56
ITEM: BOX BOUNDS xy xz yz pp pp pp
-4.6646600961685181e-01 1.2185099840164185e+01 0.0000000000000000e+00
0.0000000000000000e+00 5.5264081358909607e+00 -4.6646600961685181e-01
0.0000000000000000e+00 1.9019960045814514e+01 0.0000000000000000e+00
ITEM: ATOMS id type xs ys zs fx fy fz
1 1 0.555183 8.90091e-07 0.132369 -0.000822067 0.000274658 -7.05719e-05
2 1 0.305183 0.166666 0.132369 -0.000804901 -0.000261307 -6.48499e-05
3 1 0.198025 9.12308e-06 0.275226 -0.000102997 6.29425e-05 -3.24249e-05
4 1 0.948024 0.166658 0.275226 -8.7738e-05 -6.67572e-05 -3.43323e-05
5 1 0.84084 9.05422e-06 0.418084 3.62396e-05 2.86102e-05 -6.29425e-05
6 1 0.0551821 8.90153e-07 0.132369 -0.000795364 0.000268936 -6.67572e-05
7 1 0.983748 0.500044 0.0609391 -0.00141907 0.000196457 -5.72205e-06
8 1 0.805182 0.166666 0.132369 -0.000766754 -0.000270844 -7.62939e-05
9 1 0.733748 0.666623 0.0609392 -0.00139236 -0.000200272 3.8147e-06
10 1 0.698024 9.12314e-06 0.275227 -6.10352e-05 6.48499e-05 -3.62396e-05
11 1 0.590842 0.166658 0.418084 -3.8147e-05 -2.47955e-05 -5.53131e-05
12 1 0.483661 9.61873e-06 0.560938 -0.000137329 7.24792e-05 0.000116348
13 1 0.23366 0.166657 0.560938 -0.000116348 -6.10352e-05 0.000108719
14 1 0.126467 9.05696e-06 0.703794 0.000125885 6.67572e-05 0.000202179
15 1 0.876467 0.166658 0.703794 0.000139236 -4.57764e-05 0.000204086
16 1 0.769294 8.34659e-06 0.846658 0.000301361 8.39233e-05 -0.000209808
17 1 0.626612 0.500009 0.203795 -0.000303268 7.05719e-05 0.000200272
18 1 0.448026 0.166658 0.275226 -0.00012207 -5.72205e-05 -3.24249e-05
19 1 0.376611 0.666659 0.203795 -0.000263214 -7.43866e-05 0.000204086
20 1 0.340841 9.05416e-06 0.418084 0 3.05176e-05 -5.72205e-05
21 1 0.269438 0.500009 0.346658 -0.000133514 6.29425e-05 -0.000200272
22 1 0.0908402 0.166658 0.418084 1.33514e-05 -3.05176e-05 -5.72205e-05
23 1 0.019437 0.666658 0.346658 -9.72748e-05 -6.86646e-05 -0.000198364
24 1 0.983659 9.61879e-06 0.560938 -9.53674e-05 6.86646e-05 0.000101089
25 1 0.912245 0.50001 0.489515 0.000118256 6.29425e-05 -0.000108719
26 1 0.733659 0.166657 0.560938 -5.34058e-05 -6.67572e-05 9.72748e-05
27 1 0.662244 0.666658 0.489515 0.000143051 -6.86646e-05 -0.000112534
28 1 0.48375 0.500044 0.0609391 -0.00146866 0.000190735 0
29 1 0.233749 0.666623 0.0609391 -0.00143814 -0.000207901 3.8147e-06
30 1 0.12661 0.500009 0.203795 -0.000249863 6.86646e-05 0.000198364
31 1 0.87661 0.666659 0.203795 -0.000238419 -6.86646e-05 0.000202179
32 1 0.769437 0.500009 0.346658 -8.2016e-05 6.86646e-05 -0.00019455
33 1 0.519296 0.166659 0.846658 0.000226974 -6.67572e-05 -0.000196457
34 1 0.412157 4.36878e-05 0.989514 0.00141525 0.000204086 3.8147e-06
35 1 0.162156 0.166623 0.989514 0.00144005 -0.000196457 0
36 1 0.626469 9.05689e-06 0.703794 7.62939e-05 7.43866e-05 0.000198364
37 1 0.555066 0.500009 0.632368 -4.95911e-05 1.90735e-05 6.67572e-05
38 1 0.376468 0.166658 0.703794 0.000102997 -6.48499e-05 0.000204086
39 1 0.305065 0.666658 0.632368 -1.71661e-05 -2.86102e-05 5.91278e-05
40 1 0.269295 8.34652e-06 0.846658 0.000249863 7.62939e-05 -0.000200272
41 1 0.197881 0.500009 0.775226 8.39233e-05 6.29425e-05 3.43323e-05
42 1 0.0192942 0.166659 0.846658 0.000263214 -6.67572e-05 -0.000205994
43 1 0.94788 0.666658 0.775226 0.000110626 -6.86646e-05 2.47955e-05
44 1 0.912156 4.36878e-05 0.989514 0.00147057 0.00019455 0
45 1 0.840722 0.500001 0.918084 0.000825882 0.000268936 6.67572e-05
46 1 0.519438 0.666658 0.346658 -0.000148773 -6.86646e-05 -0.000196457
47 1 0.412246 0.50001 0.489515 7.62939e-05 5.72205e-05 -0.000106812
48 1 0.162246 0.666658 0.489515 9.34601e-05 -6.67572e-05 -0.000102997
49 1 0.0550641 0.500009 0.632369 5.72205e-06 2.28882e-05 6.29425e-05
50 1 0.805064 0.666658 0.632369 2.09808e-05 -2.47955e-05 5.34058e-05
51 1 0.697879 0.500009 0.775226 0.000137329 5.72205e-05 2.67029e-05
52 1 0.662158 0.166623 0.989514 0.00139046 -0.000198364 1.90735e-06
53 1 0.590724 0.666666 0.918084 0.000761032 -0.000278473 8.01086e-05
54 1 0.447881 0.666658 0.775226 8.01086e-05 -6.67572e-05 3.43323e-05
55 1 0.340723 0.500001 0.918084 0.000793457 0.000263214 6.86646e-05
56 1 0.0907223 0.666666 0.918084 0.000802994 -0.000274658 5.72205e-05
ITEM: TIMESTEP
1
ITEM: NUMBER OF ATOMS
56
ITEM: BOX BOUNDS xy xz yz pp pp pp
-4.6581006050109863e-01 1.2184490561485291e+01 0.0000000000000000e+00
2.7632713317871094e-04 5.5261318087577820e+00 -4.6641933917999268e-01
9.5099210739135742e-04 1.9019009053707123e+01 0.0000000000000000e+00
ITEM: ATOMS id type xs ys zs fx fy fz
1 1 0.555183 8.9454e-07 0.132369 -0.000825882 0.000278473 -7.05719e-05
2 1 0.305183 0.166666 0.132369 -0.000801086 -0.000282288 -6.67572e-05
3 1 0.198025 9.1241e-06 0.275226 -0.000110626 6.67572e-05 -3.05176e-05
4 1 0.948024 0.166658 0.275226 -9.72748e-05 -5.53131e-05 -2.47955e-05
5 1 0.84084 9.05469e-06 0.418084 3.05176e-05 1.14441e-05 -6.29425e-05
6 1 0.0551821 8.9451e-07 0.132369 -0.000778198 0.000284195 -7.05719e-05
7 1 0.983748 0.500044 0.0609391 -0.00142479 0.000200272 7.62939e-06
8 1 0.805182 0.166666 0.132369 -0.000751495 -0.000268936 -7.43866e-05
9 1 0.733748 0.666623 0.0609392 -0.00139999 -0.00021553 1.33514e-05
10 1 0.698024 9.12419e-06 0.275227 -7.24792e-05 6.67572e-05 -3.05176e-05
11 1 0.590842 0.166658 0.418084 -1.90735e-05 -7.62939e-06 -5.91278e-05
12 1 0.483661 9.61991e-06 0.560938 -0.000133514 6.10352e-05 0.000106812
13 1 0.23366 0.166657 0.560938 -0.000106812 -5.53131e-05 0.000102997
14 1 0.126467 9.05804e-06 0.703794 0.000144958 5.53131e-05 0.000181198
15 1 0.876467 0.166658 0.703794 0.000148773 -4.76837e-05 0.000181198
16 1 0.769294 8.34795e-06 0.846658 0.000310898 7.62939e-05 -0.00019455
17 1 0.626612 0.500009 0.203795 -0.00030899 7.24792e-05 0.000190735
18 1 0.448026 0.166658 0.275226 -0.000131607 -5.72205e-05 -2.86102e-05
19 1 0.376611 0.666659 0.203795 -0.000274658 -8.39233e-05 0.000188828
20 1 0.340841 9.05466e-06 0.418084 1.33514e-05 2.09808e-05 -6.10352e-05
21 1 0.269438 0.500009 0.346658 -0.000150681 5.72205e-05 -0.000181198
22 1 0.0908402 0.166658 0.418084 2.09808e-05 -1.52588e-05 -6.29425e-05
23 1 0.019437 0.666658 0.346658 -0.000131607 -5.53131e-05 -0.000173569
24 1 0.983659 9.6199e-06 0.560938 -8.2016e-05 6.29425e-05 9.34601e-05
25 1 0.912245 0.50001 0.489515 0.000112534 5.72205e-05 -0.000102997
26 1 0.733659 0.166657 0.560938 -5.53131e-05 -5.72205e-05 8.7738e-05
27 1 0.662244 0.666658 0.489515 0.000146866 -5.72205e-05 -0.000104904
28 1 0.48375 0.500044 0.0609391 -0.0014534 0.000192642 5.72205e-06
29 1 0.233749 0.666623 0.0609391 -0.00145149 -0.000204086 1.14441e-05
30 1 0.12661 0.500009 0.203795 -0.000249863 6.67572e-05 0.00018692
31 1 0.87661 0.666659 0.203795 -0.000236511 -6.67572e-05 0.00018692
32 1 0.769437 0.500009 0.346658 -8.7738e-05 4.95911e-05 -0.000188828
33 1 0.519296 0.166659 0.846658 0.000225067 -6.48499e-05 -0.000175476
34 1 0.412157 4.36911e-05 0.989514 0.00142479 0.000209808 -7.62939e-06
35 1 0.162156 0.166623 0.989514 0.00144386 -0.000200272 -9.53674e-06
36 1 0.626469 9.0581e-06 0.703794 8.39233e-05 4.95911e-05 0.000188828
37 1 0.555066 0.500009 0.632368 -5.91278e-05 7.62939e-06 6.86646e-05
38 1 0.376468 0.166658 0.703794 0.00012207 -5.34058e-05 0.000185013
39 1 0.305065 0.666658 0.632368 -2.09808e-05 -1.52588e-05 5.91278e-05
40 1 0.269295 8.34776e-06 0.846658 0.000255585 7.05719e-05 -0.00018692
41 1 0.197881 0.500009 0.775226 0.000102997 5.72205e-05 2.67029e-05
42 1 0.0192942 0.166659 0.846658 0.000276566 -7.43866e-05 -0.00018692
43 1 0.94788 0.666658 0.775226 0.000118256 -7.05719e-05 3.43323e-05
44 1 0.912156 4.3691e-05 0.989514 0.00145912 0.000202179 -9.53674e-06
45 1 0.840722 0.500001 0.918084 0.000818253 0.00028038 6.10352e-05
46 1 0.519438 0.666658 0.346658 -0.000169754 -6.29425e-05 -0.000183105
47 1 0.412246 0.50001 0.489515 7.82013e-05 4.95911e-05 -9.91821e-05
48 1 0.162246 0.666658 0.489515 8.96454e-05 -6.10352e-05 -0.000101089
49 1 0.0550641 0.500009 0.632369 -9.53674e-06 1.52588e-05 5.14984e-05
50 1 0.805064 0.666658 0.632369 9.53674e-06 -1.71661e-05 5.72205e-05
51 1 0.697879 0.500009 0.775226 0.000154495 6.67572e-05 3.62396e-05
52 1 0.662158 0.166623 0.989514 0.00139809 -0.000204086 -7.62939e-06
53 1 0.590724 0.666666 0.918084 0.000745773 -0.000276566 7.43866e-05
54 1 0.447881 0.666658 0.775226 8.2016e-05 -5.34058e-05 3.05176e-05
55 1 0.340723 0.500001 0.918084 0.000782013 0.000282288 7.24792e-05
56 1 0.0907223 0.666666 0.918084 0.000795364 -0.00028801 6.48499e-05
ITEM: TIMESTEP
2
ITEM: NUMBER OF ATOMS
56
ITEM: BOX BOUNDS xy xz yz pp pp pp
-4.6515417098999023e-01 1.2183881282806396e+01 0.0000000000000000e+00
5.5265426635742188e-04 5.5258554816246033e+00 -4.6637272834777832e-01
1.9019842147827148e-03 1.9018058061599731e+01 0.0000000000000000e+00
ITEM: ATOMS id type xs ys zs fx fy fz
1 1 0.555183 9.00971e-07 0.132369 -0.000810623 0.000263214 -5.91278e-05
2 1 0.305183 0.166666 0.132369 -0.000787735 -0.00025177 -5.91278e-05
3 1 0.198025 9.12564e-06 0.275226 -0.000104904 7.43866e-05 -1.33514e-05
4 1 0.948024 0.166658 0.275226 -9.72748e-05 -7.24792e-05 -1.33514e-05
5 1 0.84084 9.05495e-06 0.418084 3.05176e-05 1.71661e-05 -4.95911e-05
6 1 0.0551821 9.01073e-07 0.132369 -0.000778198 0.000263214 -5.72205e-05
7 1 0.983748 0.500044 0.0609391 -0.0014286 0.000192642 1.90735e-06
8 1 0.805182 0.166666 0.132369 -0.000757217 -0.000259399 -5.34058e-05
9 1 0.733748 0.666623 0.0609392 -0.00139427 -0.000190735 1.90735e-06
10 1 0.698024 9.12573e-06 0.275227 -6.48499e-05 6.86646e-05 -2.86102e-05
11 1 0.590842 0.166658 0.418084 -2.86102e-05 -1.33514e-05 -5.14984e-05
12 1 0.483661 9.62132e-06 0.560938 -0.000112534 6.10352e-05 9.53674e-05
13 1 0.23366 0.166657 0.560938 -9.53674e-05 -5.34058e-05 9.72748e-05
14 1 0.126467 9.05932e-06 0.703794 0.000106812 6.10352e-05 0.00019455
15 1 0.876467 0.166658 0.703794 0.0001297 -5.14984e-05 0.000196457
16 1 0.769294 8.34971e-06 0.846658 0.000322342 8.01086e-05 -0.000202179
17 1 0.626612 0.500009 0.203795 -0.000324249 7.24792e-05 0.000207901
18 1 0.448026 0.166658 0.275226 -0.000116348 -6.29425e-05 -1.52588e-05
19 1 0.376611 0.666659 0.203795 -0.00028801 -8.01086e-05 0.000192642
20 1 0.340841 9.05514e-06 0.418084 3.8147e-06 1.90735e-05 -5.34058e-05
21 1 0.269438 0.500009 0.346658 -0.000106812 6.10352e-05 -0.000204086
22 1 0.0908402 0.166658 0.418084 1.33514e-05 -1.52588e-05 -5.53131e-05
23 1 0.019437 0.666658 0.346658 -9.15527e-05 -5.91278e-05 -0.000190735
24 1 0.983659 9.62135e-06 0.560938 -7.62939e-05 6.29425e-05 0.000101089
25 1 0.912245 0.50001 0.489515 9.34601e-05 5.53131e-05 -9.53674e-05
26 1 0.733659 0.166657 0.560938 -4.76837e-05 -5.34058e-05 8.58307e-05
27 1 0.662244 0.666658 0.489515 0.000127792 -6.10352e-05 -9.53674e-05
28 1 0.48375 0.500044 0.0609391 -0.00145721 0.000179291 3.8147e-06
29 1 0.233749 0.666623 0.0609391 -0.00144577 -0.000196457 0
30 1 0.12661 0.500009 0.203795 -0.000278473 7.82013e-05 0.000205994
31 1 0.87661 0.666659 0.203795 -0.000244141 -7.82013e-05 0.00019455
32 1 0.769437 0.500009 0.346658 -6.67572e-05 5.72205e-05 -0.00019455
33 1 0.519296 0.166659 0.846658 0.000232697 -7.24792e-05 -0.00018692
34 1 0.412157 4.36959e-05 0.989514 0.0014267 0.000192642 7.62939e-06
35 1 0.162156 0.166623 0.989514 0.00144196 -0.00018692 -3.8147e-06
36 1 0.626469 9.05924e-06 0.703794 5.91278e-05 6.10352e-05 0.000192642
37 1 0.555066 0.500009 0.632368 -5.34058e-05 1.52588e-05 5.91278e-05
38 1 0.376468 0.166658 0.703794 9.53674e-05 -5.34058e-05 0.000190735
39 1 0.305065 0.666658 0.632368 -1.71661e-05 -1.90735e-05 5.53131e-05
40 1 0.269295 8.34939e-06 0.846658 0.000276566 8.96454e-05 -0.000196457
41 1 0.197881 0.500009 0.775226 9.72748e-05 7.43866e-05 1.71661e-05
42 1 0.0192942 0.166659 0.846658 0.000282288 -7.82013e-05 -0.000202179
43 1 0.94788 0.666658 0.775226 0.000104904 -8.2016e-05 1.52588e-05
44 1 0.912156 4.36957e-05 0.989514 0.0014534 0.000190735 -3.8147e-06
45 1 0.840722 0.500001 0.918084 0.000810623 0.000257492 4.76837e-05
46 1 0.519438 0.666658 0.346658 -0.000135422 -6.67572e-05 -0.00019455
47 1 0.412246 0.50001 0.489515 6.29425e-05 4.76837e-05 -9.53674e-05
48 1 0.162246 0.666658 0.489515 7.62939e-05 -6.67572e-05 -9.53674e-05
49 1 0.0550641 0.500009 0.632369 7.62939e-06 1.33514e-05 4.95911e-05
50 1 0.805064 0.666658 0.632369 1.52588e-05 -1.90735e-05 4.19617e-05
51 1 0.697879 0.500009 0.775226 0.000133514 6.29425e-05 1.90735e-05
52 1 0.662158 0.166623 0.989514 0.00139999 -0.00018692 1.90735e-06
53 1 0.590724 0.666666 0.918084 0.000749588 -0.000263214 6.10352e-05
54 1 0.447881 0.666658 0.775226 8.2016e-05 -7.43866e-05 1.33514e-05
55 1 0.340723 0.500001 0.918084 0.000782013 0.000259399 5.53131e-05
56 1 0.0907223 0.666666 0.918084 0.00079155 -0.000263214 6.29425e-05
ITEM: TIMESTEP
3
ITEM: NUMBER OF ATOMS
56
ITEM: BOX BOUNDS xy xz yz pp pp pp
-4.6449822187423706e-01 1.2183272004127502e+01 0.0000000000000000e+00
8.2898139953613281e-04 5.5255791544914246e+00 -4.6632605791091919e-01
2.8529763221740723e-03 1.9017107069492340e+01 0.0000000000000000e+00
ITEM: ATOMS id type xs ys zs fx fy fz
1 1 0.555183 9.11401e-07 0.132369 -0.000816345 0.000284195 -6.29425e-05
2 1 0.305183 0.166666 0.132369 -0.000782013 -0.000282288 -6.29425e-05
3 1 0.198025 9.12859e-06 0.275226 -9.91821e-05 6.48499e-05 -4.00543e-05
4 1 0.948024 0.166658 0.275226 -8.7738e-05 -6.10352e-05 -3.05176e-05
5 1 0.84084 9.05563e-06 0.418084 3.43323e-05 3.8147e-06 -5.53131e-05
6 1 0.055182 9.11503e-07 0.132369 -0.000778198 0.00028038 -6.67572e-05
7 1 0.983748 0.500044 0.0609391 -0.00141716 0.000204086 3.8147e-06
8 1 0.805182 0.166666 0.132369 -0.000747681 -0.00028038 -6.29425e-05
9 1 0.733748 0.666623 0.0609392 -0.00139046 -0.00019455 0
10 1 0.698024 9.12845e-06 0.275227 -5.34058e-05 6.48499e-05 -2.86102e-05
11 1 0.590842 0.166658 0.418084 -2.86102e-05 -5.72205e-06 -5.91278e-05
12 1 0.483661 9.62374e-06 0.560938 -0.000114441 6.48499e-05 0.000104904
13 1 0.23366 0.166657 0.560938 -9.91821e-05 -4.95911e-05 9.91821e-05
14 1 0.126467 9.06174e-06 0.703794 0.00012207 6.67572e-05 0.000204086
15 1 0.876467 0.166658 0.703794 0.000131607 -5.34058e-05 0.000200272
16 1 0.769294 8.35289e-06 0.846658 0.000293732 8.39233e-05 -0.000202179
17 1 0.626612 0.500009 0.203795 -0.000291824 8.2016e-05 0.000192642
18 1 0.448026 0.166658 0.275226 -0.000118256 -4.95911e-05 -3.24249e-05
19 1 0.376611 0.666659 0.203795 -0.000259399 -9.53674e-05 0.000202179
20 1 0.340841 9.0559e-06 0.418084 9.53674e-06 1.33514e-05 -5.72205e-05
21 1 0.269438 0.500009 0.346658 -0.00012207 6.29425e-05 -0.000207901
22 1 0.0908402 0.166658 0.418084 2.28882e-05 1.90735e-06 -5.53131e-05
23 1 0.019437 0.666658 0.346658 -9.91821e-05 -6.10352e-05 -0.000202179
24 1 0.983659 9.62385e-06 0.560938 -8.39233e-05 6.48499e-05 9.91821e-05
25 1 0.912245 0.50001 0.489515 9.15527e-05 5.34058e-05 -9.34601e-05
26 1 0.733659 0.166657 0.560938 -5.72205e-05 -5.53131e-05 8.96454e-05
27 1 0.662244 0.666658 0.489515 0.000123978 -6.10352e-05 -9.15527e-05
28 1 0.48375 0.500044 0.0609391 -0.0014534 0.000190735 1.14441e-05
29 1 0.233749 0.666623 0.0609391 -0.00143814 -0.000198364 9.53674e-06
30 1 0.12661 0.500009 0.203795 -0.000249863 7.82013e-05 0.000198364
31 1 0.87661 0.666659 0.203795 -0.000253677 -7.24792e-05 0.000198364
32 1 0.769437 0.500009 0.346658 -7.62939e-05 5.91278e-05 -0.000202179
33 1 0.519296 0.166659 0.846658 0.000238419 -7.24792e-05 -0.00019455
34 1 0.412157 4.37036e-05 0.989514 0.00141525 0.000200272 1.90735e-06
35 1 0.162156 0.166623 0.989514 0.00143242 -0.000202179 -9.53674e-06
36 1 0.626469 9.06166e-06 0.703794 6.67572e-05 6.86646e-05 0.000207901
37 1 0.555066 0.500009 0.632368 -5.14984e-05 0 5.34058e-05
38 1 0.376468 0.166658 0.703794 0.000102997 -5.91278e-05 0.000204086
39 1 0.305065 0.666658 0.632368 -1.90735e-05 -1.14441e-05 6.10352e-05
40 1 0.269295 8.35294e-06 0.846658 0.000255585 8.58307e-05 -0.000198364
41 1 0.197881 0.500009 0.775226 9.15527e-05 5.72205e-05 3.8147e-05
42 1 0.0192942 0.166659 0.846658 0.000261307 -8.96454e-05 -0.000205994
43 1 0.94788 0.666658 0.775226 9.91821e-05 -6.48499e-05 3.8147e-05
44 1 0.912156 4.37032e-05 0.989514 0.00145149 0.000196457 -5.72205e-06
45 1 0.840722 0.500001 0.918084 0.000808716 0.000286102 5.91278e-05
46 1 0.519438 0.666658 0.346658 -0.000148773 -6.86646e-05 -0.000202179
47 1 0.412246 0.50001 0.489515 7.05719e-05 4.57764e-05 -9.91821e-05
48 1 0.162246 0.666658 0.489515 8.01086e-05 -6.67572e-05 -9.15527e-05
49 1 0.0550641 0.500009 0.632369 -1.90735e-06 1.90735e-06 5.34058e-05
50 1 0.805064 0.666658 0.632369 2.28882e-05 -2.09808e-05 4.76837e-05
51 1 0.697879 0.500009 0.775226 0.000135422 5.53131e-05 2.86102e-05
52 1 0.662158 0.166623 0.989514 0.00139236 -0.00019455 -1.90735e-06
53 1 0.590724 0.666666 0.918084 0.000745773 -0.00028801 6.67572e-05
54 1 0.447881 0.666658 0.775226 8.2016e-05 -5.91278e-05 2.47955e-05
55 1 0.340723 0.500001 0.918084 0.000770569 0.00028038 6.67572e-05
56 1 0.0907223 0.666666 0.918084 0.000785828 -0.000284195 5.72205e-05
ITEM: TIMESTEP
4
ITEM: NUMBER OF ATOMS
56
ITEM: BOX BOUNDS xy xz yz pp pp pp
-4.6430677175521851e-01 1.2183094143867493e+01 0.0000000000000000e+00
9.0962648391723633e-04 5.5254985094070435e+00 -4.6631246805191040e-01
3.1305551528930664e-03 1.9016829490661621e+01 0.0000000000000000e+00
ITEM: ATOMS id type xs ys zs fx fy fz
1 1 0.555183 9.23226e-07 0.132369 -0.000799179 0.000278473 -7.62939e-05
2 1 0.305183 0.166666 0.132369 -0.000766754 -0.000268936 -7.43866e-05
3 1 0.198025 9.13128e-06 0.275226 -0.000108719 6.67572e-05 -3.8147e-05
4 1 0.948024 0.166658 0.275226 -0.000108719 -6.29425e-05 -3.43323e-05
5 1 0.84084 9.05579e-06 0.418084 3.43323e-05 1.71661e-05 -6.29425e-05
6 1 0.055182 9.23169e-07 0.132369 -0.000749588 0.000278473 -7.43866e-05
7 1 0.983748 0.500044 0.0609391 -0.00144005 0.000209808 -7.62939e-06
8 1 0.805182 0.166666 0.132369 -0.0007267 -0.000278473 -6.67572e-05
9 1 0.733748 0.666623 0.0609392 -0.00139999 -0.000213623 -5.72205e-06
10 1 0.698024 9.13115e-06 0.275227 -6.48499e-05 6.67572e-05 -4.00543e-05
11 1 0.590842 0.166658 0.418084 -3.43323e-05 0 -5.91278e-05
12 1 0.483661 9.62643e-06 0.560938 -0.000133514 7.43866e-05 9.15527e-05
13 1 0.23366 0.166657 0.560938 -0.000110626 -5.91278e-05 8.7738e-05
14 1 0.126467 9.06452e-06 0.703794 0.000143051 5.72205e-05 0.000207901
15 1 0.876467 0.166658 0.703794 0.000156403 -4.3869e-05 0.000213623
16 1 0.769294 8.35638e-06 0.846658 0.000307083 8.96454e-05 -0.000205994
17 1 0.626612 0.500009 0.203795 -0.00030899 8.01086e-05 0.000205994
18 1 0.448026 0.166658 0.275226 -0.000131607 -5.14984e-05 -3.62396e-05
19 1 0.376611 0.666659 0.203795 -0.000268936 -9.34601e-05 0.000204086
20 1 0.340841 9.05645e-06 0.418084 1.90735e-06 2.28882e-05 -6.48499e-05
21 1 0.269438 0.500009 0.346658 -0.000143051 4.95911e-05 -0.00022316
22 1 0.0908402 0.166658 0.418084 1.90735e-05 -5.72205e-06 -6.48499e-05
23 1 0.019437 0.666658 0.346658 -0.000131607 -6.10352e-05 -0.000209808
24 1 0.983659 9.62655e-06 0.560938 -9.15527e-05 7.05719e-05 9.15527e-05
25 1 0.912245 0.50001 0.489515 0.000106812 5.91278e-05 -8.7738e-05
26 1 0.733659 0.166657 0.560938 -5.72205e-05 -5.91278e-05 9.15527e-05
27 1 0.662244 0.666658 0.489515 0.000139236 -7.24792e-05 -8.96454e-05
28 1 0.48375 0.500044 0.0609391 -0.0014801 0.000200272 -1.90735e-06
29 1 0.233749 0.666623 0.0609391 -0.00146294 -0.000207901 -1.14441e-05
30 1 0.12661 0.500009 0.203795 -0.000265121 8.58307e-05 0.000200272
31 1 0.87661 0.666659 0.203795 -0.000247955 -8.7738e-05 0.000196457
32 1 0.769437 0.500009 0.346658 -0.000108719 5.14984e-05 -0.000202179
33 1 0.519296 0.166659 0.846658 0.000236511 -8.96454e-05 -0.000188828
34 1 0.412157 4.37119e-05 0.989514 0.00143623 0.000217438 1.14441e-05
35 1 0.162156 0.166623 0.989514 0.00145912 -0.000202179 5.72205e-06
36 1 0.626469 9.06452e-06 0.703794 9.72748e-05 5.34058e-05 0.000207901
37 1 0.555066 0.500009 0.632368 -4.57764e-05 1.14441e-05 6.86646e-05
38 1 0.376468 0.166658 0.703794 0.000135422 -5.34058e-05 0.000209808
39 1 0.305065 0.666658 0.632368 -1.52588e-05 -1.90735e-05 6.86646e-05
40 1 0.269295 8.35651e-06 0.846658 0.000265121 9.34601e-05 -0.000196457
41 1 0.197881 0.500009 0.775226 0.000101089 5.91278e-05 4.19617e-05
42 1 0.0192942 0.166659 0.846658 0.000268936 -8.2016e-05 -0.000202179
43 1 0.94788 0.666658 0.775226 0.000108719 -6.48499e-05 3.8147e-05
44 1 0.912156 4.37114e-05 0.989514 0.0014782 0.000204086 1.90735e-06
45 1 0.840722 0.500001 0.918084 0.000797272 0.000270844 6.48499e-05
46 1 0.519438 0.666658 0.346658 -0.000175476 -6.48499e-05 -0.000225067
47 1 0.412246 0.50001 0.489515 8.01086e-05 5.14984e-05 -9.15527e-05
48 1 0.162246 0.666658 0.489515 8.96454e-05 -6.67572e-05 -8.39233e-05
49 1 0.0550641 0.500009 0.632369 0 3.8147e-06 6.67572e-05
50 1 0.805064 0.666658 0.632369 2.67029e-05 -1.90735e-05 6.10352e-05
51 1 0.697879 0.500009 0.775226 0.000154495 6.48499e-05 3.05176e-05
52 1 0.662158 0.166623 0.989514 0.00139999 -0.000204086 7.62939e-06
53 1 0.590724 0.666666 0.918084 0.0007267 -0.000286102 7.62939e-05
54 1 0.447881 0.666658 0.775226 9.15527e-05 -6.10352e-05 2.47955e-05
55 1 0.340723 0.500001 0.918084 0.000751495 0.000272751 7.62939e-05
56 1 0.0907224 0.666666 0.918084 0.000764847 -0.000282288 7.24792e-05
ITEM: TIMESTEP
5
ITEM: NUMBER OF ATOMS
56
ITEM: BOX BOUNDS xy xz yz pp pp pp
-4.6370619535446167e-01 1.2182485103607178e+01 0.0000000000000000e+00
6.8855285644531250e-04 5.5257195830345154e+00 -4.6632093191146851e-01
2.9583573341369629e-03 1.9017001688480377e+01 0.0000000000000000e+00
ITEM: ATOMS id type xs ys zs fx fy fz
1 1 0.555183 9.26264e-07 0.132369 -0.000827789 0.000200272 -5.91278e-05
2 1 0.305183 0.166666 0.132369 -0.000806808 -0.000183105 -6.10352e-05
3 1 0.198025 9.13201e-06 0.275226 -0.000108719 -4.57764e-05 -4.00543e-05
4 1 0.948024 0.166658 0.275226 -0.000101089 4.3869e-05 -3.62396e-05
5 1 0.84084 9.05598e-06 0.418084 3.05176e-05 -5.91278e-05 -5.72205e-05
6 1 0.055182 9.26207e-07 0.132369 -0.000780106 0.000188828 -6.10352e-05
7 1 0.983748 0.500044 0.0609391 -0.0014267 9.91821e-05 -1.14441e-05
8 1 0.805182 0.166666 0.132369 -0.00075531 -0.000190735 -5.72205e-05
9 1 0.733748 0.666623 0.0609392 -0.00139046 -0.000102997 -1.90735e-06
10 1 0.698024 9.13188e-06 0.275227 -6.67572e-05 -4.3869e-05 -4.76837e-05
11 1 0.590842 0.166658 0.418084 -2.86102e-05 5.72205e-05 -4.76837e-05
12 1 0.483661 9.62725e-06 0.560938 -0.000127792 -9.53674e-06 9.91821e-05
13 1 0.23366 0.166657 0.560938 -0.000114441 1.90735e-05 9.72748e-05
14 1 0.126467 9.06514e-06 0.703794 0.000131607 -1.33514e-05 0.000217438
15 1 0.876467 0.166658 0.703794 0.000144958 2.86102e-05 0.000219345
16 1 0.769294 8.35736e-06 0.846658 0.000310898 -7.62939e-06 -0.000192642
17 1 0.626612 0.500009 0.203795 -0.000312805 -1.90735e-05 0.00018692
18 1 0.448026 0.166658 0.275226 -0.000125885 5.53131e-05 -4.00543e-05
19 1 0.376611 0.666659 0.203795 -0.000272751 9.53674e-06 0.000183105
20 1 0.340841 9.0567e-06 0.418084 7.62939e-06 -5.34058e-05 -5.53131e-05
21 1 0.269438 0.500009 0.346658 -0.000127792 -2.09808e-05 -0.000213623
22 1 0.0908402 0.166658 0.418084 2.28882e-05 6.29425e-05 -5.53131e-05
23 1 0.019437 0.666658 0.346658 -0.000110626 1.52588e-05 -0.000221252
24 1 0.983659 9.62732e-06 0.560938 -8.58307e-05 -1.71661e-05 9.91821e-05
25 1 0.912245 0.50001 0.489515 0.000106812 -1.52588e-05 -9.53674e-05
26 1 0.733659 0.166657 0.560938 -5.14984e-05 1.90735e-05 9.53674e-05
27 1 0.662244 0.666658 0.489515 0.000133514 1.33514e-05 -0.000102997
28 1 0.48375 0.500044 0.0609391 -0.00145531 9.15527e-05 -3.8147e-06
29 1 0.233749 0.666623 0.0609391 -0.00144005 -0.000102997 -1.52588e-05
30 1 0.12661 0.500009 0.203795 -0.000257492 -2.86102e-05 0.00018692
31 1 0.87661 0.666659 0.203795 -0.000247955 1.71661e-05 0.00018692
32 1 0.769437 0.500009 0.346658 -8.7738e-05 -1.52588e-05 -0.000211716
33 1 0.519296 0.166659 0.846658 0.000238419 1.33514e-05 -0.000192642
34 1 0.412157 4.37143e-05 0.989514 0.00142479 0.000102997 1.52588e-05
35 1 0.162156 0.166623 0.989514 0.00143814 -9.72748e-05 7.62939e-06
36 1 0.626469 9.0651e-06 0.703794 7.62939e-05 -1.90735e-05 0.000219345
37 1 0.555066 0.500009 0.632368 -4.95911e-05 -5.91278e-05 6.48499e-05
38 1 0.376468 0.166658 0.703794 0.000118256 1.71661e-05 0.000221252
39 1 0.305065 0.666658 0.632368 -2.67029e-05 5.72205e-05 5.34058e-05
40 1 0.269295 8.35753e-06 0.846658 0.000253677 -1.14441e-05 -0.000183105
41 1 0.197881 0.500009 0.775226 9.72748e-05 -4.95911e-05 3.8147e-05
42 1 0.0192942 0.166659 0.846658 0.000276566 1.71661e-05 -0.000185013
43 1 0.94788 0.666658 0.775226 0.000112534 4.57764e-05 4.19617e-05
44 1 0.912156 4.37136e-05 0.989514 0.00145912 9.53674e-05 7.62939e-06
45 1 0.840722 0.500001 0.918084 0.00082016 0.000192642 5.34058e-05
46 1 0.519438 0.666658 0.346658 -0.000150681 1.52588e-05 -0.000226974
47 1 0.412246 0.50001 0.489515 7.43866e-05 -2.67029e-05 -9.53674e-05
48 1 0.162246 0.666658 0.489515 8.96454e-05 1.52588e-05 -0.000104904
49 1 0.0550641 0.500009 0.632369 -5.72205e-06 -6.10352e-05 5.34058e-05
50 1 0.805064 0.666658 0.632369 5.72205e-06 5.34058e-05 5.14984e-05
51 1 0.697879 0.500009 0.775226 0.000156403 -4.76837e-05 3.62396e-05
52 1 0.662158 0.166623 0.989514 0.00139236 -9.34601e-05 3.8147e-06
53 1 0.590724 0.666666 0.918084 0.000745773 -0.00019455 6.10352e-05
54 1 0.447881 0.666658 0.775226 8.7738e-05 4.57764e-05 4.95911e-05
55 1 0.340723 0.500001 0.918084 0.000782013 0.000185013 6.48499e-05
56 1 0.0907224 0.666666 0.918084 0.000804901 -0.000188828 6.10352e-05
ITEM: TIMESTEP
6
ITEM: NUMBER OF ATOMS
56
ITEM: BOX BOUNDS xy xz yz pp pp pp
-4.6310567855834961e-01 1.2181876063346863e+01 0.0000000000000000e+00
4.6831369400024414e-04 5.5259398221969604e+00 -4.6632945537567139e-01
2.7847290039062500e-03 1.9017175316810608e+01 0.0000000000000000e+00
ITEM: ATOMS id type xs ys zs fx fy fz
1 1 0.555183 9.28495e-07 0.132369 -0.000804901 8.01086e-05 -5.91278e-05
2 1 0.305183 0.166666 0.132369 -0.000776291 -7.05719e-05 -6.67572e-05
3 1 0.198025 9.1315e-06 0.275226 -9.91821e-05 -8.96454e-05 -4.19617e-05
4 1 0.948024 0.166658 0.275226 -8.01086e-05 9.72748e-05 -3.24249e-05
5 1 0.84084 9.05532e-06 0.418084 2.28882e-05 -0.000114441 -5.34058e-05
6 1 0.055182 9.28311e-07 0.132369 -0.00075531 7.24792e-05 -6.10352e-05
7 1 0.983748 0.500044 0.0609391 -0.00141716 5.72205e-06 -1.52588e-05
8 1 0.805182 0.166666 0.132369 -0.000736237 -6.67572e-05 -5.53131e-05
9 1 0.733748 0.666623 0.0609392 -0.00139999 -5.72205e-06 -1.14441e-05
10 1 0.698024 9.13139e-06 0.275227 -4.95911e-05 -8.58307e-05 -3.62396e-05
11 1 0.590842 0.166658 0.418084 -2.86102e-05 0.000116348 -4.76837e-05
12 1 0.483661 9.62714e-06 0.560938 -0.000112534 -6.29425e-05 0.000102997
13 1 0.23366 0.166657 0.560938 -9.72748e-05 6.48499e-05 9.53674e-05
14 1 0.126467 9.06499e-06 0.703794 0.000116348 -6.29425e-05 0.000209808
15 1 0.876467 0.166658 0.703794 0.0001297 8.2016e-05 0.000202179
16 1 0.769294 8.35727e-06 0.846658 0.00028801 -6.86646e-05 -0.000192642
17 1 0.626612 0.500009 0.203795 -0.00028801 -8.58307e-05 0.000192642
18 1 0.448026 0.166658 0.275226 -0.000102997 9.91821e-05 -3.62396e-05
19 1 0.376611 0.666659 0.203795 -0.000255585 7.24792e-05 0.000190735
20 1 0.340841 9.05611e-06 0.418084 3.8147e-06 -0.000110626 -5.34058e-05
21 1 0.269438 0.500009 0.346658 -0.000120163 -7.05719e-05 -0.000211716
22 1 0.0908402 0.166658 0.418084 1.14441e-05 0.00012207 -5.14984e-05
23 1 0.019437 0.666658 0.346658 -0.000104904 7.05719e-05 -0.000204086
24 1 0.983659 9.62713e-06 0.560938 -8.58307e-05 -6.29425e-05 9.53674e-05
25 1 0.912245 0.50001 0.489515 9.34601e-05 -7.05719e-05 -9.53674e-05
26 1 0.733659 0.166657 0.560938 -5.53131e-05 7.43866e-05 8.39233e-05
27 1 0.662244 0.666658 0.489515 0.0001297 6.29425e-05 -9.53674e-05
28 1 0.48375 0.500044 0.0609391 -0.00146675 0 -1.14441e-05
29 1 0.233749 0.666623 0.0609391 -0.00144577 -1.52588e-05 -1.71661e-05
30 1 0.12661 0.500009 0.203795 -0.000247955 -8.2016e-05 0.000188828
31 1 0.87661 0.666659 0.203795 -0.000238419 7.62939e-05 0.000185013
32 1 0.769437 0.500009 0.346658 -8.2016e-05 -7.43866e-05 -0.000198364
33 1 0.519296 0.166659 0.846658 0.000230789 8.01086e-05 -0.000179291
34 1 0.412157 4.37154e-05 0.989514 0.00141907 7.62939e-06 2.09808e-05
35 1 0.162156 0.166623 0.989514 0.00143814 -9.53674e-06 5.72205e-06
36 1 0.626469 9.06489e-06 0.703794 7.43866e-05 -6.48499e-05 0.000198364
37 1 0.555066 0.500009 0.632368 -4.00543e-05 -0.000116348 5.72205e-05
38 1 0.376468 0.166658 0.703794 0.000106812 6.86646e-05 0.000202179
39 1 0.305065 0.666658 0.632368 -9.53674e-06 0.000106812 5.14984e-05
40 1 0.269295 8.3574e-06 0.846658 0.00025177 -7.82013e-05 -0.00018692
41 1 0.197881 0.500009 0.775226 8.01086e-05 -9.72748e-05 4.00543e-05
42 1 0.0192942 0.166659 0.846658 0.000259399 8.2016e-05 -0.000190735
43 1 0.94788 0.666658 0.775226 9.53674e-05 8.58307e-05 3.24249e-05
44 1 0.912156 4.37147e-05 0.989514 0.00145721 5.72205e-06 1.52588e-05
45 1 0.840722 0.500001 0.918084 0.000795364 7.62939e-05 5.34058e-05
46 1 0.519438 0.666658 0.346658 -0.000144958 6.86646e-05 -0.000200272
47 1 0.412246 0.50001 0.489515 7.05719e-05 -8.01086e-05 -9.15527e-05
48 1 0.162246 0.666658 0.489515 7.82013e-05 6.29425e-05 -9.34601e-05
49 1 0.0550641 0.500009 0.632369 5.72205e-06 -0.000116348 4.95911e-05
50 1 0.805064 0.666658 0.632369 1.52588e-05 0.000104904 4.3869e-05
51 1 0.697879 0.500009 0.775226 0.000131607 -9.72748e-05 3.62396e-05
52 1 0.662158 0.166623 0.989514 0.00139809 -3.8147e-06 9.53674e-06
53 1 0.590724 0.666666 0.918084 0.000741959 -7.62939e-05 6.48499e-05
54 1 0.447881 0.666658 0.775226 6.67572e-05 9.72748e-05 3.24249e-05
55 1 0.340723 0.500001 0.918084 0.000751495 7.05719e-05 6.48499e-05
56 1 0.0907224 0.666666 0.918084 0.000782013 -7.43866e-05 6.48499e-05
ITEM: TIMESTEP
7
ITEM: NUMBER OF ATOMS
56
ITEM: BOX BOUNDS xy xz yz pp pp pp
-4.6250510215759277e-01 1.2181267023086548e+01 0.0000000000000000e+00
2.4878978729248047e-04 5.5261593461036682e+00 -4.6633791923522949e-01
2.6112794876098633e-03 1.9017348766326904e+01 0.0000000000000000e+00
ITEM: ATOMS id type xs ys zs fx fy fz
1 1 0.555183 9.29407e-07 0.132369 -0.000808716 3.8147e-06 -6.86646e-05
2 1 0.305183 0.166666 0.132369 -0.000780106 5.72205e-06 -7.05719e-05
3 1 0.198025 9.13048e-06 0.275226 -9.72748e-05 -0.000169754 -4.76837e-05