ITEM: TIMESTEP
0
ITEM: NUMBER OF ATOMS
32
ITEM: BOX BOUNDS xy xz yz pp pp pp
-2.1013021469116211e-03 8.5555198192596436e+00 2.1588695049285889e+00
-4.1524946689605713e-02 2.2124402940273285e+01 -0.0000000000000000e+00
-1.4066457748413086e-02 5.1965324282646179e+00 0.0000000000000000e+00
ITEM: ATOMS id type xs ys zs fx fy fz
1 1 0.905642 0.336621 0.593597 0 0.00109029 -1.19209e-07
2 1 0.405642 0.336621 0.593597 0 0.001091 -4.76837e-07
3 1 0.1697 0.294954 0.093597 0 0.00156736 8.34465e-07
4 1 0.6697 0.294954 0.0935971 0 0.00156641 3.57628e-07
5 1 0.113468 0.461621 0.593597 0 -3.3021e-05 3.57628e-07
6 1 0.613468 0.461621 0.593597 0 -3.34978e-05 1.19209e-07
7 1 0.877526 0.419954 0.0935971 0 -6.90222e-05 -4.76837e-07
8 1 0.377526 0.419954 0.0935971 0 -6.92606e-05 0
9 1 0.821294 0.586621 0.593597 0 6.42538e-05 -3.57628e-07
10 1 0.321294 0.586621 0.593597 0 6.40154e-05 -7.15256e-07
11 1 0.0291208 0.711621 0.593597 0 -0.00156701 -1.19209e-06
12 1 0.529121 0.711621 0.593597 0 -0.00156689 -1.19209e-06
13 1 0.793179 0.669954 0.093597 0 -0.00109625 1.3113e-06
14 1 0.0853523 0.544954 0.0935971 0 3.46899e-05 1.19209e-07
15 1 0.585352 0.544954 0.0935971 0 3.50475e-05 -1.19209e-07
16 1 0.293179 0.669954 0.093597 0 -0.00109589 1.43051e-06
17 1 0.736947 0.83662 0.593597 0 0.00862861 1.19209e-07
18 1 0.236947 0.83662 0.593597 0 0.00862777 -2.38419e-07
19 1 0.944774 0.96162 0.593597 0 -0.294316 -3.57628e-07
20 1 0.444774 0.96162 0.593597 0 -0.294317 -1.19209e-07
21 1 0.00100512 0.794954 0.093597 0 0.00295198 3.57628e-07
22 1 0.501005 0.794954 0.0935971 0 0.00295234 2.38419e-07
23 1 0.708831 0.919954 0.0935971 0 -0.480813 -2.38419e-07
24 1 0.208831 0.919954 0.093597 0 -0.480813 5.96046e-07
25 1 0.989989 0.0866205 0.593597 0 0.480818 -9.53674e-07
26 1 0.489989 0.0866205 0.593597 0 0.480819 -8.34465e-07
27 1 0.254047 0.0449538 0.093597 0 0.294314 9.53674e-07
28 1 0.754047 0.0449538 0.093597 0 0.294315 5.96046e-07
29 1 0.197815 0.211621 0.593597 0 -0.00295091 -5.96046e-07
30 1 0.697815 0.211621 0.593597 0 -0.00295174 -3.57628e-07
31 1 0.961873 0.169954 0.093597 0 -0.00862288 9.53674e-07
32 1 0.461873 0.169954 0.0935971 0 -0.00862324 0
ITEM: TIMESTEP
1
ITEM: NUMBER OF ATOMS
32
ITEM: BOX BOUNDS xy xz yz pp pp pp
-2.1013021469116211e-03 8.5555198192596436e+00 2.1588695049285889e+00
-4.1524946689605713e-02 2.2124402940273285e+01 -0.0000000000000000e+00
-1.4066457748413086e-02 5.1965324282646179e+00 0.0000000000000000e+00
ITEM: ATOMS id type xs ys zs fx fy fz
1 1 0.905639 0.33663 0.593597 0 0.00256419 1.19209e-07
2 1 0.405639 0.33663 0.593597 0 0.00256515 1.19209e-07
3 1 0.169695 0.294967 0.0935971 0 0.0117269 0
4 1 0.669695 0.294967 0.0935971 0 0.0117265 3.57628e-07
5 1 0.113468 0.46162 0.593597 0 0.000317454 5.96046e-07
6 1 0.613468 0.46162 0.593597 0 0.000316978 1.19209e-07
7 1 0.877526 0.419953 0.0935971 0 -0.000974178 -4.76837e-07
8 1 0.377526 0.419953 0.0935971 0 -0.000974178 -4.76837e-07
9 1 0.821294 0.586621 0.593597 0 0.00097084 -1.19209e-07
10 1 0.321294 0.586621 0.593597 0 0.00097096 -1.19209e-07
11 1 0.0291253 0.711607 0.593597 0 -0.0117278 -4.76837e-07
12 1 0.529125 0.711607 0.593597 0 -0.0117271 -5.96046e-07
13 1 0.793182 0.669945 0.0935971 0 -0.00256622 3.57628e-07
14 1 0.0853522 0.544954 0.0935971 0 -0.000317693 -2.38419e-07
15 1 0.585352 0.544954 0.0935971 0 -0.000317693 0
16 1 0.293182 0.669945 0.0935971 0 -0.00256646 4.76837e-07
17 1 0.736922 0.836694 0.593597 0 -0.0909873 1.19209e-07
18 1 0.236922 0.836694 0.593597 0 -0.0909876 0
19 1 0.945624 0.9591 0.593597 0 0.0671054 -2.38419e-07
20 1 0.445624 0.9591 0.593597 0 0.067106 1.19209e-07
21 1 0.000996586 0.794979 0.0935971 0 -0.0992854 2.38419e-07
22 1 0.500997 0.794979 0.0935971 0 -0.0992851 1.19209e-07
23 1 0.710221 0.915836 0.0935971 0 -0.0363035 -2.38419e-07
24 1 0.210221 0.915836 0.093597 0 -0.0363035 2.38419e-07
25 1 0.9886 0.0907383 0.593597 0 0.0363053 -1.19209e-07
26 1 0.4886 0.0907383 0.593597 0 0.0363051 2.38419e-07
27 1 0.253197 0.0474744 0.093597 0 -0.0671036 3.57628e-07
28 1 0.753197 0.0474744 0.093597 0 -0.0671033 0
29 1 0.197824 0.211595 0.593597 0 0.0992852 -1.19209e-07
30 1 0.697824 0.211595 0.593597 0 0.0992849 -1.19209e-07
31 1 0.961898 0.16988 0.0935971 0 0.0909899 -1.19209e-07
32 1 0.461898 0.16988 0.0935971 0 0.0909898 -1.19209e-07
ITEM: TIMESTEP
2
ITEM: NUMBER OF ATOMS
32
ITEM: BOX BOUNDS xy xz yz pp pp pp
-2.1013021469116211e-03 8.5555198192596436e+00 2.1588695049285889e+00
-4.1524946689605713e-02 2.2124402940273285e+01 -0.0000000000000000e+00
-1.4066457748413086e-02 5.1965324282646179e+00 0.0000000000000000e+00
ITEM: ATOMS id type xs ys zs fx fy fz
1 1 0.905617 0.336695 0.593597 0 0.0545233 0
2 1 0.405617 0.336695 0.593597 0 0.0545225 -2.38419e-07
3 1 0.169597 0.295257 0.0935971 0 0.0637794 -2.38419e-07
4 1 0.669597 0.295257 0.0935971 0 0.0637792 -2.38419e-07
5 1 0.113466 0.461628 0.593597 0 0.00333571 -1.19209e-06
6 1 0.613466 0.461628 0.593597 0 0.00333595 -4.76837e-07
7 1 0.877534 0.419929 0.0935971 0 0.0141448 5.96046e-07
8 1 0.377534 0.419929 0.0935971 0 0.0141456 8.34465e-07
9 1 0.821286 0.586645 0.593597 0 -0.0141439 4.76837e-07
10 1 0.321286 0.586645 0.593597 0 -0.0141441 2.38419e-07
11 1 0.0292232 0.711317 0.593597 0 -0.0637791 5.96046e-07
12 1 0.529223 0.711317 0.593597 0 -0.0637796 1.07288e-06
13 1 0.793204 0.669879 0.0935971 0 -0.0545232 -9.53674e-07
14 1 0.0853548 0.544947 0.0935971 0 -0.00333953 3.57628e-07
15 1 0.585355 0.544947 0.0935971 0 -0.00333953 -1.19209e-07
16 1 0.293204 0.669879 0.0935971 0 -0.0545229 -8.34465e-07
17 1 0.737667 0.834488 0.593597 0 0.0259752 0
18 1 0.237667 0.834488 0.593597 0 0.025975 3.57628e-07
19 1 0.94528 0.960119 0.593597 0 0.00221026 5.96046e-07
20 1 0.44528 0.960119 0.593597 0 0.00220978 0
21 1 0.0018136 0.792558 0.0935971 0 -0.00378394 -2.38419e-07
22 1 0.501814 0.792558 0.0935971 0 -0.0037843 -4.76837e-07
23 1 0.710863 0.913933 0.093597 0 -0.00810456 -2.38419e-07
24 1 0.210863 0.913933 0.0935971 0 -0.00810528 -2.38419e-07
25 1 0.987958 0.0926414 0.593597 0 0.0081054 2.38419e-07
26 1 0.487958 0.0926414 0.593597 0 0.0081054 -2.38419e-07
27 1 0.25354 0.046455 0.0935971 0 -0.00220776 0
28 1 0.75354 0.046455 0.0935971 0 -0.00220752 0
29 1 0.197007 0.214017 0.593597 0 0.00378454 1.19209e-07
30 1 0.697007 0.214017 0.593597 0 0.0037843 0
31 1 0.961154 0.172087 0.0935971 0 -0.0259756 2.38419e-07
32 1 0.461154 0.172087 0.0935971 0 -0.0259756 0
ITEM: TIMESTEP
3
ITEM: NUMBER OF ATOMS
32
ITEM: BOX BOUNDS xy xz yz pp pp pp
-2.1013021469116211e-03 8.5555198192596436e+00 2.1588695049285889e+00
-4.1524946689605713e-02 2.2124402940273285e+01 -0.0000000000000000e+00
-1.4066457748413086e-02 5.1965324282646179e+00 0.0000000000000000e+00
ITEM: ATOMS id type xs ys zs fx fy fz
1 1 0.905157 0.338057 0.593597 0 0.00477684 -1.19209e-07
2 1 0.405157 0.338057 0.593597 0 0.00477648 2.38419e-07
3 1 0.169034 0.296927 0.0935971 0 -0.0092181 2.38419e-07
4 1 0.669034 0.296927 0.0935971 0 -0.0092175 0
5 1 0.113437 0.461713 0.593597 0 0.0172929 5.96046e-07
6 1 0.613437 0.461713 0.593597 0 0.0172937 5.96046e-07
7 1 0.87742 0.420268 0.0935971 0 0.0413983 -4.76837e-07
8 1 0.37742 0.420268 0.0935971 0 0.0413973 -8.34465e-07
9 1 0.8214 0.586307 0.593597 0 -0.0414001 -7.15256e-07
10 1 0.3214 0.586307 0.593597 0 -0.0413997 -2.38419e-07
11 1 0.0297867 0.709647 0.593597 0 0.00921953 -3.57628e-07
12 1 0.529787 0.709647 0.593597 0 0.00921941 -8.34465e-07
13 1 0.793663 0.668518 0.093597 0 -0.00477779 8.34465e-07
14 1 0.0853834 0.544862 0.0935971 0 -0.0172929 -3.57628e-07
15 1 0.585383 0.544862 0.0935971 0 -0.0172931 -1.19209e-07
16 1 0.293663 0.668518 0.0935971 0 -0.00477779 5.96046e-07
17 1 0.737721 0.834327 0.593597 0 -0.00552845 -5.96046e-07
18 1 0.237721 0.834327 0.593597 0 -0.00552821 -3.57628e-07
19 1 0.945137 0.960542 0.593597 0 -0.00766826 -3.57628e-07
20 1 0.445137 0.960542 0.593597 0 -0.0076685 -2.38419e-07
21 1 0.00214027 0.791589 0.0935971 0 -0.0113811 1.19209e-07
22 1 0.50214 0.791589 0.093597 0 -0.0113809 8.34465e-07
23 1 0.711162 0.913046 0.093597 0 0.0170051 9.53674e-07
24 1 0.211162 0.913046 0.093597 0 0.0170054 3.57628e-07
25 1 0.987659 0.0935283 0.593597 0 -0.0170045 4.76837e-07
26 1 0.487658 0.0935283 0.593597 0 -0.0170044 0
27 1 0.253683 0.0460324 0.0935971 0 0.00766778 -2.38419e-07
28 1 0.753683 0.0460324 0.0935971 0 0.00766754 0
29 1 0.19668 0.214985 0.593597 0 0.0113809 1.19209e-07
30 1 0.69668 0.214985 0.593597 0 0.0113813 2.38419e-07
31 1 0.9611 0.172247 0.0935971 0 0.0055294 -3.57628e-07
32 1 0.4611 0.172247 0.0935971 0 0.0055294 0
ITEM: TIMESTEP
4
ITEM: NUMBER OF ATOMS
32
ITEM: BOX BOUNDS xy xz yz pp pp pp
-2.1013021469116211e-03 8.5555198192596436e+00 2.1588695049285889e+00
-4.1524946689605713e-02 2.2124402940273285e+01 -0.0000000000000000e+00
-1.4066457748413086e-02 5.1965324282646179e+00 0.0000000000000000e+00
ITEM: ATOMS id type xs ys zs fx fy fz
1 1 0.905039 0.338408 0.593597 0 0.00404918 -2.38419e-07
2 1 0.405039 0.338408 0.593597 0 0.00404942 -3.57628e-07
3 1 0.168968 0.297124 0.0935971 0 0.00178683 3.57628e-07
4 1 0.668968 0.297124 0.0935971 0 0.00178647 0
5 1 0.11334 0.462 0.593597 0 -0.00817966 0
6 1 0.61334 0.462 0.593597 0 -0.0081799 -3.57628e-07
7 1 0.877179 0.420982 0.0935971 0 0.0018419 1.19209e-07
8 1 0.377179 0.420982 0.0935971 0 0.00184155 3.57628e-07
9 1 0.821641 0.585592 0.593597 0 -0.0018419 0
10 1 0.321642 0.585592 0.593597 0 -0.00184202 0
11 1 0.0298529 0.709451 0.593597 0 -0.00178683 1.19209e-07
12 1 0.529853 0.709451 0.593597 0 -0.00178695 0
13 1 0.793782 0.668166 0.0935971 0 -0.00404966 0
14 1 0.0854802 0.544575 0.0935971 0 0.00817966 0
15 1 0.58548 0.544575 0.0935971 0 0.00817966 0
16 1 0.293782 0.668166 0.0935971 0 -0.00404954 -2.38419e-07
17 1 0.737761 0.834209 0.593597 0 -0.0046525 5.96046e-07
18 1 0.237761 0.834209 0.593597 0 -0.00465286 0
19 1 0.945149 0.960509 0.593597 0 -0.0104991 0
20 1 0.445149 0.960509 0.593597 0 -0.0104989 2.38419e-07
21 1 0.00226669 0.791215 0.0935971 0 0.00291467 -2.38419e-07
22 1 0.502267 0.791215 0.0935971 0 0.00291514 0
23 1 0.711134 0.913131 0.0935971 0 0.000647306 -4.76837e-07
24 1 0.211134 0.913131 0.0935971 0 0.000647783 0
25 1 0.987687 0.0934438 0.593597 0 -0.000647902 -1.19209e-07
26 1 0.487687 0.0934438 0.593597 0 -0.000647902 0
27 1 0.253672 0.0460658 0.0935971 0 0.0104991 1.19209e-07
28 1 0.753672 0.0460659 0.0935971 0 0.010499 0
29 1 0.196554 0.21536 0.593597 0 -0.00291419 0
30 1 0.696554 0.21536 0.593597 0 -0.00291455 -2.38419e-07
31 1 0.96106 0.172366 0.0935971 0 0.00465345 1.19209e-07
32 1 0.46106 0.172366 0.0935971 0 0.00465322 2.38419e-07
ITEM: TIMESTEP
5
ITEM: NUMBER OF ATOMS
32
ITEM: BOX BOUNDS xy xz yz pp pp pp
-2.1013021469116211e-03 8.5555198192596436e+00 2.1588695049285889e+00
-4.1524946689605713e-02 2.2124402940273285e+01 -0.0000000000000000e+00
-1.4066457748413086e-02 5.1965324282646179e+00 0.0000000000000000e+00
ITEM: ATOMS id type xs ys zs fx fy fz
1 1 0.905001 0.338519 0.593597 0 -0.00441194 1.19209e-07
2 1 0.405001 0.338519 0.593597 0 -0.00441194 5.96046e-07
3 1 0.16895 0.297177 0.0935971 0 0.00330126 -2.38419e-07
4 1 0.66895 0.297177 0.0935971 0 0.0033015 -4.76837e-07
5 1 0.113383 0.461872 0.593597 0 0.000578761 1.19209e-07
6 1 0.613383 0.461872 0.593597 0 0.000578403 1.19209e-07
7 1 0.877144 0.421087 0.0935971 0 0.000274897 0
8 1 0.377144 0.421087 0.0935971 0 0.000274658 -4.76837e-07
9 1 0.821677 0.585488 0.593597 0 -0.000274658 1.19209e-07
10 1 0.321677 0.585488 0.593597 0 -0.000274897 -1.19209e-07
11 1 0.0298708 0.709398 0.593597 0 -0.0033015 -4.76837e-07
12 1 0.529871 0.709398 0.593597 0 -0.00330162 0
13 1 0.793819 0.668055 0.0935971 0 0.00441206 0
14 1 0.0854371 0.544703 0.0935971 0 -0.000578642 -1.19209e-07
15 1 0.585437 0.544703 0.0935971 0 -0.000579 0
16 1 0.293819 0.668055 0.0935971 0 0.00441206 3.57628e-07
17 1 0.737795 0.834109 0.593597 0 -0.00400651 -2.38419e-07
18 1 0.237795 0.834109 0.593597 0 -0.00400591 0
19 1 0.945217 0.960306 0.593597 0 0.00047791 -1.19209e-07
20 1 0.445217 0.960306 0.593597 0 0.000478029 -1.19209e-07
21 1 0.00226024 0.791234 0.0935971 0 -0.00130165 4.76837e-07
22 1 0.50226 0.791234 0.0935971 0 -0.00130165 -2.38419e-07
23 1 0.711127 0.913151 0.093597 0 0.00382459 4.76837e-07
24 1 0.211127 0.913151 0.0935971 0 0.00382471 0
25 1 0.987694 0.0934233 0.593597 0 -0.003824 -2.38419e-07
26 1 0.487694 0.0934233 0.593597 0 -0.00382376 4.76837e-07
27 1 0.253603 0.0462688 0.0935971 0 -0.000478029 -1.19209e-07
28 1 0.753603 0.0462688 0.0935971 0 -0.000478268 0
29 1 0.19656 0.215341 0.593597 0 0.00130045 -2.38419e-07
30 1 0.69656 0.215341 0.593597 0 0.00130153 3.57628e-07
31 1 0.961026 0.172466 0.0935971 0 0.00400615 1.19209e-07
32 1 0.461026 0.172466 0.0935971 0 0.00400698 -1.19209e-07
ITEM: TIMESTEP
6
ITEM: NUMBER OF ATOMS
32
ITEM: BOX BOUNDS xy xz yz pp pp pp
-2.1013021469116211e-03 8.5555198192596436e+00 2.1588695049285889e+00
-4.1524946689605713e-02 2.2124402940273285e+01 -0.0000000000000000e+00
-1.4066457748413086e-02 5.1965324282646179e+00 0.0000000000000000e+00
ITEM: ATOMS id type xs ys zs fx fy fz
1 1 0.905018 0.338469 0.593597 0 -0.000995636 0
2 1 0.405018 0.338469 0.593597 0 -0.000995398 -5.96046e-07
3 1 0.168924 0.297254 0.0935971 0 0.00177085 1.19209e-07
4 1 0.668924 0.297254 0.0935971 0 0.00177121 4.76837e-07
5 1 0.113392 0.461846 0.593597 0 0.000637293 -3.57628e-07
6 1 0.613392 0.461846 0.593597 0 0.000637531 0
7 1 0.877132 0.421122 0.0935971 0 0.000101447 -1.19209e-07
8 1 0.377132 0.421122 0.0935971 0 0.000101805 2.38419e-07
9 1 0.821688 0.585453 0.593597 0 -0.000101686 -1.19209e-07
10 1 0.321688 0.585453 0.593597 0 -0.000101328 1.19209e-07
11 1 0.0298967 0.709321 0.593597 0 -0.00177121 7.15256e-07
12 1 0.529897 0.709321 0.593597 0 -0.00177085 3.57628e-07
13 1 0.793802 0.668105 0.0935971 0 0.000995278 -3.57628e-07
14 1 0.0854284 0.544728 0.0935971 0 -0.00063777 2.38419e-07
15 1 0.585428 0.544728 0.0935971 0 -0.000637293 1.19209e-07
16 1 0.293802 0.668105 0.0935971 0 0.00099504 -5.96046e-07
17 1 0.73783 0.834005 0.593597 0 -5.85318e-05 -1.19209e-07
18 1 0.23783 0.834005 0.593597 0 -5.85318e-05 2.38419e-07
19 1 0.945234 0.960256 0.593597 0 -0.000347376 0
20 1 0.445234 0.960256 0.593597 0 -0.000347614 1.19209e-07
21 1 0.00226659 0.791215 0.0935971 0 0.0018127 -3.57628e-07
22 1 0.502267 0.791215 0.0935971 0 0.00181222 0
23 1 0.711101 0.913228 0.0935971 0 -0.00212431 0
24 1 0.211101 0.913228 0.0935971 0 -0.00212479 -1.19209e-07
25 1 0.98772 0.0933461 0.593597 0 0.00212431 0
26 1 0.48772 0.0933461 0.593597 0 0.00212431 -3.57628e-07
27 1 0.253587 0.0463179 0.0935971 0 0.000349045 0
28 1 0.753587 0.0463179 0.0935971 0 0.000348449 3.57628e-07
29 1 0.196554 0.215359 0.593597 0 -0.00181174 1.19209e-07
30 1 0.696554 0.215359 0.593597 0 -0.00181258 0
31 1 0.960991 0.172569 0.0935971 0 5.78165e-05 -3.57628e-07
32 1 0.460991 0.172569 0.0935971 0 5.73397e-05 2.38419e-07
ITEM: TIMESTEP
7
ITEM: NUMBER OF ATOMS
32
ITEM: BOX BOUNDS xy xz yz pp pp pp
-2.1013021469116211e-03 8.5555198192596436e+00 2.1588695049285889e+00
-4.1524946689605713e-02 2.2124402940273285e+01 -0.0000000000000000e+00
-1.4066457748413086e-02 5.1965324282646179e+00 0.0000000000000000e+00
ITEM: ATOMS id type xs ys zs fx fy fz
1 1 0.905025 0.338448 0.593597 0 1.54972e-06 1.19209e-07
2 1 0.405025 0.338448 0.593597 0 1.19209e-06 2.38419e-07
3 1 0.168912 0.297289 0.0935971 0 1.15633e-05 -3.57628e-07
4 1 0.668912 0.297289 0.0935971 0 1.15633e-05 0
5 1 0.11339 0.461851 0.593597 0 -0.000267744 3.57628e-07
6 1 0.61339 0.461851 0.593597 0 -0.000267386 0
7 1 0.87713 0.421128 0.0935971 0 0.000175953 -2.38419e-07
8 1 0.37713 0.421128 0.0935971 0 0.000176072 -1.19209e-07
9 1 0.821691 0.585446 0.593597 0 -0.000175953 -4.76837e-07
10 1 0.321691 0.585446 0.593597 0 -0.00017643 -3.57628e-07
11 1 0.0299085 0.709286 0.593597 0 -1.14441e-05 -1.19209e-07
12 1 0.529909 0.709286 0.593597 0 -1.14441e-05 -4.76837e-07
13 1 0.793795 0.668126 0.0935971 0 -1.3113e-06 4.76837e-07
14 1 0.0854301 0.544723 0.0935971 0 0.000267625 -2.38419e-07
15 1 0.58543 0.544723 0.0935971 0 0.000267386 0
16 1 0.293795 0.668126 0.0935971 0 -1.19209e-06 4.76837e-07
17 1 0.737835 0.83399 0.593597 0 -0.00023675 0
18 1 0.237835 0.83399 0.593597 0 -0.000236988 -2.38419e-07
19 1 0.945238 0.960245 0.593597 0 0.000583053 2.38419e-07
20 1 0.445238 0.960245 0.593597 0 0.000582695 0
21 1 0.00225912 0.791237 0.0935971 0 1.38283e-05 2.38419e-07
22 1 0.502259 0.791237 0.0935971 0 1.43051e-05 3.57628e-07
23 1 0.711107 0.91321 0.0935971 0 -0.000144243 -1.19209e-07
24 1 0.211107 0.91321 0.0935971 0 -0.000143886 0
25 1 0.987714 0.0933642 0.593597 0 0.000144243 1.19209e-07
26 1 0.487714 0.0933642 0.593597 0 0.000144124 1.19209e-07
27 1 0.253583 0.0463296 0.0935971 0 -0.00058341 0
28 1 0.753583 0.0463296 0.0935971 0 -0.00058341 -1.19209e-07
29 1 0.196561 0.215337 0.593597 0 -1.41859e-05 4.76837e-07
30 1 0.696561 0.215337 0.593597 0 -1.40667e-05 0
31 1 0.960986 0.172585 0.0935971 0 0.000237226 0
32 1 0.460986 0.172585 0.0935971 0 0.000237465 -3.57628e-07
ITEM: TIMESTEP
8
ITEM: NUMBER OF ATOMS
32
ITEM: BOX BOUNDS xy xz yz pp pp pp
-2.1013021469116211e-03 8.5555198192596436e+00 2.1588695049285889e+00
-4.1524946689605713e-02 2.2124402940273285e+01 -0.0000000000000000e+00
-1.4066457748413086e-02 5.1965324282646179e+00 0.0000000000000000e+00
ITEM: ATOMS id type xs ys zs fx fy fz
1 1 0.905025 0.338447 0.593597 0 -4.17233e-06 -2.38419e-07
2 1 0.405025 0.338447 0.593597 0 -3.93391e-06 0
3 1 0.168911 0.297291 0.0935971 0 4.17233e-05 3.57628e-07
4 1 0.668911 0.297291 0.0935971 0 4.17233e-05 -1.19209e-07
5 1 0.113392 0.461847 0.593597 0 -5.57899e-05 -3.57628e-07
6 1 0.613392 0.461847 0.593597 0 -5.62668e-05 0
7 1 0.877129 0.421131 0.0935971 0 9.46522e-05 2.38419e-07
8 1 0.377129 0.421131 0.0935971 0 9.47714e-05 0
9 1 0.821692 0.585443 0.593597 0 -9.48906e-05 4.76837e-07
10 1 0.321692 0.585443 0.593597 0 -9.46522e-05 5.96046e-07
11 1 0.0299092 0.709284 0.593597 0 -4.1604e-05 3.57628e-07
12 1 0.529909 0.709284 0.593597 0 -4.1604e-05 3.57628e-07
13 1 0.793795 0.668127 0.0935971 0 4.41074e-06 -3.57628e-07
14 1 0.0854286 0.544728 0.0935971 0 5.56707e-05 -2.38419e-07
15 1 0.585429 0.544728 0.0935971 0 5.57899e-05 -2.38419e-07
16 1 0.293795 0.668127 0.0935971 0 4.05312e-06 -2.38419e-07
17 1 0.737836 0.833985 0.593597 0 0.000120282 1.19209e-07
18 1 0.237836 0.833985 0.593597 0 0.000120521 2.38419e-07
19 1 0.945234 0.960254 0.593597 0 -4.20809e-05 0
20 1 0.445234 0.960254 0.593597 0 -4.23193e-05 -1.19209e-07
21 1 0.00225865 0.791238 0.0935971 0 -0.000155568 -4.76837e-07
22 1 0.502259 0.791238 0.0935971 0 -0.000156283 -7.15256e-07
23 1 0.711108 0.913207 0.0935971 0 -0.000161171 2.38419e-07
24 1 0.211108 0.913207 0.0935971 0 -0.000161171 2.38419e-07
25 1 0.987713 0.0933677 0.593597 0 0.000161171 0
26 1 0.487713 0.0933677 0.593597 0 0.000160456 0
27 1 0.253586 0.04632 0.0935971 0 4.23193e-05 0
28 1 0.753586 0.04632 0.0935971 0 4.3273e-05 0
29 1 0.196562 0.215336 0.593597 0 0.000155926 -3.57628e-07
30 1 0.696562 0.215336 0.593597 0 0.000156164 -1.19209e-07
31 1 0.960984 0.17259 0.0935971 0 -0.00012064 1.19209e-07
32 1 0.460984 0.17259 0.0935971 0 -0.000120759 2.38419e-07
ITEM: TIMESTEP
9
ITEM: NUMBER OF ATOMS
32
ITEM: BOX BOUNDS xy xz yz pp pp pp
-2.1013021469116211e-03 8.5555198192596436e+00 2.1588695049285889e+00
-4.1524946689605713e-02 2.2124402940273285e+01 -0.0000000000000000e+00
-1.4066457748413086e-02 5.1965324282646179e+00 0.0000000000000000e+00
ITEM: ATOMS id type xs ys zs fx fy fz
1 1 0.905026 0.338447 0.593597 0 6.40154e-05 0
2 1 0.405026 0.338447 0.593597 0 6.42538e-05 0
3 1 0.168911 0.297292 0.0935971 0 2.80142e-05 -2.38419e-07
4 1 0.668911 0.297292 0.0935971 0 2.80142e-05 1.19209e-07
5 1 0.113393 0.461845 0.593597 0 2.70605e-05 2.38419e-07
6 1 0.613393 0.461845 0.593597 0 2.71797e-05 -1.19209e-07
7 1 0.877128 0.421134 0.0935971 0 7.7486e-06 0
8 1 0.377128 0.421134 0.0935971 0 7.51019e-06 -1.19209e-07
9 1 0.821693 0.58544 0.593597 0 -7.62939e-06 -2.38419e-07
10 1 0.321693 0.58544 0.593597 0 -7.39098e-06 -1.19209e-07
11 1 0.0299097 0.709282 0.593597 0 -2.86102e-05 -3.57628e-07
12 1 0.52991 0.709282 0.593597 0 -2.8491e-05 -2.38419e-07
13 1 0.793795 0.668128 0.0935971 0 -6.48499e-05 -1.19209e-07
14 1 0.085428 0.54473 0.0935971 0 -2.69413e-05 2.38419e-07
15 1 0.585428 0.54473 0.0935971 0 -2.68221e-05 2.38419e-07
16 1 0.293795 0.668128 0.0935971 0 -6.40154e-05 1.19209e-07
17 1 0.737836 0.833986 0.593597 0 -2.47955e-05 -2.38419e-07
18 1 0.237836 0.833986 0.593597 0 -2.45571e-05 -4.76837e-07
19 1 0.945234 0.960255 0.593597 0 2.64645e-05 0
20 1 0.445234 0.960255 0.593597 0 2.67029e-05 0
21 1 0.00225964 0.791235 0.093597 0 -7.236e-05 5.96046e-07
22 1 0.50226 0.791235 0.093597 0 -7.20024e-05 5.96046e-07
23 1 0.711109 0.913203 0.0935971 0 4.6134e-05 0
24 1 0.211109 0.913203 0.0935971 0 4.47035e-05 0
25 1 0.987711 0.0933717 0.593597 0 -4.48227e-05 1.19209e-07
26 1 0.487711 0.0933717 0.593597 0 -4.43459e-05 -2.38419e-07
27 1 0.253586 0.0463191 0.0935971 0 -2.69413e-05 0
28 1 0.753586 0.0463191 0.0935971 0 -2.77758e-05 1.19209e-07
29 1 0.196561 0.215339 0.593597 0 7.22408e-05 2.38419e-07
30 1 0.696561 0.215339 0.593597 0 7.22408e-05 -2.38419e-07
31 1 0.960985 0.172588 0.0935971 0 2.52724e-05 0
32 1 0.460985 0.172588 0.0935971 0 2.47955e-05 1.19209e-07
ITEM: TIMESTEP
10
ITEM: NUMBER OF ATOMS
32
ITEM: BOX BOUNDS xy xz yz pp pp pp
-2.1013021469116211e-03 8.5555198192596436e+00 2.1588695049285889e+00
-4.1524946689605713e-02 2.2124402940273285e+01 -0.0000000000000000e+00
-1.4066457748413086e-02 5.1965324282646179e+00 0.0000000000000000e+00
ITEM: ATOMS id type xs ys zs fx fy fz
1 1 0.905025 0.338448 0.593597 0 4.43459e-05 3.57628e-07
2 1 0.405025 0.338448 0.593597 0 4.3869e-05 -4.76837e-07
3 1 0.168911 0.297293 0.0935971 0 2.06232e-05 0
4 1 0.668911 0.297293 0.0935971 0 2.06232e-05 0
5 1 0.113392 0.461845 0.593597 0 2.63453e-05 -3.57628e-07
6 1 0.613392 0.461845 0.593597 0 2.64645e-05 2.38419e-07
7 1 0.877128 0.421135 0.0935971 0 -1.07288e-06 -2.38419e-07
8 1 0.377128 0.421135 0.0935971 0 -8.34465e-07 3.57628e-07
9 1 0.821693 0.58544 0.593597 0 8.34465e-07 1.19209e-07
10 1 0.321693 0.58544 0.593597 0 9.53674e-07 -3.57628e-07
11 1 0.0299099 0.709282 0.593597 0 -2.01464e-05 -1.19209e-07
12 1 0.52991 0.709282 0.593597 0 -2.03848e-05 0
13 1 0.793795 0.668126 0.0935971 0 -4.3869e-05 3.57628e-07
14 1 0.0854281 0.54473 0.0935971 0 -2.65837e-05 3.57628e-07
15 1 0.585428 0.54473 0.0935971 0 -2.63453e-05 -1.19209e-07
16 1 0.293795 0.668126 0.0935971 0 -4.45843e-05 -1.19209e-07
17 1 0.737836 0.833986 0.593597 0 -2.08616e-05 0
18 1 0.237836 0.833986 0.593597 0 -2.09808e-05 5.96046e-07
19 1 0.945234 0.960256 0.593597 0 -3.29018e-05 1.19209e-07
20 1 0.445234 0.960256 0.593597 0 -3.29018e-05 4.76837e-07
21 1 0.00226033 0.791233 0.0935971 0 2.44379e-05 -2.38419e-07
22 1 0.50226 0.791233 0.0935971 0 2.40803e-05 -3.57628e-07
23 1 0.711109 0.913203 0.0935971 0 -4.60148e-05 -1.19209e-07
24 1 0.211109 0.913203 0.0935971 0 -4.50611e-05 -2.38419e-07
25 1 0.987711 0.0933714 0.593597 0 4.48227e-05 0
26 1 0.487711 0.0933714 0.593597 0 4.45843e-05 3.57628e-07
27 1 0.253587 0.0463184 0.0935971 0 3.32594e-05 -2.38419e-07
28 1 0.753587 0.0463184 0.0935971 0 3.40939e-05 -2.38419e-07
29 1 0.19656 0.215341 0.593597 0 -2.38419e-05 -1.19209e-07
30 1 0.69656 0.215341 0.593597 0 -2.38419e-05 2.38419e-07
31 1 0.960985 0.172588 0.0935971 0 2.02656e-05 1.19209e-07
32 1 0.460984 0.172588 0.0935971 0 2.06232e-05 -3.57628e-07
ITEM: TIMESTEP
11
ITEM: NUMBER OF ATOMS
32
ITEM: BOX BOUNDS xy xz yz pp pp pp
-2.1013021469116211e-03 8.5555198192596436e+00 2.1588695049285889e+00
-4.1524946689605713e-02 2.2124402940273285e+01 -0.0000000000000000e+00
-1.4066457748413086e-02 5.1965324282646179e+00 0.0000000000000000e+00
ITEM: ATOMS id type xs ys zs fx fy fz
1 1 0.905025 0.33845 0.593597 0 -1.52588e-05 -1.19209e-07
2 1 0.405025 0.33845 0.593597 0 -1.49012e-05 0
3 1 0.16891 0.297294 0.0935971 0 1.19209e-06 1.19209e-07
4 1 0.66891 0.297294 0.0935971 0 1.19209e-06 -1.19209e-07
5 1 0.113392 0.461846 0.593597 0 9.17912e-06 4.76837e-07
6 1 0.613392 0.461846 0.593597 0 9.05991e-06 -1.19209e-07
7 1 0.877128 0.421135 0.0935971 0 1.54972e-06 1.19209e-07
8 1 0.377128 0.421135 0.0935971 0 1.43051e-06 -2.38419e-07
9 1 0.821693 0.58544 0.593597 0 -1.78814e-06 1.19209e-07
10 1 0.321693 0.58544 0.593597 0 -2.02656e-06 1.19209e-07
11 1 0.0299102 0.709281 0.593597 0 -9.53674e-07 3.57628e-07
12 1 0.52991 0.709281 0.593597 0 -1.19209e-06 0
13 1 0.793796 0.668125 0.0935971 0 1.5974e-05 -1.19209e-07
14 1 0.0854283 0.544729 0.0935971 0 -8.9407e-06 -4.76837e-07
15 1 0.585428 0.544729 0.0935971 0 -9.29832e-06 0
16 1 0.293796 0.668125 0.0935971 0 1.57356e-05 -1.19209e-07
17 1 0.737836 0.833986 0.593597 0 -2.41995e-05 3.57628e-07
18 1 0.237836 0.833986 0.593597 0 -2.45571e-05 0
19 1 0.945234 0.960256 0.593597 0 -3.57628e-06 0
20 1 0.445234 0.960256 0.593597 0 -3.69549e-06 -1.19209e-07
21 1 0.0022605 0.791233 0.0935971 0 -7.15256e-06 -3.57628e-07
22 1 0.502261 0.791233 0.0935971 0 -6.91414e-06 0
23 1 0.711109 0.913202 0.0935971 0 -7.15256e-07 0
24 1 0.211109 0.913202 0.0935971 0 1.19209e-07 0
25 1 0.987711 0.0933722 0.593597 0 3.57628e-07 -1.19209e-07
26 1 0.487711 0.0933722 0.593597 0 8.34465e-07 -1.19209e-07
27 1 0.253586 0.0463187 0.093597 0 3.45707e-06 3.57628e-07
28 1 0.753586 0.0463187 0.0935971 0 3.69549e-06 0
29 1 0.19656 0.215341 0.593597 0 6.4373e-06 -1.19209e-07
30 1 0.69656 0.215341 0.593597 0 6.07967e-06 2.38419e-07
31 1 0.960984 0.172589 0.0935971 0 2.41995e-05 -1.19209e-07
32 1 0.460984 0.172589 0.0935971 0 2.46763e-05 0
ITEM: TIMESTEP
12
ITEM: NUMBER OF ATOMS
32
ITEM: BOX BOUNDS xy xz yz pp pp pp
-2.1013021469116211e-03 8.5555198192596436e+00 2.1588695049285889e+00
-4.1524946689605713e-02 2.2124402940273285e+01 -0.0000000000000000e+00
-1.4066457748413086e-02 5.1965324282646179e+00 0.0000000000000000e+00
ITEM: ATOMS id type xs ys zs fx fy fz
1 1 0.905025 0.33845 0.593597 0 -5.96046e-07 0
2 1 0.405025 0.33845 0.593597 0 -7.15256e-07 3.57628e-07
3 1 0.16891 0.297294 0.0935971 0 8.34465e-06 -1.19209e-07
4 1 0.66891 0.297294 0.0935971 0 8.34465e-06 0
5 1 0.113392 0.461846 0.593597 0 -1.12057e-05 -1.19209e-07
6 1 0.613392 0.461846 0.593597 0 -1.12057e-05 1.19209e-07
7 1 0.877128 0.421135 0.0935971 0 -3.69549e-06 1.19209e-07
8 1 0.377127 0.421135 0.0935971 0 -3.33786e-06 -1.19209e-07
9 1 0.821693 0.585439 0.593597 0 4.29153e-06 0
10 1 0.321693 0.585439 0.593597 0 4.17233e-06 0
11 1 0.0299102 0.709281 0.593597 0 -8.10623e-06 0
12 1 0.52991 0.709281 0.593597 0 -8.22544e-06 0
13 1 0.793796 0.668125 0.0935971 0 0 0
14 1 0.0854283 0.544729 0.0935971 0 1.07288e-05 -1.19209e-07
15 1 0.585428 0.544729 0.0935971 0 1.09673e-05 0
16 1 0.293796 0.668125 0.0935971 0 1.19209e-07 0
17 1 0.737836 0.833985 0.593597 0 -3.57628e-06 0
18 1 0.237836 0.833985 0.593597 0 -3.57628e-06 0
19 1 0.945234 0.960256 0.593597 0 -3.8147e-06 0
20 1 0.445234 0.960256 0.593597 0 -3.93391e-06 0
21 1 0.00226056 0.791233 0.0935971 0 1.3113e-06 0
22 1 0.502261 0.791233 0.0935971 0 1.3113e-06 0
23 1 0.711109 0.913202 0.0935971 0 -2.38419e-07 0
24 1 0.211109 0.913202 0.0935971 0 -4.76837e-07 0
25 1 0.987711 0.0933723 0.593597 0 2.38419e-07 0
26 1 0.487711 0.0933723 0.593597 0 3.57628e-07 0
27 1 0.253586 0.0463188 0.0935971 0 4.29153e-06 -1.19209e-07
28 1 0.753586 0.0463188 0.0935971 0 4.05312e-06 0
29 1 0.19656 0.215342 0.593597 0 -1.3113e-06 0
30 1 0.69656 0.215342 0.593597 0 -1.3113e-06 -2.38419e-07
31 1 0.960984 0.172589 0.0935971 0 3.21865e-06 1.19209e-07
32 1 0.460984 0.172589 0.0935971 0 3.57628e-06 1.19209e-07
ITEM: TIMESTEP
13
ITEM: NUMBER OF ATOMS
32
ITEM: BOX BOUNDS xy xz yz pp pp pp
-2.1013021469116211e-03 8.5555198192596436e+00 2.1588695049285889e+00
-4.1524946689605713e-02 2.2124402940273285e+01 -0.0000000000000000e+00
-1.4066457748413086e-02 5.1965324282646179e+00 0.0000000000000000e+00
ITEM: ATOMS id type xs ys zs fx fy fz
1 1 0.905025 0.338449 0.593597 0 -9.53674e-07 -1.19209e-07
2 1 0.405025 0.338449 0.593597 0 -1.3113e-06 -2.38419e-07
3 1 0.16891 0.297294 0.0935971 0 1.3113e-06 2.38419e-07
4 1 0.66891 0.297294 0.0935971 0 1.54972e-06 1.19209e-07
5 1 0.113392 0.461846 0.593597 0 -1.78814e-06 -1.19209e-07
6 1 0.613392 0.461846 0.593597 0 -1.66893e-06 0
7 1 0.877128 0.421135 0.0935971 0 5.00679e-06 0
8 1 0.377128 0.421135 0.0935971 0 4.64916e-06 0
9 1 0.821693 0.58544 0.593597 0 -5.00679e-06 -1.19209e-07
10 1 0.321693 0.58544 0.593597 0 -5.126e-06 1.19209e-07
11 1 0.0299103 0.709281 0.593597 0 -2.02656e-06 -3.57628e-07
12 1 0.52991 0.709281 0.593597 0 -1.19209e-06 1.19209e-07
13 1 0.793796 0.668125 0.0935971 0 8.34465e-07 -1.19209e-07
14 1 0.0854283 0.544729 0.0935971 0 2.02656e-06 3.57628e-07
15 1 0.585428 0.544729 0.0935971 0 1.90735e-06 -2.38419e-07
16 1 0.293796 0.668125 0.0935971 0 1.07288e-06 1.19209e-07
17 1 0.737836 0.833985 0.593597 0 4.76837e-07 -1.19209e-07
18 1 0.237836 0.833985 0.593597 0 5.96046e-07 0
19 1 0.945234 0.960256 0.593597 0 -4.76837e-07 0
20 1 0.445234 0.960255 0.593597 0 1.19209e-07 1.19209e-07
21 1 0.00226056 0.791233 0.0935971 0 3.57628e-07 3.57628e-07
22 1 0.502261 0.791233 0.0935971 0 2.38419e-07 0
23 1 0.711109 0.913202 0.0935971 0 2.26498e-06 1.19209e-07
24 1 0.211109 0.913202 0.0935971 0 2.14577e-06 0
25 1 0.987711 0.0933723 0.593597 0 -2.02656e-06 0
26 1 0.487711 0.0933723 0.593597 0 -2.74181e-06 0
27 1 0.253586 0.0463189 0.0935971 0 2.38419e-07 0
28 1 0.753586 0.0463189 0.0935971 0 -1.19209e-07 -2.38419e-07
29 1 0.19656 0.215342 0.593597 0 -1.19209e-07 0
30 1 0.69656 0.215342 0.593597 0 0 1.19209e-07
31 1 0.960984 0.172589 0.0935971 0 0 -1.19209e-07
32 1 0.460984 0.172589 0.0935971 0 -2.38419e-07 0
ITEM: TIMESTEP
14
ITEM: NUMBER OF ATOMS
32
ITEM: BOX BOUNDS xy xz yz pp pp pp
-2.1013021469116211e-03 8.5555198192596436e+00 2.1588695049285889e+00
-4.1524946689605713e-02 2.2124402940273285e+01 -0.0000000000000000e+00
-1.4066457748413086e-02 5.1965324282646179e+00 0.0000000000000000e+00
ITEM: ATOMS id type xs ys zs fx fy fz
1 1 0.905025 0.338449 0.593597 0 8.34465e-07 0
2 1 0.405025 0.338449 0.593597 0 1.07288e-06 2.38419e-07
3 1 0.16891 0.297294 0.0935971 0 1.3113e-06 -3.57628e-07