ITEM: TIMESTEP
0
ITEM: NUMBER OF ATOMS
56
ITEM: BOX BOUNDS xy xz yz pp pp pp
-4.6521237492561340e+00 1.2206987559795380e+01 -4.7683715820312500e-07
-7.5370073318481445e-03 5.5339480042457581e+00 -4.6302355527877808e+00
-3.2569408416748047e-02 1.9052529454231262e+01 2.8610229492187500e-06
ITEM: ATOMS id type xs ys zs fx fy fz
1 1 0.599689 1 0.132369 0 -0.0406858 0.135928
2 1 0.349689 0.166667 0.132369 0 0.0406852 0.135928
3 1 0.290674 1 0.275226 0 0.0027703 -0.00128925
4 1 0.0406738 0.166667 0.275226 0 -0.00277078 -0.00128901
5 1 0.98166 5.00995e-07 0.418084 0 -0.000196099 0.00108182
6 1 0.0996892 1 0.132369 0 -0.0406857 0.135928
7 1 0.00419715 0.5 0.0609408 0 2.49356 1.97492
8 1 0.849689 0.166667 0.132369 0 0.0406852 0.135928
9 1 0.754197 0.666667 0.0609408 0 -2.49356 1.97493
10 1 0.790674 1 0.275226 0 0.00277042 -0.00128949
11 1 0.73166 0.166667 0.418084 0 0.000196457 0.00108206
12 1 0.672646 5.53965e-07 0.560941 0 -4.25577e-05 -0.000250578
13 1 0.422646 0.166667 0.560941 0 4.26769e-05 -0.000250697
14 1 0.363632 1.60387e-07 0.703798 0 -0.000249267 -0.00324023
15 1 0.113632 0.166667 0.703798 0 0.000249505 -0.00323999
16 1 0.054617 1 0.846655 0 -0.000205278 0.00167751
17 1 0.695181 0.5 0.203798 0 -0.000204563 -0.00167716
18 1 0.540674 0.166667 0.275226 0 -0.0027703 -0.00128889
19 1 0.445181 0.666667 0.203798 0 0.000205278 -0.00167692
20 1 0.48166 5.02326e-07 0.418084 0 -0.000196218 0.00108159
21 1 0.386167 0.5 0.346655 0 -0.000249505 0.00323999
22 1 0.23166 0.166667 0.418084 0 0.000196457 0.00108182
23 1 0.136167 0.666667 0.346655 0 0.000249267 0.00323999
24 1 0.172646 5.42012e-07 0.560941 0 -4.20809e-05 -0.000250936
25 1 0.0771526 0.500001 0.489512 0 -4.27961e-05 0.000251055
26 1 0.922646 0.166667 0.560941 0 4.27961e-05 -0.000251532
27 1 0.827153 0.666667 0.489512 0 4.23193e-05 0.000251055
28 1 0.504197 0.5 0.0609408 0 2.49356 1.97492
29 1 0.254197 0.666667 0.0609408 0 -2.49356 1.97493
30 1 0.195181 0.5 0.203798 0 -0.000204325 -0.00167739
31 1 0.945181 0.666667 0.203798 0 0.000205278 -0.00167692
32 1 0.886167 0.5 0.346655 0 -0.000249386 0.00323999
33 1 0.804617 0.166667 0.846655 0 0.000204444 0.00167751
34 1 0.745601 1 0.989512 0 2.49356 -1.97493
35 1 0.495601 0.166667 0.989512 0 -2.49356 -1.97492
36 1 0.863632 1.92026e-07 0.703798 0 -0.000249147 -0.00324011
37 1 0.768139 0.500001 0.632369 0 -0.000196695 -0.00108182
38 1 0.613632 0.166667 0.703798 0 0.000249624 -0.00324047
39 1 0.518139 0.666667 0.632369 0 0.00019598 -0.00108194
40 1 0.554617 1 0.846655 0 -0.000204921 0.00167775
41 1 0.459125 0.5 0.775226 0 0.00277066 0.00128937
42 1 0.304617 0.166667 0.846655 0 0.000204802 0.00167704
43 1 0.209125 0.666667 0.775226 0 -0.00277007 0.00128925
44 1 0.245601 1 0.989512 0 2.49356 -1.97493
45 1 0.150109 0.5 0.918083 0 -0.0406854 -0.135928
46 1 0.636167 0.666667 0.346655 0 0.000248909 0.00323999
47 1 0.577153 0.500001 0.489512 0 -4.25577e-05 0.000250816
48 1 0.327153 0.666667 0.489512 0 4.22001e-05 0.000250816
49 1 0.268139 0.5 0.632369 0 -0.000196695 -0.00108171
50 1 0.0181389 0.666667 0.632369 0 0.000196099 -0.00108182
51 1 0.959125 0.5 0.775226 0 0.00277078 0.00128889
52 1 0.995601 0.166667 0.989512 0 -2.49356 -1.97492
53 1 0.900109 0.666667 0.918083 0 0.040686 -0.135927
54 1 0.709125 0.666667 0.775226 0 -0.00277019 0.00128913
55 1 0.650109 0.5 0.918083 0 -0.0406855 -0.135928
56 1 0.400109 0.666667 0.918083 0 0.0406854 -0.135928
ITEM: TIMESTEP
1
ITEM: NUMBER OF ATOMS
56
ITEM: BOX BOUNDS xy xz yz pp pp pp
-4.6521237492561340e+00 1.2206987559795380e+01 -4.7683715820312500e-07
-7.5370073318481445e-03 5.5339480042457581e+00 -4.6302355527877808e+00
-3.2569408416748047e-02 1.9052529454231262e+01 2.8610229492187500e-06
ITEM: ATOMS id type xs ys zs fx fy fz
1 1 0.599797 0.999706 0.132655 0 0.083686 0.0978557
2 1 0.349797 0.166962 0.132655 0 -0.0836862 0.0978565
3 1 0.290673 1.00002 0.275224 0 0.00173318 0.00918698
4 1 0.0406728 0.166647 0.275224 0 -0.0017333 0.00918674
5 1 0.98166 -9.18163e-07 0.418086 0 -0.000597596 -0.0010736
6 1 0.0997974 0.999706 0.132655 0 0.0836862 0.0978562
7 1 0.00576843 0.518045 0.0650907 0 1.02693 0.77721
8 1 0.849797 0.166962 0.132655 0 -0.0836862 0.0978569
9 1 0.755768 0.648622 0.0650907 0 -1.02693 0.77721
10 1 0.790673 1.00002 0.275224 0 0.0017333 0.00918686
11 1 0.73166 0.166668 0.418086 0 0.000598073 -0.00107288
12 1 0.672646 2.45978e-07 0.56094 0 6.54459e-05 0.000150084
13 1 0.422646 0.166667 0.56094 0 -6.47306e-05 0.000149727
14 1 0.363629 -1.64353e-06 0.703791 0 -0.000969887 -0.00855911
15 1 0.113629 0.166669 0.703791 0 0.000969887 -0.00855947
16 1 0.0546183 0.999998 0.846658 0 -0.0163054 -0.0947243
17 1 0.69518 0.499998 0.203794 0 -0.016305 0.094725
18 1 0.540673 0.166647 0.275224 0 -0.00173318 0.00918651
19 1 0.44518 0.666669 0.203794 0 0.0163059 0.0947242
20 1 0.48166 -9.17695e-07 0.418086 0 -0.000597358 -0.00107372
21 1 0.386169 0.499998 0.346662 0 -0.000970244 0.00855923
22 1 0.23166 0.166668 0.418086 0 0.000597596 -0.00107312
23 1 0.136169 0.666669 0.346662 0 0.000969529 0.00855923
24 1 0.172646 2.37475e-07 0.56094 0 6.53267e-05 0.000149965
25 1 0.0771528 0.5 0.489513 0 6.48499e-05 -0.000150084
26 1 0.922646 0.166667 0.56094 0 -6.46114e-05 0.000149369
27 1 0.827153 0.666667 0.489513 0 -6.54459e-05 -0.000149727
28 1 0.505768 0.518045 0.0650907 0 1.02693 0.77721
29 1 0.255768 0.648622 0.0650907 0 -1.02693 0.77721
30 1 0.19518 0.499998 0.203794 0 -0.0163056 0.0947245
31 1 0.94518 0.666669 0.203794 0 0.0163058 0.0947244
32 1 0.886169 0.499998 0.346662 0 -0.000969648 0.00855911
33 1 0.804618 0.166669 0.846658 0 0.016305 -0.0947244
34 1 0.74403 1.01805 0.985362 0 1.02693 -0.77721
35 1 0.49403 0.148622 0.985362 0 -1.02693 -0.777209
36 1 0.863629 -1.61103e-06 0.703791 0 -0.000970125 -0.00855935
37 1 0.768138 0.499999 0.632367 0 -0.000597835 0.00107396
38 1 0.613629 0.166669 0.703791 0 0.000969529 -0.0085597
39 1 0.518138 0.666668 0.632367 0 0.000597596 0.0010736
40 1 0.554618 0.999998 0.846658 0 -0.0163054 -0.0947242
41 1 0.459126 0.50002 0.775229 0 0.00173366 -0.00918639
42 1 0.304618 0.166669 0.846658 0 0.0163054 -0.0947248
43 1 0.209126 0.666647 0.775229 0 -0.00173342 -0.0091871
44 1 0.24403 1.01805 0.985362 0 1.02693 -0.77721
45 1 0.150001 0.499706 0.917798 0 0.0836861 -0.0978564
46 1 0.636169 0.666669 0.346662 0 0.00096941 0.00855899
47 1 0.577153 0.5 0.489513 0 6.49691e-05 -0.000150084
48 1 0.327153 0.666667 0.489513 0 -6.52075e-05 -0.000150084
49 1 0.268138 0.499999 0.632367 0 -0.000597596 0.00107408
50 1 0.018138 0.666668 0.632367 0 0.000597358 0.00107348
51 1 0.959126 0.50002 0.775229 0 0.0017333 -0.00918674
52 1 0.99403 0.148622 0.985362 0 -1.02693 -0.77721
53 1 0.900001 0.666962 0.917798 0 -0.0836858 -0.0978556
54 1 0.709126 0.666647 0.775229 0 -0.00173342 -0.00918722
55 1 0.650001 0.499706 0.917798 0 0.0836864 -0.0978564
56 1 0.400001 0.666962 0.917798 0 -0.0836861 -0.0978563
ITEM: TIMESTEP
2
ITEM: NUMBER OF ATOMS
56
ITEM: BOX BOUNDS xy xz yz pp pp pp
-4.6521237492561340e+00 1.2206987559795380e+01 -4.7683715820312500e-07
-7.5370073318481445e-03 5.5339480042457581e+00 -4.6302355527877808e+00
-3.2569408416748047e-02 1.9052529454231262e+01 2.8610229492187500e-06
ITEM: ATOMS id type xs ys zs fx fy fz
1 1 0.599986 1.00118 0.133154 0 0.211882 0.0717034
2 1 0.349986 0.165491 0.133154 0 -0.211882 0.0717039
3 1 0.29069 1.00005 0.275271 0 -0.000204682 0.020977
4 1 0.0406905 0.166617 0.275271 0 0.000204325 0.0209777
5 1 0.981658 -1.14194e-05 0.41808 0 -0.00123191 -0.000819206
6 1 0.0999864 1.00118 0.133154 0 0.211882 0.0717034
7 1 0.00726991 0.536091 0.0690562 0 0.195493 0.0404714
8 1 0.849986 0.165491 0.133154 0 -0.211882 0.071704
9 1 0.75727 0.630576 0.0690562 0 -0.195493 0.0404705
10 1 0.79069 1.00005 0.275271 0 -0.000204444 0.020977
11 1 0.731658 0.166679 0.41808 0 0.00123239 -0.000819206
12 1 0.672646 1.39602e-06 0.560941 0 -0.000130653 -0.000814557
13 1 0.422646 0.166666 0.560941 0 0.000130773 -0.000814557
14 1 0.363613 -1.86868e-05 0.703747 0 -0.00216842 -0.0184239
15 1 0.113613 0.166686 0.703747 0 0.0021683 -0.0184232
16 1 0.0544353 0.999712 0.846175 0 -0.0285704 -0.190614
17 1 0.695363 0.499712 0.204278 0 -0.0285704 0.190614
18 1 0.54069 0.166617 0.275271 0 0.000204206 0.0209776
19 1 0.445363 0.666955 0.204278 0 0.0285709 0.190615
20 1 0.481658 -1.14147e-05 0.41808 0 -0.00123215 -0.000819206
21 1 0.386186 0.499981 0.346706 0 -0.00216842 0.0184231
22 1 0.231658 0.166679 0.41808 0 0.00123239 -0.000819445
23 1 0.136186 0.666686 0.346706 0 0.00216854 0.0184243
24 1 0.172646 1.38543e-06 0.560941 0 -0.000130773 -0.000814915
25 1 0.0771525 0.500001 0.489512 0 -0.000130296 0.000815153
26 1 0.922646 0.166666 0.560941 0 0.000130415 -0.000815511
27 1 0.827153 0.666666 0.489512 0 0.000130653 0.000815034
28 1 0.50727 0.536091 0.0690562 0 0.195494 0.0404714
29 1 0.25727 0.630576 0.0690562 0 -0.195493 0.0404707
30 1 0.195363 0.499712 0.204278 0 -0.0285702 0.190615
31 1 0.945363 0.666955 0.204278 0 0.0285704 0.190614
32 1 0.886186 0.499981 0.346706 0 -0.00216818 0.0184231
33 1 0.804435 0.166955 0.846175 0 0.0285702 -0.190615
34 1 0.742529 1.03609 0.981397 0 0.195493 -0.0404708
35 1 0.492529 0.130576 0.981397 0 -0.195494 -0.0404717
36 1 0.863613 -1.86585e-05 0.703747 0 -0.00216877 -0.018424
37 1 0.76814 0.499989 0.632372 0 -0.00123215 0.000819206
38 1 0.613613 0.166686 0.703747 0 0.00216818 -0.0184234
39 1 0.51814 0.666679 0.632372 0 0.00123179 0.000818968
40 1 0.554435 0.999712 0.846175 0 -0.0285701 -0.190614
41 1 0.459108 0.50005 0.775182 0 -0.000204325 -0.0209775
42 1 0.304435 0.166955 0.846175 0 0.0285705 -0.190615
43 1 0.209108 0.666617 0.775182 0 0.000204682 -0.020977
44 1 0.242529 1.03609 0.981397 0 0.195493 -0.0404708
45 1 0.149812 0.501176 0.917299 0 0.211882 -0.071704
46 1 0.636186 0.666686 0.346706 0 0.00216854 0.018424
47 1 0.577153 0.500001 0.489512 0 -0.000130773 0.000814557
48 1 0.327153 0.666666 0.489512 0 0.000130534 0.000815034
49 1 0.26814 0.499989 0.632372 0 -0.00123227 0.000819206
50 1 0.0181401 0.666679 0.632372 0 0.00123167 0.000819087
51 1 0.959108 0.50005 0.775182 0 -0.000204206 -0.020977
52 1 0.992529 0.130576 0.981397 0 -0.195493 -0.0404713
53 1 0.899812 0.665491 0.917299 0 -0.211882 -0.0717037
54 1 0.709108 0.666617 0.775182 0 0.000204802 -0.0209769
55 1 0.649812 0.501176 0.917299 0 0.211882 -0.0717033
56 1 0.399812 0.665491 0.917299 0 -0.211882 -0.0717034
ITEM: TIMESTEP
3
ITEM: NUMBER OF ATOMS
56
ITEM: BOX BOUNDS xy xz yz pp pp pp
-4.6521237492561340e+00 1.2206987559795380e+01 -4.7683715820312500e-07
-7.5370073318481445e-03 5.5339480042457581e+00 -4.6302355527877808e+00
-3.2569408416748047e-02 1.9052529454231262e+01 2.8610229492187500e-06
ITEM: ATOMS id type xs ys zs fx fy fz
1 1 0.600628 1.01842 0.134848 0 0.0522052 0.0119771
2 1 0.350628 0.148249 0.134848 0 -0.0522044 0.0119771
3 1 0.290878 1.00003 0.275766 0 -0.00998139 0.0721757
4 1 0.0408782 0.166633 0.275766 0 0.00998163 0.0721757
5 1 0.981651 -0.000111667 0.418061 0 -0.00382841 0.0160041
6 1 0.100628 1.01842 0.134848 0 0.0522053 0.0119772
7 1 0.00763198 0.552 0.0700125 0 -0.0394319 -0.0673347
8 1 0.850628 0.148249 0.134848 0 -0.0522046 0.0119766
9 1 0.757632 0.614668 0.0700125 0 0.0394311 -0.0673318
10 1 0.790878 1.00003 0.275766 0 -0.00998104 0.0721761
11 1 0.731651 0.166779 0.418061 0 0.00382805 0.0160044
12 1 0.672639 -9.23602e-06 0.560922 0 -0.0031693 -0.0113982
13 1 0.422639 0.166676 0.560922 0 0.00316882 -0.0113982
14 1 0.363448 -0.000195144 0.703312 0 -0.0110474 -0.0852213
15 1 0.113448 0.166862 0.703312 0 0.0110472 -0.0852227
16 1 0.05273 0.997387 0.841671 0 0.0711298 0.0178688
17 1 0.697068 0.497387 0.208782 0 0.0711297 -0.0178694
18 1 0.540878 0.166633 0.275766 0 0.00998211 0.0721759
19 1 0.447068 0.66928 0.208782 0 -0.0711298 -0.0178691
20 1 0.481651 -0.000111682 0.418061 0 -0.00382841 0.0160047
21 1 0.38635 0.499805 0.347141 0 -0.011047 0.085223
22 1 0.231651 0.166779 0.418061 0 0.00382817 0.0160049
23 1 0.136351 0.666862 0.347141 0 0.0110475 0.0852212
24 1 0.172639 -9.25632e-06 0.560922 0 -0.00316882 -0.0113981
25 1 0.0771598 0.499991 0.489531 0 -0.00316989 0.0113974
26 1 0.922639 0.166676 0.560922 0 0.00316942 -0.0113971
27 1 0.82716 0.666676 0.489531 0 0.00316918 0.0113975
28 1 0.507632 0.552 0.0700125 0 -0.039433 -0.0673345
29 1 0.257632 0.614668 0.0700125 0 0.0394307 -0.0673329
30 1 0.197068 0.497387 0.208782 0 0.0711294 -0.0178692
31 1 0.947068 0.66928 0.208782 0 -0.0711298 -0.0178688
32 1 0.88635 0.499805 0.347141 0 -0.0110469 0.085223
33 1 0.80273 0.16928 0.841671 0 -0.0711291 0.0178692
34 1 0.742166 1.052 0.98044 0 -0.0394311 0.0673325
35 1 0.492166 0.114667 0.98044 0 0.0394324 0.0673349
36 1 0.863448 -0.000195145 0.703312 0 -0.0110468 -0.0852215
37 1 0.768147 0.499888 0.632392 0 -0.00382864 -0.0160043
38 1 0.613448 0.166862 0.703312 0 0.0110475 -0.0852222
39 1 0.518147 0.666779 0.632392 0 0.00382853 -0.0160042
40 1 0.55273 0.997387 0.841671 0 0.0711293 0.0178689
41 1 0.45892 0.500034 0.774687 0 -0.00998151 -0.0721756
42 1 0.30273 0.16928 0.841671 0 -0.0711292 0.0178694
43 1 0.20892 0.666633 0.774687 0 0.00998116 -0.0721765
44 1 0.242166 1.052 0.98044 0 -0.0394312 0.0673336
45 1 0.149171 0.518418 0.915604 0 0.0522046 -0.0119771
46 1 0.636351 0.666862 0.347141 0 0.0110469 0.0852212
47 1 0.57716 0.499991 0.489531 0 -0.00316918 0.0113977
48 1 0.32716 0.666676 0.489531 0 0.0031693 0.0113978
49 1 0.268147 0.499888 0.632392 0 -0.00382841 -0.0160042
50 1 0.0181474 0.666779 0.632392 0 0.00382876 -0.0160038
51 1 0.95892 0.500034 0.774687 0 -0.00998187 -0.0721762
52 1 0.992166 0.114667 0.98044 0 0.0394322 0.0673341
53 1 0.899171 0.648249 0.915604 0 -0.0522052 -0.0119765
54 1 0.70892 0.666633 0.774687 0 0.00998068 -0.0721763
55 1 0.649171 0.518418 0.915604 0 0.0522044 -0.0119776
56 1 0.399171 0.648249 0.915604 0 -0.0522048 -0.0119774
ITEM: TIMESTEP
4
ITEM: NUMBER OF ATOMS
56
ITEM: BOX BOUNDS xy xz yz pp pp pp
-4.6521237492561340e+00 1.2206987559795380e+01 -4.7683715820312500e-07
-7.5370073318481445e-03 5.5339480042457581e+00 -4.6302355527877808e+00
-3.2569408416748047e-02 1.9052529454231262e+01 2.8610229492187500e-06
ITEM: ATOMS id type xs ys zs fx fy fz
1 1 0.600875 1.02642 0.135502 0 -0.0481441 0.0281698
2 1 0.350875 0.140244 0.135502 0 0.0481429 0.0281695
3 1 0.29156 0.999224 0.277568 0 0.0161406 0.0169814
4 1 0.0415604 0.167443 0.277568 0 -0.0161401 0.0169808
5 1 0.981792 -0.000442973 0.418432 0 -0.00542462 0.0388379
6 1 0.100875 1.02642 0.135502 0 -0.0481439 0.0281695
7 1 0.00711347 0.552308 0.0686431 0 0.0634483 0.0503594
8 1 0.850875 0.140244 0.135502 0 0.0481428 0.0281695
9 1 0.757113 0.614359 0.0686431 0 -0.0634458 0.0503558
10 1 0.79156 0.999224 0.277568 0 0.0161403 0.0169805
11 1 0.731792 0.16711 0.418432 0 0.00542402 0.0388373
12 1 0.672536 -0.00026761 0.56065 0 -0.0096221 -0.0274227
13 1 0.422536 0.166935 0.56065 0 0.0096221 -0.0274234
14 1 0.362655 -0.00112639 0.701217 0 -0.000163913 -0.0115167
15 1 0.112655 0.167793 0.701217 0 0.00016439 -0.0115163
16 1 0.0525142 1.00262 0.841101 0 0.0386113 0.021699
17 1 0.697284 0.502622 0.209352 0 0.038612 -0.0216984
18 1 0.54156 0.167443 0.277568 0 -0.0161407 0.0169809
19 1 0.447284 0.664045 0.209352 0 -0.0386115 -0.021699
20 1 0.481792 -0.000442992 0.418432 0 -0.00542438 0.0388367
21 1 0.387144 0.498874 0.349236 0 -0.000164986 0.0115161
22 1 0.231792 0.16711 0.418432 0 0.00542438 0.0388368
23 1 0.137144 0.667794 0.349236 0 0.000164151 0.0115165
24 1 0.172536 -0.000267594 0.56065 0 -0.00962245 -0.027423
25 1 0.0772627 0.499732 0.489803 0 -0.00962174 0.0274242
26 1 0.922536 0.166935 0.56065 0 0.00962186 -0.0274241
27 1 0.827263 0.666935 0.489803 0 0.0096221 0.0274242
28 1 0.507113 0.552308 0.0686431 0 0.0634491 0.0503597
29 1 0.257113 0.614359 0.0686431 0 -0.0634466 0.0503571
30 1 0.197284 0.502622 0.209352 0 0.0386118 -0.0216987
31 1 0.947284 0.664045 0.209352 0 -0.0386114 -0.0216988
32 1 0.887144 0.498874 0.349236 0 -0.000165105 0.0115159
33 1 0.802514 0.164045 0.841101 0 -0.0386127 0.0216987
34 1 0.742685 1.05231 0.98181 0 0.0634459 -0.0503564
35 1 0.492685 0.114359 0.98181 0 -0.0634489 -0.0503597
36 1 0.862655 -0.00112635 0.701217 0 -0.000164628 -0.0115165
37 1 0.768007 0.499557 0.632021 0 -0.0054239 -0.0388379
38 1 0.612655 0.167793 0.701217 0 0.000164151 -0.0115168
39 1 0.518007 0.66711 0.632021 0 0.00542426 -0.0388377
40 1 0.552514 1.00262 0.841101 0 0.0386114 0.0216992
41 1 0.458238 0.499224 0.772885 0 0.0161402 -0.0169806
42 1 0.302514 0.164045 0.841101 0 -0.0386126 0.0216988
43 1 0.208238 0.667443 0.772885 0 -0.0161401 -0.0169806
44 1 0.242685 1.05231 0.98181 0 0.0634466 -0.0503579
45 1 0.148923 0.526423 0.914951 0 -0.0481426 -0.028169
46 1 0.637144 0.667793 0.349236 0 0.000164628 0.0115166
47 1 0.577263 0.499732 0.489803 0 -0.00962174 0.0274239
48 1 0.327263 0.666935 0.489803 0 0.00962222 0.0274235
49 1 0.268007 0.499557 0.632021 0 -0.00542426 -0.0388377
50 1 0.0180069 0.66711 0.632021 0 0.00542474 -0.038838
51 1 0.958238 0.499224 0.772885 0 0.0161408 -0.0169809
52 1 0.992685 0.114359 0.98181 0 -0.063448 -0.0503589
53 1 0.898923 0.640244 0.914951 0 0.0481437 -0.0281701
54 1 0.708238 0.667443 0.772885 0 -0.0161399 -0.0169808
55 1 0.648923 0.526423 0.914951 0 -0.0481427 -0.0281688
56 1 0.398923 0.640244 0.914951 0 0.0481445 -0.0281696
ITEM: TIMESTEP
5
ITEM: NUMBER OF ATOMS
56
ITEM: BOX BOUNDS xy xz yz pp pp pp
-4.6521237492561340e+00 1.2206987559795380e+01 -4.7683715820312500e-07
-7.5370073318481445e-03 5.5339480042457581e+00 -4.6302355527877808e+00
-3.2569408416748047e-02 1.9052529454231262e+01 2.8610229492187500e-06
ITEM: ATOMS id type xs ys zs fx fy fz
1 1 0.60116 1.0271 0.136253 0 -0.0153483 0.0202603
2 1 0.35116 0.139566 0.136253 0 0.0153482 0.0202599
3 1 0.291962 0.999803 0.278628 0 0.021386 -0.0017978
4 1 0.0419617 0.166864 0.278628 0 -0.0213857 -0.00179803
5 1 0.982098 -0.000897699 0.419241 0 -0.0066632 0.0179384
6 1 0.10116 1.0271 0.136253 0 -0.0153483 0.02026
7 1 0.0072086 0.556091 0.0688943 0 -0.00274491 -0.0191786
8 1 0.85116 0.139566 0.136253 0 0.0153494 0.0202601
9 1 0.757209 0.610576 0.0688943 0 0.00274336 -0.0191787
10 1 0.791962 0.999803 0.278628 0 0.0213857 -0.0017978
11 1 0.732098 0.167565 0.419241 0 0.00666332 0.0179379
12 1 0.672318 -0.000932366 0.560075 0 -0.0077225 -0.0054183
13 1 0.422318 0.167599 0.560075 0 0.00772285 -0.00541759
14 1 0.36224 -0.00153691 0.700123 0 0.00673127 0.0213841
15 1 0.11224 0.168204 0.700123 0 -0.00673079 0.0213854
16 1 0.0525584 1.0071 0.841218 0 -0.00975049 -0.0210383
17 1 0.69724 0.507099 0.209235 0 -0.00975025 0.0210379
18 1 0.541962 0.166864 0.278628 0 -0.0213857 -0.00179839
19 1 0.44724 0.659569 0.209235 0 0.00975049 0.0210381
20 1 0.482098 -0.000897706 0.419241 0 -0.0066632 0.0179383
21 1 0.387558 0.498463 0.35033 0 0.00673127 -0.0213856
22 1 0.232098 0.167565 0.419241 0 0.00666296 0.0179377
23 1 0.137558 0.668204 0.35033 0 -0.00673175 -0.0213841
24 1 0.172318 -0.000932355 0.560075 0 -0.00772274 -0.00541806
25 1 0.0774804 0.499068 0.490378 0 -0.00772226 0.00541747
26 1 0.922318 0.167599 0.560075 0 0.00772262 -0.00541806
27 1 0.82748 0.667599 0.490378 0 0.00772226 0.00541794
28 1 0.507209 0.556091 0.0688943 0 -0.00274503 -0.0191795
29 1 0.257209 0.610576 0.0688943 0 0.00274479 -0.0191789
30 1 0.19724 0.507099 0.209235 0 -0.00975025 0.0210382
31 1 0.94724 0.659569 0.209235 0 0.00975013 0.0210378
32 1 0.887558 0.498463 0.35033 0 0.00673127 -0.0213848
33 1 0.802558 0.159569 0.841218 0 0.00975025 -0.0210379
34 1 0.74259 1.05609 0.981559 0 -0.00274348 0.0191782
35 1 0.49259 0.110576 0.981559 0 0.00274551 0.0191795
36 1 0.86224 -0.00153689 0.700123 0 0.00673115 0.0213845
37 1 0.767701 0.499102 0.631212 0 -0.00666273 -0.0179375
38 1 0.61224 0.168204 0.700123 0 -0.00673151 0.0213848
39 1 0.517701 0.667565 0.631212 0 0.00666308 -0.0179379
40 1 0.552558 1.0071 0.841218 0 -0.0097506 -0.0210382
41 1 0.457837 0.499803 0.771825 0 0.0213859 0.00179756
42 1 0.302558 0.159569 0.841218 0 0.00975013 -0.0210382
43 1 0.207837 0.666864 0.771825 0 -0.0213858 0.00179827
44 1 0.24259 1.05609 0.981559 0 -0.00274384 0.0191786
45 1 0.148639 0.527101 0.9142 0 -0.0153493 -0.0202601
46 1 0.637558 0.668204 0.35033 0 -0.00673163 -0.0213838
47 1 0.57748 0.499068 0.490378 0 -0.00772262 0.00541794
48 1 0.32748 0.667599 0.490378 0 0.0077225 0.00541818
49 1 0.267701 0.499102 0.631212 0 -0.00666273 -0.0179379
50 1 0.0177008 0.667565 0.631212 0 0.00666296 -0.0179385
51 1 0.957837 0.499803 0.771825 0 0.0213859 0.00179815
52 1 0.99259 0.110576 0.981559 0 0.00274515 0.0191792
53 1 0.898639 0.639566 0.9142 0 0.0153478 -0.0202607
54 1 0.707837 0.666864 0.771825 0 -0.0213857 0.00179815
55 1 0.648639 0.527101 0.9142 0 -0.0153489 -0.0202596
56 1 0.398639 0.639566 0.9142 0 0.0153478 -0.0202596
ITEM: TIMESTEP
6
ITEM: NUMBER OF ATOMS
56
ITEM: BOX BOUNDS xy xz yz pp pp pp
-4.6521237492561340e+00 1.2206987559795380e+01 -4.7683715820312500e-07
-7.5370073318481445e-03 5.5339480042457581e+00 -4.6302355527877808e+00
-3.2569408416748047e-02 1.9052529454231262e+01 2.8610229492187500e-06
ITEM: ATOMS id type xs ys zs fx fy fz
1 1 0.601367 1.02622 0.1368 0 -0.00595665 0.00469089
2 1 0.351367 0.140447 0.1368 0 0.00595772 0.00469124
3 1 0.292031 1.00135 0.278811 0 0.00342643 0.00963593
4 1 0.0420312 0.165321 0.278811 0 -0.00342727 0.00963557
5 1 0.982292 -0.00143479 0.419754 0 -0.00287402 -0.00647008
6 1 0.101367 1.02622 0.1368 0 -0.00595713 0.004691
7 1 0.00708789 0.556687 0.0685755 0 -0.00345325 -0.0062207
8 1 0.851367 0.140447 0.1368 0 0.00595689 0.00469172
9 1 0.757088 0.60998 0.0685755 0 0.00345337 -0.00622046
10 1 0.792031 1.00135 0.278811 0 0.00342667 0.00963616
11 1 0.732292 0.168102 0.419754 0 0.00287378 -0.00646985
12 1 0.672234 -0.00158322 0.559852 0 -0.00187123 0.0158521
13 1 0.422234 0.16825 0.559852 0 0.00187171 0.0158515
14 1 0.362311 -0.00117357 0.70031 0 0.003245 -0.00243735
15 1 0.112311 0.167841 0.70031 0 -0.00324535 -0.00243759
16 1 0.0524136 1.00737 0.840836 0 -0.00835717 0.00548065
17 1 0.697385 0.507372 0.209617 0 -0.00835788 -0.00548017
18 1 0.542031 0.165321 0.278811 0 -0.00342739 0.00963604
19 1 0.447385 0.659295 0.209617 0 0.00835729 -0.00548017
20 1 0.482292 -0.00143479 0.419754 0 -0.00287366 -0.00646985
21 1 0.387487 0.498826 0.350142 0 0.00324523 0.00243735
22 1 0.232292 0.168102 0.419754 0 0.00287437 -0.00646949
23 1 0.137487 0.667841 0.350142 0 -0.00324476 0.00243723
24 1 0.172234 -0.00158322 0.559852 0 -0.00187099 0.0158526
25 1 0.0775649 0.498417 0.490601 0 -0.00187147 -0.0158515
26 1 0.922234 0.16825 0.559852 0 0.00187159 0.0158519
27 1 0.827565 0.66825 0.490601 0 0.00187159 -0.0158525
28 1 0.507088 0.556687 0.0685755 0 -0.00345266 -0.00621998
29 1 0.257088 0.60998 0.0685755 0 0.00345314 -0.00622022
30 1 0.197385 0.507372 0.209617 0 -0.00835741 -0.00548041
31 1 0.947385 0.659295 0.209617 0 0.00835824 -0.00548041
32 1 0.887487 0.498826 0.350142 0 0.003245 0.00243735
33 1 0.802414 0.159295 0.840836 0 0.00835752 0.00548029
34 1 0.742711 1.05669 0.981877 0 -0.00345314 0.00622082
35 1 0.492711 0.10998 0.981877 0 0.00345254 0.00621963
36 1 0.862311 -0.00117356 0.70031 0 0.00324535 -0.00243711
37 1 0.767506 0.498565 0.630699 0 -0.00287426 0.0064702
38 1 0.612311 0.167841 0.70031 0 -0.00324523 -0.00243711
39 1 0.517506 0.668102 0.630699 0 0.0028739 0.00646985
40 1 0.552414 1.00737 0.840836 0 -0.00835705 0.00548029
41 1 0.457767 0.501346 0.771641 0 0.00342679 -0.00963593
42 1 0.302414 0.159295 0.840836 0 0.00835788 0.00548053
43 1 0.207767 0.665321 0.771641 0 -0.00342691 -0.00963616
44 1 0.242711 1.05669 0.981877 0 -0.00345361 0.00622046
45 1 0.148432 0.52622 0.913653 0 -0.00595713 -0.0046916
46 1 0.637487 0.667841 0.350142 0 -0.00324464 0.00243688
47 1 0.577565 0.498417 0.490601 0 -0.00187182 -0.0158516
48 1 0.327565 0.66825 0.490601 0 0.00187123 -0.0158523
49 1 0.267506 0.498565 0.630699 0 -0.00287414 0.00647008
50 1 0.0175065 0.668102 0.630699 0 0.00287378 0.00646985
51 1 0.957767 0.501346 0.771641 0 0.00342643 -0.00963628
52 1 0.992711 0.10998 0.981877 0 0.00345254 0.00621974
53 1 0.898432 0.640447 0.913653 0 0.00595748 -0.00469029
54 1 0.707767 0.665321 0.771641 0 -0.00342691 -0.00963616
55 1 0.648432 0.52622 0.913653 0 -0.00595748 -0.00469208
56 1 0.398432 0.640447 0.913653 0 0.00595713 -0.00469041
ITEM: TIMESTEP
7
ITEM: NUMBER OF ATOMS
56
ITEM: BOX BOUNDS xy xz yz pp pp pp
-4.6521237492561340e+00 1.2206987559795380e+01 -4.7683715820312500e-07
-7.5370073318481445e-03 5.5339480042457581e+00 -4.6302355527877808e+00
-3.2569408416748047e-02 1.9052529454231262e+01 2.8610229492187500e-06
ITEM: ATOMS id type xs ys zs fx fy fz
1 1 0.601436 1.02567 0.136984 0 -0.00519538 0.00170541
2 1 0.351436 0.140998 0.136984 0 0.00519466 0.00170588
3 1 0.292114 1.00184 0.279031 0 -0.00557876 0.00119555
4 1 0.0421144 0.16483 0.279031 0 0.00557923 0.00119591
5 1 0.982277 -0.00171931 0.419714 0 0.00210536 0.00364685
6 1 0.101436 1.02567 0.136984 0 -0.00519514 0.00170529
7 1 0.00702138 0.556555 0.0683999 0 0.00247586 0.00205374
8 1 0.851436 0.140998 0.136984 0 0.00519502 0.00170541
9 1 0.757021 0.610112 0.0683999 0 -0.00247562 0.00205326
10 1 0.792114 1.00184 0.279031 0 -0.00557923 0.00119543
11 1 0.732277 0.168386 0.419714 0 -0.00210524 0.00364721
12 1 0.672337 -0.00181926 0.560125 0 -0.00110757 -0.000620365
13 1 0.422337 0.168486 0.560125 0 0.0011071 -0.000620484
14 1 0.362305 -0.000893314 0.700294 0 0.000123143 0.00354278
15 1 0.112305 0.16756 0.700294 0 -0.000123024 0.00354266
16 1 0.0524299 1.00685 0.840879 0 -0.000493407 0.00473034
17 1 0.697369 0.506854 0.209574 0 -0.000492692 -0.00473011
18 1 0.542114 0.16483 0.279031 0 0.00557911 0.00119555
19 1 0.447369 0.659813 0.209574 0 0.000493169 -0.00472999
20 1 0.482277 -0.00171929 0.419714 0 0.00210488 0.00364721
21 1 0.387493 0.499107 0.350159 0 0.000123143 -0.00354195
22 1 0.232277 0.168386 0.419714 0 -0.00210595 0.00364673
23 1 0.137493 0.66756 0.350159 0 -0.000123024 -0.00354266
24 1 0.172337 -0.00181925 0.560125 0 -0.00110745 -0.000620842
25 1 0.0774615 0.498181 0.490328 0 -0.0011071 0.000620484
26 1 0.922337 0.168486 0.560125 0 0.00110745 -0.000620365
27 1 0.827461 0.668486 0.490328 0 0.00110722 0.000620365
28 1 0.507021 0.556555 0.0683999 0 0.00247586 0.00205362
29 1 0.257021 0.610112 0.0683999 0 -0.00247574 0.00205314
30 1 0.197369 0.506854 0.209574 0 -0.00049305 -0.00473046
31 1 0.947369 0.659813 0.209574 0 0.000492811 -0.00473011
32 1 0.887493 0.499107 0.350159 0 0.000123024 -0.0035423
33 1 0.80243 0.159813 0.840879 0 0.000493169 0.00473034
34 1 0.742777 1.05656 0.982053 0 0.00247538 -0.00205302
35 1 0.492777 0.110112 0.982053 0 -0.00247538 -0.0020529
36 1 0.862305 -0.000893287 0.700294 0 0.000123024 0.00354207
37 1 0.767522 0.498281 0.630739 0 0.00210536 -0.00364733
38 1 0.612305 0.16756 0.700294 0 -0.000122786 0.00354242
39 1 0.517522 0.668386 0.630739 0 -0.00210559 -0.00364697
40 1 0.55243 1.00685 0.840879 0 -0.000493288 0.00473011
41 1 0.457684 0.501837 0.771422 0 -0.00557911 -0.00119519
42 1 0.30243 0.159813 0.840879 0 0.00049305 0.00473011
43 1 0.207684 0.66483 0.771422 0 0.00557899 -0.00119519
44 1 0.242777 1.05656 0.982053 0 0.00247598 -0.0020535
45 1 0.148362 0.525669 0.913469 0 -0.00519478 -0.00170565
46 1 0.637493 0.66756 0.350159 0 -0.000122666 -0.00354254
47 1 0.577461 0.498181 0.490328 0 -0.00110686 0.000619888
48 1 0.327461 0.668486 0.490328 0 0.00110757 0.000620365
49 1 0.267522 0.498281 0.630739 0 0.00210571 -0.00364697
50 1 0.0175217 0.668386 0.630739 0 -0.00210547 -0.00364685
51 1 0.957684 0.501837 0.771422 0 -0.00557899 -0.00119531
52 1 0.992777 0.110112 0.982053 0 -0.0024761 -0.00205314
53 1 0.898362 0.640998 0.913469 0 0.0051949 -0.00170612
54 1 0.707684 0.66483 0.771422 0 0.00557888 -0.00119543
55 1 0.648362 0.525669 0.913469 0 -0.00519419 -0.00170588
56 1 0.398362 0.640998 0.913469 0 0.00519454 -0.00170648
ITEM: TIMESTEP
8
ITEM: NUMBER OF ATOMS
56
ITEM: BOX BOUNDS xy xz yz pp pp pp
-4.6521237492561340e+00 1.2206987559795380e+01 -4.7683715820312500e-07
-7.5370073318481445e-03 5.5339480042457581e+00 -4.6302355527877808e+00
-3.2569408416748047e-02 1.9052529454231262e+01 2.8610229492187500e-06
ITEM: ATOMS id type xs ys zs fx fy fz
1 1 0.601466 1.02516 0.137063 0 0.000833392 0.000248432
2 1 0.351466 0.141512 0.137063 0 -0.000833154 0.000247598
3 1 0.292143 1.00154 0.279108 0 -0.0020647 -0.00101483
4 1 0.0421434 0.165131 0.279108 0 0.00206518 -0.00101447
5 1 0.982303 -0.0016285 0.419783 0 0.000549793 0.00143242
6 1 0.101466 1.02516 0.137063 0 0.000833154 0.000248671
7 1 0.00702281 0.556709 0.0684036 0 -0.00311863 -0.00458205
8 1 0.851466 0.141512 0.137063 0 -0.000833035 0.000248313
9 1 0.757023 0.609959 0.0684036 0 0.0031178 -0.00458097
10 1 0.792143 1.00154 0.279108 0 -0.00206459 -0.00101471
11 1 0.732303 0.168296 0.419783 0 -0.000549555 0.00143206
12 1 0.672356 -0.00195611 0.560175 0 0.000676632 -0.000875831
13 1 0.422356 0.168623 0.560175 0 -0.000676513 -0.000875473
14 1 0.362333 -0.000819438 0.700367 0 -0.00135958 0.00184858
15 1 0.112333 0.167487 0.700367 0 0.00135994 0.00184834
16 1 0.0524723 1.0067 0.840991 0 -0.00134432 -0.000386477
17 1 0.697326 0.506698 0.209462 0 -0.00134444 0.000385761
18 1 0.542143 0.165131 0.279108 0 0.00206506 -0.00101435
19 1 0.447326 0.659969 0.209462 0 0.00134408 0.000385761
20 1 0.482303 -0.00162851 0.419783 0 0.000549912 0.0014323
21 1 0.387466 0.499181 0.350086 0 -0.00136006 -0.00184894
22 1 0.232303 0.168296 0.419783 0 -0.000549197 0.00143278
23 1 0.137466 0.667487 0.350086 0 0.00135934 -0.0018487
24 1 0.172356 -0.00195609 0.560175 0 0.00067687 -0.000876069
25 1 0.0774427 0.498044 0.490278 0 0.000676513 0.000875473
26 1 0.922356 0.168623 0.560175 0 -0.00067687 -0.000875592
27 1 0.827443 0.668623 0.490278 0 -0.000676155 0.000875711
28 1 0.507023 0.556709 0.0684036 0 -0.00311828 -0.00458157
29 1 0.257023 0.609959 0.0684036 0 0.00311804 -0.00458133
30 1 0.197326 0.506698 0.209462 0 -0.00134444 0.000386357
31 1 0.947326 0.659969 0.209462 0 0.00134432 0.000386119
32 1 0.887466 0.499181 0.350086 0 -0.00136006 -0.00184882
33 1 0.802472 0.159969 0.840991 0 0.00134432 -0.000386238
34 1 0.742776 1.05671 0.982049 0 -0.00311744 0.00458097
35 1 0.492776 0.109959 0.982049 0 0.0031178 0.00458145