ITEM: TIMESTEP
0
ITEM: NUMBER OF ATOMS
32
ITEM: BOX BOUNDS xy xz yz pp pp pp
-4.0532350540161133e-03 6.4008854031562805e+00 0.0000000000000000e+00
-9.1640949249267578e-03 1.0782710731029510e+01 0.0000000000000000e+00
-4.7960281372070312e-02 2.0773346722126007e+01 5.2531154751777649e+00
ITEM: ATOMS id type xs ys zs fx fy fz
1 1 0.999986 0.609489 0.0597509 0 0 0.0175228
2 1 0.499986 0.609489 0.0597509 0 0 0.0175228
3 1 0.249986 0.109489 0.0597519 0 0 0.0174847
4 1 0.749986 0.109489 0.0597519 0 0 0.0174847
5 1 0.999986 0.372393 0.309753 0 0 -1.71661e-05
6 1 0.249986 0.325289 0.184753 0 0 -0.00034523
7 1 0.749986 0.325289 0.184753 0 0 -0.00034523
8 1 0.499986 0.372393 0.309753 0 0 -1.71661e-05
9 1 0.999986 0.825288 0.184753 0 0 -0.000329971
10 1 0.249986 0.872394 0.309753 0 0 -6.48499e-05
11 1 0.499986 0.825288 0.184753 0 0 -0.000329971
12 1 0.749986 0.872394 0.309753 0 0 -6.48499e-05
13 1 0.999986 0.135276 0.559749 0 0 5.14984e-05
14 1 0.499986 0.135276 0.559749 0 0 5.14984e-05
15 1 0.249986 0.635275 0.55975 0 0 4.00543e-05
16 1 0.749986 0.635275 0.55975 0 0 4.00543e-05
17 1 0.249986 0.0881835 0.434752 0 0 -5.34058e-05
18 1 0.749986 0.0881835 0.434752 0 0 -5.34058e-05
19 1 0.999986 0.588183 0.434752 0 0 -2.86102e-05
20 1 0.499986 0.588183 0.434752 0 0 -2.86102e-05
21 1 0.999986 0.898162 0.809748 0 0 0.000337601
22 1 0.249986 0.851061 0.684748 0 0 3.24249e-05
23 1 0.499986 0.898162 0.809748 0 0 0.000337601
24 1 0.749986 0.851061 0.684748 0 0 3.24249e-05
25 1 0.999986 0.351061 0.684749 0 0 9.53674e-06
26 1 0.249986 0.398162 0.809748 0 0 0.000352859
27 1 0.749986 0.398162 0.809748 0 0 0.000352859
28 1 0.499986 0.351061 0.684749 0 0 9.53674e-06
29 1 0.249986 0.613959 0.934749 0 0 -0.0174847
30 1 0.749986 0.613959 0.934749 0 0 -0.0174847
31 1 0.999986 0.113959 0.93475 0 0 -0.0175076
32 1 0.499986 0.113959 0.93475 0 0 -0.0175076
ITEM: TIMESTEP
1
ITEM: NUMBER OF ATOMS
32
ITEM: BOX BOUNDS xy xz yz pp pp pp
-4.0532350540161133e-03 6.4008854031562805e+00 0.0000000000000000e+00
-9.1640949249267578e-03 1.0782710731029510e+01 0.0000000000000000e+00
-4.7960281372070312e-02 2.0773346722126007e+01 5.2531154751777649e+00
ITEM: ATOMS id type xs ys zs fx fy fz
1 1 0.999986 0.609277 0.0599753 0 0 -0.000135422
2 1 0.499986 0.609277 0.0599753 0 0 -0.000135422
3 1 0.249986 0.109276 0.0599758 0 0 -0.000143051
4 1 0.749986 0.109276 0.0599758 0 0 -0.000143051
5 1 0.999986 0.372394 0.309753 0 0 0.000244141
6 1 0.249986 0.325293 0.184749 0 0 0.00498199
7 1 0.749986 0.325293 0.184749 0 0 0.00498199
8 1 0.499986 0.372394 0.309753 0 0 0.000244141
9 1 0.999986 0.825292 0.184749 0 0 0.0049839
10 1 0.249986 0.872394 0.309753 0 0 0.000242233
11 1 0.499986 0.825292 0.184749 0 0 0.0049839
12 1 0.749986 0.872394 0.309753 0 0 0.000242233
13 1 0.999986 0.135276 0.55975 0 0 3.24249e-05
14 1 0.499986 0.135276 0.55975 0 0 3.24249e-05
15 1 0.249986 0.635274 0.55975 0 0 2.28882e-05
16 1 0.749986 0.635274 0.55975 0 0 2.28882e-05
17 1 0.249986 0.0881842 0.434752 0 0 -4.00543e-05
18 1 0.749986 0.0881842 0.434752 0 0 -4.00543e-05
19 1 0.999986 0.588184 0.434751 0 0 -3.05176e-05
20 1 0.499986 0.588184 0.434751 0 0 -3.05176e-05
21 1 0.999986 0.898158 0.809752 0 0 -0.00498962
22 1 0.249986 0.851061 0.684749 0 0 -0.000234604
23 1 0.499986 0.898158 0.809752 0 0 -0.00498962
24 1 0.749986 0.851061 0.684749 0 0 -0.000234604
25 1 0.999986 0.351061 0.684749 0 0 -0.000238419
26 1 0.249986 0.398158 0.809753 0 0 -0.00498772
27 1 0.749986 0.398158 0.809753 0 0 -0.00498772
28 1 0.499986 0.351061 0.684749 0 0 -0.000238419
29 1 0.249986 0.614171 0.934525 0 0 0.000154495
30 1 0.749986 0.614171 0.934525 0 0 0.000154495
31 1 0.999986 0.114171 0.934526 0 0 0.000137329
32 1 0.499986 0.114171 0.934526 0 0 0.000137329
ITEM: TIMESTEP
2
ITEM: NUMBER OF ATOMS
32
ITEM: BOX BOUNDS xy xz yz pp pp pp
-4.0532350540161133e-03 6.4008854031562805e+00 0.0000000000000000e+00
-9.1640949249267578e-03 1.0782710731029510e+01 0.0000000000000000e+00
-4.7960281372070312e-02 2.0773346722126007e+01 5.2531154751777649e+00
ITEM: ATOMS id type xs ys zs fx fy fz
1 1 0.999986 0.609242 0.0600115 0 0 -0.00025177
2 1 0.499986 0.609242 0.0600115 0 0 -0.00025177
3 1 0.249986 0.109242 0.0600118 0 0 -0.000247955
4 1 0.749986 0.109242 0.0600118 0 0 -0.000247955
5 1 0.999986 0.372388 0.309758 0 0 0.00279045
6 1 0.249986 0.325182 0.184866 0 0 -3.43323e-05
7 1 0.749986 0.325182 0.184866 0 0 -3.43323e-05
8 1 0.499986 0.372388 0.309758 0 0 0.00279045
9 1 0.999986 0.82518 0.184866 0 0 -3.24249e-05
10 1 0.249986 0.872389 0.309758 0 0 0.00279617
11 1 0.499986 0.82518 0.184866 0 0 -3.24249e-05
12 1 0.749986 0.872389 0.309758 0 0 0.00279617
13 1 0.999986 0.135275 0.559751 0 0 -0.000341415
14 1 0.499986 0.135275 0.559751 0 0 -0.000341415
15 1 0.249986 0.635274 0.559751 0 0 -0.000333786
16 1 0.749986 0.635274 0.559751 0 0 -0.000333786
17 1 0.249986 0.0881852 0.434751 0 0 0.000350952
18 1 0.749986 0.0881852 0.434751 0 0 0.000350952
19 1 0.999986 0.588184 0.434751 0 0 0.000331879
20 1 0.499986 0.588184 0.434751 0 0 0.000331879
21 1 0.999986 0.898269 0.809635 0 0 5.34058e-05
22 1 0.249986 0.851066 0.684743 0 0 -0.00280952
23 1 0.499986 0.898269 0.809635 0 0 5.34058e-05
24 1 0.749986 0.851066 0.684743 0 0 -0.00280952
25 1 0.999986 0.351066 0.684743 0 0 -0.00280762
26 1 0.249986 0.398269 0.809635 0 0 4.3869e-05
27 1 0.749986 0.398269 0.809635 0 0 4.3869e-05
28 1 0.499986 0.351066 0.684743 0 0 -0.00280762
29 1 0.249986 0.614205 0.93449 0 0 0.000249863
30 1 0.749986 0.614205 0.93449 0 0 0.000249863
31 1 0.999986 0.114205 0.93449 0 0 0.000242233
32 1 0.499986 0.114205 0.93449 0 0 0.000242233
ITEM: TIMESTEP
3
ITEM: NUMBER OF ATOMS
32
ITEM: BOX BOUNDS xy xz yz pp pp pp
-4.0532350540161133e-03 6.4008854031562805e+00 0.0000000000000000e+00
-9.1640949249267578e-03 1.0782710731029510e+01 0.0000000000000000e+00
-4.7960281372070312e-02 2.0773346722126007e+01 5.2531154751777649e+00
ITEM: ATOMS id type xs ys zs fx fy fz
1 1 0.999986 0.609237 0.0600176 0 0 0.000383377
2 1 0.499986 0.609237 0.0600176 0 0 0.000383377
3 1 0.249986 0.109237 0.0600179 0 0 0.000375748
4 1 0.749986 0.109237 0.0600179 0 0 0.000375748
5 1 0.999986 0.37231 0.309841 0 0 -0.000171661
6 1 0.249986 0.325142 0.184908 0 0 -5.72205e-05
7 1 0.749986 0.325142 0.184908 0 0 -5.72205e-05
8 1 0.499986 0.37231 0.309841 0 0 -0.000171661
9 1 0.999986 0.825141 0.184908 0 0 -6.67572e-05
10 1 0.249986 0.872311 0.309841 0 0 -0.000181198
11 1 0.499986 0.825141 0.184908 0 0 -6.67572e-05
12 1 0.749986 0.872311 0.309841 0 0 -0.000181198
13 1 0.999986 0.135284 0.559741 0 0 -0.00156212
14 1 0.499986 0.135284 0.559741 0 0 -0.00156212
15 1 0.249986 0.635282 0.559741 0 0 -0.00156975
16 1 0.749986 0.635282 0.559741 0 0 -0.00156975
17 1 0.249986 0.088176 0.43476 0 0 0.00154686
18 1 0.749986 0.088176 0.43476 0 0 0.00154686
19 1 0.999986 0.588176 0.43476 0 0 0.00156021
20 1 0.499986 0.588176 0.43476 0 0 0.00156021
21 1 0.999986 0.898308 0.809594 0 0 4.3869e-05
22 1 0.249986 0.851145 0.68466 0 0 0.000200272
23 1 0.499986 0.898308 0.809594 0 0 4.3869e-05
24 1 0.749986 0.851145 0.68466 0 0 0.000200272
25 1 0.999986 0.351145 0.684661 0 0 0.000200272
26 1 0.249986 0.398309 0.809593 0 0 4.19617e-05
27 1 0.749986 0.398309 0.809593 0 0 4.19617e-05
28 1 0.499986 0.351145 0.684661 0 0 0.000200272
29 1 0.249986 0.61421 0.934484 0 0 -0.000387192
30 1 0.749986 0.61421 0.934484 0 0 -0.000387192
31 1 0.999986 0.114211 0.934483 0 0 -0.000356674
32 1 0.499986 0.114211 0.934483 0 0 -0.000356674
ITEM: TIMESTEP
4
ITEM: NUMBER OF ATOMS
32
ITEM: BOX BOUNDS xy xz yz pp pp pp
-4.0532350540161133e-03 6.4008854031562805e+00 0.0000000000000000e+00
-9.1640949249267578e-03 1.0782710731029510e+01 0.0000000000000000e+00
-4.7960281372070312e-02 2.0773346722126007e+01 5.2531154751777649e+00
ITEM: ATOMS id type xs ys zs fx fy fz
1 1 0.999986 0.60923 0.0600242 0 0 3.8147e-05
2 1 0.499986 0.60923 0.0600242 0 0 3.8147e-05
3 1 0.249986 0.10923 0.0600243 0 0 4.19617e-05
4 1 0.749986 0.10923 0.0600243 0 0 4.19617e-05
5 1 0.999986 0.372299 0.309852 0 0 -6.10352e-05
6 1 0.249986 0.325137 0.184914 0 0 8.01086e-05
7 1 0.749986 0.325137 0.184914 0 0 8.01086e-05
8 1 0.499986 0.372299 0.309852 0 0 -6.10352e-05
9 1 0.999986 0.825135 0.184914 0 0 8.2016e-05
10 1 0.249986 0.8723 0.309852 0 0 -5.91278e-05
11 1 0.499986 0.825135 0.184914 0 0 8.2016e-05
12 1 0.749986 0.8723 0.309852 0 0 -5.91278e-05
13 1 0.999986 0.135307 0.559717 0 0 -1.52588e-05
14 1 0.499986 0.135307 0.559717 0 0 -1.52588e-05
15 1 0.249986 0.635305 0.559717 0 0 -1.52588e-05
16 1 0.749986 0.635305 0.559717 0 0 -1.52588e-05
17 1 0.249986 0.0881533 0.434784 0 0 2.09808e-05
18 1 0.749986 0.0881533 0.434784 0 0 2.09808e-05
19 1 0.999986 0.588153 0.434784 0 0 1.90735e-05
20 1 0.499986 0.588153 0.434784 0 0 1.90735e-05
21 1 0.999986 0.898314 0.809587 0 0 -9.34601e-05
22 1 0.249986 0.851155 0.684649 0 0 6.48499e-05
23 1 0.499986 0.898314 0.809587 0 0 -9.34601e-05
24 1 0.749986 0.851155 0.684649 0 0 6.48499e-05
25 1 0.999986 0.351155 0.684649 0 0 5.72205e-05
26 1 0.249986 0.398315 0.809587 0 0 -7.82013e-05
27 1 0.749986 0.398315 0.809587 0 0 -7.82013e-05
28 1 0.499986 0.351155 0.684649 0 0 5.72205e-05
29 1 0.249986 0.614217 0.934477 0 0 -3.62396e-05
30 1 0.749986 0.614217 0.934477 0 0 -3.62396e-05
31 1 0.999986 0.114217 0.934477 0 0 -4.57764e-05
32 1 0.499986 0.114217 0.934477 0 0 -4.57764e-05
ITEM: TIMESTEP
5
ITEM: NUMBER OF ATOMS
32
ITEM: BOX BOUNDS xy xz yz pp pp pp
-4.0532350540161133e-03 6.4008854031562805e+00 0.0000000000000000e+00
-9.1640949249267578e-03 1.0782710731029510e+01 0.0000000000000000e+00
-4.7960281372070312e-02 2.0773346722126007e+01 5.2531154751777649e+00
ITEM: ATOMS id type xs ys zs fx fy fz
1 1 0.999986 0.60923 0.0600242 0 0 3.8147e-05
2 1 0.499986 0.60923 0.0600242 0 0 3.8147e-05
3 1 0.249986 0.10923 0.0600243 0 0 4.19617e-05
4 1 0.749986 0.10923 0.0600243 0 0 4.19617e-05
5 1 0.999986 0.372299 0.309852 0 0 -6.10352e-05
6 1 0.249986 0.325137 0.184914 0 0 8.01086e-05
7 1 0.749986 0.325137 0.184914 0 0 8.01086e-05
8 1 0.499986 0.372299 0.309852 0 0 -6.10352e-05
9 1 0.999986 0.825135 0.184914 0 0 8.2016e-05
10 1 0.249986 0.8723 0.309852 0 0 -5.91278e-05
11 1 0.499986 0.825135 0.184914 0 0 8.2016e-05
12 1 0.749986 0.8723 0.309852 0 0 -5.91278e-05
13 1 0.999986 0.135307 0.559717 0 0 -1.52588e-05
14 1 0.499986 0.135307 0.559717 0 0 -1.52588e-05
15 1 0.249986 0.635305 0.559717 0 0 -1.52588e-05
16 1 0.749986 0.635305 0.559717 0 0 -1.52588e-05
17 1 0.249986 0.0881533 0.434784 0 0 2.09808e-05
18 1 0.749986 0.0881533 0.434784 0 0 2.09808e-05
19 1 0.999986 0.588153 0.434784 0 0 1.90735e-05
20 1 0.499986 0.588153 0.434784 0 0 1.90735e-05
21 1 0.999986 0.898314 0.809587 0 0 -9.34601e-05
22 1 0.249986 0.851155 0.684649 0 0 6.48499e-05
23 1 0.499986 0.898314 0.809587 0 0 -9.34601e-05
24 1 0.749986 0.851155 0.684649 0 0 6.48499e-05
25 1 0.999986 0.351155 0.684649 0 0 5.72205e-05
26 1 0.249986 0.398315 0.809587 0 0 -7.82013e-05
27 1 0.749986 0.398315 0.809587 0 0 -7.82013e-05
28 1 0.499986 0.351155 0.684649 0 0 5.72205e-05
29 1 0.249986 0.614217 0.934477 0 0 -3.62396e-05
30 1 0.749986 0.614217 0.934477 0 0 -3.62396e-05
31 1 0.999986 0.114217 0.934477 0 0 -4.57764e-05
32 1 0.499986 0.114217 0.934477 0 0 -4.57764e-05
