ITEM: TIMESTEP
0
ITEM: NUMBER OF ATOMS
32
ITEM: BOX BOUNDS xy xz yz pp pp pp
0.0000000000000000e+00 6.3968321739000000e+00 0.0000000000000000e+00
0.0000000000000000e+00 5.5204311753999997e+00 0.0000000000000000e+00
0.0000000000000000e+00 2.0725386462399999e+01 0.0000000000000000e+00
ITEM: ATOMS id type xs ys zs fx fy fz
1 1 0.999986 0.666284 0.0597554 -4.55228e-07 -0.000275838 -0.000117825
2 1 0.499986 0.666284 0.0597554 1.09298e-07 -0.000276238 -0.000118009
3 1 0.249986 0.166284 0.0597529 7.41566e-08 -0.000273536 -2.27965e-05
4 1 0.749986 0.166284 0.0597529 1.84418e-07 -0.000273851 -2.30555e-05
5 1 0.999986 0.666297 0.309761 -2.10479e-07 -0.000294502 -0.000208005
6 1 0.249986 0.50039 0.18476 4.37198e-07 0.000270633 -0.000189872
7 1 0.749986 0.50039 0.18476 4.97384e-07 0.000271035 -0.000189523
8 1 0.499986 0.666297 0.309761 2.68921e-08 -0.000294514 -0.000207722
9 1 0.999986 0.000391002 0.184759 -6.05303e-07 0.000268155 -0.000132076
10 1 0.249986 0.166295 0.309759 -3.1156e-08 -0.000280949 -0.00013009
11 1 0.499986 0.000391002 0.184759 -3.43794e-07 0.000268185 -0.000132366
12 1 0.749986 0.166295 0.309759 3.8692e-07 -0.000280921 -0.000129919
13 1 0.999986 0.666278 0.559747 -2.41431e-07 -0.000243725 7.26237e-05
14 1 0.499986 0.666278 0.559747 -1.28055e-08 -0.000243803 7.25994e-05
15 1 0.249986 0.16628 0.559747 2.31084e-08 -0.000267179 6.14931e-05
16 1 0.749986 0.16628 0.559747 1.18278e-07 -0.000267215 6.13524e-05
17 1 0.249986 0.500393 0.434755 -7.13044e-09 0.000258251 -6.68606e-05
18 1 0.749986 0.500393 0.434755 3.05008e-07 0.000257945 -6.67705e-05
19 1 0.999986 0.000395418 0.434755 -2.79746e-07 0.000232918 -8.54657e-05
20 1 0.499986 0.000395418 0.434755 4.33066e-08 0.000232597 -8.53861e-05
21 1 0.999986 0.666272 0.809742 -2.04557e-07 -0.000260154 0.000148579
22 1 0.249986 0.500372 0.684743 7.9046e-08 0.000284087 0.000131582
23 1 0.499986 0.666272 0.809742 -6.17538e-08 -0.000260156 0.000148549
24 1 0.749986 0.500372 0.684743 1.6205e-07 0.00028414 0.000131435
25 1 0.999986 0.000371505 0.684741 -2.85769e-07 0.000289054 0.000190437
26 1 0.249986 0.166272 0.809741 -1.4559e-09 -0.000266242 0.000178279
27 1 0.749986 0.166272 0.809741 4.89541e-07 -0.000266641 0.000178421
28 1 0.499986 0.000371505 0.684741 -8.49801e-09 0.000289089 0.000190493
29 1 0.249986 0.500377 0.934747 5.76692e-08 0.000273896 5.35586e-05
30 1 0.749986 0.500377 0.934747 1.07909e-07 0.000273885 5.35295e-05
31 1 0.999986 0.000375504 0.934746 -3.48038e-07 0.000285921 0.000116189
32 1 0.499986 0.000375505 0.934746 -4.71006e-09 0.000285633 0.000116271
ITEM: TIMESTEP
10
ITEM: NUMBER OF ATOMS
32
ITEM: BOX BOUNDS xy xz yz pp pp pp
2.2591937067294285e-03 6.3945729801932707e+00 0.0000000000000000e+00
1.9496718111166121e-03 5.5184815035888812e+00 0.0000000000000000e+00
7.3196640762958586e-03 2.0718066798323708e+01 0.0000000000000000e+00
ITEM: ATOMS id type xs ys zs fx fy fz
1 1 0.999986 0.666284 0.0597554 -3.79223e-08 -0.000293992 -0.000117635
2 1 0.499986 0.666284 0.0597554 2.57677e-07 -0.000294136 -0.000117738
3 1 0.249986 0.166284 0.0597529 4.77594e-07 -0.000293203 -2.33519e-05
4 1 0.749986 0.166284 0.0597529 -6.67292e-07 -0.000293063 -2.32945e-05
5 1 0.999986 0.666297 0.309761 -1.36104e-07 -0.000312795 -0.000208202
6 1 0.249986 0.50039 0.18476 2.25146e-07 0.000290267 -0.000191239
7 1 0.749986 0.50039 0.18476 -5.92346e-07 0.000289981 -0.000191255
8 1 0.499986 0.666297 0.309761 4.81842e-07 -0.000312989 -0.000208437
9 1 0.999986 0.000391056 0.184759 -1.26601e-07 0.000286112 -0.000133021
10 1 0.249986 0.166295 0.309759 2.11352e-07 -0.000299739 -0.000131932
11 1 0.499986 0.000391056 0.184759 2.52421e-07 0.000286455 -0.000133415
12 1 0.749986 0.166295 0.309759 -6.70203e-07 -0.000299827 -0.000131664
13 1 0.999986 0.666278 0.559747 -3.0738e-07 -0.000262494 7.28936e-05
14 1 0.499986 0.666278 0.559747 3.64728e-07 -0.000262229 7.30048e-05
15 1 0.249986 0.16628 0.559747 2.25729e-07 -0.000285813 6.35779e-05
16 1 0.749986 0.16628 0.559747 -3.59491e-07 -0.000285888 6.35797e-05
17 1 0.249986 0.500393 0.434755 2.13768e-07 0.00027653 -6.98604e-05
18 1 0.749986 0.500393 0.434755 -4.56697e-07 0.000276359 -6.98721e-05
19 1 0.999986 0.000395465 0.434755 -8.61473e-08 0.000250994 -8.58735e-05
20 1 0.499986 0.000395466 0.434755 4.34578e-07 0.000250922 -8.59096e-05
21 1 0.999986 0.666272 0.809742 -3.72163e-07 -0.000279194 0.000150342
22 1 0.249986 0.500372 0.684743 3.57366e-07 0.000302279 0.000131788
23 1 0.499986 0.666272 0.809742 5.83292e-07 -0.000279052 0.000150332
24 1 0.749986 0.500372 0.684743 -3.80082e-07 0.000302248 0.000131962
25 1 0.999986 0.000371563 0.684741 -3.09183e-07 0.000308457 0.000191524
26 1 0.249986 0.166272 0.809741 2.94443e-07 -0.000284765 0.000179389
27 1 0.749986 0.166272 0.809741 -5.08686e-07 -0.000284711 0.000179241
28 1 0.499986 0.000371563 0.684741 4.34578e-07 0.000308334 0.000191508
29 1 0.249986 0.500377 0.934747 2.8903e-07 0.000292971 5.22182e-05
30 1 0.749986 0.500377 0.934747 -2.05399e-07 0.000293024 5.22609e-05
31 1 0.999986 0.000375562 0.934746 -3.42348e-07 0.000304269 0.000119439
32 1 0.499986 0.000375562 0.934746 4.55704e-07 0.000304532 0.000119485
ITEM: TIMESTEP
32
ITEM: NUMBER OF ATOMS
32
ITEM: BOX BOUNDS xy xz yz pp pp pp
3.0272657245757604e-03 6.3938049081754240e+00 0.0000000000000000e+00
-3.1320509042145829e-03 5.5235632263042138e+00 0.0000000000000000e+00
2.7435269680358088e-02 2.0697951192719628e+01 0.0000000000000000e+00
ITEM: ATOMS id type xs ys zs fx fy fz
1 1 0.999986 0.666285 0.0597554 3.00002e-07 0.00162492 -0.000120582
2 1 0.499986 0.666285 0.0597554 6.93236e-08 0.00162512 -0.000120777
3 1 0.249986 0.166285 0.0597529 -4.13464e-07 0.00162581 -2.42927e-05
4 1 0.749986 0.166285 0.0597529 4.47407e-07 0.00162596 -2.46486e-05
5 1 0.999986 0.666298 0.309761 1.58463e-07 0.00160654 -0.000209775
6 1 0.249986 0.50039 0.18476 -3.96713e-07 -0.00162942 -0.000191994
7 1 0.749986 0.50039 0.18476 2.80987e-07 -0.00162979 -0.000191737
8 1 0.499986 0.666298 0.309761 -1.8626e-08 0.00160666 -0.000209989
9 1 0.999986 0.000390151 0.184758 -2.27272e-08 -0.00163295 -0.000134172
10 1 0.249986 0.166296 0.309759 -3.05241e-07 0.00161973 -0.000131667
11 1 0.499986 0.000390151 0.184758 -3.76534e-07 -0.00163305 -0.00013383
12 1 0.749986 0.166296 0.309759 3.90457e-07 0.0016199 -0.000131955
13 1 0.999986 0.666279 0.559747 1.71137e-07 0.00165669 7.49169e-05
14 1 0.499986 0.666279 0.559747 -4.91039e-07 0.00165672 7.50073e-05
15 1 0.249986 0.16628 0.559747 -3.96627e-07 0.00163561 6.24889e-05
16 1 0.749986 0.16628 0.559747 3.4133e-07 0.00163591 6.20544e-05
17 1 0.249986 0.500393 0.434755 -3.80591e-07 -0.00164415 -7.02198e-05
18 1 0.749986 0.500393 0.434755 3.66825e-07 -0.00164437 -7.0523e-05
19 1 0.999986 0.000394521 0.434755 1.85507e-07 -0.00166928 -8.6268e-05
20 1 0.499986 0.000394521 0.434755 -1.34809e-07 -0.00166937 -8.60381e-05
21 1 0.999986 0.666272 0.809742 2.536e-07 0.00163992 0.000148993
22 1 0.249986 0.500372 0.684743 -6.07454e-07 -0.00161649 0.000132857
23 1 0.499986 0.666272 0.809742 -1.42124e-07 0.00163988 0.000149249
24 1 0.749986 0.500372 0.684743 4.57979e-07 -0.00161706 0.000132835
25 1 0.999986 0.000370682 0.684741 3.77905e-07 -0.00161121 0.000193485
26 1 0.249986 0.166273 0.809741 -4.32453e-07 0.00163444 0.000178832
27 1 0.749986 0.166273 0.809741 3.37261e-07 0.00163469 0.000178733
28 1 0.499986 0.000370682 0.684741 -2.03386e-07 -0.00161104 0.000193889
29 1 0.249986 0.500376 0.934748 -5.78584e-07 -0.00162585 5.7042e-05
30 1 0.749986 0.500376 0.934748 4.21324e-07 -0.00162583 5.7132e-05
31 1 0.999986 0.000374677 0.934746 4.02884e-07 -0.0016143 0.000120324
32 1 0.499986 0.000374678 0.934746 -1.17037e-07 -0.00161444 0.00012047
ITEM: TIMESTEP
33
ITEM: NUMBER OF ATOMS
32
ITEM: BOX BOUNDS xy xz yz pp pp pp
3.0272657245757604e-03 6.3938049081754240e+00 0.0000000000000000e+00
-3.1320509042145829e-03 5.5235632263042138e+00 0.0000000000000000e+00
2.7435269680358088e-02 2.0697951192719628e+01 0.0000000000000000e+00
ITEM: ATOMS id type xs ys zs fx fy fz
1 1 0.999986 0.666285 0.0597554 3.00002e-07 0.00162492 -0.000120582
2 1 0.499986 0.666285 0.0597554 6.93236e-08 0.00162512 -0.000120777
3 1 0.249986 0.166285 0.0597529 -4.13464e-07 0.00162581 -2.42927e-05
4 1 0.749986 0.166285 0.0597529 4.47407e-07 0.00162596 -2.46486e-05
5 1 0.999986 0.666298 0.309761 1.58463e-07 0.00160654 -0.000209775
6 1 0.249986 0.50039 0.18476 -3.96713e-07 -0.00162942 -0.000191994
7 1 0.749986 0.50039 0.18476 2.80987e-07 -0.00162979 -0.000191737
8 1 0.499986 0.666298 0.309761 -1.8626e-08 0.00160666 -0.000209989
9 1 0.999986 0.000390151 0.184758 -2.27272e-08 -0.00163295 -0.000134172
10 1 0.249986 0.166296 0.309759 -3.05241e-07 0.00161973 -0.000131667
11 1 0.499986 0.000390151 0.184758 -3.76534e-07 -0.00163305 -0.00013383
12 1 0.749986 0.166296 0.309759 3.90457e-07 0.0016199 -0.000131955
13 1 0.999986 0.666279 0.559747 1.71137e-07 0.00165669 7.49169e-05
14 1 0.499986 0.666279 0.559747 -4.91039e-07 0.00165672 7.50073e-05
15 1 0.249986 0.16628 0.559747 -3.96627e-07 0.00163561 6.24889e-05
16 1 0.749986 0.16628 0.559747 3.4133e-07 0.00163591 6.20544e-05
17 1 0.249986 0.500393 0.434755 -3.80591e-07 -0.00164415 -7.02198e-05
18 1 0.749986 0.500393 0.434755 3.66825e-07 -0.00164437 -7.0523e-05
19 1 0.999986 0.000394521 0.434755 1.85507e-07 -0.00166928 -8.6268e-05
20 1 0.499986 0.000394521 0.434755 -1.34809e-07 -0.00166937 -8.60381e-05
21 1 0.999986 0.666272 0.809742 2.536e-07 0.00163992 0.000148993
22 1 0.249986 0.500372 0.684743 -6.07454e-07 -0.00161649 0.000132857
23 1 0.499986 0.666272 0.809742 -1.42124e-07 0.00163988 0.000149249
24 1 0.749986 0.500372 0.684743 4.57979e-07 -0.00161706 0.000132835
25 1 0.999986 0.000370682 0.684741 3.77905e-07 -0.00161121 0.000193485
26 1 0.249986 0.166273 0.809741 -4.32453e-07 0.00163444 0.000178832
27 1 0.749986 0.166273 0.809741 3.37261e-07 0.00163469 0.000178733
28 1 0.499986 0.000370682 0.684741 -2.03386e-07 -0.00161104 0.000193889
29 1 0.249986 0.500376 0.934748 -5.78584e-07 -0.00162585 5.7042e-05
30 1 0.749986 0.500376 0.934748 4.21324e-07 -0.00162583 5.7132e-05
31 1 0.999986 0.000374677 0.934746 4.02884e-07 -0.0016143 0.000120324
32 1 0.499986 0.000374678 0.934746 -1.17037e-07 -0.00161444 0.00012047
