ITEM: TIMESTEP
0
ITEM: NUMBER OF ATOMS
32
ITEM: BOX BOUNDS xy xz yz pp pp pp
-3.4762620925903320e-03 6.5579802989959717e+00 1.5995061397552490e-01
-4.2882263660430908e-02 2.2125610172748566e+01 4.4107437133789062e-06
1.5788495540618896e-02 5.1666774749755859e+00 -1.5008449554443359e-04
ITEM: ATOMS id type xs ys zs fx fy fz
1 1 0.0108047 0.33658 0.593597 0 0.00117683 -3.8147e-06
2 1 0.510805 0.33658 0.593597 0 0.00117302 -9.53674e-06
3 1 0.261844 0.294997 0.0935973 0 -0.00108147 7.62939e-06
4 1 0.761844 0.294997 0.0935972 0 -0.00107574 7.62939e-06
5 1 0.257682 0.461582 0.593597 0 0.00106049 -2.47955e-05
6 1 0.757682 0.461582 0.593597 0 0.00105667 -2.67029e-05
7 1 0.00872059 0.419999 0.0935965 0 -0.00120544 2.28882e-05
8 1 0.50872 0.419999 0.0935967 0 -0.00119591 2.47955e-05
9 1 0.00455893 0.586581 0.593597 0 0.00110817 -5.72205e-06
10 1 0.504558 0.58658 0.593597 0 0.00110817 1.90735e-06
11 1 0.251436 0.711577 0.593597 0 0.00110626 -7.62939e-06
12 1 0.751436 0.711577 0.593598 0 0.00110435 -1.14441e-05
13 1 0.00247456 0.67 0.0935966 0 -0.00122261 1.33514e-05
14 1 0.255597 0.545001 0.0935972 0 -0.00122261 1.71661e-05
15 1 0.755598 0.545001 0.0935972 0 -0.0012207 1.90735e-05
16 1 0.502474 0.67 0.0935969 0 -0.00123596 1.14441e-05
17 1 0.998313 0.836574 0.593597 0 0.00168419 9.53674e-06
18 1 0.498313 0.836574 0.593597 0 0.00168419 5.72205e-06
19 1 0.24519 0.961574 0.593597 0 -0.00842857 1.90735e-06
20 1 0.74519 0.961574 0.593597 0 -0.00843811 1.90735e-06
21 1 0.249351 0.794998 0.0935969 0 -0.000757217 9.53674e-06
22 1 0.749352 0.794998 0.093597 0 -0.000761032 1.14441e-05
23 1 0.996229 0.919994 0.0935972 0 -0.0181561 -9.53674e-06
24 1 0.496228 0.919994 0.0935972 0 -0.0181522 -1.52588e-05
25 1 0.0170509 0.0865748 0.593597 0 0.0182915 0
26 1 0.517051 0.0865748 0.593597 0 0.0182877 0
27 1 0.26809 0.0449931 0.0935972 0 0.00850296 -7.62939e-06
28 1 0.76809 0.0449931 0.0935972 0 0.00850296 -9.53674e-06
29 1 0.263928 0.211577 0.593597 0 0.000707626 -1.71661e-05
30 1 0.763928 0.211577 0.593597 0 0.000707626 -1.71661e-05
31 1 0.014967 0.169994 0.0935969 0 -0.00155067 1.90735e-06
32 1 0.514966 0.169994 0.093597 0 -0.0015583 -1.90735e-06
ITEM: TIMESTEP
1
ITEM: NUMBER OF ATOMS
32
ITEM: BOX BOUNDS xy xz yz pp pp pp
-3.4762620925903320e-03 6.5579802989959717e+00 1.5995061397552490e-01
-4.2882263660430908e-02 2.2125610172748566e+01 4.4107437133789062e-06
1.5788495540618896e-02 5.1666774749755859e+00 -1.5008449554443359e-04
ITEM: ATOMS id type xs ys zs fx fy fz
1 1 0.0108043 0.336594 0.593597 0 0.000499725 9.53674e-06
2 1 0.510804 0.336594 0.593597 0 0.000501633 1.71661e-05
3 1 0.261844 0.294983 0.0935977 0 -0.000537872 1.90735e-06
4 1 0.761844 0.294983 0.0935976 0 -0.000551224 1.90735e-06
5 1 0.257681 0.461595 0.593596 0 0.000671387 2.28882e-05
6 1 0.757681 0.461595 0.593596 0 0.000669479 2.47955e-05
7 1 0.00872097 0.419984 0.0935977 0 -0.000667572 -2.28882e-05
8 1 0.508721 0.419984 0.093598 0 -0.000665665 -2.28882e-05
9 1 0.00455858 0.586594 0.593597 0 0.000612259 2.28882e-05
10 1 0.504558 0.586594 0.593597 0 0.000621796 2.09808e-05
11 1 0.251435 0.711591 0.593597 0 0.000558853 -9.53674e-06
12 1 0.751435 0.711591 0.593597 0 0.000564575 -7.62939e-06
13 1 0.00247494 0.669985 0.0935974 0 -0.000602722 -7.62939e-06
14 1 0.255598 0.544986 0.0935981 0 -0.000772476 -1.14441e-05
15 1 0.755598 0.544986 0.0935982 0 -0.000766754 -1.52588e-05
16 1 0.502475 0.669984 0.0935975 0 -0.000587463 -5.72205e-06
17 1 0.998312 0.836595 0.593597 0 -0.00410461 -7.62939e-06
18 1 0.498312 0.836595 0.593597 0 -0.00411034 -1.90735e-06
19 1 0.245192 0.961469 0.593597 0 0.00420189 5.72205e-06
20 1 0.745192 0.961469 0.593597 0 0.00419426 7.62939e-06
21 1 0.249352 0.794989 0.0935974 0 -0.00539017 3.8147e-06
22 1 0.749352 0.794989 0.0935976 0 -0.00539017 -3.8147e-06
23 1 0.996234 0.919767 0.0935967 0 -0.00170517 9.53674e-06
24 1 0.496234 0.919767 0.0935964 0 -0.00170708 5.72205e-06
25 1 0.0170452 0.0868026 0.593597 0 0.00178337 -1.33514e-05
26 1 0.517045 0.0868026 0.593597 0 0.00178719 -1.14441e-05
27 1 0.268087 0.045099 0.0935967 0 -0.00406837 -3.8147e-06
28 1 0.768087 0.045099 0.0935967 0 -0.00406647 -3.8147e-06
29 1 0.263928 0.211586 0.593596 0 0.00535965 7.62939e-06
30 1 0.763928 0.211586 0.593596 0 0.00536346 7.62939e-06
31 1 0.0149674 0.169975 0.093597 0 0.0041523 -1.14441e-05
32 1 0.514967 0.169975 0.0935969 0 0.0041523 -9.53674e-06
ITEM: TIMESTEP
2
ITEM: NUMBER OF ATOMS
32
ITEM: BOX BOUNDS xy xz yz pp pp pp
-3.4762620925903320e-03 6.5579802989959717e+00 1.5995061397552490e-01
-4.2882263660430908e-02 2.2125610172748566e+01 4.4107437133789062e-06
1.5788495540618896e-02 5.1666774749755859e+00 -1.5008449554443359e-04
ITEM: ATOMS id type xs ys zs fx fy fz
1 1 0.010804 0.336609 0.593598 0 0.00230217 -1.71661e-05
2 1 0.510804 0.336609 0.593598 0 0.00230789 -1.52588e-05
3 1 0.261844 0.294968 0.093598 0 0.00331688 9.53674e-06
4 1 0.761844 0.294968 0.0935979 0 0.00332451 1.52588e-05
5 1 0.257681 0.461613 0.593598 0 -6.29425e-05 -9.53674e-06
6 1 0.757681 0.461613 0.593598 0 -5.53131e-05 -1.33514e-05
7 1 0.00872143 0.419966 0.093596 0 -7.62939e-06 2.67029e-05
8 1 0.508721 0.419966 0.0935963 0 -1.71661e-05 3.05176e-05
9 1 0.00455816 0.586611 0.593599 0 -6.48499e-05 -2.28882e-05
10 1 0.504558 0.586611 0.593599 0 -7.62939e-05 -3.05176e-05
11 1 0.251435 0.711607 0.593596 0 -0.00333595 3.8147e-06
12 1 0.751435 0.711607 0.593596 0 -0.0033493 3.8147e-06
13 1 0.00247537 0.669968 0.0935969 0 -0.00234032 0
14 1 0.255598 0.544965 0.0935973 0 3.24249e-05 5.72205e-06
15 1 0.755598 0.544965 0.0935971 0 2.09808e-05 1.14441e-05
16 1 0.502475 0.669968 0.0935972 0 -0.00233841 -3.8147e-06
17 1 0.998314 0.836515 0.593597 0 0.000940323 3.05176e-05
18 1 0.498314 0.836515 0.593597 0 0.000963211 2.67029e-05
19 1 0.245191 0.961527 0.593597 0 0.000263214 -1.52588e-05
20 1 0.745191 0.961527 0.593598 0 0.000278473 -2.09808e-05
21 1 0.249355 0.794873 0.0935979 0 -0.000776291 -5.72205e-06
22 1 0.749355 0.794872 0.0935975 0 -0.000776291 0
23 1 0.996237 0.919666 0.0935974 0 0.000141144 -7.62939e-06
24 1 0.496237 0.919666 0.0935967 0 0.000131607 3.8147e-06
25 1 0.0170427 0.086906 0.593596 0 -0.000133514 7.62939e-06
26 1 0.517043 0.0869061 0.593596 0 -0.000135422 3.8147e-06
27 1 0.268088 0.0450442 0.0935963 0 -0.000219345 7.62939e-06
28 1 0.768088 0.0450442 0.0935962 0 -0.000225067 1.71661e-05
29 1 0.263925 0.211701 0.593597 0 0.000808716 -1.14441e-05
30 1 0.763925 0.211701 0.593597 0 0.000802994 -1.52588e-05
31 1 0.0149654 0.170056 0.093596 0 -0.000860214 -7.62939e-06
32 1 0.514965 0.170056 0.093596 0 -0.000860214 -7.62939e-06
ITEM: TIMESTEP
3
ITEM: NUMBER OF ATOMS
32
ITEM: BOX BOUNDS xy xz yz pp pp pp
-3.4762620925903320e-03 6.5579802989959717e+00 1.5995061397552490e-01
-4.2882263660430908e-02 2.2125610172748566e+01 4.4107437133789062e-06
1.5788495540618896e-02 5.1666774749755859e+00 -1.5008449554443359e-04
ITEM: ATOMS id type xs ys zs fx fy fz
1 1 0.0108027 0.336661 0.593596 0 0.00030899 4.00543e-05
2 1 0.510803 0.336661 0.593597 0 0.00030899 3.24249e-05
3 1 0.261843 0.295034 0.0935989 0 -0.000131607 -4.57764e-05
4 1 0.761843 0.295034 0.0935993 0 -0.000131607 -5.34058e-05
5 1 0.257681 0.461616 0.593597 0 0.000850677 9.53674e-06
6 1 0.757681 0.461616 0.593597 0 0.000839233 1.33514e-05
7 1 0.00872155 0.419961 0.093598 0 0.00235748 -1.52588e-05
8 1 0.508721 0.419961 0.0935986 0 0.00238609 -2.09808e-05
9 1 0.00455809 0.586614 0.593597 0 -0.00237083 -3.8147e-06
10 1 0.504558 0.586614 0.593597 0 -0.0023613 1.33514e-05
11 1 0.251436 0.711541 0.593596 0 0.000125885 1.90735e-05
12 1 0.751436 0.71154 0.593596 0 0.000125885 1.71661e-05
13 1 0.0024767 0.669914 0.0935967 0 -0.000314713 -5.72205e-06
14 1 0.255598 0.54496 0.0935976 0 -0.000898361 -5.72205e-06
15 1 0.755599 0.54496 0.0935979 0 -0.000892639 -1.14441e-05
16 1 0.502476 0.669914 0.0935967 0 -0.000322342 -9.53674e-06
17 1 0.998314 0.836514 0.593599 0 -0.000494003 -3.24249e-05
18 1 0.498314 0.836515 0.593599 0 -0.000516891 -3.43323e-05
19 1 0.24519 0.961547 0.593596 0 -0.000804901 1.33514e-05
20 1 0.74519 0.961547 0.593596 0 -0.000806808 2.09808e-05
21 1 0.249356 0.794827 0.0935975 0 -0.000314713 1.52588e-05
22 1 0.749356 0.794826 0.0935974 0 -0.000310898 1.33514e-05
23 1 0.996238 0.919643 0.0935969 0 0.000144958 0
24 1 0.496237 0.919643 0.0935971 0 0.000162125 -1.90735e-06
25 1 0.0170421 0.0869297 0.593596 0 -8.58307e-05 5.72205e-06
26 1 0.517042 0.0869298 0.593596 0 -9.34601e-05 3.8147e-06
27 1 0.268089 0.0450255 0.0935969 0 0.000822067 -7.62939e-06
28 1 0.768089 0.0450254 0.0935976 0 0.000833511 -1.90735e-05
29 1 0.263924 0.211748 0.593596 0 0.000303268 3.8147e-06
30 1 0.763924 0.211748 0.593595 0 0.000303268 1.90735e-05
31 1 0.0149653 0.170059 0.0935951 0 0.000488281 1.14441e-05
32 1 0.514965 0.170059 0.0935951 0 0.000490189 1.52588e-05
ITEM: TIMESTEP
4
ITEM: NUMBER OF ATOMS
32
ITEM: BOX BOUNDS xy xz yz pp pp pp
-3.4762620925903320e-03 6.5579802989959717e+00 1.5995061397552490e-01
-4.2882263660430908e-02 2.2125610172748566e+01 4.4107437133789062e-06
1.5788495540618896e-02 5.1666774749755859e+00 -1.5008449554443359e-04
ITEM: ATOMS id type xs ys zs fx fy fz
1 1 0.010802 0.336688 0.593599 0 0.000101089 -4.95911e-05
2 1 0.510802 0.336688 0.593599 0 9.91821e-05 -4.3869e-05
3 1 0.261842 0.295057 0.0935954 0 7.62939e-05 3.43323e-05
4 1 0.761842 0.295057 0.0935954 0 7.82013e-05 3.8147e-05
5 1 0.25768 0.461634 0.593598 0 -0.000829697 5.72205e-06
6 1 0.75768 0.461634 0.593598 0 -0.000823975 1.90735e-06
7 1 0.00872045 0.420005 0.0935975 0 0.000101089 9.53674e-06
8 1 0.50872 0.420006 0.0935978 0 5.72205e-05 7.62939e-06
9 1 0.00455922 0.586569 0.593596 0 -5.91278e-05 3.8147e-06
10 1 0.504559 0.586569 0.593597 0 -6.10352e-05 -3.8147e-06
11 1 0.251437 0.711517 0.593598 0 -5.72205e-05 -9.53674e-06
12 1 0.751437 0.711517 0.593598 0 -3.8147e-05 -5.72205e-06
13 1 0.00247738 0.669887 0.0935962 0 -0.000116348 2.09808e-05
14 1 0.255599 0.544941 0.0935973 0 0.000793457 -9.53674e-06
15 1 0.755599 0.544941 0.0935972 0 0.000801086 -7.62939e-06
16 1 0.502477 0.669887 0.0935958 0 -0.00012207 3.24249e-05
17 1 0.998315 0.836504 0.593598 0 -0.000701904 -3.8147e-06
18 1 0.498315 0.836504 0.593597 0 -0.000705719 -1.90735e-06
19 1 0.245191 0.961539 0.593597 0 -0.000293732 -7.62939e-06
20 1 0.745191 0.961539 0.593597 0 -0.000301361 -9.53674e-06
21 1 0.249356 0.794802 0.0935986 0 8.7738e-05 -5.72205e-06
22 1 0.749356 0.794802 0.0935985 0 8.01086e-05 0
23 1 0.996238 0.919637 0.0935967 0 3.24249e-05 5.72205e-06
24 1 0.496237 0.919637 0.0935971 0 2.47955e-05 0
25 1 0.0170419 0.0869373 0.593597 0 -3.8147e-05 -1.14441e-05
26 1 0.517042 0.0869372 0.593597 0 -2.86102e-05 -5.72205e-06
27 1 0.268089 0.0450343 0.0935964 0 0.000329971 1.14441e-05
28 1 0.768089 0.0450344 0.0935965 0 0.000318527 1.52588e-05
29 1 0.263923 0.211772 0.593596 0 -8.2016e-05 -1.14441e-05
30 1 0.763923 0.211772 0.593597 0 -7.82013e-05 -2.67029e-05
31 1 0.0149651 0.17007 0.0935957 0 0.000675201 1.90735e-05
32 1 0.514965 0.17007 0.093596 0 0.000680923 7.62939e-06
ITEM: TIMESTEP
5
ITEM: NUMBER OF ATOMS
32
ITEM: BOX BOUNDS xy xz yz pp pp pp
-3.4762620925903320e-03 6.5579802989959717e+00 1.5995061397552490e-01
-4.2882263660430908e-02 2.2125610172748566e+01 4.4107437133789062e-06
1.5788495540618896e-02 5.1666774749755859e+00 -1.5008449554443359e-04
ITEM: ATOMS id type xs ys zs fx fy fz
1 1 0.0108019 0.336693 0.593596 0 -0.000329971 3.8147e-05
2 1 0.510802 0.336693 0.593596 0 -0.000349045 3.8147e-05
3 1 0.261842 0.295062 0.0935975 0 0.000274658 -3.24249e-05
4 1 0.761842 0.295062 0.0935977 0 0.000274658 -4.19617e-05
5 1 0.257681 0.461622 0.593598 0 7.82013e-05 -1.33514e-05
6 1 0.757681 0.461622 0.593598 0 7.43866e-05 -3.8147e-06
7 1 0.00872024 0.420013 0.0935981 0 -5.91278e-05 -5.72205e-06
8 1 0.50872 0.420013 0.0935982 0 -2.86102e-05 -5.72205e-06
9 1 0.00455941 0.586561 0.593597 0 3.24249e-05 -7.62939e-06
10 1 0.504559 0.586561 0.593597 0 2.47955e-05 -9.53674e-06
11 1 0.251437 0.711513 0.593597 0 -0.000291824 2.47955e-05
12 1 0.751437 0.711513 0.593597 0 -0.000293732 2.67029e-05
13 1 0.00247753 0.669881 0.0935977 0 0.000337601 -2.28882e-05
14 1 0.255599 0.544952 0.0935965 0 -5.91278e-05 1.52588e-05
15 1 0.755599 0.544952 0.0935965 0 -5.34058e-05 9.53674e-06
16 1 0.502477 0.669881 0.0935981 0 0.00034523 -2.09808e-05
17 1 0.998315 0.836491 0.593597 0 -8.58307e-05 7.62939e-06
18 1 0.498315 0.836491 0.593597 0 -8.2016e-05 1.33514e-05
19 1 0.245191 0.961533 0.593596 0 -7.43866e-05 1.33514e-05
20 1 0.745191 0.961533 0.593596 0 -6.86646e-05 1.52588e-05
21 1 0.249356 0.7948 0.0935983 0 -3.24249e-05 -1.90735e-05
22 1 0.749357 0.7948 0.0935987 0 -2.09808e-05 -2.47955e-05
23 1 0.996238 0.919637 0.0935971 0 -2.86102e-05 -5.72205e-06
24 1 0.496237 0.919637 0.0935971 0 -2.28882e-05 -5.72205e-06
25 1 0.0170419 0.0869377 0.593596 0 2.47955e-05 9.53674e-06
26 1 0.517042 0.0869378 0.593596 0 1.90735e-05 1.14441e-05
27 1 0.268089 0.0450414 0.0935972 0 5.72205e-05 -1.90735e-05
28 1 0.768089 0.0450413 0.0935975 0 6.48499e-05 -1.90735e-05
29 1 0.263923 0.211774 0.593595 0 3.24249e-05 4.00543e-05
30 1 0.763923 0.211774 0.593595 0 3.43323e-05 4.3869e-05
31 1 0.0149647 0.170084 0.0935972 0 0.000101089 -2.86102e-05
32 1 0.514964 0.170084 0.0935967 0 0.000104904 -2.09808e-05
ITEM: TIMESTEP
6
ITEM: NUMBER OF ATOMS
32
ITEM: BOX BOUNDS xy xz yz pp pp pp
-3.4762620925903320e-03 6.5579802989959717e+00 1.5995061397552490e-01
-4.2882263660430908e-02 2.2125610172748566e+01 4.4107437133789062e-06
1.5788495540618896e-02 5.1666774749755859e+00 -1.5008449554443359e-04
ITEM: ATOMS id type xs ys zs fx fy fz
1 1 0.0108019 0.336693 0.593596 0 -0.000329971 3.8147e-05
2 1 0.510802 0.336693 0.593596 0 -0.000349045 3.8147e-05
3 1 0.261842 0.295062 0.0935975 0 0.000274658 -3.24249e-05
4 1 0.761842 0.295062 0.0935977 0 0.000274658 -4.19617e-05
5 1 0.257681 0.461622 0.593598 0 7.82013e-05 -1.33514e-05
6 1 0.757681 0.461622 0.593598 0 7.43866e-05 -3.8147e-06
7 1 0.00872024 0.420013 0.0935981 0 -5.91278e-05 -5.72205e-06
8 1 0.50872 0.420013 0.0935982 0 -2.86102e-05 -5.72205e-06
9 1 0.00455941 0.586561 0.593597 0 3.24249e-05 -7.62939e-06
10 1 0.504559 0.586561 0.593597 0 2.47955e-05 -9.53674e-06
11 1 0.251437 0.711513 0.593597 0 -0.000291824 2.47955e-05
12 1 0.751437 0.711513 0.593597 0 -0.000293732 2.67029e-05
13 1 0.00247753 0.669881 0.0935977 0 0.000337601 -2.28882e-05
14 1 0.255599 0.544952 0.0935965 0 -5.91278e-05 1.52588e-05
15 1 0.755599 0.544952 0.0935965 0 -5.34058e-05 9.53674e-06
16 1 0.502477 0.669881 0.0935981 0 0.00034523 -2.09808e-05
17 1 0.998315 0.836491 0.593597 0 -8.58307e-05 7.62939e-06
18 1 0.498315 0.836491 0.593597 0 -8.2016e-05 1.33514e-05
19 1 0.245191 0.961533 0.593596 0 -7.43866e-05 1.33514e-05
20 1 0.745191 0.961533 0.593596 0 -6.86646e-05 1.52588e-05
21 1 0.249356 0.7948 0.0935983 0 -3.24249e-05 -1.90735e-05
22 1 0.749357 0.7948 0.0935987 0 -2.09808e-05 -2.47955e-05
23 1 0.996238 0.919637 0.0935971 0 -2.86102e-05 -5.72205e-06
24 1 0.496237 0.919637 0.0935971 0 -2.28882e-05 -5.72205e-06
25 1 0.0170419 0.0869377 0.593596 0 2.47955e-05 9.53674e-06
26 1 0.517042 0.0869378 0.593596 0 1.90735e-05 1.14441e-05
27 1 0.268089 0.0450414 0.0935972 0 5.72205e-05 -1.90735e-05
28 1 0.768089 0.0450413 0.0935975 0 6.48499e-05 -1.90735e-05
29 1 0.263923 0.211774 0.593595 0 3.24249e-05 4.00543e-05
30 1 0.763923 0.211774 0.593595 0 3.43323e-05 4.3869e-05
31 1 0.0149647 0.170084 0.0935972 0 0.000101089 -2.86102e-05
32 1 0.514964 0.170084 0.0935967 0 0.000104904 -2.09808e-05
