Generated by pymatgen.io.lammps.data.LammpsData

900  atoms

  4  atom types

0.000000 26.250210  xlo xhi
0.000000 26.250210  ylo yhi
0.000000 25.310800  zlo zhi

Masses

1   6.941000
2  72.640000
3  30.973762
4  32.065000

Atoms

1    1  1.906369  7.136540  9.545386
2    1  1.906369  7.136540 22.200811
3    1  1.906369 15.886601  9.545386
4    1  1.906369 15.886601 22.200811
5    1  1.906369 24.636688  9.545386
6    1  1.906369 24.636688 22.200811
7    1 10.656509  7.136540  9.545386
8    1 10.656509  7.136540 22.200811
9    1 10.656509 15.886601  9.545386
10   1 10.656509 15.886601 22.200811
11   1 10.656509 24.636688  9.545386
12   1 10.656509 24.636688 22.200811
13   1 19.406492  7.136540  9.545386
14   1 19.406492  7.136540 22.200811
15   1 19.406492 15.886601  9.545386
16   1 19.406492 15.886601 22.200811
17   1 19.406492 24.636688  9.545386
18   1 19.406492 24.636688 22.200811
19   1  1.942148  2.272927 11.638589
20   1  1.942148  2.272927 24.293989
21   1  1.942148 11.022988 11.638589
22   1  1.942148 11.022988 24.293989
23   1  1.942148 19.773102 11.638589
24   1  1.942148 19.773102 24.293989
25   1 10.692209  2.272927 11.638589
26   1 10.692209  2.272927 24.293989
27   1 10.692209 11.022988 11.638589
28   1 10.692209 11.022988 24.293989
29   1 10.692209 19.773102 11.638589
30   1 10.692209 19.773102 24.293989
31   1 19.442297  2.272927 11.638589
32   1 19.442297  2.272927 24.293989
33   1 19.442297 11.022988 11.638589
34   1 19.442297 11.022988 24.293989
35   1 19.442297 19.773102 11.638589
36   1 19.442297 19.773102 24.293989
37   1  2.002760  6.626446  3.183112
38   1  2.002760  6.626446 15.838512
39   1  2.002760 15.376507  3.183112
40   1  2.002760 15.376507 15.838512
41   1  2.002760 24.126594  3.183112
42   1  2.002760 24.126594 15.838512
43   1 10.752795  6.626446  3.183112
44   1 10.752795  6.626446 15.838512
45   1 10.752795 15.376507  3.183112
46   1 10.752795 15.376507 15.838512
47   1 10.752795 24.126594  3.183112
48   1 10.752795 24.126594 15.838512
49   1 19.502909  6.626446  3.183112
50   1 19.502909  6.626446 15.838512
51   1 19.502909 15.376507  3.183112
52   1 19.502909 15.376507 15.838512
53   1 19.502909 24.126594  3.183112
54   1 19.502909 24.126594 15.838512
55   1  2.012420  1.970000  4.653669
56   1  2.012420  1.970000 17.309094
57   1  2.012420 10.720087  4.653669
58   1  2.012420 10.720087 17.309094
59   1  2.012420 19.470201  4.653669
60   1  2.012420 19.470201 17.309094
61   1 10.762507  1.970000  4.653669
62   1 10.762507  1.970000 17.309094
63   1 10.762507 10.720087  4.653669
64   1 10.762507 10.720087 17.309094
65   1 10.762507 19.470201  4.653669
66   1 10.762507 19.470201 17.309094
67   1 19.512490  1.970000  4.653669
68   1 19.512490  1.970000 17.309094
69   1 19.512490 10.720087  4.653669
70   1 19.512490 10.720087 17.309094
71   1 19.512490 19.470201  4.653669
72   1 19.512490 19.470201 17.309094
73   1  2.107866  1.846072  8.226111
74   1  2.107866  1.846072 20.881511
75   1  2.107866 10.596107  8.226111
76   1  2.107866 10.596107 20.881511
77   1  2.107866 19.346195  8.226111
78   1  2.107866 19.346195 20.881511
79   1 10.857901  1.846072  8.226111
80   1 10.857901  1.846072 20.881511
81   1 10.857901 10.596107  8.226111
82   1 10.857901 10.596107 20.881511
83   1 10.857901 19.346195  8.226111
84   1 10.857901 19.346195 20.881511
85   1 19.607988  1.846072  8.226111
86   1 19.607988  1.846072 20.881511
87   1 19.607988 10.596107  8.226111
88   1 19.607988 10.596107 20.881511
89   1 19.607988 19.346195  8.226111
90   1 19.607988 19.346195 20.881511
91   1  2.137397  6.304224  6.137667
92   1  2.137397  6.304224 18.793092
93   1  2.137397 15.054312  6.137667
94   1  2.137397 15.054312 18.793092
95   1  2.137397 23.804399  6.137667
96   1  2.137397 23.804399 18.793092
97   1 10.887511  6.304224  6.137667
98   1 10.887511  6.304224 18.793092
99   1 10.887511 15.054312  6.137667
100  1 10.887511 15.054312 18.793092
101  1 10.887511 23.804399  6.137667
102  1 10.887511 23.804399 18.793092
103  1 19.637493  6.304224  6.137667
104  1 19.637493  6.304224 18.793092
105  1 19.637493 15.054312  6.137667
106  1 19.637493 15.054312 18.793092
107  1 19.637493 23.804399  6.137667
108  1 19.637493 23.804399 18.793092
109  1  2.145430  6.641172  0.088360
110  1  2.145430  6.641172 12.743811
111  1  2.145430 15.391207  0.088360
112  1  2.145430 15.391207 12.743811
113  1  2.145430 24.141294  0.088360
114  1  2.145430 24.141294 12.743811
115  1 10.895491  6.641172  0.088360
116  1 10.895491  6.641172 12.743811
117  1 10.895491 15.391207  0.088360
118  1 10.895491 15.391207 12.743811
119  1 10.895491 24.141294  0.088360
120  1 10.895491 24.141294 12.743811
121  1 19.645605  6.641172  0.088360
122  1 19.645605  6.641172 12.743811
123  1 19.645605 15.391207  0.088360
124  1 19.645605 15.391207 12.743811
125  1 19.645605 24.141294  0.088360
126  1 19.645605 24.141294 12.743811
127  1  2.267257  2.547084  1.979583
128  1  2.267257  2.547084 14.635008
129  1  2.267257 11.297198  1.979583
130  1  2.267257 11.297198 14.635008
131  1  2.267257 20.047207  1.979583
132  1  2.267257 20.047207 14.635008
133  1 11.017292  2.547084  1.979583
134  1 11.017292  2.547084 14.635008
135  1 11.017292 11.297198  1.979583
136  1 11.017292 11.297198 14.635008
137  1 11.017292 20.047207  1.979583
138  1 11.017292 20.047207 14.635008
139  1 19.767406  2.547084  1.979583
140  1 19.767406  2.547084 14.635008
141  1 19.767406 11.297198  1.979583
142  1 19.767406 11.297198 14.635008
143  1 19.767406 20.047207  1.979583
144  1 19.767406 20.047207 14.635008
145  1  4.052245  4.507292  9.487500
146  1  4.052245  4.507292 22.142900
147  1  4.052245 13.257406  9.487500
148  1  4.052245 13.257406 22.142900
149  1  4.052245 22.007389  9.487500
150  1  4.052245 22.007389 22.142900
151  1 12.802306  4.507292  9.487500
152  1 12.802306  4.507292 22.142900
153  1 12.802306 13.257406  9.487500
154  1 12.802306 13.257406 22.142900
155  1 12.802306 22.007389  9.487500
156  1 12.802306 22.007389 22.142900
157  1 21.552394  4.507292  9.487500
158  1 21.552394  4.507292 22.142900
159  1 21.552394 13.257406  9.487500
160  1 21.552394 13.257406 22.142900
161  1 21.552394 22.007389  9.487500
162  1 21.552394 22.007389 22.142900
163  1  4.338477  8.714676  0.639756
164  1  4.338477  8.714676 13.295206
165  1  4.338477 17.464711  0.639756
166  1  4.338477 17.464711 13.295206
167  1  4.338477 26.214798  0.639756
168  1  4.338477 26.214798 13.295206
169  1 13.088512  8.714676  0.639756
170  1 13.088512  8.714676 13.295206
171  1 13.088512 17.464711  0.639756
172  1 13.088512 17.464711 13.295206
173  1 13.088512 26.214798  0.639756
174  1 13.088512 26.214798 13.295206
175  1 21.838600  8.714676  0.639756
176  1 21.838600  8.714676 13.295206
177  1 21.838600 17.464711  0.639756
178  1 21.838600 17.464711 13.295206
179  1 21.838600 26.214798  0.639756
180  1 21.838600 26.214798 13.295206
181  1  4.477918  8.430701  6.949333
182  1  4.477918  8.430701 19.604708
183  1  4.477918 17.180789  6.949333
184  1  4.477918 17.180789 19.604708
185  1  4.477918 25.930797  6.949333
186  1  4.477918 25.930797 19.604708
187  1 13.228006  8.430701  6.949333
188  1 13.228006  8.430701 19.604708
189  1 13.228006 17.180789  6.949333
190  1 13.228006 17.180789 19.604708
191  1 13.228006 25.930797  6.949333
192  1 13.228006 25.930797 19.604708
193  1 21.977988  8.430701  6.949333
194  1 21.977988  8.430701 19.604708
195  1 21.977988 17.180789  6.949333
196  1 21.977988 17.180789 19.604708
197  1 21.977988 25.930797  6.949333
198  1 21.977988 25.930797 19.604708
199  1  6.408700  2.260038 10.839097
200  1  6.408700  2.260038 23.494497
201  1  6.408700 11.010099 10.839097
202  1  6.408700 11.010099 23.494497
203  1  6.408700 19.760213 10.839097
204  1  6.408700 19.760213 23.494497
205  1 15.158788  2.260038 10.839097
206  1 15.158788  2.260038 23.494497
207  1 15.158788 11.010099 10.839097
208  1 15.158788 11.010099 23.494497
209  1 15.158788 19.760213 10.839097
210  1 15.158788 19.760213 23.494497
211  1 23.908796  2.260038 10.839097
212  1 23.908796  2.260038 23.494497
213  1 23.908796 11.010099 10.839097
214  1 23.908796 11.010099 23.494497
215  1 23.908796 19.760213 10.839097
216  1 23.908796 19.760213 23.494497
217  1  6.479444  2.324561  1.654921
218  1  6.479444  2.324561 14.310296
219  1  6.479444 11.074596  1.654921
220  1  6.479444 11.074596 14.310296
221  1  6.479444 19.824710  1.654921
222  1  6.479444 19.824710 14.310296
223  1 15.229506  2.324561  1.654921
224  1 15.229506  2.324561 14.310296
225  1 15.229506 11.074596  1.654921
226  1 15.229506 11.074596 14.310296
227  1 15.229506 19.824710  1.654921
228  1 15.229506 19.824710 14.310296
229  1 23.979593  2.324561  1.654921
230  1 23.979593  2.324561 14.310296
231  1 23.979593 11.074596  1.654921
232  1 23.979593 11.074596 14.310296
233  1 23.979593 19.824710  1.654921
234  1 23.979593 19.824710 14.310296
235  1  6.517953  6.544702  3.592590
236  1  6.517953  6.544702 16.247990
237  1  6.517953 15.294790  3.592590
238  1  6.517953 15.294790 16.247990
239  1  6.517953 24.044799  3.592590
240  1  6.517953 24.044799 16.247990
241  1 15.267988  6.544702  3.592590
242  1 15.267988  6.544702 16.247990
243  1 15.267988 15.294790  3.592590
244  1 15.267988 15.294790 16.247990
245  1 15.267988 24.044799  3.592590
246  1 15.267988 24.044799 16.247990
247  1 24.018102  6.544702  3.592590
248  1 24.018102  6.544702 16.247990
249  1 24.018102 15.294790  3.592590
250  1 24.018102 15.294790 16.247990
251  1 24.018102 24.044799  3.592590
252  1 24.018102 24.044799 16.247990
253  1  6.546986  6.635187  0.117974
254  1  6.546986  6.635187 12.773399
255  1  6.546986 15.385301  0.117974
256  1  6.546986 15.385301 12.773399
257  1  6.546986 24.135309  0.117974
258  1  6.546986 24.135309 12.773399
259  1 15.297100  6.635187  0.117974
260  1 15.297100  6.635187 12.773399
261  1 15.297100 15.385301  0.117974
262  1 15.297100 15.385301 12.773399
263  1 15.297100 24.135309  0.117974
264  1 15.297100 24.135309 12.773399
265  1 24.047109  6.635187  0.117974
266  1 24.047109  6.635187 12.773399
267  1 24.047109 15.385301  0.117974
268  1 24.047109 15.385301 12.773399
269  1 24.047109 24.135309  0.117974
270  1 24.047109 24.135309 12.773399
271  1  6.601797  1.901618  4.465458
272  1  6.601797  1.901618 17.120909
273  1  6.601797 10.651705  4.465458
274  1  6.601797 10.651705 17.120909
275  1  6.601797 19.401793  4.465458
276  1  6.601797 19.401793 17.120909
277  1 15.351910  1.901618  4.465458
278  1 15.351910  1.901618 17.120909
279  1 15.351910 10.651705  4.465458
280  1 15.351910 10.651705 17.120909
281  1 15.351910 19.401793  4.465458
282  1 15.351910 19.401793 17.120909
283  1 24.101893  1.901618  4.465458
284  1 24.101893  1.901618 17.120909
285  1 24.101893 10.651705  4.465458
286  1 24.101893 10.651705 17.120909
287  1 24.101893 19.401793  4.465458
288  1 24.101893 19.401793 17.120909
289  1  6.668892  6.351107  8.755158
290  1  6.668892  6.351107 21.410608
291  1  6.668892 15.101195  8.755158
292  1  6.668892 15.101195 21.410608
293  1  6.668892 23.851203  8.755158
294  1  6.668892 23.851203 21.410608
295  1 15.418901  6.351107  8.755158
296  1 15.418901  6.351107 21.410608
297  1 15.418901 15.101195  8.755158
298  1 15.418901 15.101195 21.410608
299  1 15.418901 23.851203  8.755158
300  1 15.418901 23.851203 21.410608
301  1 24.168988  6.351107  8.755158
302  1 24.168988  6.351107 21.410608
303  1 24.168988 15.101195  8.755158
304  1 24.168988 15.101195 21.410608
305  1 24.168988 23.851203  8.755158
306  1 24.168988 23.851203 21.410608
307  1  6.859469  1.878176  7.918610
308  1  6.859469  1.878176 20.574010
309  1  6.859469 10.628211  7.918610
310  1  6.859469 10.628211 20.574010
311  1  6.859469 19.378299  7.918610
312  1  6.859469 19.378299 20.574010
313  1 15.609504  1.878176  7.918610
314  1 15.609504  1.878176 20.574010
315  1 15.609504 10.628211  7.918610
316  1 15.609504 10.628211 20.574010
317  1 15.609504 19.378299  7.918610
318  1 15.609504 19.378299 20.574010
319  1 24.359591  1.878176  7.918610
320  1 24.359591  1.878176 20.574010
321  1 24.359591 10.628211  7.918610
322  1 24.359591 10.628211 20.574010
323  1 24.359591 19.378299  7.918610
324  1 24.359591 19.378299 20.574010
325  1  8.442698  4.508447  5.391681
326  1  8.442698  4.508447 18.047107
327  1  8.442698 13.258509  5.391681
328  1  8.442698 13.258509 18.047107
329  1  8.442698 22.008596  5.391681
330  1  8.442698 22.008596 18.047107
331  1 17.192811  4.508447  5.391681
332  1 17.192811  4.508447 18.047107
333  1 17.192811 13.258509  5.391681
334  1 17.192811 13.258509 18.047107
335  1 17.192811 22.008596  5.391681
336  1 17.192811 22.008596 18.047107
337  1 25.942794  4.508447  5.391681
338  1 25.942794  4.508447 18.047107
339  1 25.942794 13.258509  5.391681
340  1 25.942794 13.258509 18.047107
341  1 25.942794 22.008596  5.391681
342  1 25.942794 22.008596 18.047107
343  1  8.647948  4.538005 12.045410
344  1  8.647948  4.538005 24.700810
345  1  8.647948 13.288093 12.045410
346  1  8.647948 13.288093 24.700810
347  1  8.647948 22.038101 12.045410
348  1  8.647948 22.038101 24.700810
349  1 17.398009  4.538005 12.045410
350  1 17.398009  4.538005 24.700810
351  1 17.398009 13.288093 12.045410
352  1 17.398009 13.288093 24.700810
353  1 17.398009 22.038101 12.045410
354  1 17.398009 22.038101 24.700810
355  1 26.148097  4.538005 12.045410
356  1 26.148097  4.538005 24.700810
357  1 26.148097 13.288093 12.045410
358  1 26.148097 13.288093 24.700810
359  1 26.148097 22.038101 12.045410
360  1 26.148097 22.038101 24.700810
361  2  4.452928  8.662176 10.315999
362  2  4.452928  8.662176 22.971399
363  2  4.452928 17.412211 10.315999
364  2  4.452928 17.412211 22.971399
365  2  4.452928 26.162298 10.315999
366  2  4.452928 26.162298 22.971399
367  2 13.202989  8.662176 10.315999
368  2 13.202989  8.662176 22.971399
369  2 13.202989 17.412211 10.315999
370  2 13.202989 17.412211 22.971399
371  2 13.202989 26.162298 10.315999
372  2 13.202989 26.162298 22.971399
373  2 21.953103  8.662176 10.315999
374  2 21.953103  8.662176 22.971399
375  2 21.953103 17.412211 10.315999
376  2 21.953103 17.412211 22.971399
377  2 21.953103 26.162298 10.315999
378  2 21.953103 26.162298 22.971399
379  2  8.722787  4.268678  2.315280
380  2  8.722787  4.268678 14.970705
381  2  8.722787 13.018792  2.315280
382  2  8.722787 13.018792 14.970705
383  2  8.722787 21.768800  2.315280
384  2  8.722787 21.768800 14.970705
385  2 17.472796  4.268678  2.315280
386  2 17.472796  4.268678 14.970705
387  2 17.472796 13.018792  2.315280
388  2 17.472796 13.018792 14.970705
389  2 17.472796 21.768800  2.315280
390  2 17.472796 21.768800 14.970705
391  2 26.222910  4.268678  2.315280
392  2 26.222910  4.268678 14.970705
393  2 26.222910 13.018792  2.315280
394  2 26.222910 13.018792 14.970705
395  2 26.222910 21.768800  2.315280
396  2 26.222910 21.768800 14.970705
397  3  0.073343  4.232636  8.651586
398  3  0.073343  4.232636 21.307011
399  3  0.073343 12.982698  8.651586
400  3  0.073343 12.982698 21.307011
401  3  0.073343 21.732811  8.651586
402  3  0.073343 21.732811 21.307011
403  3  8.823404  4.232636  8.651586
404  3  8.823404  4.232636 21.307011
405  3  8.823404 12.982698  8.651586
406  3  8.823404 12.982698 21.307011
407  3  8.823404 21.732811  8.651586
408  3  8.823404 21.732811 21.307011
409  3 17.573492  4.232636  8.651586
410  3 17.573492  4.232636 21.307011
411  3 17.573492 12.982698  8.651586
412  3 17.573492 12.982698 21.307011
413  3 17.573492 21.732811  8.651586
414  3 17.573492 21.732811 21.307011
415  3  4.266709  0.073107  3.935222
416  3  4.266709  0.073107 16.590597
417  3  4.266709  8.823168  3.935222
418  3  4.266709  8.823168 16.590597
419  3  4.266709 17.573203  3.935222
420  3  4.266709 17.573203 16.590597
421  3 13.016797  0.073107  3.935222
422  3 13.016797  0.073107 16.590597
423  3 13.016797  8.823168  3.935222
424  3 13.016797  8.823168 16.590597
425  3 13.016797 17.573203  3.935222
426  3 13.016797 17.573203 16.590597
427  3 21.766910  0.073107  3.935222
428  3 21.766910  0.073107 16.590597
429  3 21.766910  8.823168  3.935222
430  3 21.766910  8.823168 16.590597
431  3 21.766910 17.573203  3.935222
432  3 21.766910 17.573203 16.590597
433  3  4.306583  4.523200 12.571495
434  3  4.306583  4.523200 25.226895
435  3  4.306583 13.273287 12.571495
436  3  4.306583 13.273287 25.226895
437  3  4.306583 22.023296 12.571495
438  3  4.306583 22.023296 25.226895
439  3 13.056697  4.523200 12.571495
440  3 13.056697  4.523200 25.226895
441  3 13.056697 13.273287 12.571495
442  3 13.056697 13.273287 25.226895
443  3 13.056697 22.023296 12.571495
444  3 13.056697 22.023296 25.226895
445  3 21.806706  4.523200 12.571495
446  3 21.806706  4.523200 25.226895
447  3 21.806706 13.273287 12.571495
448  3 21.806706 13.273287 25.226895
449  3 21.806706 22.023296 12.571495
450  3 21.806706 22.023296 25.226895
451  3  8.694910  8.438918  6.346658
452  3  8.694910  8.438918 19.002007
453  3  8.694910 17.189005  6.346658
454  3  8.694910 17.189005 19.002007
455  3  8.694910 25.939093  6.346658
456  3  8.694910 25.939093 19.002007
457  3 17.444997  8.438918  6.346658
458  3 17.444997  8.438918 19.002007
459  3 17.444997 17.189005  6.346658
460  3 17.444997 17.189005 19.002007
461  3 17.444997 25.939093  6.346658
462  3 17.444997 25.939093 19.002007
463  3 26.195006  8.438918  6.346658
464  3 26.195006  8.438918 19.002007
465  3 26.195006 17.189005  6.346658
466  3 26.195006 17.189005 19.002007
467  3 26.195006 25.939093  6.346658
468  3 26.195006 25.939093 19.002007
469  4  0.005539  6.244741  1.268830
470  4  0.005539  6.244741 13.924205
471  4  0.005539 14.994802  1.268830
472  4  0.005539 14.994802 13.924205
473  4  0.005539 23.744890  1.268830
474  4  0.005539 23.744890 13.924205
475  4  8.755600  6.244741  1.268830
476  4  8.755600  6.244741 13.924205
477  4  8.755600 14.994802  1.268830
478  4  8.755600 14.994802 13.924205
479  4  8.755600 23.744890  1.268830
480  4  8.755600 23.744890 13.924205
481  4 17.505688  6.244741  1.268830
482  4 17.505688  6.244741 13.924205
483  4 17.505688 14.994802  1.268830
484  4 17.505688 14.994802 13.924205
485  4 17.505688 23.744890  1.268830
486  4 17.505688 23.744890 13.924205
487  4  0.023993  2.429562  9.667409
488  4  0.023993  2.429562 22.322809
489  4  0.023993 11.179597  9.667409
490  4  0.023993 11.179597 22.322809
491  4  0.023993 19.929711  9.667409
492  4  0.023993 19.929711 22.322809
493  4  8.774054  2.429562  9.667409
494  4  8.774054  2.429562 22.322809
495  4  8.774054 11.179597  9.667409
496  4  8.774054 11.179597 22.322809
497  4  8.774054 19.929711  9.667409
498  4  8.774054 19.929711 22.322809
499  4 17.524089  2.429562  9.667409
500  4 17.524089  2.429562 22.322809
501  4 17.524089 11.179597  9.667409
502  4 17.524089 11.179597 22.322809
503  4 17.524089 19.929711  9.667409
504  4 17.524089 19.929711 22.322809
505  4  0.048983  6.955151  4.924950
506  4  0.048983  6.955151 17.580401
507  4  0.048983 15.705212  4.924950
508  4  0.048983 15.705212 17.580401
509  4  0.048983 24.455299  4.924950
510  4  0.048983 24.455299 17.580401
511  4  8.799070  6.955151  4.924950
512  4  8.799070  6.955151 17.580401
513  4  8.799070 15.705212  4.924950
514  4  8.799070 15.705212 17.580401
515  4  8.799070 24.455299  4.924950
516  4  8.799070 24.455299 17.580401
517  4 17.549105  6.955151  4.924950
518  4 17.549105  6.955151 17.580401
519  4 17.549105 15.705212  4.924950
520  4 17.549105 15.705212 17.580401
521  4 17.549105 24.455299  4.924950
522  4 17.549105 24.455299 17.580401
523  4  0.071164  2.566011  0.850468
524  4  0.071164  2.566011 13.505894
525  4  0.071164 11.316098  0.850468
526  4  0.071164 11.316098 13.505894
527  4  0.071164 20.066212  0.850468
528  4  0.071164 20.066212 13.505894
529  4  8.821226  2.566011  0.850468
530  4  8.821226  2.566011 13.505894
531  4  8.821226 11.316098  0.850468
532  4  8.821226 11.316098 13.505894
533  4  8.821226 20.066212  0.850468
534  4  8.821226 20.066212 13.505894
535  4 17.571313  2.566011  0.850468
536  4 17.571313  2.566011 13.505894
537  4 17.571313 11.316098  0.850468
538  4 17.571313 11.316098 13.505894
539  4 17.571313 20.066212  0.850468
540  4 17.571313 20.066212 13.505894
541  4  1.695659  8.301970  7.438313
542  4  1.695659  8.301970 20.093713
543  4  1.695659 17.052005  7.438313
544  4  1.695659 17.052005 20.093713
545  4  1.695659 25.802093  7.438313
546  4  1.695659 25.802093 20.093713
547  4 10.445694  8.301970  7.438313
548  4 10.445694  8.301970 20.093713
549  4 10.445694 17.052005  7.438313
550  4 10.445694 17.052005 20.093713
551  4 10.445694 25.802093  7.438313
552  4 10.445694 25.802093 20.093713
553  4 19.195807  8.301970  7.438313
554  4 19.195807  8.301970 20.093713
555  4 19.195807 17.052005  7.438313
556  4 19.195807 17.052005 20.093713
557  4 19.195807 25.802093  7.438313
558  4 19.195807 25.802093 20.093713
559  4  1.742358  4.182105  3.681937
560  4  1.742358  4.182105 16.337311
561  4  1.742358 12.932192  3.681937
562  4  1.742358 12.932192 16.337311
563  4  1.742358 21.682201  3.681937
564  4  1.742358 21.682201 16.337311
565  4 10.492393  4.182105  3.681937
566  4 10.492393  4.182105 16.337311
567  4 10.492393 12.932192  3.681937
568  4 10.492393 12.932192 16.337311
569  4 10.492393 21.682201  3.681937
570  4 10.492393 21.682201 16.337311
571  4 19.242506  4.182105  3.681937
572  4 19.242506  4.182105 16.337311
573  4 19.242506 12.932192  3.681937
574  4 19.242506 12.932192 16.337311
575  4 19.242506 21.682201  3.681937
576  4 19.242506 21.682201 16.337311
577  4  1.846807  4.268757  7.590835
578  4  1.846807  4.268757 20.246210
579  4  1.846807 13.018792  7.590835
580  4  1.846807 13.018792 20.246210
581  4  1.846807 21.768905  7.590835
582  4  1.846807 21.768905 20.246210
583  4 10.596895  4.268757  7.590835
584  4 10.596895  4.268757 20.246210
585  4 10.596895 13.018792  7.590835
586  4 10.596895 13.018792 20.246210
587  4 10.596895 21.768905  7.590835
588  4 10.596895 21.768905 20.246210
589  4 19.346904  4.268757  7.590835
590  4 19.346904  4.268757 20.246210
591  4 19.346904 13.018792  7.590835
592  4 19.346904 13.018792 20.246210
593  4 19.346904 21.768905  7.590835
594  4 19.346904 21.768905 20.246210
595  4  2.501724  8.651938 11.458300
596  4  2.501724  8.651938 24.113700
597  4  2.501724 17.401999 11.458300
598  4  2.501724 17.401999 24.113700
599  4  2.501724 26.152113 11.458300
600  4  2.501724 26.152113 24.113700
601  4 11.251811  8.651938 11.458300
602  4 11.251811  8.651938 24.113700
603  4 11.251811 17.401999 11.458300
604  4 11.251811 17.401999 24.113700
605  4 11.251811 26.152113 11.458300
606  4 11.251811 26.152113 24.113700
607  4 20.001899  8.651938 11.458300
608  4 20.001899  8.651938 24.113700
609  4 20.001899 17.401999 11.458300
610  4 20.001899 17.401999 24.113700
611  4 20.001899 26.152113 11.458300
612  4 20.001899 26.152113 24.113700
613  4  2.576589  0.275207  2.775456
614  4  2.576589  0.275207 15.430906
615  4  2.576589  9.025295  2.775456
616  4  2.576589  9.025295 15.430906
617  4  2.576589 17.775408  2.775456
618  4  2.576589 17.775408 15.430906
619  4 11.326703  0.275207  2.775456
620  4 11.326703  0.275207 15.430906
621  4 11.326703  9.025295  2.775456
622  4 11.326703  9.025295 15.430906
623  4 11.326703 17.775408  2.775456
624  4 11.326703 17.775408 15.430906
625  4 20.076712  0.275207  2.775456
626  4 20.076712  0.275207 15.430906
627  4 20.076712  9.025295  2.775456
628  4 20.076712  9.025295 15.430906
629  4 20.076712 17.775408  2.775456
630  4 20.076712 17.775408 15.430906
631  4  2.608588  4.658362 11.398390
632  4  2.608588  4.658362 24.053790
633  4  2.608588 13.408397 11.398390
634  4  2.608588 13.408397 24.053790
635  4  2.608588 22.158511 11.398390
636  4  2.608588 22.158511 24.053790
637  4 11.358597  4.658362 11.398390
638  4 11.358597  4.658362 24.053790
639  4 11.358597 13.408397 11.398390
640  4 11.358597 13.408397 24.053790
641  4 11.358597 22.158511 11.398390
642  4 11.358597 22.158511 24.053790
643  4 20.108711  4.658362 11.398390
644  4 20.108711  4.658362 24.053790
645  4 20.108711 13.408397 11.398390
646  4 20.108711 13.408397 24.053790
647  4 20.108711 22.158511 11.398390
648  4 20.108711 22.158511 24.053790
649  4  4.236233  6.955387  4.796219
650  4  4.236233  6.955387 17.451594
651  4  4.236233 15.705501  4.796219
652  4  4.236233 15.705501 17.451594
653  4  4.236233 24.455509  4.796219
654  4  4.236233 24.455509 17.451594
655  4 12.986294  6.955387  4.796219
656  4 12.986294  6.955387 17.451594
657  4 12.986294 15.705501  4.796219
658  4 12.986294 15.705501 17.451594
659  4 12.986294 24.455509  4.796219
660  4 12.986294 24.455509 17.451594
661  4 21.736408  6.955387  4.796219
662  4 21.736408  6.955387 17.451594
663  4 21.736408 15.705501  4.796219
664  4 21.736408 15.705501 17.451594
665  4 21.736408 24.455509  4.796219
666  4 21.736408 24.455509 17.451594
667  4  4.261932  2.682246  0.799568
668  4  4.261932  2.682246 13.454993
669  4  4.261932 11.432308  0.799568
670  4  4.261932 11.432308 13.454993
671  4  4.261932 20.182395  0.799568
672  4  4.261932 20.182395 13.454993
673  4 13.011993  2.682246  0.799568
674  4 13.011993  2.682246 13.454993
675  4 13.011993 11.432308  0.799568
676  4 13.011993 11.432308 13.454993
677  4 13.011993 20.182395  0.799568
678  4 13.011993 20.182395 13.454993
679  4 21.762107  2.682246  0.799568
680  4 21.762107  2.682246 13.454993
681  4 21.762107 11.432308  0.799568
682  4 21.762107 11.432308 13.454993
683  4 21.762107 20.182395  0.799568
684  4 21.762107 20.182395 13.454993
685  4  4.321047  6.928270  8.895278
686  4  4.321047  6.928270 21.550703
687  4  4.321047 15.678305  8.895278
688  4  4.321047 15.678305 21.550703
689  4  4.321047 24.428393  8.895278
690  4  4.321047 24.428393 21.550703
691  4 13.071108  6.928270  8.895278
692  4 13.071108  6.928270 21.550703
693  4 13.071108 15.678305  8.895278
694  4 13.071108 15.678305 21.550703
695  4 13.071108 24.428393  8.895278
696  4 13.071108 24.428393 21.550703
697  4 21.821196  6.928270  8.895278
698  4 21.821196  6.928270 21.550703
699  4 21.821196 15.678305  8.895278
700  4 21.821196 15.678305 21.550703
701  4 21.821196 24.428393  8.895278
702  4 21.821196 24.428393 21.550703
703  4  4.321808  6.080599  1.239343
704  4  4.321808  6.080599 13.894693
705  4  4.321808 14.830712  1.239343
706  4  4.321808 14.830712 13.894693
707  4  4.321808 23.580695  1.239343
708  4  4.321808 23.580695 13.894693
709  4 13.071896  6.080599  1.239343
710  4 13.071896  6.080599 13.894693
711  4 13.071896 14.830712  1.239343
712  4 13.071896 14.830712 13.894693
713  4 13.071896 23.580695  1.239343
714  4 13.071896 23.580695 13.894693
715  4 21.821905  6.080599  1.239343
716  4 21.821905  6.080599 13.894693
717  4 21.821905 14.830712  1.239343
718  4 21.821905 14.830712 13.894693
719  4 21.821905 23.580695  1.239343
720  4 21.821905 23.580695 13.894693
721  4  4.328397  1.581050  5.328632
722  4  4.328397  1.581050 17.984007
723  4  4.328397 10.331111  5.328632
724  4  4.328397 10.331111 17.984007
725  4  4.328397 19.081199  5.328632
726  4  4.328397 19.081199 17.984007
727  4 13.078511  1.581050  5.328632
728  4 13.078511  1.581050 17.984007
729  4 13.078511 10.331111  5.328632
730  4 13.078511 10.331111 17.984007
731  4 13.078511 19.081199  5.328632
732  4 13.078511 19.081199 17.984007
733  4 21.828493  1.581050  5.328632
734  4 21.828493  1.581050 17.984007
735  4 21.828493 10.331111  5.328632
736  4 21.828493 10.331111 17.984007
737  4 21.828493 19.081199  5.328632
738  4 21.828493 19.081199 17.984007
739  4  4.530865  1.796039  9.093285
740  4  4.530865  1.796039 21.748710
741  4  4.530865 10.546101  9.093285
742  4  4.530865 10.546101 21.748710
743  4  4.530865 19.296188  9.093285
744  4  4.530865 19.296188 21.748710
745  4 13.280900  1.796039  9.093285
746  4 13.280900  1.796039 21.748710
747  4 13.280900 10.546101  9.093285
748  4 13.280900 10.546101 21.748710
749  4 13.280900 19.296188  9.093285
750  4 13.280900 19.296188 21.748710
751  4 22.030987  1.796039  9.093285
752  4 22.030987  1.796039 21.748710
753  4 22.030987 10.546101  9.093285
754  4 22.030987 10.546101 21.748710
755  4 22.030987 19.296188  9.093285
756  4 22.030987 19.296188 21.748710
757  4  5.980060  4.645500 11.371510
758  4  5.980060  4.645500 24.026910
759  4  5.980060 13.395587 11.371510
760  4  5.980060 13.395587 24.026910
761  4  5.980060 22.145596 11.371510
762  4  5.980060 22.145596 24.026910
763  4 14.730095  4.645500 11.371510
764  4 14.730095  4.645500 24.026910
765  4 14.730095 13.395587 11.371510
766  4 14.730095 13.395587 24.026910
767  4 14.730095 22.145596 11.371510
768  4 14.730095 22.145596 24.026910
769  4 23.480209  4.645500 11.371510
770  4 23.480209  4.645500 24.026910
771  4 23.480209 13.395587 11.371510
772  4 23.480209 13.395587 24.026910
773  4 23.480209 22.145596 11.371510
774  4 23.480209 22.145596 24.026910
775  4  5.990902  0.146949  2.789351
776  4  5.990902  0.146949 15.444701
777  4  5.990902  8.897010  2.789351
778  4  5.990902  8.897010 15.444701
779  4  5.990902 17.647097  2.789351
780  4  5.990902 17.647097 15.444701
781  4 14.740989  0.146949  2.789351
782  4 14.740989  0.146949 15.444701
783  4 14.740989  8.897010  2.789351
784  4 14.740989  8.897010 15.444701
785  4 14.740989 17.647097  2.789351
786  4 14.740989 17.647097 15.444701
787  4 23.490998  0.146949  2.789351
788  4 23.490998  0.146949 15.444701
789  4 23.490998  8.897010  2.789351
790  4 23.490998  8.897010 15.444701
791  4 23.490998 17.647097  2.789351
792  4 23.490998 17.647097 15.444701
793  4  6.226261  8.723890 11.648511
794  4  6.226261  8.723890 24.303911
795  4  6.226261 17.474004 11.648511
796  4  6.226261 17.474004 24.303911
797  4  6.226261 26.224012 11.648511
798  4  6.226261 26.224012 24.303911
799  4 14.976296  8.723890 11.648511
800  4 14.976296  8.723890 24.303911
801  4 14.976296 17.474004 11.648511
802  4 14.976296 17.474004 24.303911
803  4 14.976296 26.224012 11.648511
804  4 14.976296 26.224012 24.303911