LAMMPS data file via write_data, version 4 May 2022, timestep = 38

56 atoms
3 atom types

-0.018688499927520752 12.203788340091705 xlo xhi
-0.008473336696624756 5.5348814725875854 ylo yhi
-0.02916884422302246 19.049128890037537 zlo zhi
0 -5.6545068040490143 0 xy xz yz
Masses

1 24.305
2 65.40900000000001
3 88.90600000000001

Atoms # atomic

1 1 6.704545855283048 -0.008228383169634397 2.496150880510349 0 0 0
2 1 3.6489369572104486 0.9151802201549147 2.4961460807909184 0 0 0
3 1 2.2727872670973417 -0.008340363475503612 5.221656127605858 0 0 0
4 1 11.439639472292326 0.9152950429175221 5.221656652645487 0 0 0
5 1 10.06285009115151 -0.008365679161346055 7.947122979645431 0 0 0
6 1 0.5933158728479224 -0.008228711156236659 2.4961489583658225 0 0 0
7 1 11.975707771409542 2.7636137957673603 1.1334675824302096 0 0 0
8 1 9.760184032619302 0.9151788976913475 2.496145343389424 0 0 0
9 1 8.920104543675333 3.686687201715459 1.1334680724641375 0 0 0
10 1 8.384038880239425 -0.008340367391286673 5.221654324907073 0 0 0
11 1 7.007218023369214 0.9153113632185096 7.947127298151418 0 0 0
12 1 5.630292261917647 -0.008336107557925066 10.67264199618493 0 0 0
13 1 2.5746815558096543 0.9152864398273333 10.672644749574268 0 0 0
14 1 1.1978472883375906 -0.008340400807915004 13.398163163125442 0 0 0
15 1 10.36470642897419 0.9152951439552185 13.398164626326631 0 0 0
16 1 8.98806191627275 -0.008327305527622588 16.123492477973162 0 0 0
17 1 7.544481123572173 2.763348055681432 3.8590186457726596 0 0 0
18 1 5.328403906308361 0.9152978722701366 5.221654377474998 0 0 0
19 1 4.488874881669786 3.6869477995282867 3.8590175793512205 0 0 0
20 1 3.9516145227427777 -0.008361530472174555 7.947126349202638 0 0 0
21 1 3.1122145470193314 2.763332500123333 6.584347191905337 0 0 0
22 1 0.8959910721700189 0.9153152399978528 7.947125435427801 0 0 0
23 1 0.056595242266486434 3.6869621982127283 6.5843515700166755 0 0 0
24 1 11.741537752340948 -0.008334989687949714 10.67263992937283 0 0 0
25 1 10.902230465926507 2.7633418309258913 9.3098738548584 0 0 0
26 1 8.68593296522976 0.9152877576756908 10.672638480506002 0 0 0
27 1 7.846626769174824 3.686959226391992 9.309869977520004 0 0 0
28 1 5.864465633651705 2.7636093840876095 1.1334697008288386 0 0 0
29 1 2.8088502395263446 3.6866859442027606 1.1334685571670837 0 0 0
30 1 1.4332543621641962 2.7633495677577424 3.859018160280372 0 0 0
31 1 10.60011188826171 3.6869548328841666 3.8590172895423023 0 0 0
32 1 9.223462872466587 2.7633391388019657 6.58435111077742 0 0 0
33 1 5.932422304158558 0.9152745708585422 16.123502986507624 0 0 0
34 1 4.556835224601597 -0.00805898583234376 18.849043651930426 0 0 0
35 1 1.5012132684030233 0.9150142558148269 18.84904565979054 0 0 0
36 1 7.309072927631088 -0.008337904292245237 13.398160694318156 0 0 0
37 1 6.469668155489206 2.7633129622433903 12.035394432665552 0 0 0
38 1 4.25346929149165 0.9152894879615786 13.39816523743133 0 0 0
39 1 3.414068933556156 3.686989582163056 12.035391490941754 0 0 0
40 1 2.87680912797538 -0.008327372621871729 16.12349716741705 0 0 0
41 1 2.037274119901407 2.7633324759611293 14.76085622796262 0 0 0
42 1 -0.1788145729739893 0.9152759571103785 16.123496849963693 0 0 0
43 1 11.204130209832549 3.6869690554680736 14.760858344708248 0 0 0
44 1 10.668074994758694 -0.008064772935196687 18.84904303852354 0 0 0
45 1 9.827989994028545 2.763444080448783 17.486361376667407 0 0 0
46 1 6.167829034908382 3.6869632503944394 6.58435073625015 0 0 0
47 1 4.7909935886741515 2.7633404391953937 9.309874468479109 0 0 0
48 1 1.73537554760013 3.6869594167146134 9.309876105703168 0 0 0
49 1 0.3584484191094852 2.7633090236057645 12.035386658858162 0 0 0
50 1 9.525317243755225 3.686986884934801 12.035383780272014 0 0 0
51 1 8.148525203157504 2.7633281435303214 14.760860009166942 0 0 0
52 1 7.612430242477655 0.9150143871889683 18.849047200504177 0 0 0
53 1 6.772356245001291 3.6868588255102184 17.48637197251377 0 0 0
54 1 5.092890505420008 3.68696794903545 14.760860335624026 0 0 0
55 1 3.716744560832567 2.7634455865917604 17.486367517508448 0 0 0
56 1 0.6611263411513766 3.6868573156008235 17.486364261673877 0 0 0

Velocities

1 0 0 0
2 0 0 0
3 0 0 0
4 0 0 0
5 0 0 0
6 0 0 0
7 0 0 0
8 0 0 0
9 0 0 0
10 0 0 0
11 0 0 0
12 0 0 0
13 0 0 0
14 0 0 0
15 0 0 0
16 0 0 0
17 0 0 0
18 0 0 0
19 0 0 0
20 0 0 0
21 0 0 0
22 0 0 0
23 0 0 0
24 0 0 0
25 0 0 0
26 0 0 0
27 0 0 0
28 0 0 0
29 0 0 0
30 0 0 0
31 0 0 0
32 0 0 0
33 0 0 0
34 0 0 0
35 0 0 0
36 0 0 0
37 0 0 0
38 0 0 0
39 0 0 0
40 0 0 0
41 0 0 0
42 0 0 0
43 0 0 0
44 0 0 0
45 0 0 0
46 0 0 0
47 0 0 0
48 0 0 0
49 0 0 0
50 0 0 0
51 0 0 0
52 0 0 0
53 0 0 0
54 0 0 0
55 0 0 0
56 0 0 0
