ITEM: TIMESTEP
0
ITEM: NUMBER OF ATOMS
32
ITEM: BOX BOUNDS xy xz yz pp pp pp
-4.0532350540161133e-03 6.4008854031562805e+00 0.0000000000000000e+00
-9.1640949249267578e-03 5.6678351163864136e+00 0.0000000000000000e+00
-4.7960281372070312e-02 2.0773346722126007e+01 1.3823986053466797e-01
ITEM: ATOMS id type xs ys zs fx fy fz
1 1 0.999986 0.664668 0.0597509 0 0 0.00459099
2 1 0.499986 0.664668 0.0597509 0 0 0.00459099
3 1 0.249986 0.164668 0.0597519 0 0 0.00456047
4 1 0.749986 0.164668 0.0597519 0 0 0.00456047
5 1 0.999986 0.658441 0.309753 0 0 -1.33514e-05
6 1 0.249986 0.495903 0.184753 0 0 -0.000167847
7 1 0.749986 0.495903 0.184753 0 0 -0.000167847
8 1 0.499986 0.658441 0.309753 0 0 -1.33514e-05
9 1 0.999986 0.995902 0.184753 0 0 -0.000146866
10 1 0.249986 0.158441 0.309753 0 0 -6.10352e-05
11 1 0.499986 0.995902 0.184753 0 0 -0.000146866
12 1 0.749986 0.158441 0.309753 0 0 -6.10352e-05
13 1 0.999986 0.652188 0.559749 0 0 4.76837e-05
14 1 0.499986 0.652188 0.559749 0 0 4.76837e-05
15 1 0.249986 0.152186 0.55975 0 0 3.62396e-05
16 1 0.749986 0.152186 0.55975 0 0 3.62396e-05
17 1 0.249986 0.489664 0.434752 0 0 -4.76837e-05
18 1 0.749986 0.489664 0.434752 0 0 -4.76837e-05
19 1 0.999986 0.989663 0.434752 0 0 -2.47955e-05
20 1 0.499986 0.989663 0.434752 0 0 -2.47955e-05
21 1 0.999986 0.645939 0.809748 0 0 0.000154495
22 1 0.249986 0.483406 0.684748 0 0 3.05176e-05
23 1 0.499986 0.645939 0.809748 0 0 0.000154495
24 1 0.749986 0.483406 0.684748 0 0 3.05176e-05
25 1 0.999986 0.983406 0.684749 0 0 1.33514e-05
26 1 0.249986 0.14594 0.809748 0 0 0.000169754
27 1 0.749986 0.14594 0.809748 0 0 0.000169754
28 1 0.499986 0.983406 0.684749 0 0 1.33514e-05
29 1 0.249986 0.477171 0.934749 0 0 -0.00455475
30 1 0.749986 0.477171 0.934749 0 0 -0.00455475
31 1 0.999986 0.977172 0.93475 0 0 -0.00458717
32 1 0.499986 0.977172 0.93475 0 0 -0.00458717
ITEM: TIMESTEP
1
ITEM: NUMBER OF ATOMS
32
ITEM: BOX BOUNDS xy xz yz pp pp pp
-4.0532350540161133e-03 6.4008854031562805e+00 0.0000000000000000e+00
-9.1640949249267578e-03 5.6678351163864136e+00 0.0000000000000000e+00
-4.7960281372070312e-02 2.0773346722126007e+01 1.3823986053466797e-01
ITEM: ATOMS id type xs ys zs fx fy fz
1 1 0.999986 0.664666 0.0598098 0 0 7.24792e-05
2 1 0.499986 0.664666 0.0598098 0 0 7.24792e-05
3 1 0.249986 0.164666 0.0598104 0 0 5.14984e-05
4 1 0.749986 0.164666 0.0598104 0 0 5.14984e-05
5 1 0.999986 0.658441 0.309753 0 0 1.52588e-05
6 1 0.249986 0.495903 0.184751 0 0 0.00126266
7 1 0.749986 0.495903 0.184751 0 0 0.00126266
8 1 0.499986 0.658441 0.309753 0 0 1.52588e-05
9 1 0.999986 0.995902 0.184751 0 0 0.0012722
10 1 0.249986 0.158441 0.309753 0 0 1.71661e-05
11 1 0.499986 0.995902 0.184751 0 0 0.0012722
12 1 0.749986 0.158441 0.309753 0 0 1.71661e-05
13 1 0.999986 0.652188 0.55975 0 0 1.90735e-05
14 1 0.499986 0.652188 0.55975 0 0 1.90735e-05
15 1 0.249986 0.152186 0.55975 0 0 7.62939e-06
16 1 0.749986 0.152186 0.55975 0 0 7.62939e-06
17 1 0.249986 0.489664 0.434752 0 0 -2.09808e-05
18 1 0.749986 0.489664 0.434752 0 0 -2.09808e-05
19 1 0.999986 0.989663 0.434751 0 0 -1.33514e-05
20 1 0.499986 0.989663 0.434751 0 0 -1.33514e-05
21 1 0.999986 0.645939 0.80975 0 0 -0.0012722
22 1 0.249986 0.483406 0.684749 0 0 -9.53674e-06
23 1 0.499986 0.645939 0.80975 0 0 -0.0012722
24 1 0.749986 0.483406 0.684749 0 0 -9.53674e-06
25 1 0.999986 0.983406 0.684749 0 0 -1.52588e-05
26 1 0.249986 0.14594 0.80975 0 0 -0.00126266
27 1 0.749986 0.14594 0.80975 0 0 -0.00126266
28 1 0.499986 0.983406 0.684749 0 0 -1.52588e-05
29 1 0.249986 0.477173 0.934691 0 0 -4.95911e-05
30 1 0.749986 0.477173 0.934691 0 0 -4.95911e-05
31 1 0.999986 0.977173 0.934691 0 0 -7.43866e-05
32 1 0.499986 0.977173 0.934691 0 0 -7.43866e-05
ITEM: TIMESTEP
2
ITEM: NUMBER OF ATOMS
32
ITEM: BOX BOUNDS xy xz yz pp pp pp
-4.0532350540161133e-03 6.4008854031562805e+00 0.0000000000000000e+00
-9.1640949249267578e-03 5.6678351163864136e+00 0.0000000000000000e+00
-4.7960281372070312e-02 2.0773346722126007e+01 1.3823986053466797e-01
ITEM: ATOMS id type xs ys zs fx fy fz
1 1 0.999986 0.664666 0.0598192 0 0 1.14441e-05
2 1 0.499986 0.664666 0.0598192 0 0 1.14441e-05
3 1 0.249986 0.164666 0.0598193 0 0 2.67029e-05
4 1 0.749986 0.164666 0.0598193 0 0 2.67029e-05
5 1 0.999986 0.658441 0.309753 0 0 0.000713348
6 1 0.249986 0.495903 0.18478 0 0 -3.8147e-06
7 1 0.749986 0.495903 0.18478 0 0 -3.8147e-06
8 1 0.499986 0.658441 0.309753 0 0 0.000713348
9 1 0.999986 0.995901 0.18478 0 0 -2.47955e-05
10 1 0.249986 0.158441 0.309753 0 0 0.000711441
11 1 0.499986 0.995901 0.18478 0 0 -2.47955e-05
12 1 0.749986 0.158441 0.309753 0 0 0.000711441
13 1 0.999986 0.652188 0.55975 0 0 -6.67572e-05
14 1 0.499986 0.652188 0.55975 0 0 -6.67572e-05
15 1 0.249986 0.152186 0.55975 0 0 -6.29425e-05
16 1 0.749986 0.152186 0.55975 0 0 -6.29425e-05
17 1 0.249986 0.489664 0.434751 0 0 7.05719e-05
18 1 0.749986 0.489664 0.434751 0 0 7.05719e-05
19 1 0.999986 0.989663 0.434751 0 0 7.05719e-05
20 1 0.499986 0.989663 0.434751 0 0 7.05719e-05
21 1 0.999986 0.64594 0.809721 0 0 9.53674e-06
22 1 0.249986 0.483406 0.684748 0 0 -0.000709534
23 1 0.499986 0.64594 0.809721 0 0 9.53674e-06
24 1 0.749986 0.483406 0.684748 0 0 -0.000709534
25 1 0.999986 0.983406 0.684749 0 0 -0.000717163
26 1 0.249986 0.14594 0.809721 0 0 -5.72205e-06
27 1 0.749986 0.14594 0.809721 0 0 -5.72205e-06
28 1 0.499986 0.983406 0.684749 0 0 -0.000717163
29 1 0.249986 0.477173 0.934682 0 0 -1.52588e-05
30 1 0.749986 0.477173 0.934682 0 0 -1.52588e-05
31 1 0.999986 0.977174 0.934682 0 0 -7.62939e-06
32 1 0.499986 0.977174 0.934682 0 0 -7.62939e-06
ITEM: TIMESTEP
3
ITEM: NUMBER OF ATOMS
32
ITEM: BOX BOUNDS xy xz yz pp pp pp
-4.0532350540161133e-03 6.4008854031562805e+00 0.0000000000000000e+00
-9.1640949249267578e-03 5.6678351163864136e+00 0.0000000000000000e+00
-4.7960281372070312e-02 2.0773346722126007e+01 1.3823986053466797e-01
ITEM: ATOMS id type xs ys zs fx fy fz
1 1 0.999986 0.664666 0.0598192 0 0 1.14441e-05
2 1 0.499986 0.664666 0.0598192 0 0 1.14441e-05
3 1 0.249986 0.164666 0.0598193 0 0 2.67029e-05
4 1 0.749986 0.164666 0.0598193 0 0 2.67029e-05
5 1 0.999986 0.658441 0.309753 0 0 0.000713348
6 1 0.249986 0.495903 0.18478 0 0 -3.8147e-06
7 1 0.749986 0.495903 0.18478 0 0 -3.8147e-06
8 1 0.499986 0.658441 0.309753 0 0 0.000713348
9 1 0.999986 0.995901 0.18478 0 0 -2.47955e-05
10 1 0.249986 0.158441 0.309753 0 0 0.000711441
11 1 0.499986 0.995901 0.18478 0 0 -2.47955e-05
12 1 0.749986 0.158441 0.309753 0 0 0.000711441
13 1 0.999986 0.652188 0.55975 0 0 -6.67572e-05
14 1 0.499986 0.652188 0.55975 0 0 -6.67572e-05
15 1 0.249986 0.152186 0.55975 0 0 -6.29425e-05
16 1 0.749986 0.152186 0.55975 0 0 -6.29425e-05
17 1 0.249986 0.489664 0.434751 0 0 7.05719e-05
18 1 0.749986 0.489664 0.434751 0 0 7.05719e-05
19 1 0.999986 0.989663 0.434751 0 0 7.05719e-05
20 1 0.499986 0.989663 0.434751 0 0 7.05719e-05
21 1 0.999986 0.64594 0.809721 0 0 9.53674e-06
22 1 0.249986 0.483406 0.684748 0 0 -0.000709534
23 1 0.499986 0.64594 0.809721 0 0 9.53674e-06
24 1 0.749986 0.483406 0.684748 0 0 -0.000709534
25 1 0.999986 0.983406 0.684749 0 0 -0.000717163
26 1 0.249986 0.14594 0.809721 0 0 -5.72205e-06
27 1 0.749986 0.14594 0.809721 0 0 -5.72205e-06
28 1 0.499986 0.983406 0.684749 0 0 -0.000717163
29 1 0.249986 0.477173 0.934682 0 0 -1.52588e-05
30 1 0.749986 0.477173 0.934682 0 0 -1.52588e-05
31 1 0.999986 0.977174 0.934682 0 0 -7.62939e-06
32 1 0.499986 0.977174 0.934682 0 0 -7.62939e-06
