LAMMPS data file via write_data, version 4 May 2022, timestep = 54

32 atoms
3 atom types

-0.004053235054016113 6.4008854031562805 xlo xhi
-0.009164094924926758 5.529595255851746 ylo yhi
-0.04796028137207031 20.773346722126007 zlo zhi
0 0 2.073598220944404 xy xz yz
Masses

1 24.305
2 65.40900000000001
3 88.90600000000001

Atoms # atomic

1 1 6.400795739870842 3.6805298008455387 1.1961316898913943 0 0 0
2 1 3.1983264174495547 3.6805298009030314 1.196131689526638 0 0 0
3 1 1.597091756602447 0.9111516178049923 1.1961531153504166 0 0 0
4 1 4.799561079387269 0.9111516183514144 1.196153115168038 0 0 0
5 1 6.400795740836239 3.680600789178972 6.4014966003931315 0 0 0
6 1 1.5970917557042794 2.763065278032085 3.798845316777806 0 0 0
7 1 4.7995610788992344 2.7630652769514787 3.798845316777806 0 0 0
8 1 3.198326417927632 3.680600789543252 6.4014966004935845 0 0 0
9 1 6.400795739756299 -0.006323851760328052 3.7988416845619395 0 0 0
10 1 1.597091756784215 0.9112247668503689 6.401510376504773 0 0 0
11 1 3.198326417870364 -0.006323850894386632 3.798841684744316 0 0 0
12 1 4.799561078841963 0.9112247663161838 6.401510376869535 0 0 0
13 1 6.400795739870842 3.680527645530762 11.606752706532756 0 0 0
14 1 3.1983264170860193 3.680527645530762 11.60675270635037 0 0 0
15 1 1.5970917569659835 0.9111394475271468 11.606759796119515 0 0 0
16 1 4.799561079023731 0.911139447345006 11.606759796301885 0 0 0
17 1 1.5970917573295196 2.7630670216045545 9.004150282053084 0 0 0
18 1 4.799561079023731 2.7630670222083635 9.004150281688334 0 0 0
19 1 6.40079574005261 -0.006316118692522049 9.004139682938458 0 0 0
20 1 3.1983264172677877 -0.0063161177836354426 9.004139683020375 0 0 0
21 1 6.400795740769013 3.680478280636916 16.812054946360462 0 0 0
22 1 1.5970917569659835 2.7629624763538136 14.209392889057918 0 0 0
23 1 3.1983264167331575 3.680478276438012 16.812054945995705 0 0 0
24 1 4.799561078841963 2.7629624759895313 14.209392888693165 0 0 0
25 1 6.400795737892736 -0.006417200178017086 14.209405379449095 0 0 0
26 1 1.597091756602447 0.9110999596227949 16.81205139649858 0 0 0
27 1 4.799561079387269 0.9110999599296898 16.81205139649858 0 0 0
28 1 3.1983264196094283 -0.0064172058439696264 14.20940537981385 0 0 0
29 1 1.5970917578197956 2.762991114927361 19.4147418430825 0 0 0
30 1 4.799561077806386 2.762991114927361 19.414741842900114 0 0 0
31 1 6.400795741314315 -0.006384213932803522 19.41475920061118 0 0 0
32 1 3.198326416187852 -0.006384207885863155 19.41475920061118 0 0 0

Velocities

1 0 0 0
2 0 0 0
3 0 0 0
4 0 0 0
5 0 0 0
6 0 0 0
7 0 0 0
8 0 0 0
9 0 0 0
10 0 0 0
11 0 0 0
12 0 0 0
13 0 0 0
14 0 0 0
15 0 0 0
16 0 0 0
17 0 0 0
18 0 0 0
19 0 0 0
20 0 0 0
21 0 0 0
22 0 0 0
23 0 0 0
24 0 0 0
25 0 0 0
26 0 0 0
27 0 0 0
28 0 0 0
29 0 0 0
30 0 0 0
31 0 0 0
32 0 0 0
