LAMMPS (4 May 2022)
Reading data file ...
  triclinic box = (0 0 0) to (12.4447 12.4447 12.4447) with tilt (0 0 0)
  1 by 2 by 2 MPI processor grid
  reading atoms ...
  192 atoms
  read_data CPU = 0.001 seconds
Replicating atoms ...
  triclinic box = (0 0 0) to (24.8894 24.8894 24.8894) with tilt (0 0 0)
  1 by 2 by 2 MPI processor grid
  1536 atoms
  replicate CPU = 0.000 seconds
nh nw 0: 229 3 
nh nw 1: 50176 3 
nh nw 2: 50176 3 
nh nw 3: 4096 4 
nh nw 4: 4096 4 
nh nw 5: 32768 8 
nh nw 0: 229 3 
nh nw 1: 50176 3 
nh nw 2: 50176 3 
nh nw 3: 4096 4 
nh nw 4: 4096 4 
nh nw 5: 32768 8 
nh nw 6: 32768 8 
rcut 50331648 
nh nw 0: 229 3 
nh nw 1: 50176 3 
nh nw 2: 50176 3 
nh nw 3: 4096 4 
nh nw 4: 4096 4 
nh nw 5: 32768 8 
nh nw 6: 32768 8 
rcut 50331648 
nh nw 6: 32768 8 
rcut 50331648 
nh nw 0: 229 3 
nh nw 1: 50176 3 
nh nw 2: 50176 3 
nh nw 3: 4096 4 
nh nw 4: 4096 4 
nh nw 5: 32768 8 
nh nw 6: 32768 8 
rcut 50331648 
Generated 0 of 1 mixed pair_coeff terms from geometric mixing rule
Neighbor list info ...
  update every 20 steps, delay 0 steps, check no
  max neighbors/atom: 2000, page size: 100000
  master list distance cutoff = 8
  ghost atom cutoff = 8
  binsize = 4, bins = 7 7 7
  2 neighbor lists, perpetual/occasional/extra = 1 1 0
  (1) pair mdpu, perpetual
      attributes: full, newton on
      pair build: full/bin/atomonly
      stencil: full/bin/3d
      bin: standard
  (2) compute rdf, occasional, copy from (1)
      attributes: full, newton on
      pair build: copy
      stencil: none
      bin: none
Setting up Verlet run ...
  Unit style    : metal
  Current step  : 0
  Time step     : 0.0005
Per MPI rank memory allocation (min/avg/max) = 2.698 | 2.698 | 2.698 Mbytes
   Step         PotEng         KinEng         TotEng          Temp          Press          Volume    
         0   8868.535       65.476726      8934.0118      330            211.29098      15418.541    
       200   8885.7462      64.284924      8950.0311      323.99336      757.60033      15418.541    
       400   8966.2036      63.948773      9030.1524      322.29918     -1240.8428      15418.541    
       600   8871.2064      63.222365      8934.4287      318.63811     -1032.1506      15418.541    
       800   8855.6987      63.154536      8918.8533      318.29626     -232.60946      15418.541    
      1000   8983.0197      64.447052      9047.4667      324.81048      131.81765      15418.541    
      1200   9095.2291      65.034563      9160.2637      327.77152     -4242.6853      15418.541    
      1400   8872.5187      64.49861       8937.0173      325.07033     -242.35285      15418.541    
      1600   8999.9315      65.681761      9065.6133      331.03336     -3079.7161      15418.541    
      1800   8984.1967      65.828102      9050.0248      331.77092     -1153.0035      15418.541    
      2000   8984.687       65.634575      9050.3216      330.79555     -667.97086      15418.541    
      2200   8937.1348      65.376813      9002.5116      329.49644      746.52367      15418.541    
      2400   8825.4121      65.236686      8890.6487      328.7902      -3457.278       15418.541    
      2600   8935.6051      67.124492      9002.7296      338.30467     -1025.6398      15418.541    
      2800   8935.7902      66.971146      9002.7613      337.53181     -1040.059       15418.541    
      3000   8968.3536      66.379661      9034.7333      334.55075     -239.77083      15418.541    
      3200   8839.4955      67.151204      8906.6467      338.4393      -412.00377      15418.541    
      3400   8968.5545      65.92211       9034.4766      332.24472     -1460.8588      15418.541    
      3600   9001.1205      65.133888      9066.2544      328.27211      1133.9184      15418.541    
      3800   8887.3515      66.644489      8953.996       335.88547     -2631.3831      15418.541    
      4000   8872.2751      65.406752      8937.6819      329.64733     -498.5473       15418.541    
      4200   9016.3688      65.026578      9081.3954      327.73127      313.06364      15418.541    
      4400   8967.039       66.059711      9033.0988      332.93822     -2261.9646      15418.541    
      4600   8857.6405      63.154221      8920.7947      318.29467      2160.6549      15418.541    
      4800   8920.3029      64.315447      8984.6183      324.1472      -684.7299       15418.541    
      5000   8951.9645      64.523517      9016.488       325.19587     -927.84089      15418.541    
      5200   8873.6799      62.686003      8936.3659      315.93487      210.11694      15418.541    
      5400   8874.125       62.237948      8936.363       313.67669     -811.39805      15418.541    
      5600   8903.5668      64.968429      8968.5352      327.4382      -2694.9777      15418.541    
      5800   8776.3179      64.526731      8840.8446      325.21206     -2571.351       15418.541    
      6000   9014.2731      67.033632      9081.3068      337.84674     -358.52838      15418.541    
      6200   8953.5716      64.388308      9017.96        324.51442     -84.699467      15418.541    
      6400   8841.9988      64.645711      8906.6445      325.81172     -706.71671      15418.541    
      6600   8982.3635      68.945662      9051.3092      347.48329      1372.6632      15418.541    
      6800   8886.868       68.965858      8955.8339      347.58508     -2756.0828      15418.541    
      7000   8905.4093      66.800925      8972.2103      336.67391      1216.6925      15418.541    
      7200   8937.8127      66.630207      9004.4429      335.8135       420.56033      15418.541    
      7400   8824.2022      68.419282      8892.6215      344.83036      1015.1636      15418.541    
      7600   8843.4614      65.21642       8908.6778      328.68807      2033.6809      15418.541    
      7800   8873.318       67.302142      8940.6202      339.20002      1617.1608      15418.541    
      8000   8873.9197      66.567861      8940.4876      335.49927     -2423.8705      15418.541    
      8200   8999.938       68.343095      9068.2811      344.44638     -1362.6076      15418.541    
      8400   8920.9155      67.105236      8988.0207      338.20762      597.59737      15418.541    
      8600   8908.0085      63.579218      8971.5877      320.43663      803.8875       15418.541    
      8800   8938.007       64.962568      9002.9696      327.40866      1333.5408      15418.541    
      9000   8888.2763      65.960853      8954.2372      332.43998     -282.63805      15418.541    
      9200   9079.3643      66.080601      9145.4449      333.0435       1918.8824      15418.541    
      9400   8807.0244      65.698466      8872.7229      331.11756     -991.60564      15418.541    
      9600   8983.8878      64.275642      9048.1634      323.94658     -1356.42        15418.541    
      9800   8871.9308      63.855769      8935.7866      321.83044     -1044.386       15418.541    
     10000   8839.3377      64.254981      8903.5927      323.84245      377.56767      15418.541    
     10200   8998.2234      65.22694       9063.4504      328.74109     -2562.6305      15418.541    
     10400   8966.3361      65.080089      9031.4162      328.00096     -2615.0428      15418.541    
     10600   8900.5086      66.904906      8967.4135      337.19797     -278.27335      15418.541    
     10800   8869.6533      65.780502      8935.4338      331.53102     -350.74969      15418.541    
     11000   8967.5465      63.915264      9031.4617      322.13029     -301.53261      15418.541    
     11200   8934.9547      64.559504      8999.5143      325.37724     -1510.3535      15418.541    
     11400   8965.5634      66.105049      9031.6685      333.16672      1747.3523      15418.541    
     11600   8870.0032      65.904135      8935.9073      332.15412     -2786.1972      15418.541    
     11800   8838.0036      66.16914       8904.1728      333.48974     -464.16687      15418.541    
     12000   8984.8961      63.61691       9048.513       320.6266      -1753.7813      15418.541    
     12200   8790.5889      66.294756      8856.8837      334.12284     -1431.3709      15418.541    
     12400   8824.6561      64.661973      8889.3181      325.89368     -681.34536      15418.541    
     12600   8714.7909      63.081603      8777.8725      317.92868     -3533.7391      15418.541    
     12800   8920.0943      66.365353      8986.4597      334.47864     -1071.0696      15418.541    
     13000   8968.6041      66.374195      9034.9783      334.5232      -809.09088      15418.541    
     13200   8938.4292      64.990582      9003.4197      327.54985     -1392.8055      15418.541    
     13400   8921.286       66.452653      8987.7387      334.91863     -875.97313      15418.541    
     13600   8890.4971      65.434739      8955.9318      329.78838     -2441.9636      15418.541    
     13800   8874.3521      65.688705      8940.0408      331.06836     -2708.6282      15418.541    
     14000   8812.0975      64.034327      8876.1318      322.73037      80.531728      15418.541    
     14200   8860.7217      63.443887      8924.1655      319.75457      981.41671      15418.541    
     14400   8793.9706      66.154102      8860.1247      333.41394     -793.72749      15418.541    
     14600   9019.1458      64.897254      9084.0431      327.07948      419.85166      15418.541    
     14800   8906.1134      65.860948      8971.9743      331.93646     -1513.6456      15418.541    
     15000   8682.1948      65.735241      8747.93        331.3029      -2307.6285      15418.541    
     15200   8891.5696      64.373176      8955.9427      324.43815     -706.86506      15418.541    
     15400   8906.1446      65.804459      8971.9491      331.65176     -340.74509      15418.541    
     15600   8874.8398      65.120921      8939.9607      328.20675     -1077.2875      15418.541    
     15800   8826.9903      65.007785      8891.998       327.63655     -637.1732       15418.541    
     16000   8891.2407      64.852516      8956.0932      326.85401      632.77727      15418.541    
     16200   8877.6216      62.593618      8940.2152      315.46925     -1859.8903      15418.541    
     16400   9035.5533      64.925219      9100.4785      327.22043     -1920.3396      15418.541    
     16600   8826.4199      66.425807      8892.8457      334.78333      621.96964      15418.541    
     16800   8812.3215      64.877698      8877.1992      326.98092      315.3224       15418.541    
     17000   8890.0781      67.436678      8957.5148      339.87807     -2371.7062      15418.541    
     17200   8875.7589      66.13195       8941.8908      333.3023      -1708.5188      15418.541    
     17400   8810.8402      67.328748      8878.169       339.33411      1143.529       15418.541    
     17600   9019.9036      66.389264      9086.2929      334.59915     -1988.1914      15418.541    
     17800   8905.5216      68.68322       8974.2048      346.1606       2210.5543      15418.541    
     18000   8828.8627      65.129262      8893.9919      328.24879     -1957.5912      15418.541    
     18200   8970.6125      66.960146      9037.5727      337.47637     -3229.247       15418.541    
     18400   8889.7825      67.199793      8956.9823      338.68418      2084.5688      15418.541    
     18600   8873.1841      67.00214       8940.1862      337.68802     -2323.9734      15418.541    
     18800   8923.9076      63.33507       8987.2427      319.20614     -1501.3342      15418.541    
     19000   8986.7556      63.708413      9050.464       321.08778      129.47633      15418.541    
     19200   8903.3246      66.564221      8969.8889      335.48093      315.64315      15418.541    
     19400   8776.387       65.08107       8841.4681      328.00591     -2167.818       15418.541    
     19600   8888.5176      64.597643      8953.1152      325.56946     -584.95058      15418.541    
     19800   8904.9595      63.939149      8968.8986      322.25067     -1039.9133      15418.541    
     20000   8934.8518      65.935688      9000.7874      332.31315     -261.11611      15418.541    
     20200   8871.9279      64.779796      8936.7077      326.4875      -2699.8507      15418.541    
     20400   8774.9404      65.731109      8840.6715      331.28208     -864.20126      15418.541    
     20600   8858.4083      62.310854      8920.7191      314.04413     -2910.9485      15418.541    
     20800   8745.8115      63.081472      8808.893       317.92801     -1498.0393      15418.541    
     21000   8856.1156      65.041117      8921.1568      327.80455     -1436.4491      15418.541    
     21200   8902.5147      67.011763      8969.5264      337.73652     -563.50558      15418.541    
     21400   8857.5303      64.426033      8921.9564      324.70455     -626.52051      15418.541    
     21600   8889.0085      65.464506      8954.473       329.93841      1482.3886      15418.541    
     21800   8872.9674      66.0601        8939.0275      332.94018     -1448.2961      15418.541    
     22000   8922.7077      64.924878      8987.6326      327.21871     -700.65089      15418.541    
     22200   8841.9143      66.26619       8908.1805      333.97886      857.77237      15418.541    
     22400   8793.9672      66.682072      8860.6493      336.07489      153.22923      15418.541    
     22600   8924.1135      64.911321      8989.0248      327.15038      2456.7968      15418.541    
     22800   8826.6776      66.619099      8893.2967      335.75751      243.23559      15418.541    
     23000   8859.0462      66.427627      8925.4738      334.7925       1982.6928      15418.541    
     23200   8971.4656      66.063283      9037.5289      332.95622      916.10241      15418.541    
     23400   8970.8563      66.685811      9037.5421      336.09374     -203.1102       15418.541    
     23600   8953.769       67.666748      9021.4357      341.03762      979.2161       15418.541    
     23800   8889.5017      67.684699      8957.1864      341.12809     -1264.116       15418.541    
     24000   8969.987       66.709913      9036.6969      336.21521      834.64341      15418.541    
     24200   8713.5175      66.215234      8779.7327      333.72205     -479.47839      15418.541    
     24400   8954.2095      64.097813      9018.3073      323.05033      2108.3753      15418.541    
     24600   9110.6127      66.362678      9176.9753      334.46516     -785.58119      15418.541    
     24800   8838.8272      65.374053      8904.2013      329.48253     -2316.7206      15418.541    
     25000   8871.5042      64.355431      8935.8596      324.34872      1048.3858      15418.541    
     25200   8966.6007      65.098414      9031.6991      328.09332      816.3831       15418.541    
     25400   8998.434       65.19034       9063.6244      328.55663     -1313.0594      15418.541    
     25600   8887.103       64.53198       8951.635       325.23851     -1799.389       15418.541    
     25800   8983.9094      63.82948       9047.7389      321.69794     -201.1243       15418.541    
     26000   8857.041       62.892309      8919.9333      316.97464      75.215747      15418.541    
     26200   9000.0003      64.199678      9064.2         323.56373     -1488.7404      15418.541    
     26400   8887.0696      65.481136      8952.5508      330.02222     -1309.4086      15418.541    
     26600   8903.9055      65.03573       8968.9413      327.77739     -2327.7483      15418.541    
     26800   8727.4145      65.905263      8793.3198      332.1598      -563.63593      15418.541    
     27000   8869.9536      67.733002      8937.6866      341.37154     -965.85621      15418.541    
     27200   8762.159       63.890972      8826.0499      322.00786     -1746.9763      15418.541    
     27400   8950.9186      67.423549      9018.3421      339.8119       1689.8013      15418.541    
     27600   8886.6942      67.894234      8954.5884      342.18414     -2874.6543      15418.541    
     27800   8936.8068      65.93566       9002.7425      332.31301     -1883.8198      15418.541    
     28000   8855.983       66.867367      8922.8504      337.00877      405.3777       15418.541    
     28200   9032.2839      66.648811      9098.9327      335.90726     -1092.2092      15418.541    
     28400   8967.0207      68.003191      9035.0239      342.73328     -1678.7152      15418.541    
     28600   8922.1543      64.967211      8987.1215      327.43207      236.4534       15418.541    
     28800   8811.7942      63.336049      8875.1302      319.21107      2025.2937      15418.541    
     29000   8985.1023      66.115252      9051.2176      333.21814     -1216.9252      15418.541    
     29200   8921.4978      65.848164      8987.3459      331.87203     -2195.7779      15418.541    
     29400   8745.5954      65.929262      8811.5246      332.28076     -599.18562      15418.541    
     29600   8937.9512      65.810336      9003.7615      331.68138     -3281.645       15418.541    
     29800   8921.7542      66.309863      8988.064       334.19897     -3500.9827      15418.541    
     30000   8922.1269      66.228682      8988.3556      333.78983     -2358.9977      15418.541    
     30200   8667.7436      64.885963      8732.6296      327.02258     -2969.5047      15418.541    
     30400   8906.2483      66.62868       8972.877       335.8058      -1047.5656      15418.541    
     30600   8907.1831      65.962619      8973.1457      332.44888     -987.90176      15418.541    
     30800   8956.7679      64.598491      9021.3664      325.57373      731.14291      15418.541    
     31000   8843.2502      66.313475      8909.5637      334.21718     -1226.0303      15418.541    
     31200   9083.3206      66.333333      9149.654       334.31726     -1548.1131      15418.541    
     31400   8813.1754      64.518144      8877.6935      325.16878     -476.93784      15418.541    
     31600   8794.174       67.560753      8861.7348      340.50341     -3449.4995      15418.541    
     31800   8813.1618      64.561368      8877.7232      325.38663     -1700.6326      15418.541    
     32000   8861.4352      64.28745       8925.7226      324.0061       99.121193      15418.541    
     32200   8812.085       65.657724      8877.7428      330.91222      51.247798      15418.541    
     32400   8922.9962      66.711585      8989.7078      336.22364      1885.2145      15418.541    
     32600   8939.1255      66.444488      9005.57        334.87748      771.88109      15418.541    
     32800   8892.9619      64.363117      8957.325       324.38746      763.2638       15418.541    
     33000   8955.9462      64.954715      9020.9009      327.36909     -4328.9826      15418.541    
     33200   8939.584       64.772173      9004.3562      326.44908      1146.6499      15418.541    
     33400   8907.0572      64.702598      8971.7598      326.09842     -2834.2863      15418.541    
     33600   9095.6466      67.47404       9163.1206      340.06638     -3489.1233      15418.541    
     33800   8937.11        65.394313      9002.5043      329.58464     -1574.4177      15418.541    
     34000   8808.9071      65.080349      8873.9875      328.00227      1640.3624      15418.541    
     34200   8727.0854      66.459512      8793.5449      334.9532      -902.48771      15418.541    
     34400   8903.4915      65.663225      8969.1547      330.93995     -82.053777      15418.541    
     34600   8855.9585      64.916646      8920.8752      327.17722      432.56921      15418.541    
     34800   8856.3432      64.278388      8920.6216      323.96042     -10.856116      15418.541    
     35000   8921.6473      62.756642      8984.404       316.29089     -4232.9248      15418.541    
     35200   8887.7901      64.479589      8952.2697      324.97447     -337.79495      15418.541    
     35400   8857.0322      63.222004      8920.2542      318.63629     -1255.1411      15418.541    
     35600   8905.3805      63.041437      8968.422       317.72624     -3008.9378      15418.541    
     35800   8793.495       63.170285      8856.6653      318.37563      2169.7958      15418.541    
     36000   8969.3902      63.610439      9033.0006      320.59399     -1165.4909      15418.541    
     36200   8826.501       62.895768      8889.3967      316.99208     -222.8231       15418.541    
     36400   8825.4629      64.493994      8889.9569      325.04707     -914.40166      15418.541    
     36600   8922.2211      64.387335      8986.6084      324.50951     -1627.4372      15418.541    
     36800   8904.8268      66.429675      8971.2564      334.80282      540.15999      15418.541    
     37000   8954.3341      65.432969      9019.767       329.77946     -879.46702      15418.541    
     37200   8984.4958      67.60679       9052.1026      340.73543      140.99792      15418.541    
     37400   8920.5876      67.635552      8988.2232      340.88039      199.39267      15418.541    
     37600   8969.2471      66.928282      9036.1754      337.31578     -608.74417      15418.541    
     37800   8970.4261      65.672304      9036.0984      330.9857      -1957.7544      15418.541    
     38000   8744.6729      67.307107      8811.98        339.22504      638.77854      15418.541    
     38200   8825.9084      65.901843      8891.8103      332.14257     -945.45314      15418.541    
     38400   8938.3774      65.264764      9003.6421      328.93172      1419.6272      15418.541    
     38600   8858.0217      65.422717      8923.4444      329.72779     -1527.094       15418.541    
     38800   8922.0615      65.147122      8987.2086      328.33881     -56.58204       15418.541    
     39000   8905.4386      65.541742      8970.9803      330.32768      485.11407      15418.541    
     39200   8954.2029      64.543525      9018.7464      325.2967      -2259.3226      15418.541    
     39400   8841.5948      64.968212      8906.563       327.43711     -359.36196      15418.541    
     39600   8680.8537      65.508435      8746.3621      330.15981      229.39357      15418.541    
     39800   8809.2029      64.881069      8874.0839      326.99791     -1105.6696      15418.541    
     40000   8838.3095      67.429896      8905.7394      339.84389     -1673.0262      15418.541    
     40200   8793.9076      63.473524      8857.3812      319.90394     -1892.4721      15418.541    
     40400   8904.4272      64.606194      8969.0334      325.61255     -501.14604      15418.541    
     40600   8823.541       65.157438      8888.6985      328.3908      -1514.8927      15418.541    
     40800   8855.4518      64.899737      8920.3516      327.092       -386.42576      15418.541    
     41000   8887.8907      64.186548      8952.0773      323.49756     -578.35137      15418.541    
     41200   8825.1058      62.78155       8887.8873      316.41642     -415.26762      15418.541    
     41400   8920.8374      62.920739      8983.7581      317.11793     -1555.6533      15418.541    
     41600   8886.5349      65.141506      8951.6764      328.3105      -841.99799      15418.541    
     41800   8840.5957      63.084803      8903.6805      317.94481     -218.94168      15418.541    
     42000   8870.8539      64.95504       8935.8089      327.37072     -2689.0041      15418.541    
     42200   8870.4987      65.504318      8936.003       330.13906      1538.9643      15418.541    
     42400   8887.4605      64.779328      8952.2398      326.48514     -2122.9478      15418.541    
     42600   8855.4255      65.115079      8920.5406      328.17731     -234.47332      15418.541    
     42800   8917.5869      67.340299      8984.9272      339.39233     -192.46898      15418.541    
     43000   8806.9038      66.420817      8873.3247      334.75818     -967.83564      15418.541    
     43200   8822.1116      67.581563      8889.6932      340.60829      85.067887      15418.541    
     43400   8838.9674      67.0843        8906.0517      338.1021       470.93887      15418.541    
     43600   8761.3504      64.987236      8826.3376      327.53299      1427.6179      15418.541    
     43800   8951.6137      66.95402       9018.5678      337.4455       608.15149      15418.541    
     44000   8968.013       66.766424      9034.7794      336.50002     -501.49679      15418.541    
     44200   8951.1269      67.864144      9018.991       342.03249     -600.93896      15418.541    
     44400   8969.2112      65.933532      9035.1448      332.30228      839.30034      15418.541    
     44600   8985.9511      65.327154      9051.2782      329.24616      970.68354      15418.541    
     44800   8970.1069      65.300698      9035.4076      329.11282      1212.9808      15418.541    
     45000   8887.9195      67.573727      8955.4932      340.56879     -3008.3341      15418.541    
     45200   8954.5933      64.906133      9019.4994      327.12423      589.41029      15418.541    
     45400   8794.043       65.394088      8859.4371      329.58351      214.9848       15418.541    
     45600   8968.7784      66.497855      9035.2763      335.14644     -91.97244       15418.541    
     45800   8986.4841      64.577814      9051.0619      325.46952      295.53931      15418.541    
     46000   8762.307       64.391477      8826.6985      324.53039     -1714.7239      15418.541    
     46200   8807.9514      66.310034      8874.2614      334.19983      1787.7572      15418.541    
     46400   8871.486       66.241552      8937.7275      333.85469     -292.13169      15418.541    
     46600   8966.8062      66.321955      9033.1281      334.25992      408.42691      15418.541    
     46800   8921.2019      63.317658      8984.5195      319.11838      2009.6698      15418.541    
     47000   8887.7847      64.183684      8951.9684      323.48312     -1534.597       15418.541    
     47200   8967.6471      63.912056      9031.5591      322.11413     -269.80278      15418.541    
     47400   8823.1586      64.120062      8887.2786      323.16247     -2482.3073      15418.541    
     47600   8952.1653      62.930581      9015.0959      317.16753      1444.7997      15418.541    
     47800   8918.2337      64.76672       8983.0005      326.4216      -1891.065       15418.541    
     48000   8872.0027      62.996809      8934.9995      317.50132      721.68064      15418.541    
     48200   8839.5157      63.516383      8903.0321      320.11995     -682.73947      15418.541    
     48400   8965.8709      65.251582      9031.1225      328.86528     -4791.2301      15418.541    
     48600   8934.1274      65.232908      8999.3603      328.77117      8.8871515      15418.541    
     48800   8823.0529      64.681808      8887.7347      325.99364     -498.9974       15418.541    
     49000   8952.793       63.523671      9016.3167      320.15668     -431.66792      15418.541    
     49200   8983.9067      65.22803       9049.1348      328.74658     -2725.543       15418.541    
     49400   8872.5295      65.589127      8938.1187      330.56649     -2243.2799      15418.541    
     49600   9097.2154      65.803732      9163.0191      331.64809      38.551956      15418.541    
     49800   8841.2314      66.489346      8907.7207      335.10356     -293.21401      15418.541    
     50000   8936.1881      67.967986      9004.1561      342.55585     -377.78767      15418.541    
     50200   8986.5626      65.842169      9052.4048      331.84181     -3843.2818      15418.541    
     50400   8937.4229      67.138306      9004.5612      338.37429     -921.00017      15418.541    
     50600   8812.6172      63.98375       8876.601       322.47546     -1419.3165      15418.541    
     50800   8857.0543      67.496052      8924.5503      340.17732      382.84467      15418.541    
     51000   9001.3513      67.105857      9068.4572      338.21075     -2411.863       15418.541    
     51200   9001.9175      66.420291      9068.3378      334.75553      19.370618      15418.541    
     51400   8954.3865      65.755362      9020.1418      331.40431     -3264.6371      15418.541    
     51600   8875.2101      64.720535      8939.9307      326.18882     -1474.8921      15418.541    
     51800   8954.0291      65.651629      9019.6807      330.8815       250.31591      15418.541    
     52000   8777.9488      65.395875      8843.3447      329.59251      654.4938       15418.541    
     52200   9033.6027      65.332085      9098.9348      329.27101     -183.82356      15418.541    
     52400   8857.6051      64.849113      8922.4542      326.83685     -3945.3539      15418.541    
     52600   9000.9063      65.085844      9065.9921      328.02997     -307.35219      15418.541    
     52800   8970.0136      63.522565      9033.5361      320.15111     -2438.3812      15418.541    
     53000   8872.4856      64.620424      8937.106       325.68427     -844.00307      15418.541    
     53200   8934.6616      65.974298      9000.6359      332.50774     -3015.8825      15418.541    
     53400   8919.3147      64.8331        8984.1478      326.75615     -2356.8926      15418.541    
     53600   8759.4647      64.191972      8823.6566      323.52489      1025.2014      15418.541    
     53800   8822.938       64.205753      8887.1437      323.59435      1461.3871      15418.541    
     54000   8997.2368      65.436342      9062.6731      329.79646     -134.5177       15418.541    
     54200   8885.8517      64.460107      8950.3118      324.87628     -201.34677      15418.541    
     54400   8932.7072      65.286386      8997.9936      329.04069      1224.3134      15418.541    
     54600   8949.1778      64.591862      9013.7696      325.54032     -1835.9943      15418.541    
     54800   8806.0725      63.615935      8869.6884      320.62169      858.34855      15418.541    
     55000   8918.5154      63.225822      8981.7412      318.65553     -830.72569      15418.541    
     55200   8917.6422      64.244651      8981.8869      323.79039     -232.68671      15418.541    
     55400   8932.9849      65.135067      8998.12        328.27805     -797.55585      15418.541    
     55600   8884.953       65.383303      8950.3363      329.52915      1475.3011      15418.541    
     55800   8807.0165      63.471308      8870.4878      319.89277     -1307.7763      15418.541    
     56000   8902.5463      64.07733       8966.6237      322.9471       34.731872      15418.541    
     56200   8933.8274      64.989843      8998.8172      327.54613     -446.47526      15418.541    
     56400   8951.497       63.551321      9015.0483      320.29604     -879.25336      15418.541    
     56600   8886.5423      64.740458      8951.2828      326.28923     -1318.9933      15418.541    
     56800   8870.8075      64.763209      8935.5708      326.4039      -1138.6357      15418.541    
     57000   8855.8275      64.044856      8919.8724      322.78343      671.37739      15418.541    
     57200   9014.0277      66.128894      9080.1566      333.2869      -2127.8873      15418.541    
     57400   8934.4715      66.104282      9000.5758      333.16286      145.43976      15418.541    
     57600   8823.6702      65.332654      8889.0028      329.27388     -285.39447      15418.541    
     57800   8950.3027      67.119507      9017.4222      338.27955     -902.32158      15418.541    
     58000   8871.597       66.206639      8937.8036      333.67873      633.62841      15418.541    
     58200   8904.1801      65.962626      8970.1428      332.44891     -2207.0296      15418.541    
     58400   8840.2676      66.156569      8906.4242      333.42638      1600.237       15418.541    
     58600   8905.3128      65.292895      8970.6057      329.0735      -143.94433      15418.541    
     58800   8870.8638      67.872469      8938.7363      342.07444     -1821.0513      15418.541    
     59000   8824.0675      66.794623      8890.8622      336.64215      1283.733       15418.541    
     59200   8953.6122      65.36978       9018.982       329.46099     -1855.144       15418.541    
     59400   8920.3428      66.658653      8987.0015      335.95686      475.4032       15418.541    
     59600   8809.2358      65.772614      8875.0084      331.49126     -40.217423      15418.541    
     59800   8762.4654      64.533944      8826.9993      325.24841      635.53695      15418.541    
     60000   8953.2764      65.693477      9018.9699      331.09241     -1909.9167      15418.541    
     60200   8951.5758      67.374679      9018.9505      339.5656      -1519.6157      15418.541    
     60400   8778.0648      64.819187      8842.884       326.68603     -1948.2847      15418.541    
     60600   8824.764       66.00789       8890.7719      332.67704     -3188.4944      15418.541    
     60800   8968.5242      66.062677      9034.5869      332.95317     -231.56315      15418.541    
     61000   8873.5278      64.842974      8938.3708      326.80592      518.90665      15418.541    
     61200   8695.9393      66.17126       8762.1106      333.50042      585.59264      15418.541    
     61400   8985.7323      64.121199      9049.8535      323.1682      -3106.0859      15418.541    
     61600   8986.1049      63.468301      9049.5732      319.87762      478.12709      15418.541    
     61800   8920.2959      64.980104      8985.276       327.49704      1437.735       15418.541    
     62000   8968.9349      64.010054      9032.945       322.60803     -330.14373      15418.541    
     62200   8855.8402      64.790257      8920.6304      326.54022     -1390.7251      15418.541    
     62400   8935.3739      64.982918      9000.3568      327.51122     -2973.617       15418.541    
     62600   8775.7953      64.264261      8840.0595      323.88922     -1627.4462      15418.541    
     62800   8901.7531      66.013644      8967.7667      332.70604      417.86982      15418.541    
     63000   8884.8891      66.527349      8951.4165      335.29509      304.18794      15418.541    
     63200   8981.6513      65.484114      9047.1354      330.03723     -274.64569      15418.541    
     63400   8888.3984      62.500296      8950.8987      314.99891      0.73383015     15418.541    
     63600   8871.3937      63.406593      8934.8003      319.56661     -1867.9222      15418.541    
     63800   9093.106       65.689903      9158.7959      331.0744      -3400.4993      15418.541    
     64000   8855.4752      63.361465      8918.8367      319.33917      1342.8226      15418.541    
     64200   8872.3128      62.598354      8934.9112      315.49312      789.8888       15418.541    
     64400   8952.8034      62.332285      9015.1357      314.15214     -1629.3037      15418.541    
     64600   8936.0262      63.553903      8999.5801      320.30905     -994.09563      15418.541    
     64800   8871.5759      64.685562      8936.2615      326.01256     -220.85209      15418.541    
     65000   8981.5986      67.533387      9049.132       340.36549     -310.01438      15418.541    
     65200   8697.6995      64.30125       8762.0008      324.07565      2056.1593      15418.541    
     65400   8937.2699      65.446466      9002.7164      329.84749      837.0846       15418.541    
     65600   9032.8268      66.414741      9099.2415      334.72756      227.93542      15418.541    
     65800   8905.9184      65.69658       8971.615       331.10805     -991.1583       15418.541    
     66000   8938.9269      64.920051      9003.8469      327.19438     -1252.5844      15418.541    
     66200   8937.5106      66.558948      9004.0696      335.45435     -2949.3195      15418.541    
     66400   8857.2521      67.003226      8924.2554      337.6935      -2421.2057      15418.541    
     66600   9003.7661      64.629928      9068.3961      325.73217     -193.18504      15418.541    
     66800   8812.7068      63.853651      8876.5604      321.81977     -4157.5544      15418.541    
     67000   8826.9975      65.762136      8892.7596      331.43845      984.29715      15418.541    
     67200   8876.0189      64.972039      8940.9909      327.4564      -2379.8145      15418.541    
     67400   8971.8776      65.396806      9037.2744      329.5972       414.05916      15418.541    
     67600   8829.2713      64.33632       8893.6076      324.2524      -1259.506       15418.541    
     67800   8813.4546      64.553132      8878.0077      325.34512     -36.910095      15418.541    
     68000   8795.3198      67.115859      8862.4357      338.26116     -1111.8912      15418.541    
     68200   8908.0616      66.735354      8974.7969      336.34343     -2288.8447      15418.541    
     68400   8845.0196      66.082077      8911.1017      333.05094     -894.00248      15418.541    
     68600   8797.3668      65.978184      8863.345       332.52733     -1541.6516      15418.541    
     68800   8701.5275      66.067233      8767.5948      332.97613     -1716.3518      15418.541    
     69000   8892.5319      67.287683      8959.8195      339.12715      287.53133      15418.541    
     69200   8942.1983      65.868631      9008.0669      331.97518      805.54675      15418.541    
     69400   8719.7333      64.649172      8784.3824      325.82916     -1128.9255      15418.541    
     69600   9101.2408      67.51949       9168.7603      340.29544     -154.00366      15418.541    
     69800   9035.2253      69.873975      9105.0993      352.16195      359.65831      15418.541    
     70000   8767.235       66.10264       8833.3377      333.15458     -462.23856      15418.541    
     70200   8814.8597      66.586478      8881.4462      335.5931       1638.1646      15418.541    
     70400   8862.9935      66.445273      8929.4388      334.88144      1445.1553      15418.541    
     70600   8845.5001      67.762568      8913.2626      341.52055     -593.21224      15418.541    
     70800   8718.5019      66.463198      8784.9651      334.97178     -930.5803       15418.541    
     71000   8891.1644      69.291231      8960.4556      349.22495     -1933.677       15418.541    
     71200   8799.0064      64.79723       8863.8036      326.57536     -436.51868      15418.541    
     71400   8909.7272      65.365772      8975.0929      329.4408      -1621.7994      15418.541    
     71600   8845.2489      65.203077      8910.452       328.62082      677.93444      15418.541    
     71800   8893.1378      64.684919      8957.8227      326.00932     -177.53008      15418.541    
     72000   8905.8483      67.434567      8973.2829      339.86744     -2421.7514      15418.541    
     72200   8892.9566      63.859527      8956.8161      321.84938      1206.4037      15418.541    
     72400   8779.5784      64.845005      8844.4234      326.81615      1900.6352      15418.541    
     72600   8681.1711      66.925518      8748.0966      337.30185     -3560.3678      15418.541    
     72800   9002.9648      64.815163      9067.7799      326.66575     -633.95412      15418.541    
     73000   8842.0371      65.479599      8907.5167      330.01448     -37.136535      15418.541    
     73200   8873.4885      65.805181      8939.2937      331.6554      -1527.3625      15418.541    
     73400   8938.4437      64.657304      9003.101       325.87014     -1721.3752      15418.541    
     73600   8971.1741      63.739102      9034.9132      321.24245      2430.3387      15418.541    
     73800   8872.4208      66.367293      8938.7881      334.48842     -2823.6755      15418.541    
     74000   8889.4196      65.233035      8954.6526      328.7718      -686.96271      15418.541    
     74200   8855.3204      67.129257      8922.4496      338.32869      1181.3319      15418.541    
     74400   8731.113       63.171322      8794.2843      318.38086     -3649.9313      15418.541    
     74600   8746.5279      63.60392       8810.1318      320.56113      972.36255      15418.541    
     74800   8906.2674      63.796666      8970.0641      321.53256      148.21388      15418.541    
     75000   8855.7283      66.310311      8922.0386      334.20123     -1443.9615      15418.541    
     75200   8886.8316      67.241734      8954.0734      338.89556      1081.5394      15418.541    
     75400   8773.875       68.145709      8842.0207      343.45156      4052.7922      15418.541    
     75600   8825.9209      63.940978      8889.8619      322.25989     -332.44182      15418.541    
     75800   8856.1865      65.450368      8921.6368      329.86715      1003.0908      15418.541    
     76000   8984.1412      65.153227      9049.2944      328.36958     -1356.3557      15418.541    
     76200   8710.5548      66.328585      8776.8834      334.29333     -341.86943      15418.541    
     76400   8903.72        64.717839      8968.4379      326.17524     -2127.8446      15418.541    
     76600   8935.7523      64.296084      9000.0484      324.04961     -2707.7646      15418.541    
     76800   8951.7007      64.026931      9015.7277      322.69309     -210.02164      15418.541    
     77000   8935.1315      64.298978      8999.4305      324.0642       97.004413      15418.541    
     77200   8919.7629      63.426135      8983.189       319.6651      -1239.0535      15418.541    
     77400   8935.3659      63.626935      8998.9928      320.67713      109.19595      15418.541    
     77600   8774.5978      64.268899      8838.8667      323.9126       1441.6319      15418.541    
     77800   8886.9036      63.958852      8950.8625      322.34998     -2377.3871      15418.541    
     78000   8774.7926      64.191359      8838.984       323.5218      -1135.0055      15418.541    
     78200   8917.0804      66.13562       8983.2161      333.32079     -1463.0573      15418.541    
     78400   8856.1091      63.487169      8919.5963      319.97271     -2398.8948      15418.541    
     78600   8983.006       65.160213      9048.1662      328.40479     -1649.2762      15418.541    
     78800   8824.7104      64.223657      8888.9341      323.68458     -1232.5353      15418.541    
     79000   8855.9251      65.796938      8921.7221      331.61385     -1538.7935      15418.541    
     79200   8793.8873      64.593453      8858.4808      325.54834     -2482.1529      15418.541    
     79400   9000.6403      66.438129      9067.0784      334.84543     -1332.3008      15418.541    
     79600   8920.8783      66.626824      8987.5051      335.79645     -1529.1601      15418.541    
     79800   8953.0133      66.749949      9019.7632      336.41699      1103.3225      15418.541    
     80000   8809.2793      66.58094       8875.8603      335.56519      778.22671      15418.541    
     80200   8937.8015      66.096963      9003.8985      333.12597     -228.02656      15418.541    
     80400   8922.2292      65.727011      8987.9562      331.26142     -2818.1003      15418.541    
     80600   8890.1362      65.81822       8955.9545      331.72111     -1252.9413      15418.541    
     80800   8954.9358      65.015011      9019.9508      327.67297     -2626.4345      15418.541    
     81000   8950.7496      69.100826      9019.8504      348.26531     -2443.9932      15418.541    
     81200   8951.6978      67.98924       9019.687       342.66296     -1902.5343      15418.541    
     81400   8873.6373      65.703425      8939.3407      331.14255      110.51186      15418.541    
     81600   8891.0477      63.924789      8954.9725      322.1783      -652.96137      15418.541    
     81800   8761.3335      65.252135      8826.5857      328.86807     -270.3064       15418.541    
     82000   8953.4461      64.710892      9018.157       326.14023     -157.69834      15418.541    
     82200   8873.02        64.62053       8937.6405      325.6848       1898.2785      15418.541    
     82400   8905.4128      63.609742      8969.0225      320.59047     -3028.7448      15418.541    
     82600   9048.4168      64.007314      9112.4241      322.59422      236.97612      15418.541    
     82800   8871.1019      64.798882      8935.9008      326.58369      731.21745      15418.541    
     83000   8792.3619      63.103835      8855.4658      318.04072      671.87741      15418.541    
     83200   8792.4816      62.685138      8855.1667      315.93051      916.03616      15418.541    
     83400   8789.4528      65.568232      8855.021       330.46118     -1008.7457      15418.541    
     83600   8949.867       65.0894        9014.9564      328.04789     -2150.5919      15418.541    
     83800   8886.8857      64.033899      8950.9196      322.72821     -326.69687      15418.541    
     84000   8915.7392      67.242986      8982.9822      338.90188      148.46159      15418.541    
     84200   8806.6764      64.453813      8871.1302      324.84456     -958.82792      15418.541    
     84400   8729.2929      62.133381      8791.4263      313.14968      280.49082      15418.541    
     84600   8903.2843      64.87061       8968.1549      326.9452      -1583.7227      15418.541    
     84800   8951.7224      65.707029      9017.4295      331.16072      1121.9566      15418.541    
     85000   8840.7345      66.080653      8906.8151      333.04376      2548.1078      15418.541    
     85200   8986.3327      65.477112      9051.8098      330.00195     -1976.8679      15418.541    
     85400   8985.5177      66.901044      9052.4187      337.1785      -169.43521      15418.541    
     85600   8857.8383      66.955084      8924.7934      337.45086     -512.54535      15418.541    
     85800   8872.9176      68.074787      8940.9924      343.09412     -16.727385      15418.541    
     86000   8860.0442      65.061304      8925.1055      327.90629     -713.30475      15418.541    
     86200   8953.7816      67.412599      9021.1942      339.75672     -22.452571      15418.541    
     86400   9034.7974      66.38017       9101.1776      334.55332     -3172.3767      15418.541    
     86600   8794.456       66.602336      8861.0583      335.67303      846.15488      15418.541    
     86800   8922.911       65.969972      8988.8809      332.48594     -56.982738      15418.541    
     87000   8857.7551      66.888906      8924.644       337.11733      837.85487      15418.541    
     87200   8889.8322      66.453989      8956.2862      334.92536     -801.60597      15418.541    
     87400   8858.0528      65.817145      8923.8699      331.7157      -1683.9334      15418.541    
     87600   8842.948       64.498788      8907.4468      325.07123     -2826.1849      15418.541    
     87800   8873.3402      65.637776      8938.9779      330.81168     -1177.9529      15418.541    
     88000   8713.2985      65.170766      8778.4692      328.45797      59.684677      15418.541    
     88200   9019.0842      62.907873      9081.9921      317.05309     -793.89098      15418.541    
     88400   8840.1729      65.430205      8905.6031      329.76553      70.567295      15418.541    
     88600   8809.7223      63.595098      8873.3174      320.51667     -1978.8009      15418.541    
     88800   8920.5732      64.545272      8985.1184      325.30551      1369.1907      15418.541    
     89000   8824.5148      64.430836      8888.9456      324.72876     -785.19194      15418.541    
     89200   8903.3155      65.478879      8968.7944      330.01085     -2189.0062      15418.541    
     89400   8776.2837      64.336402      8840.6201      324.25281     -576.05145      15418.541    
     89600   8856.1822      64.267906      8920.4501      323.9076       2305.6626      15418.541    
     89800   8838.9454      65.334495      8904.2799      329.28316      981.0646       15418.541    
     90000   8840.461       63.66714       8904.1282      320.87976     -688.20952      15418.541    
     90200   8839.5315      64.492074      8904.0236      325.03739     -2769.5289      15418.541    
     90400   8970.0085      61.945132      9031.9537      312.20091      520.4155       15418.541    
     90600   8950.6948      65.244814      9015.9397      328.83117     -1588.7127      15418.541    
     90800   8842.2756      61.723337      8903.999       311.08307     -656.81795      15418.541    
     91000   8936.4239      63.740462      9000.1644      321.2493       339.44104      15418.541    
     91200   8952.5128      63.999246      9016.512       322.55356      343.48821      15418.541    
     91400   8872.0465      64.990043      8937.0366      327.54714      676.28903      15418.541    
     91600   8840.6148      65.011849      8905.6267      327.65703     -1490.2551      15418.541    
     91800   8888.6701      65.610634      8954.2807      330.67489     -56.616308      15418.541    
     92000   8794.8352      64.056613      8858.8918      322.84269     -724.52355      15418.541    
     92200   8795.7814      63.715017      8859.4964      321.12106     -417.70891      15418.541    
     92400   8731.0064      64.99035       8795.9968      327.54868      1419.4376      15418.541    
     92600   8984.9041      67.495179      9052.3993      340.17292     -790.3722       15418.541    
     92800   8891.3893      65.312323      8956.7017      329.17141     -1258.5272      15418.541    
     93000   8858.8467      66.091592      8924.9383      333.0989      -638.95845      15418.541    
     93200   8969.8664      67.201499      9037.0679      338.69278     -2783.843       15418.541    
     93400   8857.6701      67.446656      8925.1168      339.92836     -806.80528      15418.541    
     93600   8923.5161      65.654675      8989.1708      330.89685      1660.1456      15418.541    
     93800   8810.7083      66.474004      8877.1823      335.02624     -3369.2776      15418.541    
     94000   8873.9581      67.211428      8941.1696      338.74282      107.1938       15418.541    
     94200   8891.3028      65.762633      8957.0655      331.44096     -1138.1381      15418.541    
     94400   8939.463       65.502211      9004.9652      330.12844      913.35811      15418.541    
     94600   8858.4214      66.418342      8924.8397      334.7457       251.2167       15418.541    
     94800   8906.272       66.445489      8972.7175      334.88252     -583.20952      15418.541    
     95000   8907.7894      64.749884      8972.5393      326.33674     -2293.7048      15418.541    
     95200   8953.6166      66.634433      9020.2511      335.83479     -1633.6237      15418.541    
     95400   8858.0026      65.815457      8923.8181      331.70719      1821.3253      15418.541    
     95600   8874.9232      64.390161      8939.3134      324.52375      1008.6         15418.541    
     95800   8921.0105      65.77746       8986.788       331.51569     -2235.5806      15418.541    
     96000   8905.2133      65.031769      8970.2451      327.75743     -53.314662      15418.541    
     96200   8921.4145      64.28313       8985.6976      323.98432     -179.56872      15418.541    
     96400   9000.1083      65.138025      9065.2464      328.29296      733.19749      15418.541    
     96600   8952.8359      64.068902      9016.9048      322.90463     -1182.847       15418.541    
     96800   8807.3964      65.251543      8872.648       328.86508     -1513.3912      15418.541    
     97000   8985.6196      62.902599      9048.5222      317.02651      2287.7671      15418.541    
     97200   8824.0258      64.454985      8888.4808      324.85047     -447.9332       15418.541    
     97400   8857.2404      63.280036      8920.5204      318.92877     -669.62349      15418.541    
     97600   8919.8891      64.839113      8984.7283      326.78645     -4372.7178      15418.541    
     97800   8841.4857      63.643943      8905.1296      320.76284     -738.48951      15418.541    
     98000   9016.6313      65.071413      9081.7027      327.95724     -2966.0461      15418.541    
     98200   8858.0748      64.403967      8922.4788      324.59334     -1541.1239      15418.541    
     98400   8763.3006      64.053936      8827.3546      322.82919     -1865.0933      15418.541    
     98600   8811.9946      64.20334       8876.198       323.58219      350.99445      15418.541    
     98800   8809.8734      66.929866      8876.8032      337.32376     -2145.3814      15418.541    
     99000   8858.2144      66.93022       8925.1447      337.32555     -1265.8855      15418.541    
     99200   8938.569       66.748857      9005.3178      336.41148      612.90414      15418.541    
     99400   8972.2491      65.131961      9037.381       328.2624      -661.81973      15418.541    
     99600   8890.7994      66.581459      8957.3808      335.56781     -840.49818      15418.541    
     99800   8826.6958      66.600049      8893.2959      335.6615       80.52279       15418.541    
    100000   8859.1198      66.052761      8925.1726      332.90319     -458.28101      15418.541    
    100200   8889.6783      67.397583      8957.0759      339.68104      1154.8409      15418.541    
    100400   8859.9153      65.042085      8924.9574      327.80942     -2623.2129      15418.541    
    100600   8874.3331      66.489362      8940.8225      335.10364     -1751.7407      15418.541    
    100800   8810.9303      65.747213      8876.6775      331.36324     -1902.9269      15418.541    
    101000   8939.0609      65.377425      9004.4383      329.49953     -1379.4905      15418.541    
    101200   8779.14        65.018203      8844.1582      327.68906      1240.0444      15418.541    
    101400   8779.7697      64.114262      8843.884       323.13323     -785.60179      15418.541    
    101600   9018.9937      64.576147      9083.5699      325.46111     -2259.5518      15418.541    
    101800   8744.6901      66.530541      8811.2206      335.31118     -608.51233      15418.541    
    102000   8954.4091      64.411068      9018.8202      324.62912     -2193.6948      15418.541    
    102200   8969.4356      64.893949      9034.3296      327.06282     -2063.9551      15418.541    
    102400   8921.6758      64.169001      8985.8448      323.40912     -3587.5801      15418.541    
    102600   8904.1514      65.151491      8969.3029      328.36083     -2950.9107      15418.541    
    102800   8840.5022      64.218859      8904.7211      323.6604      -1619.9593      15418.541    
    103000   8823.9807      64.179453      8888.1602      323.4618       396.7361       15418.541    
    103200   8809.1743      62.522491      8871.6968      315.11077      717.41905      15418.541    
    103400   9000.3663      63.0548        9063.4211      317.79359     -2034.6136      15418.541    
    103600   8918.5287      64.829976      8983.3587      326.74041     -2716.0664      15418.541    
    103800   8808.86        62.547388      8871.4074      315.23625      898.54799      15418.541    
    104000   8983.5586      63.999282      9047.5579      322.55374      340.81288      15418.541    
    104200   8870.9166      65.046842      8935.9634      327.8334      -515.17179      15418.541    
    104400   8825.2413      63.370357      8888.6117      319.38398     -730.44137      15418.541    
    104600   8935.3221      66.278183      9001.6003      334.03931     -1870.1404      15418.541    
    104800   8953.9487      64.74          9018.6887      326.28693     -2191.7605      15418.541    
    105000   8969.7063      65.889295      9035.5956      332.07933     -614.39503      15418.541    
    105200   9065.9048      66.27983       9132.1846      334.04761     -2520.7709      15418.541    
    105400   8905.0197      67.508651      8972.5284      340.24082      889.49691      15418.541    
    105600   9001.5568      67.161913      9068.7187      338.49327     -853.81193      15418.541    
    105800   8841.6155      67.229511      8908.845       338.83396      2073.098       15418.541    
    106000   8986.945       65.888479      9052.8334      332.07521     -1003.3382      15418.541    
    106200   8939.0977      65.650882      9004.7486      330.87774     -1511.5716      15418.541    
    106400   8824.0616      68.493166      8892.5548      345.20273     -2705.8997      15418.541    
    106600   8891.1956      65.05789       8956.2535      327.88908      899.14553      15418.541    
    106800   8777.9432      65.998876      8843.9421      332.63161      442.78316      15418.541    
    107000   8842.8219      64.791058      8907.613       326.54426     -1381.4548      15418.541    
    107200   8920.0204      67.230667      8987.2511      338.83979     -2146.069       15418.541    
    107400   8779.5232      63.339677      8842.8629      319.22936     -1015.4253      15418.541    
    107600   8747.2881      63.167747      8810.4559      318.36284     -228.03101      15418.541    
    107800   8763.1687      62.901564      8826.0702      317.02129      331.51475      15418.541    
    108000   8969.5968      64.135346      9033.7322      323.2395      -2675.2362      15418.541    
    108200   8967.9125      65.557774      9033.4703      330.40847      864.78045      15418.541    
    108400   8987.0247      62.235185      9049.2599      313.66277     -755.12412      15418.541    
    108600   8968.7688      64.330019      9033.0989      324.22064     -1321.1449      15418.541    
    108800   9014.6591      66.326751      9080.9859      334.28409     -1996.3705      15418.541    
    109000   8937.9186      63.042185      9000.9608      317.73001     -3248.1347      15418.541    
    109200   8935.6894      65.332407      9001.0218      329.27264      252.27123      15418.541    
    109400   8776.5132      64.641219      8841.1545      325.78908      2079.3656      15418.541    
    109600   8969.0726      64.244428      9033.317       323.78927     -1067.8522      15418.541    
    109800   8824.0906      65.592321      8889.6829      330.58259      2087.5908      15418.541    
    110000   8811.3892      62.905159      8874.2943      317.0394      -3823.9593      15418.541    
    110200   8841.3178      65.721886      8907.0397      331.2356      -705.82175      15418.541    
    110400   8793.4805      66.385365      8859.8658      334.5795       988.06663      15418.541    
    110600   8922.7027      65.845432      8988.5481      331.85826     -2255.209       15418.541    
    110800   8780.0591      64.988806      8845.0479      327.5409      -155.17101      15418.541    
    111000   8921.5408      67.797487      8989.3382      341.69654     -893.65467      15418.541    
    111200   8825.053       68.400128      8893.4531      344.73383     -1470.7333      15418.541    
    111400   8891.4575      65.972341      8957.4298      332.49788     -94.438167      15418.541    
    111600   8808.6353      68.620142      8877.2554      345.84269     -41.945197      15418.541    
    111800   8841.314       67.616123      8908.9301      340.78247      552.51297      15418.541    
    112000   8889.3634      67.107349      8956.4707      338.21827     -1404.3809      15418.541    
    112200   8778.3366      65.580317      8843.9169      330.52209     -1961.5345      15418.541    
    112400   8952.1054      67.238785      9019.3442      338.8807       239.82709      15418.541    
    112600   8888.4951      66.180643      8954.6758      333.54771     -618.67559      15418.541    
    112800   8936.2096      65.867042      9002.0766      331.96717     -616.83473      15418.541    
    113000   8886.5518      67.026627      8953.5784      337.81144     -1370.3135      15418.541    
    113200   8986.4788      62.719567      9049.1983      316.10403      1780.0921      15418.541    
    113400   8839.1499      65.780331      8904.9303      331.53015     -333.62386      15418.541    
    113600   8869.4803      67.189845      8936.6701      338.63405      510.13729      15418.541    
    113800   8873.6946      62.79477       8936.4894      316.48305     -2098.9434      15418.541    
    114000   9015.1152      65.241154      9080.3563      328.81273      729.37187      15418.541    
    114200   8918.6887      65.605473      8984.2942      330.64888      383.7036       15418.541    
    114400   8873.1155      63.167605      8936.2831      318.36212      736.28162      15418.541    
    114600   8789.9909      66.281796      8856.2727      334.05752      613.22844      15418.541    
    114800   8855.3187      64.951093      8920.2698      327.35083      125.01219      15418.541    
    115000   8839.6008      64.671084      8904.2718      325.93959     -126.17135      15418.541    
    115200   8840.8681      63.392661      8904.2608      319.4964       3185.6877      15418.541    
    115400   8823.9337      64.450499      8888.3842      324.82786      1359.4706      15418.541    
    115600   8999.7324      64.882698      9064.6151      327.00612     -2858.4402      15418.541    
    115800   8776.471       64.439132      8840.9102      324.77057     -314.08127      15418.541    
    116000   8794.0546      63.409309      8857.4639      319.5803       2883.1737      15418.541    
    116200   8936.9646      65.218545      9002.1831      328.69877      570.91103      15418.541    
    116400   8858.0828      64.966068      8923.0489      327.4263      -195.10594      15418.541    
    116600   8841.8001      66.104763      8907.9049      333.16528     -1234.8052      15418.541    
    116800   8952.7199      67.924726      9020.6446      342.33781      974.90599      15418.541    
    117000   8810.933       66.151645      8877.0847      333.40156     -1565.6482      15418.541    
    117200   9049.3217      67.979393      9117.3011      342.61334     -1095.5477      15418.541    
    117400   8794.2338      67.099261      8861.333       338.17751     -290.07959      15418.541    
    117600   8841.7625      67.404144      8909.1666      339.71411     -2244.7358      15418.541    
    117800   9000.1182      68.780829      9068.899       346.65254      1420.1447      15418.541    
    118000   8968.7335      67.783216      9036.5167      341.62461     -1544.9753      15418.541    
    118200   8971.0525      65.071797      9036.1243      327.95917      909.4698       15418.541    
    118400   8905.3978      66.319491      8971.7173      334.2475       3446.5482      15418.541    
    118600   8811.4158      63.936157      8875.352       322.23559      1316.8018      15418.541    
    118800   8969.6579      65.443014      9035.1009      329.83009     -2521.6783      15418.541    
    119000   8937.2019      65.635154      9002.8371      330.79847     -1680.4845      15418.541    
    119200   8970.4323      64.183905      9034.6162      323.48423      1045.0355      15418.541    
    119400   8792.7216      65.700176      8858.4217      331.12618     -858.52196      15418.541    
    119600   8903.9727      66.265626      8970.2384      333.97602      587.09395      15418.541    
    119800   8840.2575      65.822549      8906.08        331.74293     -1848.4342      15418.541    
    120000   8726.5044      67.500246      8794.0047      340.19845      1303.2086      15418.541    
    120200   8712.617       65.256874      8777.8738      328.89195      566.367        15418.541    
    120400   8984.6642      65.078519      9049.7427      327.99305     -2107.8546      15418.541    
    120600   8984.7382      64.86133       9049.5996      326.89843     -1233.6325      15418.541    
    120800   9016.6127      64.84802       9081.4607      326.83135     -366.61547      15418.541    
    121000   8918.5039      66.811205      8985.3151      336.72572     -2437.5331      15418.541    
    121200   8870.7217      66.459062      8937.1807      334.95093     -270.54454      15418.541    
    121400   8919.1589      65.844635      8985.0035      331.85425      395.05626      15418.541    
    121600   8983.0961      65.629334      9048.7254      330.76913     -3206.5297      15418.541    
    121800   8936.5726      63.753556      9000.3262      321.31529     -176.8218       15418.541    
    122000   8919.995       63.85517       8983.8501      321.82742      272.16734      15418.541    
    122200   8997.2139      66.154071      9063.368       333.41379      1828.2072      15418.541    
    122400   8840.6087      62.300301      8902.909       313.99095     -1438.7454      15418.541    
    122600   8792.1157      62.396463      8854.5122      314.4756      -2183.5957      15418.541    
    122800   9013.9824      64.251688      9078.2341      323.82586     -1559.3958      15418.541    
    123000   8868.0596      66.07183       8934.1314      332.9993      -631.9777       15418.541    
    123200   8887.4289      62.688524      8950.1174      315.94758     -4708.4655      15418.541    
    123400   8997.6065      64.58952       9062.196       325.52852      231.79996      15418.541    
    123600   8996.8844      65.498812      9062.3832      330.11131      1588.1935      15418.541    
    123800   8838.2779      64.367372      8902.6453      324.4089      -1551.9875      15418.541    
    124000   8885.4149      65.608773      8951.0237      330.66551     -308.58432      15418.541    
    124200   8934.6834      64.776668      8999.46        326.47173      738.70912      15418.541    
    124400   8966.5905      65.396018      9031.9865      329.59323     -2801.2753      15418.541    
    124600   8886.291       66.253959      8952.545       333.91722     -318.56832      15418.541    
    124800   8711.8957      65.220084      8777.1158      328.70653     -660.43348      15418.541    
    125000   8951.5024      66.132572      9017.635       333.30544      914.78972      15418.541    
    125200   8649.3241      64.766289      8714.0904      326.41943     -1852.6518      15418.541    
    125400   8968.2533      66.258051      9034.5113      333.93784     -157.71941      15418.541    
    125600   8824.2332      66.649923      8890.8831      335.91286     -2610.0355      15418.541    
    125800   8954.5379      64.660465      9019.1984      325.88608     -6.9045424      15418.541    
    126000   8824.4305      67.028271      8891.4588      337.81972     -388.52427      15418.541    
    126200   8855.9083      67.734163      8923.6425      341.37739     -531.75413      15418.541    
    126400   8906.9001      64.817454      8971.7176      326.67729     -3972.2217      15418.541    
    126600   8761.8094      65.845417      8827.6548      331.85819     -160.81871      15418.541    
    126800   8920.4378      67.152386      8987.5901      338.44525      968.01407      15418.541    
    127000   8955.4702      64.030472      9019.5007      322.71094      650.61754      15418.541    
    127200   8954.2592      65.162136      9019.4213      328.41448     -2595.7519      15418.541    
    127400   8935.8076      67.450443      9003.2581      339.94745     -2461.9159      15418.541    
    127600   8824.1787      66.892725      8891.0714      337.13657      2932.2572      15418.541    
    127800   8952.2852      66.569202      9018.8544      335.50603     -1117.3805      15418.541    
    128000   9001.4435      65.082704      9066.5262      328.01414     -269.18933      15418.541    
    128200   8905.5505      64.448207      8969.9987      324.8163      -342.65031      15418.541    
    128400   8903.7457      65.357701      8969.1034      329.40012     -300.05479      15418.541    
    128600   8776.0035      63.896858      8839.9004      322.03753      98.791189      15418.541    
    128800   8855.0481      63.704297      8918.7523      321.06703      231.32783      15418.541    
    129000   8902.0721      63.896277      8965.9684      322.0346       484.66         15418.541    
    129200   8949.4764      64.023534      9013.4999      322.67597     -456.02524      15418.541    
    129400   8950.0092      63.281784      9013.291       318.93758     -1374.9743      15418.541    
    129600   8758.9532      62.271216      8821.2244      313.84436     -2336.2577      15418.541    
    129800   8869.5618      63.763046      8933.3248      321.36312     -649.50555      15418.541    
    130000   8902.8309      62.778232      8965.6092      316.3997      -3077.7998      15418.541    
    130200   8981.3022      64.748885      9046.0511      326.33171     -1370.7177      15418.541    
    130400   8997.547       65.098518      9062.6456      328.09384      807.93645      15418.541    
    130600   8933.7119      65.528591      8999.2405      330.2614      -1973.5494      15418.541    
    130800   8966.5696      65.236471      9031.806       328.78912      992.7043       15418.541    
    131000   8887.1353      65.226601      8952.3619      328.73938     -1482.1207      15418.541    
    131200   8937.8504      63.0077        9000.8581      317.55621     -3466.9353      15418.541    
    131400   8758.7661      66.551403      8825.3175      335.41632     -233.70015      15418.541    
    131600   8904.297       65.438346      8969.7353      329.80657     -283.79995      15418.541    
    131800   8856.5594      65.511243      8922.0706      330.17396     -1307.8287      15418.541    
    132000   8938.2076      64.114658      9002.3223      323.13523     -1491.4659      15418.541    
    132200   8858.1973      64.340186      8922.5375      324.27188     -679.78753      15418.541    
    132400   8727.2238      67.491758      8794.7156      340.15568     -975.06602      15418.541    
    132600   8841.6742      65.176227      8906.8505      328.4855      -1780.3724      15418.541    
    132800   8919.9608      66.951337      8986.9121      337.43197     -1068.7857      15418.541    
    133000   8919.8817      67.066102      8986.9478      338.01039     -1294.8681      15418.541    
    133200   8778.0314      64.951286      8842.9826      327.3518      -364.80159      15418.541    
    133400   8841.9595      65.025733      8906.9853      327.72701      968.81301      15418.541    
    133600   8792.5991      66.329565      8858.9286      334.29827     -522.32596      15418.541    
    133800   8840.5767      66.2487        8906.8254      333.89071     -3.315209       15418.541    
    134000   8889.8313      64.944381      8954.7757      327.317        705.52866      15418.541    
    134200   8858.5193      64.192393      8922.7117      323.52701      346.91835      15418.541    
    134400   8825.5243      65.112177      8890.6365      328.16269     -1938.2277      15418.541    
    134600   8906.3145      64.229089      8970.5436      323.71196     -807.49819      15418.541    
    134800   8777.4585      65.015561      8842.474       327.67574      225.6376       15418.541    
    135000   8809.9949      64.439921      8874.4348      324.77454     -1909.7339      15418.541    
    135200   8854.9183      67.447653      8922.366       339.93339     -135.13863      15418.541    
    135400   9016.7951      65.499112      9082.2942      330.11282     -2029.8395      15418.541    
    135600   8954.619       63.629458      9018.2484      320.68984     -4585.37        15418.541    
    135800   8951.8596      66.3427        9018.2023      334.36447     -1273.1148      15418.541    
    136000   8953.0499      65.173551      9018.2234      328.47201     -1246.3078      15418.541    
    136200   8905.1385      65.141011      8970.2795      328.30801     -348.18886      15418.541    
    136400   8936.1295      66.165308      9002.2948      333.47042     -2347.5374      15418.541    
    136600   8887.8178      66.459537      8954.2773      334.95333     -1098.3427      15418.541    
    136800   8889.9281      64.355732      8954.2839      324.35024     -906.83367      15418.541    
    137000   8921.1172      65.22694       8986.3441      328.74109     -2750.0044      15418.541    
    137200   8888.7777      65.732896      8954.5106      331.29108      567.69842      15418.541    
    137400   8777.0705      65.597747      8842.6682      330.60994      1556.4719      15418.541    
    137600   8953.5538      65.274099      9018.8279      328.97877     -3680.1317      15418.541    
    137800   8951.5911      67.415511      9019.0066      339.77139     -34.322791      15418.541    
    138000   8856.1769      66.982174      8923.1591      337.5874       1230.913       15418.541    
    138200   8840.4038      66.880896      8907.2847      337.07695      2649.0072      15418.541    
    138400   8841.49        65.875913      8907.3659      332.01189     -142.96747      15418.541    
    138600   8872.7832      66.605327      8939.3886      335.6881      -764.9115       15418.541    
    138800   8952.582       66.851939      9019.434       336.93102     -2453.4195      15418.541    
    139000   9015.4815      67.84018       9083.3217      341.91171      560.93055      15418.541    
    139200   8968.3477      66.696498      9035.0442      336.1476      -904.59678      15418.541    
    139400   8873.3962      65.227235      8938.6234      328.74258     -1912.7641      15418.541    
    139600   8777.2835      64.870283      8842.1538      326.94355     -818.47272      15418.541    
    139800   8919.7784      65.866347      8985.6448      331.96367     -621.58541      15418.541    
    140000   8936.7263      64.429141      9001.1554      324.72021      529.12957      15418.541    
    140200   8870.7076      66.040851      8936.7484      332.84316     -47.600054      15418.541    
    140400   8999.0854      65.270212      9064.3556      328.95917     -355.53626      15418.541    
    140600   8937.1198      62.925475      9000.0453      317.1418      -975.58677      15418.541    
    140800   8950.4843      65.348457      9015.8327      329.35353     -2398.2058      15418.541    
    141000   8935.908       63.840815      8999.7489      321.75507     -780.6592       15418.541    
    141200   8951.0095      64.720931      9015.7304      326.19082     -188.57255      15418.541    
    141400   8872.391       63.376758      8935.7678      319.41625      1104.3679      15418.541    
    141600   8921.2965      62.599769      8983.8963      315.50025     -1782.0324      15418.541    
    141800   8824.8302      63.356732      8888.1869      319.31531     -173.9328       15418.541    
    142000   8967.972       64.746548      9032.7186      326.31993      420.73044      15418.541    
    142200   8886.6502      66.868701      8953.5189      337.0155      -1845.6693      15418.541    
    142400   8809.0264      65.361727      8874.3881      329.42041      26.922344      15418.541    
    142600   8809.6387      65.601235      8875.24        330.62752      238.35016      15418.541    
    142800   8890.8052      65.159755      8955.965       328.40248     -808.35385      15418.541    
    143000   8810.913       65.574033      8876.487       330.49042     -569.50054      15418.541    
    143200   8907.8233      65.003498      8972.8268      327.61495     -819.54719      15418.541    
    143400   8730.9458      66.114393      8797.0602      333.21381     -29.215515      15418.541    
    143600   8954.7571      66.402511      9021.1596      334.66592     -520.55677      15418.541    
    143800   8793.8044      67.307222      8861.1116      339.22562      1278.6418      15418.541    
    144000   8954.7542      66.249387      9021.0036      333.89418      1093.0591      15418.541    
    144200   8844.7909      64.041712      8908.8326      322.76758     -372.75823      15418.541    
    144400   8876.1993      64.429161      8940.6285      324.72031     -490.07279      15418.541    
    144600   9016.6509      67.712822      9084.3637      341.26983     -10.674313      15418.541    
    144800   9032.9873      67.012097      9099.9994      337.7382      -2335.6051      15418.541    
    145000   8841.0766      66.393993      8907.4706      334.62298      1625.8838      15418.541    
    145200   8855.4721      67.321041      8922.7931      339.29527      1763.325       15418.541    
    145400   8824.6066      65.539344      8890.1459      330.31559     -1265.9324      15418.541    
    145600   9079.3171      66.27485       9145.592       334.02251     -3139.8029      15418.541    
    145800   8950.8693      66.29298       9017.1623      334.11389      2647.6118      15418.541    
    146000   8857.7552      63.144203      8920.8994      318.24418      736.5403       15418.541    
    146200   8807.1822      65.553026      8872.7352      330.38454      427.91622      15418.541    
    146400   8855.2394      65.422069      8920.6615      329.72453      1552.078       15418.541    
    146600   8999.9468      64.725717      9064.6725      326.21495     -752.89123      15418.541    
    146800   8904.6126      64.128154      8968.7408      323.20325     -842.00595      15418.541    
    147000   8856.3741      64.487597      8920.8617      325.01483      79.099407      15418.541    
    147200   8953.5967      63.367818      9016.9645      319.37119     -858.16126      15418.541    
    147400   8777.816       63.32182       8841.1379      319.13936      152.09341      15418.541    
    147600   8920.5805      64.763001      8985.3435      326.40285      133.75075      15418.541    
    147800   8919.5652      66.019357      8985.5846      332.73483      707.16834      15418.541    
    148000   8840.2121      65.676015      8905.8881      331.00441     -2251.0246      15418.541    
    148200   8887.9282      66.263541      8954.1917      333.96551      1590.5595      15418.541    
    148400   9017.0009      65.499191      9082.5001      330.11322     -2839.8745      15418.541    
    148600   8793.8893      64.888115      8858.7774      327.03342     -2557.5048      15418.541    
    148800   8953.5902      65.497163      9019.0873      330.103       -2271.3272      15418.541    
    149000   8763.4301      63.964848      8827.3949      322.3802      -389.77139      15418.541    
    149200   8826.3775      65.389044      8891.7666      329.55809     -973.55505      15418.541    
    149400   8907.1298      65.081243      8972.211       328.00678     -2044.1827      15418.541    
    149600   8953.4609      67.253058      9020.7139      338.95264      122.97763      15418.541    
    149800   8858.9956      66.315957      8925.3116      334.22969     -930.48315      15418.541    
    150000   8922.6149      67.296689      8989.9116      339.17254     -1054.1225      15418.541    
    150200   8956.4135      66.209963      9022.6235      333.69548     -1520.4356      15418.541    
    150400   8668.2337      67.199594      8735.4333      338.68318      567.02955      15418.541    
    150600   8828.7292      67.511255      8896.2404      340.25394     -384.48693      15418.541    
    150800   8875.7994      69.149876      8944.9493      348.51252     -1358.5525      15418.541    
    151000   8828.7866      68.711913      8897.4985      346.3052      -2354.2592      15418.541    
    151200   8940.4572      69.405123      9009.8623      349.79896     -2412.6496      15418.541    
    151400   8909.4412      68.565844      8978.007       345.56902     -1024.9575      15418.541    
    151600   8861.9853      68.021638      8930.0069      342.82625      221.13839      15418.541    
    151800   8796.882       68.869547      8865.7515      347.09968     -2501.6626      15418.541    
    152000   8846.0955      66.930495      8913.026       337.32693     -653.77156      15418.541    
    152200   8732.5011      67.298349      8799.7995      339.1809      -351.96053      15418.541    
    152400   8955.8228      66.640829      9022.4636      335.86703     -1284.2076      15418.541    
    152600   8811.4019      66.048272      8877.4502      332.88057      1750.1122      15418.541    
    152800   8906.2789      66.566066      8972.845       335.49023     -290.21912      15418.541    
    153000   8890.3072      66.109664      8956.4169      333.18998     -2465.0012      15418.541    
[...]
    163400   8871.9205      62.206702      8934.1272      313.51921     -1818.2801      15418.541    
    163600   8904.3537      62.362815      8966.7165      314.30601     -1367.4691      15418.541    
    163800   8950.9218      64.56332       9015.4851      325.39647      1095.7605      15418.541    
    164000   8967.1778      65.074084      9032.2519      327.9707      -1935.6532      15418.541    
    164200   8856.9005      64.00834       8920.9089      322.59939     -173.70314      15418.541    
    164400   8984.7565      64.712254      9049.4687      326.14709     -559.26753      15418.541    
    164600   8985.7358      64.110597      9049.8464      323.11476     -739.75722      15418.541    
    164800   8823.3794      66.765924      8890.1453      336.4975      -1212.0989      15418.541    
    165000   8970.259       64.167822      9034.4268      323.40318      135.13017      15418.541    
    165200   8983.0601      67.65542       9050.7155      340.98053     -3131.7327      15418.541    
    165400   8970.5308      64.471013      9035.0018      324.93125     -124.9191       15418.541    
    165600   8859.5159      63.756686      8923.2726      321.33107     -1372.8202      15418.541    
    165800   8907.5537      64.024487      8971.5782      322.68077     -1194.3549      15418.541    
    166000   8794.2378      65.62872       8859.8665      330.76604      129.09821      15418.541    
    166200   8954.5627      65.590355      9020.153       330.57268     -22.044218      15418.541    
    166400   8858.8744      65.563807      8924.4382      330.43888     -2467.9577      15418.541    
    166600   8779.5327      65.173342      8844.7061      328.47096      287.60825      15418.541    
    166800   8860.9534      64.020042      8924.9734      322.65837      54.09432       15418.541    
    167000   8922.9015      66.290673      8989.1922      334.10226      109.61336      15418.541    
    167200   8890.8679      66.575251      8957.4431      335.53652      848.27221      15418.541    
    167400   8828.0941      65.566468      8893.6606      330.4523       483.44757      15418.541    
    167600   8780.1454      65.708459      8845.8538      331.16792      978.07436      15418.541    
    167800   8938.9126      67.136258      9006.0488      338.36397     -1168.1779      15418.541    
    168000   8940.3061      65.931626      9006.2377      332.29267     -803.62527      15418.541    
    168200   8875.7328      66.714729      8942.4475      336.23948     -2269.5919      15418.541    
    168400   8781.4581      65.297691      8846.7558      329.09767     -1993.0651      15418.541    
    168600   8812.5729      66.543918      8879.1168      335.3786      -1370.3017      15418.541    
    168800   8781.9919      65.448868      8847.4407      329.85959      469.34373      15418.541    
    169000   8828.2831      67.40839       8895.6915      339.7355      -723.00512      15418.541    
    169200   8877.1237      66.759726      8943.8834      336.46627     -769.34192      15418.541    
    169400   8732.7217      67.176528      8799.8982      338.56693      67.934484      15418.541    
    169600   8939.5589      68.222682      9007.7815      343.8395      -217.8071       15418.541    
    169800   8844.3038      67.202244      8911.506       338.69654      1440.263       15418.541    
    170000   8828.5663      66.518142      8895.0844      335.24869      831.80004      15418.541    
    170200   8955.8571      66.728691      9022.5858      336.30985     -2810.9424      15418.541    
    170400   8940.4132      65.532345      9005.9456      330.28032      1431.5869      15418.541    
    170600   8862.0342      63.255268      8925.2895      318.80394     -745.30011      15418.541    
    170800   8859.931       64.76675       8924.6978      326.42175      577.85033      15418.541    
    171000   8794.7271      65.486886      8860.214       330.0512      -2038.9043      15418.541    
    171200   8875.2361      64.621273      8939.8574      325.68855     -9.469474       15418.541    
    171400   8890.2046      65.412937      8955.6175      329.6785      -1384.1728      15418.541    
    171600   8891.419       64.044237      8955.4632      322.78031     -937.4211       15418.541    
    171800   8842.3236      65.062284      8907.3859      327.91123      1147.7369      15418.541    
    172000   8858.4362      64.938052      8923.3742      327.2851      -557.89701      15418.541    
    172200   8954.2401      65.129738      9019.3698      328.25119      827.18354      15418.541    
    172400   8891.7207      63.681731      8955.4024      320.9533      -2587.0682      15418.541    
    172600   8858.1314      65.379196      8923.5106      329.50845     -839.56982      15418.541    
    172800   8729.6801      66.018606      8795.6987      332.73105      2668.3709      15418.541    
    173000   8891.8409      64.0877        8955.9286      322.99936     -3030.0535      15418.541    
    173200   8778.407       65.886704      8844.2937      332.06627     -949.41239      15418.541    
    173400   8922.9055      65.911728      8988.8172      332.19239      1031.2818      15418.541    
    173600   8923.6923      65.752256      8989.4446      331.38866      1117.726       15418.541    
    173800   8845.1788      65.098782      8910.2776      328.09517     -583.20555      15418.541    
    174000   8924.6814      66.495716      8991.1771      335.13567     -203.24912      15418.541    
    174200   8829.2947      66.705772      8896.0005      336.19434     -2783.5437      15418.541    
    174400   8829.1264      67.452807      8896.5792      339.95936     -2492.3434      15418.541    
    174600   8800.5158      64.389891      8864.9057      324.52239     -628.97875      15418.541    
    174800   8830.3063      66.841376      8897.1477      336.87778     -2358.964       15418.541    
    175000   8781.6562      67.583757      8849.24        340.61935     -1053.9432      15418.541    
    175200   8830.8813      66.369385      8897.2507      334.49896     -2119.0901      15418.541    
    175400   8863.0113      66.156159      8929.1674      333.42431     -1568.263       15418.541    
    175600   8846.6021      66.401006      8913.0031      334.65833      746.45974      15418.541    
    175800   8765.8692      66.837523      8832.7067      336.85836      1057.7409      15418.541    
    176000   8973.9479      66.356828      9040.3047      334.43567     -2837.2234      15418.541    
    176200   8719.2319      64.68963       8783.9215      326.03306      658.98421      15418.541    
    176400   8845.2062      66.30138       8911.5076      334.15622     -880.37651      15418.541    
    176600   8843.6578      67.393835      8911.0516      339.66215     -181.08886      15418.541    
    176800   8811.7044      66.906426      8878.6108      337.20563     -1201.581       15418.541    
    177000   8859.5696      66.662599      8926.2322      335.97675     -1907.6889      15418.541    
    177200   8779.6274      66.28698       8845.9144      334.08365      1223.0255      15418.541    
    177400   8826.0195      67.581621      8893.6011      340.60858      803.87061      15418.541    
    177600   8875.6077      65.718956      8941.3266      331.22083      828.4626       15418.541    
    177800   8890.0915      67.03813       8957.1296      337.86941     -2651.2712      15418.541    
    178000   8810.0144      66.939371      8876.9538      337.37167      150.82475      15418.541    
    178200   8954.0572      66.688362      9020.7455      336.10659     -792.2097       15418.541    
    178400   8969.9031      66.643545      9036.5467      335.88072     -276.48832      15418.541    
    178600   8826.8564      65.505787      8892.3621      330.14646      2083.0049      15418.541    
    178800   8698.185       65.937111      8764.1221      332.32032     -1928.3448      15418.541    
    179000   8810.4549      65.4331        8875.888       329.78012     -1554.0791      15418.541    
    179200   8874.3128      65.359311      8939.6721      329.40823     -1222.4772      15418.541    
    179400   8762.7615      64.699976      8827.4615      326.08521     -739.24021      15418.541    
    179600   8825.985       65.248051      8891.233       328.84748     -3004.7793      15418.541    
    179800   8922.1244      64.840396      8986.9648      326.79292     -502.39216      15418.541    
    180000   8854.4218      68.232996      8922.6548      343.89149      454.44818      15418.541    
    180200   8920.6033      65.721908      8986.3252      331.2357      -824.03846      15418.541    
    180400   9001.3957      64.578086      9065.9738      325.47089      513.09719      15418.541    
    180600   8826.3095      63.347551      8889.6571      319.26904      256.50579      15418.541    
    180800   8872.0883      65.240239      8937.3285      328.80811     -2452.4246      15418.541    
    181000   8967.0205      65.985792      9033.0063      332.56567     -1880.5853      15418.541    
    181200   8873.2496      63.460335      8936.7099      319.83747     -1067.8879      15418.541    
    181400   8886.3438      65.998643      8952.3424      332.63044      351.82727      15418.541    
    181600   8919.4316      64.434205      8983.8658      324.74573     -2589.926       15418.541    
    181800   8840.3366      62.927004      8903.2636      317.1495       867.07159      15418.541    
    182000   8968.1428      62.495494      9030.6383      314.97471     -3151.6504      15418.541    
    182200   8804.2982      65.70824       8870.0065      331.16682     -1409.2468      15418.541    
    182400   8952.2166      61.319549      9013.5362      309.048       -2280.5229      15418.541    
    182600   8820.4731      64.738783      8885.2119      326.2808      -2009.6149      15418.541    
    182800   8931.7996      65.184778      8996.9844      328.52859     -3694.1331      15418.541    
    183000   8852.6917      64.205717      8916.8975      323.59416     -1383.2652      15418.541    
    183200   8885.6636      63.284845      8948.9485      318.95301     -2036.0957      15418.541    
    183400   8868.7931      64.364521      8933.1576      324.39453     -1323.247       15418.541    
    183600   8902.0632      63.57684       8965.64        320.42465      3523.8061      15418.541    
    183800   8885.7584      64.634264      8950.3926      325.75402     -662.14785      15418.541    
    184000   8871.4632      63.904754      8935.368       322.07732     -239.10713      15418.541    
    184200   8872.3708      63.931948      8936.3027      322.21438     -581.57257      15418.541    
    184400   8938.2012      62.767191      9000.9684      316.34405     -3077.3572      15418.541    
    184600   8856.9554      64.509465      8921.4649      325.12504     -2161.1539      15418.541    
    184800   8873.6007      64.272443      8937.8731      323.93046     -591.65998      15418.541    
    185000   8888.6271      65.542335      8954.1695      330.33067      589.80675      15418.541    
    185200   8968.6977      65.713738      9034.4114      331.19453     -1846.0523      15418.541    
    185400   8809.2303      65.399747      8874.6301      329.61203     -43.768434      15418.541    
    185600   9001.5522      65.295647      9066.8479      329.08737     -507.08492      15418.541    
    185800   8858.2889      64.734676      8923.0235      326.2601       36.816086      15418.541    
    186000   8921.3538      65.879262      8987.2331      332.02876      721.0581       15418.541    
    186200   8984.5625      66.889166      9051.4517      337.11864      1376.6132      15418.541    
    186400   8906.0774      65.609332      8971.6867      330.66833     -600.7086       15418.541    
    186600   8921.0885      66.75808       8987.8466      336.45797     -61.673333      15418.541    
    186800   8954.0457      65.93236       9019.9781      332.29637     -2381.7482      15418.541    
    187000   8905.4295      66.659789      8972.0893      335.96258      712.41624      15418.541    
    187200   8842.4439      65.690967      8908.1349      331.07976     -656.20202      15418.541    
    187400   8826.6815      65.476169      8892.1577      329.99719     -358.69057      15418.541    
    187600   8843.607       64.520872      8908.1279      325.18253     -1365.5602      15418.541    
    187800   8700.0542      64.03563       8764.0899      322.73693      186.9461       15418.541    
    188000   9016.8296      67.226223      9084.0558      338.81739     -1290.6314      15418.541    
    188200   8904.4139      67.514666      8971.9286      340.27113     -2448.5574      15418.541    
    188400   8939.7842      63.955704      9003.7399      322.33411      644.54632      15418.541    
    188600   8890.5518      64.942593      8955.4944      327.30799     -850.46164      15418.541    
    188800   8840.4618      66.782527      8907.2443      336.58118     -680.21617      15418.541    
    189000   8792.6261      66.332234      8858.9583      334.31172     -106.12055      15418.541    
    189200   8955.1339      63.464883      9018.5988      319.86039     -515.41505      15418.541    
    189400   8857.2989      64.875663      8922.1746      326.97067     -788.50943      15418.541    
    189600   8906.6018      63.131248      8969.7331      318.17888     -574.49735      15418.541    
    189800   8968.3989      64.948282      9033.3472      327.33666      3885.3061      15418.541    
    190000   8905.8777      63.121779      8968.9995      318.13116      187.55723      15418.541    
    190200   8952.8004      63.884015      9016.6845      321.9728      -577.79008      15418.541    
    190400   8871.8032      64.648073      8936.4513      325.82362     -1705.3292      15418.541    
    190600   8806.0462      66.194538      8872.2407      333.61774     -2275.1075      15418.541    
    190800   8888.5018      63.702098      8952.2039      321.05594     -1343.0753      15418.541    
    191000   8905.3537      62.994281      8968.348       317.48857     -163.3233       15418.541    
    191200   8825.5702      63.139839      8888.7101      318.22218     -2024.4313      15418.541    
    191400   8905.4604      63.879463      8969.3399      321.94986     -3893.6859      15418.541    
    191600   9032.5454      65.660995      9098.2064      330.9287       2189.9482      15418.541    
    191800   8873.57        65.532155      8939.1021      330.27936     -904.98581      15418.541    
    192000   8874.5538      65.276057      8939.8299      328.98863     -3.2051197      15418.541    
    192200   8954.4424      65.870269      9020.3127      331.98344      1372.8076      15418.541    
    192400   8876.153       64.465266      8940.6182      324.90228      422.19153      15418.541    
    192600   8923.3768      65.469961      8988.8468      329.9659      -536.58449      15418.541    
    192800   8922.3383      66.632055      8988.9703      335.82281     -379.35796      15418.541    
    193000   8747.8137      65.24112       8813.0548      328.81255      215.19361      15418.541    
    193200   8939.1732      65.891018      9005.0643      332.08801     -2863.9255      15418.541    
    193400   8779.256       65.772196      8845.0282      331.48915     -970.60134      15418.541    
    193600   8828.5885      64.339148      8892.9277      324.26665     -2371.5062      15418.541    
    193800   8842.9457      65.789532      8908.7352      331.57653     -900.38112      15418.541    
    194000   8762.2453      66.290913      8828.5363      334.10347     -420.57825      15418.541    
    194200   8844.4564      63.895462      8908.3519      322.03049     -2222.4485      15418.541    
    194400   8892.2429      63.897939      8956.1408      322.04298     -3185.6922      15418.541    
    194600   8939.1964      64.725038      9003.9215      326.21152      43.661636      15418.541    
    194800   8763.5828      64.048652      8827.6314      322.80256     -2053.9284      15418.541    
    195000   8824.9042      66.368829      8891.273       334.49616     -505.02325      15418.541    
    195200   8873.7747      65.009081      8938.7838      327.64309     -2050.6829      15418.541    
    195400   8968.1366      66.033161      9034.1698      332.80441     -152.86891      15418.541    
    195600   8890.434       63.011986      8953.446       317.57781     -1112.7744      15418.541    
    195800   9095.3086      65.325748      9160.6344      329.23908     -1803.299       15418.541    
    196000   8918.5238      65.370541      8983.8944      329.46483      732.42336      15418.541    
    196200   8822.9344      64.369873      8887.3043      324.42151      1570.9357      15418.541    
    196400   8982.2148      64.65848       9046.8732      325.87607      2025.7654      15418.541    
    196600   8918.7905      63.872383      8982.6629      321.91418     -966.62506      15418.541    
    196800   8839.4288      63.201774      8902.6306      318.53433     -1266.325       15418.541    
    197000   8950.6307      64.144316      9014.775       323.28471     -1458.2296      15418.541    
    197200   8871.0476      63.988216      8935.0358      322.49797     -2338.3857      15418.541    
    197400   8888.7111      62.690045      8951.4012      315.95524      311.29151      15418.541    
    197600   8985.7337      62.075793      9047.8095      312.85943     -2808.5153      15418.541    
    197800   8952.2354      63.990892      9016.2263      322.51145     -1230.305       15418.541    
    198000   8966.7157      65.899797      9032.6155      332.13226     -126.95582      15418.541    
    198200   8983.9133      65.008928      9048.9222      327.64232     -2696.6692      15418.541    
    198400   8872.6692      64.505276      8937.1745      325.10393     -491.46675      15418.541    
    198600   8856.2941      65.100248      8921.3943      328.10256      2003.6732      15418.541    
    198800   8905.4213      64.260392      8969.6816      323.86972      369.81607      15418.541    
    199000   8872.8327      65.056557      8937.8893      327.88237     -2087.1528      15418.541    
    199200   8920.254       65.780094      8986.0341      331.52896      121.72812      15418.541    
    199400   8872.2059      65.978321      8938.1842      332.52802     -237.16996      15418.541    
    199600   8855.375       66.913568      8922.2886      337.24162     -398.30383      15418.541    
    199800   8857.9236      64.439004      8922.3626      324.76992      695.14638      15418.541    
    200000   8984.3865      66.008725      9050.3952      332.68125      122.70378      15418.541    
Loop time of 283.456 on 4 procs for 200000 steps with 1536 atoms

Performance: 30.481 ns/day, 0.787 hours/ns, 705.578 timesteps/s
88.3% CPU use with 4 MPI tasks x no OpenMP threads

MPI task timing breakdown:
Section |  min time  |  avg time  |  max time  |%varavg| %total
---------------------------------------------------------------
Pair    | 144.95     | 195.4      | 245.31     | 267.9 | 68.94
Neigh   | 25.347     | 25.594     | 26.161     |   6.5 |  9.03
Comm    | 7.8593     | 58.286     | 108.94     | 493.7 | 20.56
Output  | 0.01705    | 0.022938   | 0.040538   |   6.7 |  0.01
Modify  | 3.6855     | 3.7216     | 3.762      |   1.6 |  1.31
Other   |            | 0.4306     |            |       |  0.15

Nlocal:            384 ave         406 max         369 min
Histogram: 1 0 1 1 0 0 0 0 0 1
Nghost:        2877.25 ave        2897 max        2846 min
Histogram: 1 0 0 0 0 1 0 0 0 2
Neighs:              0 ave           0 max           0 min
Histogram: 4 0 0 0 0 0 0 0 0 0
FullNghs:        81942 ave       88185 max       78103 min
Histogram: 1 0 2 0 0 0 0 0 0 1

Total # of neighbors = 327768
Ave neighs/atom = 213.39062
Neighbor list builds = 10000
Dangerous builds not checked
Total wall time: 0:04:50
