ITEM: TIMESTEP
0
ITEM: NUMBER OF ATOMS
56
ITEM: BOX BOUNDS xy xz yz pp pp pp
-1.8595114350318909e+00 1.2203788340091705e+01 0.0000000000000000e+00
-8.4733366966247559e-03 5.5348814725875854e+00 -1.8408229351043701e+00
-2.9168844223022461e-02 1.9049128890037537e+01 0.0000000000000000e+00
ITEM: ATOMS id type xs ys zs fx fy fz
1 1 0.570007 4.41887e-05 0.132366 0 0.020319 0.680786
2 1 0.320008 0.166624 0.132366 0 -0.0203571 0.680805
3 1 0.228932 2.39879e-05 0.275225 0 0.000507355 -0.00306702
4 1 0.978932 0.166644 0.275225 0 -0.000518799 -0.00306511
5 1 0.887803 1.9421e-05 0.418082 0 5.53131e-05 9.53674e-06
6 1 0.0700076 4.41295e-05 0.132366 0 0.0203323 0.680794
7 1 0.990517 0.500074 0.0609403 0 -0.0530624 0.683125
8 1 0.820008 0.166623 0.132366 0 -0.0203457 0.680805
9 1 0.740519 0.666593 0.0609403 0 0.0530834 0.683168
10 1 0.728933 2.39872e-05 0.275225 0 0.000509262 -0.00306892
11 1 0.637802 0.166647 0.418082 0 -5.34058e-05 1.90735e-06
12 1 0.546663 2.47556e-05 0.560942 0 -9.53674e-06 1.90735e-06
13 1 0.296664 0.166643 0.560942 0 0 0
14 1 0.205532 2.39811e-05 0.703801 0 -0.000240326 0.00119781
15 1 0.955532 0.166644 0.703801 0 0.000217438 0.00119591
16 1 0.864414 2.63435e-05 0.846651 0 0.00617409 -0.00372314
17 1 0.649486 0.500026 0.203802 0 0.00618362 0.00373077
18 1 0.478932 0.166645 0.275225 0 -0.000530243 -0.00306511
19 1 0.399487 0.66664 0.203802 0 -0.00615883 0.00374031
20 1 0.387803 2.01694e-05 0.418082 0 3.8147e-05 3.8147e-06
21 1 0.308368 0.500023 0.346651 0 -0.000219345 -0.00118256
22 1 0.137803 0.166648 0.418082 0 -5.91278e-05 3.8147e-06
23 1 0.0583685 0.666642 0.346651 0 0.000255585 -0.00120163
24 1 0.0466635 2.49573e-05 0.560941 0 -1.33514e-05 9.53674e-06
25 1 0.967236 0.500025 0.489511 0 -5.72205e-06 -1.52588e-05
26 1 0.796665 0.166643 0.560941 0 0 1.52588e-05
27 1 0.717237 0.666642 0.489511 0 1.14441e-05 7.62939e-06
28 1 0.490517 0.500073 0.0609404 0 -0.0530472 0.683134
29 1 0.240517 0.666593 0.0609403 0 0.0530872 0.683142
30 1 0.149487 0.500026 0.203802 0 0.0061779 0.00373268
31 1 0.899487 0.666641 0.203802 0 -0.0061779 0.00373459
32 1 0.808369 0.500024 0.346651 0 -0.000246048 -0.00119781
33 1 0.614413 0.166641 0.846652 0 -0.00617409 -0.0037632
34 1 0.523383 7.47473e-05 0.989512 0 -0.0530872 -0.683115
35 1 0.273383 0.166594 0.989513 0 0.0530548 -0.683142
36 1 0.705531 2.44315e-05 0.703801 0 -0.000249863 0.001194
37 1 0.626096 0.50002 0.632371 0 5.14984e-05 -2.09808e-05
38 1 0.455532 0.166643 0.703801 0 0.000226974 0.00120163
39 1 0.376097 0.666647 0.632371 0 -4.76837e-05 -7.62939e-06
40 1 0.364413 2.63314e-05 0.846651 0 0.0061779 -0.00373459
41 1 0.284968 0.500023 0.775228 0 0.000499725 0.00307274
42 1 0.114413 0.166641 0.846651 0 -0.00617409 -0.00374222
43 1 0.0349683 0.666644 0.775228 0 -0.000516891 0.00304985
44 1 0.0233835 7.37033e-05 0.989512 0 -0.0530643 -0.683121
45 1 0.943893 0.500043 0.918087 0 0.0203438 -0.680771
46 1 0.558368 0.666643 0.346651 0 0.00025177 -0.001194
47 1 0.467236 0.500025 0.489511 0 -1.90735e-06 -1.14441e-05
48 1 0.217236 0.666642 0.489511 0 1.52588e-05 -1.14441e-05
49 1 0.126097 0.500019 0.632371 0 6.67572e-05 0
50 1 0.876098 0.666647 0.63237 0 -3.24249e-05 1.71661e-05
51 1 0.784969 0.500022 0.775228 0 0.000516891 0.00306892
52 1 0.773381 0.166594 0.989513 0 0.0530701 -0.683155
53 1 0.693892 0.666624 0.918087 0 -0.0203438 -0.68083
54 1 0.534968 0.666643 0.775228 0 -0.000497818 0.00306511
55 1 0.443893 0.500044 0.918087 0 0.0203476 -0.680811
56 1 0.193893 0.666624 0.918087 0 -0.02034 -0.680798
ITEM: TIMESTEP
1
ITEM: NUMBER OF ATOMS
56
ITEM: BOX BOUNDS xy xz yz pp pp pp
-1.8595114350318909e+00 1.2203788340091705e+01 0.0000000000000000e+00
-8.4733366966247559e-03 5.5348814725875854e+00 -1.8408229351043701e+00
-2.9168844223022461e-02 1.9049128890037537e+01 0.0000000000000000e+00
ITEM: ATOMS id type xs ys zs fx fy fz
1 1 0.570794 0.000580728 0.137589 0 -0.000463486 0.0907955
2 1 0.320794 0.166086 0.137589 0 0.0004673 0.0907936
3 1 0.228928 3.7385e-05 0.275201 0 -0.0184097 0.101622
4 1 0.978928 0.166631 0.275202 0 0.0183964 0.10161
5 1 0.887803 2.08816e-05 0.418082 0 -0.000768661 -0.00120354
6 1 0.0707943 0.000581021 0.137589 0 -0.000465393 0.0907955
7 1 0.991307 0.498673 0.0661815 0 -0.0669384 0.0618515
8 1 0.820795 0.166086 0.137589 0 0.00047493 0.0907898
9 1 0.741308 0.667995 0.0661818 0 0.0669403 0.0618191
10 1 0.72893 3.74346e-05 0.275201 0 -0.0184078 0.101624
11 1 0.637802 0.166646 0.418082 0 0.00078392 -0.00121117
12 1 0.546663 2.45038e-05 0.560942 0 0.000150681 0.0028801
13 1 0.296664 0.166643 0.560942 0 -0.000146866 0.002882
14 1 0.205533 1.76351e-05 0.703811 0 -0.00268936 -0.00423431
15 1 0.955533 0.16665 0.703811 0 0.0026741 -0.00423813
16 1 0.86441 0.000189375 0.846623 0 6.10352e-05 -0.126644
17 1 0.649491 0.500189 0.20383 0 7.62939e-05 0.126669
18 1 0.478928 0.166631 0.275201 0 0.0183849 0.101618
19 1 0.399492 0.666477 0.20383 0 -6.48499e-05 0.126667
20 1 0.387803 2.11767e-05 0.418082 0 -0.000782013 -0.00120354
21 1 0.308367 0.500017 0.346642 0 -0.00267792 0.00424004
22 1 0.137803 0.166646 0.418082 0 0.000772476 -0.00120735
23 1 0.0583671 0.666649 0.346642 0 0.00269699 0.00423813
24 1 0.0466635 2.46047e-05 0.560942 0 0.000144958 0.00288391
25 1 0.967236 0.500025 0.489511 0 0.000150681 -0.00288582
26 1 0.796665 0.166643 0.560942 0 -0.000156403 0.00289726
27 1 0.717237 0.666642 0.489511 0 -0.000146866 -0.00287819
28 1 0.491307 0.498672 0.0661817 0 -0.0669365 0.0618229
29 1 0.241307 0.667994 0.0661817 0 0.0669384 0.0618286
30 1 0.149492 0.500189 0.20383 0 6.67572e-05 0.126659
31 1 0.899492 0.666478 0.20383 0 -8.01086e-05 0.126663
32 1 0.808368 0.500018 0.346642 0 -0.00267982 0.0042305
33 1 0.614408 0.166478 0.846623 0 -7.05719e-05 -0.126678
34 1 0.522594 -0.00132706 0.984271 0 -0.0669327 -0.0618401
35 1 0.272594 0.167995 0.984271 0 0.0669365 -0.0618382
36 1 0.705532 1.78337e-05 0.70381 0 -0.00269127 -0.00423622
37 1 0.626096 0.500021 0.632371 0 -0.000780106 0.00119591
38 1 0.455534 0.166649 0.703811 0 0.00268364 -0.00423813
39 1 0.376097 0.666646 0.632371 0 0.000776291 0.00120544
40 1 0.364409 0.000189464 0.846623 0 6.67572e-05 -0.126663
41 1 0.284972 0.500036 0.775251 0 -0.0183964 -0.101612
42 1 0.114409 0.166478 0.846623 0 -6.86646e-05 -0.126661
43 1 0.0349718 0.66663 0.775251 0 0.0184021 -0.101616
44 1 0.0225941 -0.0013275 0.984271 0 -0.0669403 -0.0618305
45 1 0.943107 0.50058 0.912863 0 -0.000461578 -0.0907898
46 1 0.558367 0.666649 0.346642 0 0.00268745 0.00423622
47 1 0.467236 0.500025 0.489511 0 0.000152588 -0.00289154
48 1 0.217236 0.666642 0.489511 0 -0.000144958 -0.00289154
49 1 0.126097 0.500021 0.632371 0 -0.000776291 0.00120735
50 1 0.876098 0.666646 0.632371 0 0.000785828 0.00121689
51 1 0.784973 0.500036 0.775251 0 -0.0183887 -0.10162
52 1 0.772592 0.167995 0.984271 0 0.0669346 -0.0618286
53 1 0.693105 0.666087 0.912864 0 0.000461578 -0.0907974
54 1 0.534972 0.66663 0.775251 0 0.0184002 -0.101618
55 1 0.443106 0.500581 0.912863 0 -0.000461578 -0.0907917
56 1 0.193106 0.666086 0.912863 0 0.000459671 -0.0907936
ITEM: TIMESTEP
2
ITEM: NUMBER OF ATOMS
56
ITEM: BOX BOUNDS xy xz yz pp pp pp
-1.8595114350318909e+00 1.2203788340091705e+01 0.0000000000000000e+00
-8.4733366966247559e-03 5.5348814725875854e+00 -1.8408229351043701e+00
-2.9168844223022461e-02 1.9049128890037537e+01 0.0000000000000000e+00
ITEM: ATOMS id type xs ys zs fx fy fz
1 1 0.571195 0.000533885 0.140256 0 -0.0303974 -0.0165367
2 1 0.321196 0.166133 0.140255 0 0.0303936 -0.016531
3 1 0.229378 -0.00182322 0.278186 0 0.0043602 0.0284081
4 1 0.979377 0.16849 0.278185 0 -0.00435829 0.0284195
5 1 0.887798 -5.6804e-05 0.418047 0 -0.00948715 0.0518951
6 1 0.0711959 0.000533986 0.140256 0 -0.0304031 -0.0165195
7 1 0.99158 0.491908 0.0679978 0 -0.0123844 -0.0430889
8 1 0.821197 0.166134 0.140255 0 0.0303802 -0.0165215
9 1 0.741582 0.67476 0.0679972 0 0.012394 -0.043045
10 1 0.729379 -0.00182297 0.278186 0 0.00436211 0.0284004
11 1 0.637797 0.166725 0.418047 0 0.00947571 0.0518932
12 1 0.546676 3.97325e-05 0.561026 0 -0.0025959 -0.00439644
13 1 0.296676 0.166628 0.561026 0 0.00259209 -0.00440025
14 1 0.205515 -0.000254168 0.703686 0 -0.0122433 -0.0790272
15 1 0.955515 0.16692 0.703686 0 0.0122585 -0.0790234
16 1 0.86385 0.000195544 0.842904 0 -0.0118523 0.00408554
17 1 0.650051 0.500197 0.20755 0 -0.0118694 -0.00411797
18 1 0.479378 0.168489 0.278185 0 -0.00434875 0.0284271
19 1 0.400052 0.666471 0.20755 0 0.0118561 -0.00411415
20 1 0.387798 -5.78583e-05 0.418047 0 -0.00947189 0.0518913
21 1 0.308386 0.499747 0.346767 0 -0.0122604 0.0790253
22 1 0.137798 0.166724 0.418047 0 0.00949669 0.0518856
23 1 0.0583859 0.666922 0.346767 0 0.0122395 0.0790215
24 1 0.0466763 3.92551e-05 0.561026 0 -0.00259399 -0.00438881
25 1 0.967223 0.50004 0.489426 0 -0.00260353 0.00439453
26 1 0.796677 0.166627 0.561027 0 0.00260925 -0.00440216
27 1 0.717225 0.666627 0.489427 0 0.00260162 0.00440025
28 1 0.49158 0.491907 0.0679971 0 -0.0123806 -0.0430527
29 1 0.24158 0.67476 0.0679973 0 0.0123882 -0.0430584
30 1 0.150052 0.500196 0.20755 0 -0.0118618 -0.00408554
31 1 0.900052 0.66647 0.20755 0 0.011879 -0.0041008
32 1 0.808387 0.499747 0.346767 0 -0.0122585 0.0790329
33 1 0.613848 0.16647 0.842903 0 0.0118675 0.00411224
34 1 0.52232 -0.00809169 0.982455 0 -0.012394 0.0430679
35 1 0.27232 0.17476 0.982455 0 0.0123901 0.0430698
36 1 0.705514 -0.000254162 0.703686 0 -0.0122452 -0.0790176
37 1 0.626101 0.499942 0.632406 0 -0.00948143 -0.0518894
38 1 0.455515 0.16692 0.703686 0 0.0122566 -0.0790329
39 1 0.376103 0.666725 0.632406 0 0.00948524 -0.0518913
40 1 0.363849 0.000196211 0.842903 0 -0.0118637 0.00409698
41 1 0.284523 0.498177 0.772267 0 0.00434685 -0.0284195
42 1 0.113848 0.166471 0.842903 0 0.011858 0.00410271
43 1 0.0345224 0.66849 0.772267 0 -0.00435829 -0.0284157
44 1 0.0223206 -0.0080929 0.982456 0 -0.0123825 0.0430717
45 1 0.942705 0.500534 0.910197 0 -0.030405 0.016552
46 1 0.558385 0.666921 0.346767 0 0.0122604 0.0790234
47 1 0.467224 0.50004 0.489426 0 -0.00260162 0.00440025
48 1 0.217224 0.666628 0.489426 0 0.00259781 0.00439835
49 1 0.126102 0.499942 0.632406 0 -0.00948906 -0.0518856
50 1 0.876103 0.666725 0.632406 0 0.00946999 -0.051897
51 1 0.784524 0.498178 0.772267 0 0.00434113 -0.0284214
52 1 0.772319 0.17476 0.982456 0 0.0123978 0.0430546
53 1 0.692704 0.666133 0.910197 0 0.0303917 0.0165138
54 1 0.534522 0.66849 0.772267 0 -0.00436211 -0.0284157
55 1 0.442704 0.500534 0.910197 0 -0.0303974 0.0165215
56 1 0.192705 0.666133 0.910197 0 0.0304012 0.016531
ITEM: TIMESTEP
3
ITEM: NUMBER OF ATOMS
56
ITEM: BOX BOUNDS xy xz yz pp pp pp
-1.8595114350318909e+00 1.2203788340091705e+01 0.0000000000000000e+00
-8.4733366966247559e-03 5.5348814725875854e+00 -1.8408229351043701e+00
-2.9168844223022461e-02 1.9049128890037537e+01 0.0000000000000000e+00
ITEM: ATOMS id type xs ys zs fx fy fz
1 1 0.571257 -0.00275042 0.140665 0 0.000329971 0.0277519
2 1 0.321258 0.169417 0.140665 0 -0.000322342 0.0277576
3 1 0.229668 -0.0020003 0.280109 0 -0.000427246 -0.0137138
4 1 0.979667 0.168667 0.280109 0 0.000429153 -0.01371
5 1 0.88804 -0.00110374 0.419656 0 -0.00356483 0.0258198
6 1 0.0712576 -0.002751 0.140665 0 0.000326157 0.0277367
7 1 0.991473 0.488228 0.0672822 0 0.00821877 0.0165367
8 1 0.821258 0.169417 0.140665 0 -0.000301361 0.0277386
9 1 0.741474 0.678441 0.0672827 0 -0.00823402 0.0164661
10 1 0.729669 -0.00199979 0.280109 0 -0.000423431 -0.0137024
11 1 0.638039 0.167771 0.419655 0 0.00357056 0.0258312
12 1 0.546659 -0.000234068 0.560918 0 -0.0127907 -0.0229645
13 1 0.29666 0.166901 0.560918 0 0.0127926 -0.0229645
14 1 0.205136 -0.0016648 0.701174 0 2.86102e-05 -0.00177956
15 1 0.955136 0.168332 0.701174 0 -4.00543e-05 -0.00177383
16 1 0.863675 -0.00107656 0.84174 0 -0.000600815 0.0139122
17 1 0.650226 0.498924 0.208712 0 -0.000597 -0.0138969
18 1 0.479667 0.168666 0.280109 0 0.000432968 -0.0137367
19 1 0.400227 0.667743 0.208713 0 0.000593185 -0.0139027
20 1 0.38804 -0.00110362 0.419656 0 -0.00356674 0.0258198
21 1 0.308764 0.498335 0.349279 0 4.57764e-05 0.00178337
22 1 0.13804 0.167773 0.419655 0 0.00354958 0.0258389
23 1 0.0587641 0.668332 0.349278 0 -3.05176e-05 0.00178146
24 1 0.04666 -0.000234542 0.560919 0 -0.0127869 -0.022974
25 1 0.96724 0.499765 0.489534 0 -0.0127869 0.0229816
26 1 0.796661 0.166902 0.560919 0 0.0127773 -0.0229721
27 1 0.717241 0.666902 0.489535 0 0.0127888 0.0229607
28 1 0.491472 0.488228 0.0672824 0 0.00821877 0.0164852
29 1 0.241473 0.67844 0.0672825 0 -0.00822639 0.0164967
30 1 0.150227 0.498923 0.208713 0 -0.000591278 -0.0139256
31 1 0.900227 0.667744 0.208713 0 0.00056839 -0.0139065
32 1 0.808765 0.498335 0.349278 0 4.19617e-05 0.00177574
33 1 0.613673 0.167744 0.84174 0 0.000587463 0.0139065
34 1 0.522428 -0.0117723 0.98317 0 0.00821877 -0.0164986
35 1 0.272428 0.17844 0.98317 0 -0.00822449 -0.0165081
36 1 0.705135 -0.00166507 0.701174 0 3.62396e-05 -0.00179291
37 1 0.625859 0.498895 0.630797 0 -0.00355148 -0.0258236
38 1 0.455137 0.168332 0.701174 0 -4.3869e-05 -0.00177765
39 1 0.37586 0.667772 0.630798 0 0.00355339 -0.0258331
40 1 0.363674 -0.00107692 0.84174 0 -0.000585556 0.0139103
41 1 0.284233 0.497999 0.770344 0 -0.000415802 0.0137177
42 1 0.113673 0.167743 0.84174 0 0.000597 0.0139084
43 1 0.0342327 0.668667 0.770344 0 0.000421524 0.0137272
44 1 0.0224283 -0.0117726 0.983171 0 0.00822258 -0.0164909
45 1 0.942644 0.497249 0.909789 0 0.000339508 -0.0277939
46 1 0.558764 0.668333 0.349278 0 -5.34058e-05 0.00178337
47 1 0.46724 0.499766 0.489534 0 -0.0127831 0.0229664
48 1 0.21724 0.666902 0.489534 0 0.0127869 0.0229664
49 1 0.12586 0.498895 0.630798 0 -0.00355339 -0.025835
50 1 0.875861 0.667771 0.630798 0 0.00355911 -0.0258255
51 1 0.784234 0.497999 0.770344 0 -0.000413895 0.0137329
52 1 0.772426 0.178441 0.98317 0 -0.00823593 -0.016489
53 1 0.692642 0.669417 0.909788 0 -0.00030899 -0.0277271
54 1 0.534233 0.668667 0.770344 0 0.000429153 0.0137043
55 1 0.442643 0.49725 0.909788 0 0.000318527 -0.0277328
56 1 0.192643 0.669417 0.909788 0 -0.000322342 -0.0277462
ITEM: TIMESTEP
4
ITEM: NUMBER OF ATOMS
56
ITEM: BOX BOUNDS xy xz yz pp pp pp
-1.8595114350318909e+00 1.2203788340091705e+01 0.0000000000000000e+00
-8.4733366966247559e-03 5.5348814725875854e+00 -1.8408229351043701e+00
-2.9168844223022461e-02 1.9049128890037537e+01 0.0000000000000000e+00
ITEM: ATOMS id type xs ys zs fx fy fz
1 1 0.571323 -0.00305455 0.141105 0 0.00359726 -0.00101471
2 1 0.321324 0.169722 0.141106 0 -0.00359917 -0.00101662
3 1 0.229666 -0.00203883 0.280099 0 -0.00157356 0.00625992
4 1 0.979666 0.168705 0.280099 0 0.0015831 0.0062542
5 1 0.88812 -0.0013832 0.420186 0 -0.00390244 -0.00102425
6 1 0.0713239 -0.00305539 0.141106 0 0.0036068 -0.00100708
7 1 0.991498 0.488277 0.0674514 0 0.00419426 -0.00265121
8 1 0.821325 0.169722 0.141105 0 -0.0036087 -0.0010128
9 1 0.741499 0.678391 0.0674509 0 -0.00419617 -0.00264168
10 1 0.729667 -0.0020381 0.280098 0 -0.00158882 0.00625801
11 1 0.638119 0.168051 0.420186 0 0.00390053 -0.00102234
12 1 0.546608 -0.000896875 0.560576 0 -0.00803757 -0.00372124
13 1 0.296609 0.167564 0.560576 0 0.00803566 -0.00371742
14 1 0.205096 -0.00180105 0.700904 0 0.000553131 0.00298309
15 1 0.955096 0.168468 0.700904 0 -0.000562668 0.00297928
16 1 0.863688 -0.00123059 0.841828 0 0.00157356 -0.000907898
17 1 0.650213 0.49877 0.208625 0 0.00158119 0.000915527
18 1 0.479666 0.168705 0.280099 0 0.00158882 0.00624847
19 1 0.400214 0.667897 0.208625 0 -0.00156975 0.000917435
20 1 0.38812 -0.00138306 0.420186 0 -0.00391006 -0.00102234
21 1 0.308805 0.498199 0.349549 0 0.000551224 -0.00299072
22 1 0.13812 0.168051 0.420185 0 0.00389481 -0.00102043
23 1 0.0588049 0.668468 0.349549 0 -0.000555038 -0.00297356
24 1 0.0466085 -0.000897158 0.560576 0 -0.00803375 -0.00372505
25 1 0.967291 0.499103 0.489877 0 -0.00802803 0.0037117
26 1 0.79661 0.167564 0.560576 0 0.00803375 -0.00371552
27 1 0.717293 0.667565 0.489877 0 0.00803185 0.00371552
28 1 0.491498 0.488278 0.0674509 0 0.00419617 -0.00264549
29 1 0.241498 0.67839 0.0674511 0 -0.00419998 -0.00264549
30 1 0.150214 0.49877 0.208625 0 0.00156212 0.000907898
31 1 0.900214 0.667897 0.208625 0 -0.00156784 0.00091362
32 1 0.808806 0.498199 0.349549 0 0.000558853 -0.00298309
33 1 0.613686 0.167897 0.841827 0 -0.00157356 -0.000917435
34 1 0.522403 -0.0117228 0.983002 0 0.00419998 0.00264549
35 1 0.272403 0.17839 0.983002 0 -0.00420189 0.00265121
36 1 0.705094 -0.00180096 0.700903 0 0.000556946 0.00298309
37 1 0.625779 0.498617 0.630267 0 -0.00389481 0.00100708
38 1 0.455096 0.168468 0.700903 0 -0.000564575 0.00298119
39 1 0.37578 0.66805 0.630267 0 0.00390434 0.00101662
40 1 0.363687 -0.0012303 0.841827 0 0.00156975 -0.000909805
41 1 0.284234 0.497961 0.770354 0 -0.00158119 -0.00624466
42 1 0.113686 0.167897 0.841828 0 -0.00157166 -0.000909805
43 1 0.0342343 0.668705 0.770354 0 0.00158691 -0.00624847
44 1 0.022403 -0.0117228 0.983002 0 0.0042038 0.00263214
45 1 0.942577 0.496945 0.909348 0 0.00359726 0.00102615
46 1 0.558805 0.668468 0.349549 0 -0.000558853 -0.00297737
47 1 0.467291 0.499103 0.489877 0 -0.00802803 0.00372124
48 1 0.217292 0.667565 0.489877 0 0.00803947 0.00372505
49 1 0.12578 0.498616 0.630267 0 -0.00390434 0.00101662
50 1 0.875781 0.66805 0.630267 0 0.00390244 0.00102615
51 1 0.784235 0.497961 0.770354 0 -0.00158119 -0.0062561
52 1 0.772401 0.178391 0.983002 0 -0.00419426 0.00263977
53 1 0.692576 0.669722 0.909347 0 -0.00359535 0.00101662
54 1 0.534234 0.668705 0.770354 0 0.0015831 -0.0062542
55 1 0.442576 0.496945 0.909347 0 0.00359535 0.00101089
56 1 0.192577 0.669722 0.909347 0 -0.00359917 0.0010128
ITEM: TIMESTEP
5
ITEM: NUMBER OF ATOMS
56
ITEM: BOX BOUNDS xy xz yz pp pp pp
-1.8595114350318909e+00 1.2203788340091705e+01 0.0000000000000000e+00
-8.4733366966247559e-03 5.5348814725875854e+00 -1.8408229351043701e+00
-2.9168844223022461e-02 1.9049128890037537e+01 0.0000000000000000e+00
ITEM: ATOMS id type xs ys zs fx fy fz
1 1 0.571326 -0.00275139 0.141122 0 0.00172424 0.00177193
2 1 0.321326 0.169418 0.141122 0 -0.00172806 0.00177574
3 1 0.229691 -0.00218836 0.280266 0 0.00123787 -0.000694275
4 1 0.979691 0.168856 0.280266 0 -0.00124359 -0.000684738
5 1 0.888124 -0.00177216 0.42021 0 -0.00281715 -0.000902176
6 1 0.0713264 -0.00275137 0.141122 0 0.00172043 0.00176239
7 1 0.99149 0.488671 0.0673967 0 0.00218391 0.000787735
8 1 0.821327 0.169418 0.141122 0 -0.00171852 0.00177956
9 1 0.741491 0.677997 0.0673964 0 -0.00218391 0.000782013
10 1 0.729692 -0.00218902 0.280266 0 0.00125885 -0.00069046
11 1 0.638123 0.16844 0.42021 0 0.00282288 -0.000907898
12 1 0.546588 -0.00170659 0.560442 0 -0.00120926 0.00434303
13 1 0.296588 0.168374 0.560442 0 0.0012188 0.00434113
14 1 0.205104 -0.00176326 0.700957 0 -0.0011158 -0.00384712
15 1 0.955104 0.168429 0.700957 0 0.00110626 -0.00384712
16 1 0.863686 -0.00110005 0.841812 0 0.000181198 0.000534058
17 1 0.650215 0.498901 0.208641 0 0.000171661 -0.00053978
18 1 0.479691 0.168856 0.280266 0 -0.00125504 -0.000684738
19 1 0.400216 0.667766 0.208641 0 -0.000179291 -0.00053215
20 1 0.388124 -0.00177273 0.42021 0 -0.00280571 -0.000902176
21 1 0.308797 0.498237 0.349496 0 -0.00110054 0.00385666
22 1 0.138124 0.16844 0.42021 0 0.00281906 -0.000904083
23 1 0.0587969 0.66843 0.349496 0 0.00110435 0.00383568
24 1 0.0465883 -0.0017065 0.560442 0 -0.00122452 0.00434303
25 1 0.967311 0.498294 0.490011 0 -0.00121117 -0.00433731
26 1 0.796589 0.168374 0.560442 0 0.0012188 0.00434494
27 1 0.717313 0.668374 0.490011 0 0.00121307 -0.00434494
28 1 0.491489 0.488671 0.0673963 0 0.00218201 0.00078392
29 1 0.24149 0.677996 0.0673965 0 -0.00217819 0.000782013
30 1 0.150216 0.498899 0.208641 0 0.00019455 -0.000534058
31 1 0.900216 0.667767 0.208641 0 -0.000181198 -0.000537872
32 1 0.808798 0.498238 0.349496 0 -0.00111198 0.00385284
33 1 0.613684 0.167767 0.841811 0 -0.000175476 0.000537872
34 1 0.522411 -0.011329 0.983056 0 0.00218201 -0.000785828
35 1 0.272411 0.177996 0.983056 0 -0.00217819 -0.000774384
36 1 0.705103 -0.00176278 0.700957 0 -0.00110817 -0.00385284
37 1 0.625775 0.498228 0.630242 0 -0.00282478 0.000919342
38 1 0.455104 0.168429 0.700957 0 0.00110817 -0.00384521
39 1 0.375777 0.66844 0.630242 0 0.00281334 0.000917435
40 1 0.363684 -0.00110004 0.841812 0 0.000179291 0.000534058
41 1 0.284209 0.497811 0.770187 0 0.00124931 0.000673294
42 1 0.113684 0.167767 0.841812 0 -0.00018692 0.000526428
43 1 0.0342091 0.668856 0.770187 0 -0.00125694 0.000677109
44 1 0.0224111 -0.0113286 0.983056 0 0.0021801 -0.000761032
45 1 0.942575 0.497248 0.909332 0 0.00173378 -0.00177956
46 1 0.558797 0.66843 0.349496 0 0.00110626 0.00384712
47 1 0.467312 0.498294 0.490011 0 -0.00122452 -0.00434875
48 1 0.217312 0.668374 0.490011 0 0.00121307 -0.00435638
49 1 0.125777 0.498227 0.630242 0 -0.0028038 0.000911713
50 1 0.875778 0.668439 0.630243 0 0.00281715 0.000904083
51 1 0.78421 0.497811 0.770187 0 0.00125504 0.00069046
52 1 0.772409 0.177997 0.983056 0 -0.00218391 -0.000774384
53 1 0.692573 0.669419 0.909331 0 -0.00173187 -0.00178146
54 1 0.534209 0.668855 0.770187 0 -0.00125885 0.000682831
55 1 0.442574 0.497248 0.909331 0 0.00172997 -0.00177765
56 1 0.192574 0.669419 0.909331 0 -0.00172806 -0.00177002
ITEM: TIMESTEP
6
ITEM: NUMBER OF ATOMS
56
ITEM: BOX BOUNDS xy xz yz pp pp pp
-1.8595114350318909e+00 1.2203788340091705e+01 0.0000000000000000e+00
-8.4733366966247559e-03 5.5348814725875854e+00 -1.8408229351043701e+00
-2.9168844223022461e-02 1.9049128890037537e+01 0.0000000000000000e+00
ITEM: ATOMS id type xs ys zs fx fy fz
1 1 0.571332 -0.00255709 0.141162 0 6.29425e-05 -0.000572205
2 1 0.321333 0.169224 0.141162 0 -5.72205e-05 -0.00056839
3 1 0.229695 -0.00213832 0.280293 0 0.00012207 -0.000579834
4 1 0.979695 0.168805 0.280293 0 -0.000116348 -0.000587463
5 1 0.888122 -0.00206372 0.420198 0 0.000116348 0.0013752
6 1 0.0713324 -0.00255712 0.141162 0 5.34058e-05 -0.00056839
7 1 0.99149 0.488919 0.0673994 0 0.000711441 -4.76837e-05
8 1 0.821333 0.169224 0.141162 0 -6.10352e-05 -0.000576019
9 1 0.741491 0.677749 0.067399 0 -0.000707626 -4.00543e-05
10 1 0.729696 -0.00213785 0.280293 0 0.000123978 -0.000577927
11 1 0.638121 0.168732 0.420198 0 -0.000112534 0.00137711
12 1 0.546596 -0.00198834 0.560497 0 0.00018692 2.09808e-05
13 1 0.296597 0.168656 0.560498 0 -0.000192642 1.90735e-05
14 1 0.205094 -0.00183199 0.700892 0 -0.0010643 -4.19617e-05
15 1 0.955094 0.168497 0.700892 0 0.00108719 -4.19617e-05
16 1 0.863687 -0.00105559 0.841819 0 0.000694275 -0.00145721
17 1 0.650214 0.498945 0.208634 0 0.00069046 0.00145149
18 1 0.479695 0.168805 0.280292 0 -0.0001297 -0.000577927
19 1 0.400215 0.667722 0.208634 0 -0.000699997 0.0014534
20 1 0.388122 -0.00206366 0.420198 0 0.000110626 0.00136757
21 1 0.308807 0.498169 0.349561 0 -0.00108337 4.3869e-05
22 1 0.138122 0.168731 0.420198 0 -0.000102997 0.00136757
23 1 0.0588067 0.668498 0.349561 0 0.00108147 3.62396e-05
24 1 0.0465966 -0.00198923 0.560498 0 0.000205994 2.47955e-05
25 1 0.967303 0.498012 0.489955 0 0.000185013 -1.90735e-05
26 1 0.796598 0.168656 0.560498 0 -0.000192642 3.8147e-06
27 1 0.717304 0.668656 0.489955 0 -0.00018692 -1.52588e-05
28 1 0.49149 0.488919 0.0673989 0 0.000713348 -5.14984e-05
29 1 0.24149 0.677748 0.0673991 0 -0.000703812 -3.8147e-05
30 1 0.150215 0.498944 0.208634 0 0.00069809 0.00146484
31 1 0.900215 0.667722 0.208634 0 -0.000694275 0.00145721
32 1 0.808808 0.498169 0.349561 0 -0.00108337 4.00543e-05
33 1 0.613685 0.167723 0.841818 0 -0.000699997 -0.00145531
34 1 0.522411 -0.0110806 0.983054 0 0.000701904 4.76837e-05
35 1 0.27241 0.177748 0.983054 0 -0.000709534 2.86102e-05
36 1 0.705093 -0.00183089 0.700892 0 -0.00107765 -3.24249e-05
37 1 0.625777 0.497937 0.630254 0 0.000102997 -0.00136375
38 1 0.455094 0.168497 0.700892 0 0.00107765 -3.62396e-05
39 1 0.375779 0.668731 0.630255 0 -0.000112534 -0.00138283
40 1 0.363685 -0.00105578 0.841819 0 0.000692368 -0.0014534
41 1 0.284205 0.497861 0.77016 0 0.000123978 0.000577927
42 1 0.113685 0.167722 0.841819 0 -0.000692368 -0.0014534
43 1 0.0342051 0.668805 0.77016 0 -0.000127792 0.000585556
44 1 0.0224108 -0.0110802 0.983054 0 0.000707626 4.00543e-05
45 1 0.942569 0.497443 0.909292 0 6.29425e-05 0.000572205
46 1 0.558806 0.668498 0.349561 0 0.0010891 3.62396e-05
47 1 0.467303 0.498012 0.489955 0 0.00019455 -2.09808e-05
48 1 0.217303 0.668656 0.489955 0 -0.000202179 -7.62939e-06
49 1 0.125778 0.497936 0.630255 0 9.53674e-05 -0.0013752
50 1 0.875779 0.668731 0.630255 0 -0.000110626 -0.00137711
51 1 0.784206 0.497862 0.77016 0 0.000114441 0.000574112
52 1 0.772409 0.177749 0.983054 0 -0.000707626 4.3869e-05
53 1 0.692567 0.669224 0.909291 0 -5.72205e-05 0.000579834
54 1 0.534205 0.668804 0.77016 0 -0.000120163 0.000583649
55 1 0.442568 0.497443 0.909291 0 6.48499e-05 0.000577927
56 1 0.192568 0.669224 0.909291 0 -6.48499e-05 0.00056839
ITEM: TIMESTEP
7
ITEM: NUMBER OF ATOMS
56
ITEM: BOX BOUNDS xy xz yz pp pp pp
-1.8595114350318909e+00 1.2203788340091705e+01 0.0000000000000000e+00
-8.4733366966247559e-03 5.5348814725875854e+00 -1.8408229351043701e+00
-2.9168844223022461e-02 1.9049128890037537e+01 0.0000000000000000e+00
ITEM: ATOMS id type xs ys zs fx fy fz
1 1 0.57133 -0.00252521 0.141153 0 7.24792e-05 -0.000183105
2 1 0.321331 0.169192 0.141153 0 -7.43866e-05 -0.000196457
3 1 0.229694 -0.00212128 0.280282 0 -5.91278e-05 0.000562668
4 1 0.979693 0.168789 0.280282 0 4.95911e-05 0.000572205
5 1 0.888127 -0.00209395 0.42023 0 0.000181198 -6.10352e-05
6 1 0.0713311 -0.00252605 0.141154 0 8.96454e-05 -0.000185013
7 1 0.99149 0.489012 0.0673986 0 0.000236511 0.000631332
8 1 0.821332 0.169192 0.141153 0 -7.05719e-05 -0.000190735
9 1 0.741491 0.677655 0.0673984 0 -0.000242233 0.000621796
10 1 0.729695 -0.0021205 0.280282 0 -6.29425e-05 0.000556946
11 1 0.638126 0.168762 0.42023 0 -0.000177383 -5.72205e-05
12 1 0.546597 -0.00201135 0.560506 0 0.000236511 -0.000200272
13 1 0.296598 0.168679 0.560506 0 -0.000238419 -0.000202179
14 1 0.205092 -0.00193022 0.700882 0 -2.86102e-05 -0.000207901
15 1 0.955092 0.168597 0.700882 0 7.62939e-06 -0.000209808
16 1 0.863681 -0.000991565 0.841785 0 1.90735e-06 -3.43323e-05
17 1 0.650219 0.499008 0.208668 0 0 3.62396e-05
18 1 0.479693 0.168787 0.280282 0 6.67572e-05 0.000558853
19 1 0.40022 0.667658 0.208669 0 1.14441e-05 2.28882e-05
20 1 0.388127 -0.00209429 0.42023 0 0.000175476 -5.14984e-05
21 1 0.308808 0.498069 0.349571 0 -1.33514e-05 0.000205994
22 1 0.138126 0.168762 0.420229 0 -0.000185013 -4.76837e-05
23 1 0.0588082 0.668598 0.349571 0 1.71661e-05 0.00022316
24 1 0.0465979 -0.00201078 0.560506 0 0.00022316 -0.000205994
25 1 0.967302 0.497989 0.489947 0 0.000236511 0.000200272
26 1 0.796599 0.168679 0.560506 0 -0.000242233 -0.000190735
27 1 0.717303 0.668679 0.489947 0 -0.000236511 0.000207901
28 1 0.49149 0.489013 0.067398 0 0.000226974 0.000638962
29 1 0.24149 0.677655 0.0673985 0 -0.000247955 0.000627518
30 1 0.15022 0.499009 0.208669 0 -9.53674e-06 2.47955e-05
31 1 0.90022 0.667658 0.208669 0 -1.90735e-06 3.05176e-05
32 1 0.808809 0.49807 0.349571 0 -5.72205e-06 0.000207901
33 1 0.61368 0.167658 0.841784 0 5.72205e-06 -2.67029e-05
34 1 0.522411 -0.010988 0.983054 0 0.000247955 -0.000629425
35 1 0.27241 0.177655 0.983054 0 -0.000244141 -0.000617981
36 1 0.705091 -0.00193015 0.700882 0 -2.09808e-05 -0.000219345
37 1 0.625772 0.497905 0.630223 0 0.000183105 4.95911e-05
38 1 0.455093 0.168596 0.700882 0 2.09808e-05 -0.000213623
39 1 0.375774 0.668761 0.630223 0 -0.000185013 6.48499e-05
40 1 0.36368 -0.000991948 0.841784 0 3.8147e-06 -3.43323e-05
41 1 0.284207 0.497879 0.770171 0 -6.48499e-05 -0.00056839
42 1 0.11368 0.167658 0.841784 0 5.72205e-06 -2.28882e-05
43 1 0.0342066 0.668787 0.770171 0 6.86646e-05 -0.000564575
44 1 0.0224109 -0.0109871 0.983055 0 0.000242233 -0.000629425
45 1 0.94257 0.497475 0.9093 0 6.67572e-05 0.000181198
46 1 0.558808 0.668598 0.349571 0 9.53674e-06 0.000209808
47 1 0.467302 0.497989 0.489947 0 0.000230789 0.000204086
48 1 0.217302 0.668678 0.489947 0 -0.000225067 0.000192642
49 1 0.125774 0.497904 0.630223 0 0.000198364 5.14984e-05
50 1 0.875775 0.668761 0.630223 0 -0.000173569 4.95911e-05
51 1 0.784208 0.497879 0.770171 0 -6.29425e-05 -0.000549316
52 1 0.772409 0.177656 0.983054 0 -0.000244141 -0.000627518
53 1 0.692569 0.669193 0.909299 0 -7.05719e-05 0.000179291
54 1 0.534206 0.668787 0.77017 0 6.67572e-05 -0.000556946
55 1 0.442569 0.497475 0.9093 0 7.05719e-05 0.000179291
56 1 0.192569 0.669192 0.909299 0 -6.67572e-05 0.000192642
ITEM: TIMESTEP
8
ITEM: NUMBER OF ATOMS
56
ITEM: BOX BOUNDS xy xz yz pp pp pp
-1.8595114350318909e+00 1.2203788340091705e+01 0.0000000000000000e+00
-8.4733366966247559e-03 5.5348814725875854e+00 -1.8408229351043701e+00
-2.9168844223022461e-02 1.9049128890037537e+01 0.0000000000000000e+00
ITEM: ATOMS id type xs ys zs fx fy fz
1 1 0.57133 -0.00251441 0.141147 0 0.000139236 0.000116348
2 1 0.32133 0.169182 0.141147 0 -0.000141144 0.000125885
3 1 0.229696 -0.00212371 0.280294 0 -3.24249e-05 -3.05176e-05
4 1 0.979695 0.168791 0.280294 0 3.05176e-05 -3.43323e-05
5 1 0.888127 -0.00208323 0.420233 0 0 0
6 1 0.0713303 -0.00251393 0.141148 0 0.000133514 0.000108719
7 1 0.991492 0.489046 0.0674138 0 7.82013e-05 -0.000106812
8 1 0.821331 0.169182 0.141147 0 -0.000148773 0.000123978
9 1 0.741494 0.677621 0.0674134 0 -7.82013e-05 -0.000102997
10 1 0.729697 -0.00212321 0.280294 0 -2.86102e-05 -2.86102e-05
11 1 0.638126 0.168752 0.420233 0 0 -1.90735e-06
12 1 0.546597 -0.00199491 0.560502 0 9.72748e-05 -4.95911e-05
13 1 0.296597 0.168662 0.560502 0 -0.000102997 -4.19617e-05
14 1 0.205091 -0.00194716 0.700876 0 0.000244141 -0.000177383
15 1 0.955091 0.168612 0.700876 0 -0.000226974 -0.000167847
16 1 0.863681 -0.000981926 0.841779 0 -0.000156403 -0.000160217
17 1 0.65022 0.499018 0.208674 0 -0.000160217 0.000173569
18 1 0.479695 0.16879 0.280294 0 2.86102e-05 -3.43323e-05
19 1 0.400221 0.667649 0.208674 0 0.000152588 0.000175476
20 1 0.388127 -0.0020841 0.420233 0 5.72205e-06 -1.90735e-06
21 1 0.308809 0.498054 0.349577 0 0.000236511 0.000169754
22 1 0.138127 0.168751 0.420233 0 3.8147e-06 -9.53674e-06
23 1 0.0588092 0.668614 0.349577 0 -0.000234604 0.000164032