ITEM: TIMESTEP
0
ITEM: NUMBER OF ATOMS
48
ITEM: BOX BOUNDS xy xz yz pp pp pp
-6.6993716955184937e+00 8.6109705567359924e+00 2.5110912919044495e+00
-1.0506033897399902e-02 9.6185076832771301e+00 -6.6848148703575134e+00
-2.6944518089294434e-02 1.9544072151184082e+01 3.6519104242324829e-01
ITEM: ATOMS id type xs ys zs fx fy fz
1 1 0.957125 0.165578 0.0319985 0 0 0.672354
2 1 0.516977 0.0752984 0.0528317 0 0 0.104441
3 1 0.752698 0.123911 0.656998 0 0 -0.00024271
4 1 0.0307791 0.950298 0.927832 0 0 -0.672354
5 1 0.671665 0.158632 0.802832 0 0 0.0102398
6 1 0.470927 0.040578 0.906998 0 0 -0.104441
7 1 0.111812 0.248911 0.781998 0 0 0.0140607
8 1 0.0344684 0.207245 0.406998 0 0 -0.000132799
9 1 0.31255 0.0336318 0.677832 0 0 -0.00231671
10 1 0.953435 0.241965 0.552832 0 0 0.000133157
11 1 0.876092 0.200298 0.177832 0 0 -0.0140607
12 1 0.675354 0.0822446 0.281998 0 0 0.00231671
13 1 0.316239 0.290578 0.156998 0 0 -0.0102403
14 1 0.594321 0.116965 0.427832 0 0 -3.98159e-05
15 1 0.957125 0.498911 0.0319984 0 0 0.672355
16 1 0.516977 0.408632 0.0528317 0 0 0.104441
17 1 0.752698 0.457245 0.656998 0 0 -0.000242949
18 1 0.0307791 0.283632 0.927832 0 0 -0.672354
19 1 0.671665 0.491965 0.802832 0 0 0.0102402
20 1 0.470927 0.373911 0.906998 0 0 -0.104441
21 1 0.111812 0.582245 0.781998 0 0 0.0140601
22 1 0.393583 0.332245 0.531998 0 0 4.07696e-05
23 1 0.0344684 0.540578 0.406998 0 0 -0.000132799
24 1 0.31255 0.366965 0.677832 0 0 -0.00231647
25 1 0.953435 0.575298 0.552832 0 0 0.000132799
26 1 0.235206 0.325298 0.302832 0 0 0.000242352
27 1 0.876092 0.533632 0.177832 0 0 -0.014061
28 1 0.675354 0.415578 0.281998 0 0 0.00231659
29 1 0.316239 0.623911 0.156998 0 0 -0.0102403
30 1 0.594321 0.450298 0.427832 0 0 -4.04119e-05
31 1 0.957125 0.832245 0.0319985 0 0 0.672355
32 1 0.516977 0.741965 0.0528317 0 0 0.104441
33 1 0.752698 0.790578 0.656998 0 0 -0.00024271
34 1 0.0307791 0.616965 0.927832 0 0 -0.672355
35 1 0.671665 0.825298 0.802832 0 0 0.0102401
36 1 0.470927 0.707245 0.906998 0 0 -0.104441
37 1 0.111812 0.915578 0.781998 0 0 0.0140601
38 1 0.393583 0.665578 0.531998 0 0 3.95775e-05
39 1 0.0344684 0.873911 0.406998 0 0 -0.000132561
40 1 0.31255 0.700298 0.677832 0 0 -0.00231588
41 1 0.953435 0.908632 0.552832 0 0 0.000131965
42 1 0.235206 0.658632 0.302832 0 0 0.000243068
43 1 0.876092 0.866965 0.177832 0 0 -0.0140606
44 1 0.675354 0.748911 0.281998 0 0 0.00231671
45 1 0.316239 0.957245 0.156998 0 0 -0.0102404
46 1 0.594321 0.783632 0.427832 0 0 -3.98159e-05
47 1 0.393583 0.998911 0.531998 0 0 4.00543e-05
48 1 0.235206 0.991965 0.302832 0 0 0.000242949
ITEM: TIMESTEP
1
ITEM: NUMBER OF ATOMS
48
ITEM: BOX BOUNDS xy xz yz pp pp pp
-6.6993716955184937e+00 8.6109705567359924e+00 2.5110912919044495e+00
-1.0506033897399902e-02 9.6185076832771301e+00 -6.6848148703575134e+00
-2.6944518089294434e-02 1.9544072151184082e+01 3.6519104242324829e-01
ITEM: ATOMS id type xs ys zs fx fy fz
1 1 0.962794 0.165377 0.037108 0 0 0.0941194
2 1 0.517857 0.0752671 0.0536254 0 0 0.0216472
3 1 0.752696 0.123911 0.656997 0 0 -0.0050782
4 1 0.0251101 0.9505 0.922722 0 0 -0.0941195
5 1 0.671751 0.158629 0.80291 0 0 -0.0824586
6 1 0.470046 0.0406093 0.906205 0 0 -0.0216472
7 1 0.111931 0.248907 0.782105 0 0 -0.0623969
8 1 0.0344673 0.207245 0.406997 0 0 -0.00118768
9 1 0.31253 0.0336324 0.677814 0 0 -0.0062933
10 1 0.953437 0.241965 0.552833 0 0 0.00118756
11 1 0.875973 0.200303 0.177725 0 0 0.062397
12 1 0.675373 0.0822439 0.282016 0 0 0.00629318
13 1 0.316153 0.290581 0.156921 0 0 0.0824586
14 1 0.59432 0.116965 0.427831 0 0 -0.00120747
15 1 0.962794 0.49871 0.037108 0 0 0.0941194
16 1 0.517857 0.4086 0.0536254 0 0 0.0216469
17 1 0.752696 0.457245 0.656997 0 0 -0.00507808
18 1 0.0251101 0.283833 0.922722 0 0 -0.0941192
19 1 0.671751 0.491962 0.80291 0 0 -0.082459
20 1 0.470046 0.373943 0.906205 0 0 -0.0216469
21 1 0.111931 0.58224 0.782105 0 0 -0.0623974
22 1 0.393583 0.332245 0.531999 0 0 0.00120807
23 1 0.0344673 0.540578 0.406997 0 0 -0.00118792
24 1 0.31253 0.366966 0.677814 0 0 -0.0062927
25 1 0.953437 0.575298 0.552833 0 0 0.00118744
26 1 0.235208 0.325298 0.302834 0 0 0.00507784
27 1 0.875973 0.533636 0.177725 0 0 0.0623969
28 1 0.675373 0.415577 0.282016 0 0 0.00629282
29 1 0.316153 0.623914 0.156921 0 0 0.0824589
30 1 0.59432 0.450298 0.427831 0 0 -0.00120747
31 1 0.962794 0.832043 0.037108 0 0 0.0941195
32 1 0.517857 0.741934 0.0536254 0 0 0.0216467
33 1 0.752696 0.790578 0.656997 0 0 -0.00507832
34 1 0.0251101 0.617167 0.922722 0 0 -0.0941192
35 1 0.671751 0.825295 0.80291 0 0 -0.0824584
36 1 0.470046 0.707276 0.906205 0 0 -0.021647
37 1 0.111931 0.915574 0.782105 0 0 -0.0623971
38 1 0.393583 0.665578 0.531999 0 0 0.00120771
39 1 0.0344672 0.873911 0.406997 0 0 -0.00118709
40 1 0.31253 0.700299 0.677814 0 0 -0.00629282
41 1 0.953437 0.908632 0.552833 0 0 0.00118697
42 1 0.235208 0.658632 0.302834 0 0 0.00507784
43 1 0.875973 0.866969 0.177725 0 0 0.0623969
44 1 0.675373 0.748911 0.282016 0 0 0.00629318
45 1 0.316153 0.957248 0.156921 0 0 0.0824586
46 1 0.59432 0.783632 0.427831 0 0 -0.00120747
47 1 0.393583 0.998911 0.531999 0 0 0.00120783
48 1 0.235208 0.991965 0.302834 0 0 0.00507832
ITEM: TIMESTEP
2
ITEM: NUMBER OF ATOMS
48
ITEM: BOX BOUNDS xy xz yz pp pp pp
-6.6993716955184937e+00 8.6109705567359924e+00 2.5110912919044495e+00
-1.0506033897399902e-02 9.6185076832771301e+00 -6.6848148703575134e+00
-2.6944518089294434e-02 1.9544072151184082e+01 3.6519104242324829e-01
ITEM: ATOMS id type xs ys zs fx fy fz
1 1 0.96516 0.165292 0.0392405 0 0 -0.0611976
2 1 0.518402 0.0752478 0.0541159 0 0 0.0119735
3 1 0.752568 0.123916 0.656882 0 0 -0.038047
4 1 0.0227442 0.950584 0.92059 0 0 0.0611981
5 1 0.669678 0.158702 0.801041 0 0 -0.0278038
6 1 0.469502 0.0406286 0.905714 0 0 -0.0119739
7 1 0.110362 0.248963 0.780692 0 0 -0.0268507
8 1 0.0344374 0.207246 0.406971 0 0 0.00598204
9 1 0.312372 0.0336381 0.677672 0 0 -0.0392898
10 1 0.953466 0.241964 0.55286 0 0 -0.00598192
11 1 0.877542 0.200247 0.179139 0 0 0.0268508
12 1 0.675531 0.0822383 0.282159 0 0 0.0392896
13 1 0.318226 0.290507 0.158789 0 0 0.0278037
14 1 0.59429 0.116966 0.427804 0 0 0.00742233
15 1 0.96516 0.498626 0.0392405 0 0 -0.061197
16 1 0.518402 0.408581 0.0541159 0 0 0.0119742
17 1 0.752568 0.457249 0.656882 0 0 -0.0380474
18 1 0.0227442 0.283917 0.92059 0 0 0.0611978
19 1 0.669678 0.492036 0.801041 0 0 -0.0278032
20 1 0.469502 0.373962 0.905714 0 0 -0.0119741
21 1 0.110362 0.582296 0.780692 0 0 -0.0268505
22 1 0.393614 0.332244 0.532026 0 0 -0.00742257
23 1 0.0344374 0.540579 0.406971 0 0 0.00598228
24 1 0.312372 0.366971 0.677672 0 0 -0.03929
25 1 0.953466 0.575297 0.55286 0 0 -0.0059818
26 1 0.235336 0.325294 0.302949 0 0 0.0380473
27 1 0.877542 0.53358 0.179139 0 0 0.0268506
28 1 0.675531 0.415572 0.282159 0 0 0.03929
29 1 0.318226 0.623841 0.158789 0 0 0.0278033
30 1 0.59429 0.450299 0.427804 0 0 0.00742197
31 1 0.96516 0.831959 0.0392405 0 0 -0.061198
32 1 0.518402 0.741914 0.0541159 0 0 0.0119741
33 1 0.752568 0.790583 0.656882 0 0 -0.0380471
34 1 0.0227442 0.617251 0.92059 0 0 0.061197
35 1 0.669678 0.825369 0.801041 0 0 -0.0278037
36 1 0.469502 0.707295 0.905714 0 0 -0.0119742
37 1 0.110362 0.91563 0.780692 0 0 -0.0268509
38 1 0.393614 0.665577 0.532026 0 0 -0.00742209
39 1 0.0344374 0.873912 0.406971 0 0 0.00598168
40 1 0.312372 0.700305 0.677672 0 0 -0.0392901
41 1 0.953466 0.908631 0.55286 0 0 -0.00598156
42 1 0.235336 0.658627 0.302949 0 0 0.0380476
43 1 0.877542 0.866914 0.179139 0 0 0.0268508
44 1 0.675531 0.748905 0.282159 0 0 0.0392897
45 1 0.318226 0.957174 0.158789 0 0 0.0278035
46 1 0.59429 0.783633 0.427804 0 0 0.00742221
47 1 0.393614 0.99891 0.532026 0 0 -0.00742245
48 1 0.235336 0.99196 0.302949 0 0 0.0380472
ITEM: TIMESTEP
3
ITEM: NUMBER OF ATOMS
48
ITEM: BOX BOUNDS xy xz yz pp pp pp
-6.6993716955184937e+00 8.6109705567359924e+00 2.5110912919044495e+00
-1.0506033897399902e-02 9.6185076832771301e+00 -6.6848148703575134e+00
-2.6944518089294434e-02 1.9544072151184082e+01 3.6519104242324829e-01
ITEM: ATOMS id type xs ys zs fx fy fz
1 1 0.964767 0.165306 0.0388864 0 0 0.0127857
2 1 0.518937 0.0752287 0.0545989 0 0 0.00493872
3 1 0.751595 0.123951 0.656005 0 0 -0.0301455
4 1 0.0231371 0.95057 0.920944 0 0 -0.0127859
5 1 0.668065 0.15876 0.799587 0 0 0.0289077
6 1 0.468966 0.0406476 0.905231 0 0 -0.0049386
7 1 0.109002 0.249011 0.779465 0 0 0.0153368
8 1 0.0345676 0.207241 0.407088 0 0 0.0175726
9 1 0.311356 0.0336742 0.676755 0 0 -0.0280974
10 1 0.953336 0.241969 0.552742 0 0 -0.0175728
11 1 0.878902 0.200199 0.180365 0 0 -0.0153366
12 1 0.676548 0.0822022 0.283075 0 0 0.028098
13 1 0.319839 0.29045 0.160243 0 0 -0.0289073
14 1 0.594455 0.11696 0.427952 0 0 0.0199616
15 1 0.964767 0.49864 0.0388864 0 0 0.0127848
16 1 0.518937 0.408562 0.0545989 0 0 0.00493836
17 1 0.751595 0.457284 0.656005 0 0 -0.0301455
18 1 0.0231371 0.283903 0.920944 0 0 -0.0127859
19 1 0.668065 0.492093 0.799587 0 0 0.0289073
20 1 0.468966 0.373981 0.905231 0 0 -0.00493884
21 1 0.109002 0.582345 0.779465 0 0 0.0153366
22 1 0.393449 0.332249 0.531878 0 0 -0.0199623
23 1 0.0345676 0.540574 0.407088 0 0 0.0175726
24 1 0.311356 0.367008 0.676755 0 0 -0.0280979
25 1 0.953336 0.575302 0.552742 0 0 -0.0175726
26 1 0.236309 0.325259 0.303825 0 0 0.0301458
27 1 0.878902 0.533532 0.180365 0 0 -0.0153365
28 1 0.676548 0.415536 0.283075 0 0 0.0280979
29 1 0.319839 0.623783 0.160243 0 0 -0.0289075
30 1 0.594455 0.450294 0.427952 0 0 0.0199621
31 1 0.964767 0.831973 0.0388864 0 0 0.012786
32 1 0.518937 0.741895 0.0545989 0 0 0.0049386
33 1 0.751595 0.790617 0.656005 0 0 -0.0301455
34 1 0.0231371 0.617237 0.920944 0 0 -0.012785
35 1 0.668065 0.825426 0.799587 0 0 0.0289069
36 1 0.468966 0.707314 0.905231 0 0 -0.00493824
37 1 0.109002 0.915678 0.779465 0 0 0.0153369
38 1 0.393449 0.665583 0.531878 0 0 -0.0199621
39 1 0.0345676 0.873908 0.407088 0 0 0.0175724
40 1 0.311356 0.700341 0.676755 0 0 -0.0280975
41 1 0.953336 0.908635 0.552742 0 0 -0.0175723
42 1 0.236309 0.658593 0.303825 0 0 0.0301456
43 1 0.878902 0.866865 0.180365 0 0 -0.0153366
44 1 0.676548 0.748869 0.283075 0 0 0.028098
45 1 0.319839 0.957117 0.160243 0 0 -0.0289075
46 1 0.594455 0.783627 0.427952 0 0 0.019962
47 1 0.393449 0.998916 0.531878 0 0 -0.0199622
48 1 0.236309 0.991926 0.303825 0 0 0.0301453
ITEM: TIMESTEP
4
ITEM: NUMBER OF ATOMS
48
ITEM: BOX BOUNDS xy xz yz pp pp pp
-6.6993716955184937e+00 8.6109705567359924e+00 2.5110912919044495e+00
-1.0506033897399902e-02 9.6185076832771301e+00 -6.6848148703575134e+00
-2.6944518089294434e-02 1.9544072151184082e+01 3.6519104242324829e-01
ITEM: ATOMS id type xs ys zs fx fy fz
1 1 0.964907 0.165301 0.0390125 0 0 0.00195551
2 1 0.519207 0.0752192 0.0548418 0 0 -0.0116593
3 1 0.75067 0.123983 0.655171 0 0 0.00197327
4 1 0.0229972 0.950575 0.920818 0 0 -0.00195551
5 1 0.668154 0.158756 0.799668 0 0 -0.000551343
6 1 0.468697 0.0406572 0.904988 0 0 0.0116593
7 1 0.108891 0.249015 0.779366 0 0 -0.00370145
8 1 0.03497 0.207227 0.407451 0 0 0.00726485
9 1 0.310459 0.0337061 0.675947 0 0 0.00436187
10 1 0.952934 0.241983 0.55238 0 0 -0.00726461
11 1 0.879013 0.200195 0.180464 0 0 0.00370121
12 1 0.677445 0.0821703 0.283883 0 0 -0.00436234
13 1 0.319749 0.290453 0.160162 0 0 0.000551462
14 1 0.594917 0.116944 0.428369 0 0 0.00891244
15 1 0.964907 0.498635 0.0390125 0 0 0.00195575
16 1 0.519207 0.408552 0.0548418 0 0 -0.0116594
17 1 0.75067 0.457317 0.655171 0 0 0.00197351
18 1 0.0229972 0.283908 0.920818 0 0 -0.00195575
19 1 0.668154 0.49209 0.799668 0 0 -0.000551462
20 1 0.468697 0.373991 0.904988 0 0 0.0116593
21 1 0.108891 0.582348 0.779366 0 0 -0.00370121
22 1 0.392987 0.332266 0.531461 0 0 -0.00891221
23 1 0.03497 0.54056 0.407451 0 0 0.00726438
24 1 0.310459 0.367039 0.675947 0 0 0.00436175
25 1 0.952934 0.575316 0.55238 0 0 -0.00726473
26 1 0.237234 0.325226 0.304659 0 0 -0.00197315
27 1 0.879013 0.533528 0.180464 0 0 0.00370157
28 1 0.677445 0.415504 0.283883 0 0 -0.00436163
29 1 0.319749 0.623787 0.160162 0 0 0.000551462
30 1 0.594917 0.450277 0.428369 0 0 0.00891256
31 1 0.964907 0.831968 0.0390125 0 0 0.00195575
32 1 0.519207 0.741886 0.0548418 0 0 -0.0116593
33 1 0.75067 0.79065 0.655171 0 0 0.00197327
34 1 0.0229972 0.617242 0.920818 0 0 -0.00195611
35 1 0.668154 0.825423 0.799668 0 0 -0.000551105
36 1 0.468697 0.707324 0.904988 0 0 0.0116591
37 1 0.108891 0.915682 0.779366 0 0 -0.00370121
38 1 0.392987 0.665599 0.531461 0 0 -0.00891244
39 1 0.03497 0.873893 0.407451 0 0 0.00726497
40 1 0.310459 0.700373 0.675947 0 0 0.00436175
41 1 0.952934 0.90865 0.55238 0 0 -0.00726461
42 1 0.237234 0.65856 0.304659 0 0 -0.00197363
43 1 0.879013 0.866861 0.180464 0 0 0.00370145
44 1 0.677445 0.748837 0.283883 0 0 -0.00436163
45 1 0.319749 0.95712 0.160162 0 0 0.000551701
46 1 0.594917 0.783611 0.428369 0 0 0.00891244
47 1 0.392987 0.998933 0.531461 0 0 -0.0089128
48 1 0.237234 0.991893 0.304659 0 0 -0.00197375
ITEM: TIMESTEP
5
ITEM: NUMBER OF ATOMS
48
ITEM: BOX BOUNDS xy xz yz pp pp pp
-6.6993716955184937e+00 8.6109705567359924e+00 2.5110912919044495e+00
-1.0506033897399902e-02 9.6185076832771301e+00 -6.6848148703575134e+00
-2.6944518089294434e-02 1.9544072151184082e+01 3.6519104242324829e-01
ITEM: ATOMS id type xs ys zs fx fy fz
1 1 0.964941 0.1653 0.0390434 0 0 7.10487e-05
2 1 0.519061 0.0752243 0.0547105 0 0 -0.00115919
3 1 0.750648 0.123984 0.655151 0 0 -0.000300288
4 1 0.022963 0.950576 0.920787 0 0 -7.09295e-05
5 1 0.668152 0.158757 0.799665 0 0 -0.000105977
6 1 0.468842 0.040652 0.90512 0 0 0.00115907
7 1 0.108835 0.249017 0.779315 0 0 -0.000223279
8 1 0.0350909 0.207223 0.40756 0 0 -0.00105095
9 1 0.310471 0.0337056 0.675958 0 0 0.000772119
10 1 0.952813 0.241987 0.552271 0 0 0.00105095
11 1 0.879069 0.200193 0.180516 0 0 0.000222802
12 1 0.677432 0.0821708 0.283872 0 0 -0.000772238
13 1 0.319752 0.290453 0.160165 0 0 0.000105739
14 1 0.595064 0.116939 0.428501 0 0 -0.000234723
15 1 0.964941 0.498634 0.0390434 0 0 7.05719e-05
16 1 0.519061 0.408558 0.0547105 0 0 -0.00115919
17 1 0.750648 0.457317 0.655151 0 0 -0.000300169
18 1 0.0229629 0.283909 0.920787 0 0 -7.08103e-05
19 1 0.668152 0.49209 0.799665 0 0 -0.000105739
20 1 0.468842 0.373985 0.90512 0 0 0.00115931
21 1 0.108835 0.58235 0.779315 0 0 -0.000223041
22 1 0.39284 0.332271 0.531329 0 0 0.0002352
23 1 0.0350909 0.540556 0.40756 0 0 -0.00105059
24 1 0.310471 0.367039 0.675958 0 0 0.000772357
25 1 0.952813 0.575321 0.552271 0 0 0.00105095
26 1 0.237256 0.325226 0.304679 0 0 0.00030005
27 1 0.879069 0.533526 0.180516 0 0 0.000222921
28 1 0.677432 0.415504 0.283872 0 0 -0.000772595
29 1 0.319752 0.623786 0.160165 0 0 0.000105977
30 1 0.595064 0.450272 0.428501 0 0 -0.000235081
31 1 0.964941 0.831967 0.0390434 0 0 7.08103e-05
32 1 0.519061 0.741891 0.0547105 0 0 -0.00115919
33 1 0.750648 0.790651 0.655151 0 0 -0.000300169
34 1 0.0229629 0.617243 0.920787 0 0 -7.06911e-05
35 1 0.668152 0.825423 0.799665 0 0 -0.000105739
36 1 0.468842 0.707319 0.90512 0 0 0.00115919
37 1 0.108835 0.915684 0.779315 0 0 -0.000222921
38 1 0.39284 0.665604 0.531329 0 0 0.000234962
39 1 0.0350909 0.873889 0.40756 0 0 -0.00105095
40 1 0.310471 0.700372 0.675958 0 0 0.000772476
41 1 0.952813 0.908654 0.552271 0 0 0.00105071
42 1 0.237256 0.658559 0.304679 0 0 0.000300288
43 1 0.879069 0.866859 0.180516 0 0 0.000223041
44 1 0.677432 0.748837 0.283872 0 0 -0.000772595
45 1 0.319752 0.95712 0.160165 0 0 0.000105977
46 1 0.595064 0.783605 0.428501 0 0 -0.000235438
47 1 0.39284 0.998938 0.531329 0 0 0.000235677
48 1 0.237256 0.991892 0.304679 0 0 0.000300288
ITEM: TIMESTEP
6
ITEM: NUMBER OF ATOMS
48
ITEM: BOX BOUNDS xy xz yz pp pp pp
-6.6993716955184937e+00 8.6109705567359924e+00 2.5110912919044495e+00
-1.0506033897399902e-02 9.6185076832771301e+00 -6.6848148703575134e+00
-2.6944518089294434e-02 1.9544072151184082e+01 3.6519104242324829e-01
ITEM: ATOMS id type xs ys zs fx fy fz
1 1 0.964942 0.1653 0.0390444 0 0 7.58171e-05
2 1 0.519042 0.075225 0.0546928 0 0 0.000245094
3 1 0.750643 0.123984 0.655147 0 0 7.71284e-05
4 1 0.0229618 0.950576 0.920786 0 0 -7.61747e-05
5 1 0.66815 0.158757 0.799664 0 0 0.000256062
6 1 0.468862 0.0406513 0.905137 0 0 -0.000245094
7 1 0.108831 0.249017 0.779311 0 0 0.000216961
8 1 0.0350731 0.207223 0.407544 0 0 -0.000126719
9 1 0.310484 0.0337051 0.67597 0 0 0.00036943
10 1 0.952831 0.241987 0.552287 0 0 0.000127077
11 1 0.879073 0.200192 0.180519 0 0 -0.000216961
12 1 0.677419 0.0821712 0.28386 0 0 -0.000369072
13 1 0.319754 0.290453 0.160166 0 0 -0.000256062
14 1 0.59506 0.116939 0.428498 0 0 0.000159502
15 1 0.964942 0.498634 0.0390444 0 0 7.62939e-05
16 1 0.519042 0.408558 0.0546928 0 0 0.000245452
17 1 0.750643 0.457318 0.655147 0 0 7.71284e-05
18 1 0.0229617 0.28391 0.920786 0 0 -7.60555e-05
19 1 0.66815 0.49209 0.799664 0 0 0.000255585
20 1 0.468862 0.373985 0.905137 0 0 -0.000245094
21 1 0.108831 0.582351 0.779311 0 0 0.00021708
22 1 0.392844 0.332271 0.531332 0 0 -0.000160217
23 1 0.0350731 0.540556 0.407544 0 0 -0.000126958
24 1 0.310484 0.367038 0.67597 0 0 0.000369191
25 1 0.952831 0.57532 0.552287 0 0 0.000126958
26 1 0.237261 0.325225 0.304684 0 0 -7.70092e-05
27 1 0.879073 0.533526 0.180519 0 0 -0.000217199
28 1 0.677419 0.415505 0.28386 0 0 -0.000368834
29 1 0.319754 0.623786 0.160166 0 0 -0.000256062
30 1 0.59506 0.450272 0.428498 0 0 0.000159979
31 1 0.964942 0.831967 0.0390444 0 0 7.60555e-05
32 1 0.519042 0.741892 0.0546928 0 0 0.000245452
33 1 0.750643 0.790651 0.655147 0 0 7.71284e-05
34 1 0.0229618 0.617243 0.920786 0 0 -7.60555e-05
35 1 0.66815 0.825423 0.799664 0 0 0.000255823
36 1 0.468862 0.707318 0.905137 0 0 -0.000245214
37 1 0.108831 0.915684 0.779311 0 0 0.00021708
38 1 0.392844 0.665604 0.531332 0 0 -0.000159979
39 1 0.0350731 0.87389 0.407544 0 0 -0.000126719
40 1 0.310484 0.700372 0.67597 0 0 0.000368953
41 1 0.952831 0.908653 0.552287 0 0 0.000126839
42 1 0.237261 0.658559 0.304684 0 0 -7.71284e-05
43 1 0.879073 0.866859 0.180519 0 0 -0.000217319
44 1 0.677419 0.748838 0.28386 0 0 -0.000368834
45 1 0.319754 0.95712 0.160166 0 0 -0.000256181
46 1 0.59506 0.783605 0.428498 0 0 0.000160336
47 1 0.392844 0.998938 0.531332 0 0 -0.000160336
48 1 0.237261 0.991892 0.304684 0 0 -7.71284e-05
ITEM: TIMESTEP
7
ITEM: NUMBER OF ATOMS
48
ITEM: BOX BOUNDS xy xz yz pp pp pp
-6.6993716955184937e+00 8.6109705567359924e+00 2.5110912919044495e+00
-1.0506033897399902e-02 9.6185076832771301e+00 -6.6848148703575134e+00
-2.6944518089294434e-02 1.9544072151184082e+01 3.6519104242324829e-01
ITEM: ATOMS id type xs ys zs fx fy fz
1 1 0.964944 0.1653 0.0390463 0 0 -0.00025034
2 1 0.519045 0.0752249 0.0546953 0 0 -6.53267e-05
3 1 0.750644 0.123984 0.655148 0 0 0.000145316
4 1 0.0229597 0.950576 0.920784 0 0 0.000250697
5 1 0.668156 0.158756 0.799669 0 0 7.42674e-05
6 1 0.468859 0.0406514 0.905135 0 0 6.50883e-05
7 1 0.108835 0.249017 0.779315 0 0 4.8399e-05
8 1 0.0350672 0.207223 0.407538 0 0 1.23978e-05
9 1 0.310495 0.0337048 0.67598 0 0 1.2517e-05
10 1 0.952837 0.241986 0.552292 0 0 -1.3113e-05
11 1 0.879068 0.200193 0.180515 0 0 -4.80413e-05
12 1 0.677408 0.0821716 0.28385 0 0 -1.2517e-05
13 1 0.319748 0.290453 0.160161 0 0 -7.42674e-05
14 1 0.595063 0.116939 0.428501 0 0 -6.02007e-05
15 1 0.964944 0.498633 0.0390463 0 0 -0.000250816
16 1 0.519044 0.408558 0.0546953 0 0 -6.55651e-05
17 1 0.750644 0.457318 0.655148 0 0 0.000145555
18 1 0.0229597 0.28391 0.920784 0 0 0.000250578
19 1 0.668156 0.49209 0.799669 0 0 7.47442e-05
20 1 0.468859 0.373985 0.905135 0 0 6.50883e-05
21 1 0.108835 0.58235 0.779315 0 0 4.79221e-05
22 1 0.392841 0.332271 0.53133 0 0 6.06775e-05
23 1 0.0350672 0.540557 0.407538 0 0 1.27554e-05
24 1 0.310495 0.367038 0.67598 0 0 1.26362e-05
25 1 0.952837 0.57532 0.552292 0 0 -1.27554e-05
26 1 0.23726 0.325225 0.304683 0 0 -0.000145197
27 1 0.879068 0.533526 0.180515 0 0 -4.78029e-05
28 1 0.677408 0.415505 0.28385 0 0 -1.27554e-05
29 1 0.319748 0.623787 0.160161 0 0 -7.41482e-05
30 1 0.595063 0.450272 0.428501 0 0 -6.04391e-05
31 1 0.964944 0.831967 0.0390463 0 0 -0.000250936
32 1 0.519044 0.741892 0.0546953 0 0 -6.56843e-05
33 1 0.750644 0.790651 0.655148 0 0 0.000145555
34 1 0.0229597 0.617243 0.920784 0 0 0.000250459
35 1 0.668156 0.825423 0.799669 0 0 7.42674e-05
36 1 0.468859 0.707318 0.905135 0 0 6.54459e-05
37 1 0.108835 0.915684 0.779315 0 0 4.79221e-05
38 1 0.392841 0.665604 0.53133 0 0 6.06775e-05
39 1 0.0350672 0.87389 0.407538 0 0 1.22786e-05
40 1 0.310495 0.700371 0.67598 0 0 1.26362e-05
41 1 0.952837 0.908653 0.552292 0 0 -1.27554e-05
42 1 0.23726 0.658559 0.304683 0 0 -0.000145316
43 1 0.879068 0.866859 0.180515 0 0 -4.75645e-05
44 1 0.677408 0.748838 0.28385 0 0 -1.27554e-05
45 1 0.319748 0.95712 0.160161 0 0 -7.41482e-05
46 1 0.595063 0.783605 0.428501 0 0 -6.05583e-05
47 1 0.392841 0.998938 0.53133 0 0 6.04391e-05
48 1 0.23726 0.991892 0.304683 0 0 -0.000145316
ITEM: TIMESTEP
8
ITEM: NUMBER OF ATOMS
48
ITEM: BOX BOUNDS xy xz yz pp pp pp
-6.6993716955184937e+00 8.6109705567359924e+00 2.5110912919044495e+00
-1.0506033897399902e-02 9.6185076832771301e+00 -6.6848148703575134e+00
-2.6944518089294434e-02 1.9544072151184082e+01 3.6519104242324829e-01
ITEM: ATOMS id type xs ys zs fx fy fz
1 1 0.964939 0.1653 0.0390415 0 0 0.000111103
2 1 0.519044 0.075225 0.0546946 0 0 -6.18696e-05
3 1 0.750648 0.123984 0.655151 0 0 6.05583e-05
4 1 0.0229651 0.950576 0.920789 0 0 -0.000111103
5 1 0.668159 0.158756 0.799672 0 0 7.79629e-05
6 1 0.46886 0.0406514 0.905136 0 0 6.18696e-05
7 1 0.108838 0.249017 0.779318 0 0 8.44002e-05
8 1 0.0350659 0.207223 0.407537 0 0 2.2769e-05
9 1 0.310499 0.0337046 0.675983 0 0 -4.95911e-05
10 1 0.952838 0.241986 0.552293 0 0 -2.2769e-05
11 1 0.879066 0.200193 0.180513 0 0 -8.47578e-05
12 1 0.677405 0.0821717 0.283847 0 0 4.8995e-05
13 1 0.319745 0.290453 0.160158 0 0 -7.77245e-05
14 1 0.595062 0.116939 0.4285 0 0 -9.38177e-05
15 1 0.964939 0.498634 0.0390414 0 0 0.000111461
16 1 0.519044 0.408558 0.0546946 0 0 -6.22272e-05
17 1 0.750648 0.457317 0.655151 0 0 6.05583e-05
18 1 0.0229651 0.283909 0.920789 0 0 -0.000111222
19 1 0.668159 0.49209 0.799672 0 0 7.79629e-05
20 1 0.46886 0.373985 0.905136 0 0 6.22272e-05
21 1 0.108838 0.58235 0.779318 0 0 8.45194e-05
22 1 0.392841 0.332271 0.53133 0 0 9.41753e-05
23 1 0.0350659 0.540557 0.407537 0 0 2.2769e-05
24 1 0.310499 0.367038 0.675983 0 0 -4.93526e-05
25 1 0.952838 0.57532 0.552293 0 0 -2.28882e-05
26 1 0.237256 0.325226 0.304679 0 0 -6.06775e-05
27 1 0.879066 0.533526 0.180513 0 0 -8.47578e-05
28 1 0.677405 0.415505 0.283847 0 0 4.91142e-05
29 1 0.319745 0.623787 0.160158 0 0 -7.79629e-05
30 1 0.595062 0.450272 0.4285 0 0 -9.39369e-05
31 1 0.964939 0.831967 0.0390414 0 0 0.00011158
32 1 0.519044 0.741892 0.0546946 0 0 -6.18696e-05
33 1 0.750648 0.790651 0.655151 0 0 6.00815e-05
34 1 0.0229651 0.617243 0.920789 0 0 -0.000111222
35 1 0.668159 0.825423 0.799672 0 0 7.80821e-05
36 1 0.46886 0.707318 0.905136 0 0 6.18696e-05
37 1 0.108838 0.915684 0.779318 0 0 8.46386e-05
38 1 0.392841 0.665604 0.53133 0 0 9.38177e-05
39 1 0.0350659 0.87389 0.407537 0 0 2.32458e-05
40 1 0.310499 0.700371 0.675983 0 0 -4.8995e-05
41 1 0.952838 0.908653 0.552293 0 0 -2.25306e-05
42 1 0.237256 0.658559 0.304679 0 0 -6.06775e-05
43 1 0.879066 0.866859 0.180513 0 0 -8.4877e-05
44 1 0.677405 0.748838 0.283847 0 0 4.8995e-05
45 1 0.319745 0.95712 0.160158 0 0 -7.78437e-05
46 1 0.595062 0.783605 0.4285 0 0 -9.40561e-05
47 1 0.392841 0.998938 0.53133 0 0 9.42945e-05
48 1 0.237256 0.991892 0.304679 0 0 -6.03199e-05
ITEM: TIMESTEP
9
ITEM: NUMBER OF ATOMS
48
ITEM: BOX BOUNDS xy xz yz pp pp pp
-6.6993716955184937e+00 8.6109705567359924e+00 2.5110912919044495e+00
-1.0506033897399902e-02 9.6185076832771301e+00 -6.6848148703575134e+00
-2.6944518089294434e-02 1.9544072151184082e+01 3.6519104242324829e-01
ITEM: ATOMS id type xs ys zs fx fy fz
1 1 0.964939 0.1653 0.0390417 0 0 8.34465e-06
2 1 0.519042 0.075225 0.054693 0 0 -3.57628e-06
3 1 0.750651 0.123984 0.655154 0 0 2.13385e-05
4 1 0.0229649 0.950576 0.920789 0 0 -8.9407e-06
5 1 0.668162 0.158756 0.799675 0 0 -3.31402e-05
6 1 0.468862 0.0406513 0.905137 0 0 4.17233e-06
7 1 0.108841 0.249017 0.77932 0 0 3.09944e-06
8 1 0.0350658 0.207223 0.407537 0 0 2.45571e-05
9 1 0.310499 0.0337046 0.675983 0 0 2.65837e-05
10 1 0.952838 0.241986 0.552293 0 0 -2.39611e-05
11 1 0.879063 0.200193 0.18051 0 0 -3.21865e-06
12 1 0.677405 0.0821717 0.283847 0 0 -2.61068e-05
13 1 0.319741 0.290453 0.160155 0 0 3.27826e-05
14 1 0.59506 0.116939 0.428498 0 0 -7.39098e-06
15 1 0.964939 0.498634 0.0390417 0 0 8.58307e-06
16 1 0.519042 0.408558 0.054693 0 0 -3.93391e-06
17 1 0.750651 0.457317 0.655154 0 0 2.13385e-05
18 1 0.0229648 0.283909 0.920789 0 0 -8.46386e-06
19 1 0.668162 0.49209 0.799675 0 0 -3.29018e-05
20 1 0.468862 0.373985 0.905137 0 0 3.57628e-06
21 1 0.108841 0.58235 0.77932 0 0 3.57628e-06
22 1 0.392844 0.332271 0.531332 0 0 7.39098e-06
23 1 0.0350658 0.540557 0.407537 0 0 2.40803e-05
24 1 0.310499 0.367038 0.675983 0 0 2.61068e-05
25 1 0.952838 0.57532 0.552293 0 0 -2.39611e-05
26 1 0.237253 0.325226 0.304676 0 0 -2.15769e-05
27 1 0.879063 0.533526 0.18051 0 0 -3.33786e-06
28 1 0.677405 0.415505 0.283847 0 0 -2.6226e-05
29 1 0.319741 0.623787 0.160155 0 0 3.27826e-05
30 1 0.59506 0.450272 0.428498 0 0 -7.27177e-06
31 1 0.964939 0.831967 0.0390417 0 0 9.05991e-06
32 1 0.519042 0.741892 0.054693 0 0 -3.57628e-06
33 1 0.750651 0.790651 0.655154 0 0 2.14577e-05
34 1 0.0229648 0.617243 0.920789 0 0 -8.58307e-06
35 1 0.668162 0.825423 0.799675 0 0 -3.3021e-05
36 1 0.468862 0.707318 0.905137 0 0 3.8147e-06
37 1 0.108841 0.915684 0.77932 0 0 3.57628e-06
38 1 0.392844 0.665604 0.531332 0 0 7.15256e-06
39 1 0.0350658 0.87389 0.407537 0 0 2.39611e-05
40 1 0.310499 0.700371 0.675983 0 0 2.59876e-05
41 1 0.952838 0.908653 0.552293 0 0 -2.43187e-05
42 1 0.237253 0.658559 0.304676 0 0 -2.14577e-05
43 1 0.879063 0.866859 0.18051 0 0 -3.57628e-06
44 1 0.677405 0.748838 0.283847 0 0 -2.61068e-05
45 1 0.319741 0.95712 0.160155 0 0 3.29018e-05
46 1 0.59506 0.783605 0.428498 0 0 -7.39098e-06
47 1 0.392844 0.998938 0.531332 0 0 7.39098e-06
48 1 0.237253 0.991892 0.304676 0 0 -2.15769e-05
ITEM: TIMESTEP
10
ITEM: NUMBER OF ATOMS
48
ITEM: BOX BOUNDS xy xz yz pp pp pp
-6.6993716955184937e+00 8.6109705567359924e+00 2.5110912919044495e+00
-1.0506033897399902e-02 9.6185076832771301e+00 -6.6848148703575134e+00
-2.6944518089294434e-02 1.9544072151184082e+01 3.6519104242324829e-01
ITEM: ATOMS id type xs ys zs fx fy fz
1 1 0.964939 0.1653 0.0390418 0 0 -1.3113e-06
2 1 0.519042 0.075225 0.0546929 0 0 6.55651e-06
3 1 0.750651 0.123984 0.655154 0 0 -2.5034e-06
4 1 0.0229647 0.950576 0.920788 0 0 1.54972e-06
5 1 0.668162 0.158756 0.799675 0 0 -3.57628e-06
6 1 0.468862 0.0406513 0.905137 0 0 -6.55651e-06
7 1 0.108841 0.249017 0.779321 0 0 4.17233e-06
8 1 0.0350663 0.207223 0.407537 0 0 -4.41074e-06
9 1 0.3105 0.0337046 0.675984 0 0 -4.76837e-07
10 1 0.952838 0.241986 0.552293 0 0 4.52995e-06
11 1 0.879063 0.200193 0.18051 0 0 -4.17233e-06
12 1 0.677404 0.0821718 0.283847 0 0 5.96046e-07
13 1 0.319742 0.290453 0.160155 0 0 3.57628e-06
14 1 0.59506 0.116939 0.428498 0 0 -8.58307e-06
15 1 0.964939 0.498634 0.0390418 0 0 -1.54972e-06
16 1 0.519042 0.408558 0.0546929 0 0 6.67572e-06
17 1 0.750651 0.457317 0.655154 0 0 -2.98023e-06
18 1 0.0229647 0.283909 0.920788 0 0 1.3113e-06
19 1 0.668162 0.49209 0.799675 0 0 -4.05312e-06
20 1 0.468862 0.373985 0.905137 0 0 -6.91414e-06
21 1 0.108841 0.58235 0.779321 0 0 4.29153e-06
22 1 0.392844 0.332271 0.531332 0 0 8.34465e-06
23 1 0.0350662 0.540557 0.407537 0 0 -4.52995e-06
24 1 0.3105 0.367038 0.675984 0 0 -1.19209e-07
25 1 0.952838 0.57532 0.552293 0 0 4.17233e-06
26 1 0.237252 0.325226 0.304676 0 0 2.86102e-06
27 1 0.879063 0.533526 0.18051 0 0 -4.05312e-06
28 1 0.677404 0.415505 0.283847 0 0 4.76837e-07
29 1 0.319742 0.623787 0.160155 0 0 3.8147e-06
30 1 0.59506 0.450272 0.428498 0 0 -8.70228e-06
31 1 0.964939 0.831967 0.0390418 0 0 -1.54972e-06
32 1 0.519042 0.741892 0.0546929 0 0 6.55651e-06
33 1 0.750651 0.790651 0.655154 0 0 -2.38419e-06
34 1 0.0229647 0.617243 0.920788 0 0 1.78814e-06
35 1 0.668162 0.825423 0.799675 0 0 -3.93391e-06
36 1 0.468862 0.707318 0.905137 0 0 -6.55651e-06
37 1 0.108841 0.915684 0.779321 0 0 4.17233e-06
38 1 0.392844 0.665604 0.531332 0 0 8.58307e-06
39 1 0.0350663 0.87389 0.407537 0 0 -4.41074e-06
40 1 0.3105 0.700371 0.675984 0 0 -2.38419e-07
41 1 0.952838 0.908653 0.552293 0 0 4.29153e-06
42 1 0.237252 0.658559 0.304676 0 0 2.74181e-06
43 1 0.879063 0.866859 0.18051 0 0 -4.17233e-06
44 1 0.677404 0.748838 0.283847 0 0 3.57628e-07
45 1 0.319742 0.95712 0.160155 0 0 3.69549e-06
46 1 0.59506 0.783605 0.428498 0 0 -8.34465e-06
47 1 0.392844 0.998938 0.531332 0 0 8.22544e-06
48 1 0.237252 0.991892 0.304676 0 0 2.74181e-06
ITEM: TIMESTEP
11
ITEM: NUMBER OF ATOMS
48
ITEM: BOX BOUNDS xy xz yz pp pp pp
-6.6993716955184937e+00 8.6109705567359924e+00 2.5110912919044495e+00
-1.0506033897399902e-02 9.6185076832771301e+00 -6.6848148703575134e+00
-2.6944518089294434e-02 1.9544072151184082e+01 3.6519104242324829e-01
ITEM: ATOMS id type xs ys zs fx fy fz
1 1 0.964939 0.1653 0.0390418 0 0 0
2 1 0.519042 0.075225 0.054693 0 0 -5.96046e-07
3 1 0.750651 0.123984 0.655154 0 0 -2.38419e-07
4 1 0.0229647 0.950576 0.920788 0 0 2.38419e-07
5 1 0.668162 0.158756 0.799675 0 0 0
6 1 0.468862 0.0406513 0.905137 0 0 3.57628e-07
7 1 0.108841 0.249017 0.779321 0 0 -2.38419e-07
8 1 0.0350662 0.207223 0.407537 0 0 1.19209e-07
9 1 0.3105 0.0337046 0.675984 0 0 -4.76837e-07
10 1 0.952838 0.241986 0.552293 0 0 -1.19209e-07
11 1 0.879063 0.200193 0.18051 0 0 4.76837e-07
12 1 0.677404 0.0821718 0.283847 0 0 2.38419e-07
13 1 0.319742 0.290453 0.160156 0 0 3.57628e-07
14 1 0.59506 0.116939 0.428498 0 0 -7.15256e-07
15 1 0.964939 0.498634 0.0390418 0 0 -2.38419e-07
16 1 0.519042 0.408558 0.054693 0 0 -2.38419e-07
17 1 0.750651 0.457317 0.655154 0 0 -1.19209e-07
18 1 0.0229647 0.283909 0.920788 0 0 -1.19209e-07
19 1 0.668162 0.49209 0.799675 0 0 -1.19209e-07
20 1 0.468862 0.373985 0.905137 0 0 5.96046e-07
21 1 0.108841 0.58235 0.779321 0 0 -3.57628e-07