ITEM: TIMESTEP
0
ITEM: NUMBER OF ATOMS
56
ITEM: BOX BOUNDS xy xz yz pp pp pp
-1.7529641985893250e+00 1.2206987559795380e+01 -4.7683715820312500e-07
-7.5370073318481445e-03 5.5339480042457581e+00 -1.7310760021209717e+00
-3.2569408416748047e-02 1.9052529454231262e+01 2.8610229492187500e-06
ITEM: ATOMS id type xs ys zs fx fy fz
1 1 0.568308 1 0.132369 0 0.0186176 0.613186
2 1 0.318308 0.166667 0.132369 0 -0.0186177 0.613186
3 1 0.225424 1 0.275226 0 0.00166094 -0.00293469
4 1 0.975424 0.166667 0.275226 0 -0.00166118 -0.00293493
5 1 0.882542 5.00995e-07 0.418084 0 -0.000209332 0.00082171
6 1 0.0683078 1 0.132369 0 0.0186177 0.613186
7 1 0.98975 0.5 0.0609408 0 -0.0643584 0.626663
8 1 0.818308 0.166667 0.132369 0 -0.0186179 0.613187
9 1 0.73975 0.666667 0.0609408 0 0.0643588 0.626663
10 1 0.725424 1 0.275226 0 0.00166118 -0.00293517
11 1 0.632542 0.166667 0.418084 0 0.000209808 0.000822186
12 1 0.539661 5.53965e-07 0.560941 0 -2.59876e-05 -0.000158787
13 1 0.289661 0.166667 0.560941 0 2.61068e-05 -0.000159025
14 1 0.196779 1.60387e-07 0.703798 0 -0.000402808 -0.00148785
15 1 0.946779 0.166667 0.703798 0 0.000403404 -0.00148749
16 1 0.853896 1 0.846655 0 0.00610268 0.00126684
17 1 0.646866 0.5 0.203798 0 0.00610304 -0.00126672
18 1 0.475424 0.166667 0.275226 0 -0.00166106 -0.00293493
19 1 0.396866 0.666667 0.203798 0 -0.00610209 -0.00126624
20 1 0.382542 5.02326e-07 0.418084 0 -0.000209451 0.00082159
21 1 0.303983 0.5 0.346655 0 -0.000403285 0.00148749
22 1 0.132542 0.166667 0.418084 0 0.000209808 0.000821948
23 1 0.0539834 0.666667 0.346655 0 0.000402808 0.00148761
24 1 0.0396609 5.42012e-07 0.560941 0 -2.55108e-05 -0.000159144
25 1 0.961102 0.500001 0.489512 0 -2.6226e-05 0.000159383
26 1 0.789661 0.166667 0.560941 0 2.6226e-05 -0.000159979
27 1 0.711102 0.666667 0.489512 0 2.57492e-05 0.000159264
28 1 0.48975 0.5 0.0609408 0 -0.0643586 0.626663
29 1 0.23975 0.666667 0.0609408 0 0.0643581 0.626663
30 1 0.146866 0.5 0.203798 0 0.00610292 -0.00126696
31 1 0.896866 0.666667 0.203798 0 -0.00610244 -0.00126636
32 1 0.803983 0.5 0.346655 0 -0.000403166 0.00148761
33 1 0.603896 0.166667 0.846655 0 -0.00610328 0.00126708
34 1 0.511013 1 0.989512 0 -0.0643585 -0.626664
35 1 0.261013 0.166667 0.989512 0 0.0643584 -0.626663
36 1 0.696779 1.92026e-07 0.703798 0 -0.000402689 -0.00148773
37 1 0.61822 0.500001 0.632369 0 -0.000210047 -0.000821948
38 1 0.446779 0.166667 0.703798 0 0.000403404 -0.00148797
39 1 0.36822 0.666667 0.632369 0 0.000209332 -0.000821948
40 1 0.353896 1 0.846655 0 0.00610256 0.00126719
41 1 0.275338 0.5 0.775226 0 0.0016613 0.00293505
42 1 0.103896 0.166667 0.846655 0 -0.00610256 0.00126672
43 1 0.0253379 0.666667 0.775226 0 -0.00166094 0.00293481
44 1 0.0110128 1 0.989512 0 -0.0643585 -0.626663
45 1 0.932455 0.5 0.918083 0 0.0186172 -0.613187
46 1 0.553983 0.666667 0.346655 0 0.00040257 0.00148761
47 1 0.461102 0.500001 0.489512 0 -2.59876e-05 0.000159144
48 1 0.211102 0.666667 0.489512 0 2.563e-05 0.000159025
49 1 0.11822 0.5 0.632369 0 -0.000210047 -0.000821829
50 1 0.86822 0.666667 0.632369 0 0.000209332 -0.000821829
51 1 0.775338 0.5 0.775226 0 0.00166118 0.00293505
52 1 0.761013 0.166667 0.989512 0 0.0643582 -0.626664
53 1 0.682455 0.666667 0.918083 0 -0.0186175 -0.613185
54 1 0.525338 0.666667 0.775226 0 -0.0016607 0.00293469
55 1 0.432455 0.5 0.918083 0 0.0186174 -0.613186
56 1 0.182455 0.666667 0.918083 0 -0.0186176 -0.613186
ITEM: TIMESTEP
1
ITEM: NUMBER OF ATOMS
56
ITEM: BOX BOUNDS xy xz yz pp pp pp
-1.7529641985893250e+00 1.2206987559795380e+01 -4.7683715820312500e-07
-7.5370073318481445e-03 5.5339480042457581e+00 -1.7310760021209717e+00
-3.2569408416748047e-02 1.9052529454231262e+01 2.8610229492187500e-06
ITEM: ATOMS id type xs ys zs fx fy fz
1 1 0.569034 1.00054 0.137496 0 -0.00416112 0.0541646
2 1 0.319034 0.166131 0.137496 0 0.00416088 0.0541652
3 1 0.225421 1.00005 0.275202 0 -0.0176996 0.104381
4 1 0.975421 0.166619 0.275202 0 0.0176997 0.104381
5 1 0.882543 -5.52702e-06 0.418091 0 -0.0014503 0.00157833
6 1 0.0690335 1.00054 0.137496 0 -0.004161 0.0541649
7 1 0.990491 0.498146 0.0661805 0 -0.0687532 0.0297682
8 1 0.819034 0.166131 0.137496 0 0.004161 0.0541651
9 1 0.740491 0.668521 0.0661805 0 0.0687535 0.0297683
10 1 0.725421 1.00005 0.275202 0 -0.0176996 0.104381
11 1 0.632543 0.166673 0.41809 0 0.00145006 0.00157773
12 1 0.539661 -1.94386e-07 0.560939 0 0.000319481 0.00233257
13 1 0.289661 0.166667 0.560939 0 -0.000319719 0.00233269
14 1 0.196777 -1.14391e-05 0.703785 0 -0.00461221 -0.0119907
15 1 0.946777 0.166679 0.703785 0 0.00461245 -0.0119913
16 1 0.853898 1.00018 0.846666 0 0.000666857 -0.122201
17 1 0.646865 0.500175 0.203787 0 0.000667214 0.122202
18 1 0.475421 0.166619 0.275202 0 0.0176998 0.104381
19 1 0.396865 0.666492 0.203787 0 -0.000666857 0.122201
20 1 0.382543 -5.52912e-06 0.41809 0 -0.00144982 0.00157833
21 1 0.303985 0.499989 0.346668 0 -0.00461233 0.0119909
22 1 0.132543 0.166673 0.418091 0 0.00144994 0.00157762
23 1 0.0539851 0.666679 0.346667 0 0.00461221 0.0119913
24 1 0.0396607 -1.92609e-07 0.560939 0 0.000319123 0.00233257
25 1 0.961102 0.5 0.489513 0 0.000319481 -0.00233269
26 1 0.789661 0.166667 0.560939 0 -0.000319362 0.00233245
27 1 0.711102 0.666667 0.489513 0 -0.000319719 -0.00233245
28 1 0.490491 0.498146 0.0661805 0 -0.0687535 0.0297681
29 1 0.240491 0.668521 0.0661805 0 0.0687534 0.0297682
30 1 0.146865 0.500175 0.203787 0 0.000667453 0.122201
31 1 0.896865 0.666492 0.203787 0 -0.000667095 0.122201
32 1 0.803985 0.499989 0.346668 0 -0.00461245 0.011991
33 1 0.603898 0.166492 0.846666 0 -0.000667095 -0.122202
34 1 0.510271 0.998146 0.984272 0 -0.0687538 -0.0297681
35 1 0.260271 0.168521 0.984272 0 0.0687534 -0.0297682
36 1 0.696777 -1.1404e-05 0.703785 0 -0.00461233 -0.0119908
37 1 0.618219 0.499994 0.632362 0 -0.00144982 -0.00157785
38 1 0.446777 0.166679 0.703785 0 0.00461197 -0.0119911
39 1 0.368219 0.666673 0.632362 0 0.00144982 -0.00157833
40 1 0.353898 1.00018 0.846666 0 0.000667334 -0.122201
41 1 0.275341 0.500048 0.775251 0 -0.0176995 -0.104381
42 1 0.103898 0.166492 0.846666 0 -0.000667453 -0.122202
43 1 0.0253414 0.666619 0.775251 0 0.0176997 -0.104381
44 1 0.0102711 0.998146 0.984272 0 -0.0687536 -0.0297682
45 1 0.931729 0.500536 0.912956 0 -0.00416088 -0.0541649
46 1 0.553985 0.666679 0.346668 0 0.00461209 0.0119908
47 1 0.461102 0.5 0.489513 0 0.000319719 -0.00233269
48 1 0.211102 0.666667 0.489513 0 -0.000319242 -0.00233257
49 1 0.118219 0.499994 0.632362 0 -0.00144958 -0.00157785
50 1 0.868219 0.666673 0.632362 0 0.00145006 -0.00157797
51 1 0.775341 0.500048 0.775251 0 -0.0176996 -0.104381
52 1 0.760271 0.168521 0.984272 0 0.0687535 -0.0297681
53 1 0.681729 0.666131 0.912956 0 0.004161 -0.0541651
54 1 0.525341 0.666619 0.775251 0 0.0176997 -0.104381
55 1 0.431729 0.500536 0.912956 0 -0.004161 -0.054165
56 1 0.181729 0.666131 0.912956 0 0.004161 -0.0541654
ITEM: TIMESTEP
2
ITEM: NUMBER OF ATOMS
56
ITEM: BOX BOUNDS xy xz yz pp pp pp
-1.7529641985893250e+00 1.2206987559795380e+01 -4.7683715820312500e-07
-7.5370073318481445e-03 5.5339480042457581e+00 -1.7310760021209717e+00
-3.2569408416748047e-02 1.9052529454231262e+01 2.8610229492187500e-06
ITEM: ATOMS id type xs ys zs fx fy fz
1 1 0.569264 1.00011 0.139125 0 -0.0257194 0.0351259
2 1 0.319264 0.166562 0.139125 0 0.0257202 0.0351255
3 1 0.225865 0.998215 0.27834 0 0.00954175 -0.00530243
4 1 0.975865 0.168452 0.27834 0 -0.00954163 -0.00530159
5 1 0.88255 -0.00015568 0.418138 0 -0.0103306 0.0607783
6 1 0.069264 1.00011 0.139125 0 -0.0257193 0.0351256
7 1 0.990618 0.491028 0.0670754 0 -0.0052098 0.00688505
8 1 0.819264 0.166562 0.139125 0 0.0257199 0.0351255
9 1 0.740618 0.675639 0.0670754 0 0.00520933 0.00688565
10 1 0.725865 0.998215 0.27834 0 0.00954163 -0.00530183
11 1 0.63255 0.166823 0.418138 0 0.0103303 0.0607796
12 1 0.539671 3.28821e-05 0.56101 0 -0.0052532 -0.0109105
13 1 0.289671 0.166634 0.56101 0 0.00525427 -0.010911
14 1 0.196726 -0.000488951 0.703425 0 -0.0100656 -0.0772523
15 1 0.946726 0.167156 0.703425 0 0.0100653 -0.0772518
16 1 0.853378 1.00024 0.842992 0 -0.0121583 0.0257142
17 1 0.647385 0.500245 0.207461 0 -0.0121588 -0.0257146
18 1 0.475865 0.168452 0.27834 0 -0.00954199 -0.00530183
19 1 0.397385 0.666423 0.207461 0 0.0121585 -0.0257144
20 1 0.38255 -0.000155633 0.418138 0 -0.0103308 0.0607785
21 1 0.304036 0.499511 0.347028 0 -0.0100654 0.0772527
22 1 0.13255 0.166823 0.418138 0 0.0103307 0.0607799
23 1 0.0540361 0.667156 0.347028 0 0.0100659 0.0772517
24 1 0.0396706 3.28469e-05 0.56101 0 -0.0052532 -0.0109105
25 1 0.961092 0.500033 0.489443 0 -0.00525415 0.0109113
26 1 0.789671 0.166634 0.56101 0 0.00525367 -0.0109109
27 1 0.711092 0.666634 0.489443 0 0.00525427 0.0109104
28 1 0.490618 0.491028 0.0670754 0 -0.0052098 0.00688565
29 1 0.240618 0.675639 0.0670754 0 0.00520909 0.00688553
30 1 0.147385 0.500245 0.207461 0 -0.0121589 -0.0257143
31 1 0.897385 0.666423 0.207461 0 0.0121586 -0.0257142
32 1 0.804036 0.499511 0.347028 0 -0.0100648 0.0772524
33 1 0.603378 0.166423 0.842992 0 0.0121584 0.0257145
34 1 0.510144 0.991028 0.983377 0 -0.00520933 -0.00688636
35 1 0.260144 0.175639 0.983377 0 0.00520957 -0.00688517
36 1 0.696726 -0.000488928 0.703425 0 -0.0100656 -0.0772525
37 1 0.618212 0.499844 0.632315 0 -0.010331 -0.060779
38 1 0.446726 0.167156 0.703425 0 0.0100654 -0.0772526
39 1 0.368212 0.666823 0.632315 0 0.0103306 -0.0607787
40 1 0.353378 1.00024 0.842992 0 -0.0121588 0.0257143
41 1 0.274897 0.498215 0.772113 0 0.00954175 0.00530183
42 1 0.103378 0.166423 0.842992 0 0.0121593 0.0257145
43 1 0.0248972 0.668452 0.772113 0 -0.00954187 0.00530159
44 1 0.0101444 0.991028 0.983377 0 -0.00520909 -0.00688589
45 1 0.931498 0.500105 0.911328 0 -0.0257202 -0.0351255
46 1 0.554036 0.667156 0.347028 0 0.0100659 0.0772524
47 1 0.461092 0.500033 0.489443 0 -0.00525415 0.0109107
48 1 0.211092 0.666634 0.489443 0 0.00525308 0.0109104
49 1 0.118212 0.499844 0.632315 0 -0.010331 -0.0607795
50 1 0.868212 0.666823 0.632315 0 0.0103306 -0.060779
51 1 0.774897 0.498215 0.772113 0 0.00954151 0.00530159
52 1 0.760144 0.175639 0.983377 0 0.00520945 -0.00688517
53 1 0.681498 0.666562 0.911328 0 0.0257201 -0.0351251
54 1 0.524897 0.668452 0.772113 0 -0.00954187 0.00530207
55 1 0.431498 0.500105 0.911328 0 -0.0257199 -0.0351255
56 1 0.181498 0.666562 0.911328 0 0.0257192 -0.0351251
ITEM: TIMESTEP
3
ITEM: NUMBER OF ATOMS
56
ITEM: BOX BOUNDS xy xz yz pp pp pp
-1.7529641985893250e+00 1.2206987559795380e+01 -4.7683715820312500e-07
-7.5370073318481445e-03 5.5339480042457581e+00 -1.7310760021209717e+00
-3.2569408416748047e-02 1.9052529454231262e+01 2.8610229492187500e-06
ITEM: ATOMS id type xs ys zs fx fy fz
1 1 0.569459 0.997779 0.1405 0 -0.00681996 -0.0246658
2 1 0.319459 0.168888 0.1405 0 0.00681973 -0.0246656
3 1 0.225985 0.99846 0.279183 0 -0.00404584 0.0197158
4 1 0.975985 0.168208 0.279183 0 0.00404549 0.0197154
5 1 0.882765 -0.00108282 0.419657 0 -0.00327086 0.00790679
6 1 0.0694587 0.997779 0.1405 0 -0.00682008 -0.024666
7 1 0.990681 0.488374 0.0675237 0 0.00419307 -0.0341547
8 1 0.819459 0.168888 0.1405 0 0.00682008 -0.0246652
9 1 0.740681 0.678293 0.0675237 0 -0.00419235 -0.0341555
10 1 0.725985 0.998459 0.279183 0 -0.00404549 0.0197155
11 1 0.632765 0.16775 0.419657 0 0.00327182 0.00790644
12 1 0.539635 -0.000404594 0.560761 0 -0.0111539 -0.013141
13 1 0.289635 0.167072 0.560761 0 0.0111531 -0.0131406
14 1 0.19644 -0.00149517 0.701401 0 -0.00113022 -0.00174296
15 1 0.94644 0.168162 0.701401 0 0.00113058 -0.00174272
16 1 0.853306 0.99923 0.842488 0 0.0015099 -0.00919616
17 1 0.647456 0.49923 0.207965 0 0.00151014 0.00919592
18 1 0.475985 0.168208 0.279183 0 0.00404561 0.0197161
19 1 0.397456 0.667437 0.207965 0 -0.00151026 0.0091964
20 1 0.382765 -0.00108278 0.419657 0 -0.00327134 0.00790668
21 1 0.304323 0.498505 0.349052 0 -0.00113046 0.00174165
22 1 0.132765 0.16775 0.419657 0 0.00327146 0.00790644
23 1 0.0543226 0.668162 0.349052 0 0.00112975 0.00174284
24 1 0.0396355 -0.000404641 0.560761 0 -0.0111532 -0.0131413
25 1 0.961127 0.499595 0.489692 0 -0.0111531 0.0131401
26 1 0.789635 0.167072 0.560761 0 0.0111535 -0.0131409
27 1 0.711127 0.667072 0.489692 0 0.011153 0.013141
28 1 0.490681 0.488374 0.0675237 0 0.00419259 -0.0341551
29 1 0.240681 0.678293 0.0675237 0 -0.00419176 -0.0341554
30 1 0.147456 0.49923 0.207965 0 0.00151038 0.00919592
31 1 0.897456 0.667437 0.207965 0 -0.00151038 0.00919616
32 1 0.804323 0.498505 0.349052 0 -0.00113106 0.00174296
33 1 0.603306 0.167437 0.842488 0 -0.0015099 -0.00919604
34 1 0.510081 0.988374 0.982929 0 0.00419259 0.0341556
35 1 0.260081 0.178293 0.982929 0 -0.00419331 0.0341549
36 1 0.69644 -0.00149515 0.701401 0 -0.0011307 -0.00174272
37 1 0.617997 0.498917 0.630796 0 -0.00327086 -0.00790644
38 1 0.44644 0.168162 0.701401 0 0.00113094 -0.00174212
39 1 0.367997 0.66775 0.630796 0 0.00327134 -0.00790668
40 1 0.353306 0.99923 0.842488 0 0.0015099 -0.00919592
41 1 0.274778 0.49846 0.77127 0 -0.00404549 -0.0197157
42 1 0.103306 0.167437 0.842488 0 -0.00151026 -0.00919604
43 1 0.0247779 0.668208 0.77127 0 0.00404608 -0.019715
44 1 0.010081 0.988374 0.982929 0 0.00419188 0.0341554
45 1 0.931304 0.497779 0.909953 0 -0.00681984 0.0246648
46 1 0.554323 0.668162 0.349052 0 0.00113022 0.00174236
47 1 0.461127 0.499595 0.489692 0 -0.0111533 0.0131408
48 1 0.211127 0.667072 0.489692 0 0.0111536 0.0131414
49 1 0.117997 0.498917 0.630796 0 -0.0032717 -0.0079062
50 1 0.867997 0.66775 0.630796 0 0.00327134 -0.00790679
51 1 0.774778 0.498459 0.77127 0 -0.00404537 -0.0197151
52 1 0.760081 0.178293 0.982929 0 -0.00419235 0.0341545
53 1 0.681304 0.668888 0.909953 0 0.00681949 0.024666
54 1 0.524778 0.668208 0.77127 0 0.00404549 -0.0197158
55 1 0.431304 0.497779 0.909953 0 -0.0068202 0.0246657
56 1 0.181304 0.668888 0.909953 0 0.00682068 0.0246657
ITEM: TIMESTEP
4
ITEM: NUMBER OF ATOMS
56
ITEM: BOX BOUNDS xy xz yz pp pp pp
-1.7529641985893250e+00 1.2206987559795380e+01 -4.7683715820312500e-07
-7.5370073318481445e-03 5.5339480042457581e+00 -1.7310760021209717e+00
-3.2569408416748047e-02 1.9052529454231262e+01 2.8610229492187500e-06
ITEM: ATOMS id type xs ys zs fx fy fz
1 1 0.569436 0.997082 0.140336 0 0.00354147 0.00281072
2 1 0.319436 0.169585 0.140336 0 -0.00354218 0.00281096
3 1 0.226044 0.998288 0.279603 0 -0.000557899 0.00294411
4 1 0.976044 0.168379 0.279603 0 0.000557899 0.00294447
5 1 0.882814 -0.00138898 0.420001 0 -0.00379956 -0.0026015
6 1 0.0694355 0.997082 0.140336 0 0.00354159 0.00281072
7 1 0.990619 0.488194 0.0670807 0 0.00451279 -0.000244141
8 1 0.819436 0.169585 0.140336 0 -0.00354195 0.00281084
9 1 0.740619 0.678473 0.0670807 0 -0.00451255 -0.000244141
10 1 0.726044 0.998288 0.279603 0 -0.000558019 0.00294411
11 1 0.632814 0.168056 0.420001 0 0.00379944 -0.00260174
12 1 0.539602 -0.00104299 0.560528 0 -0.0065937 -0.00187945
13 1 0.289602 0.16771 0.560528 0 0.00659287 -0.00187922
14 1 0.196393 -0.00170308 0.701074 0 0.000456095 0.00300372
15 1 0.946393 0.16837 0.701074 0 -0.000456452 0.00300348
16 1 0.853276 0.999156 0.842275 0 0.000389814 0.000351429
17 1 0.647486 0.499156 0.208178 0 0.000389457 -0.000352263
18 1 0.476044 0.168379 0.279603 0 0.000558376 0.00294399
19 1 0.397486 0.667511 0.208178 0 -0.000390053 -0.000351548
20 1 0.382814 -0.00138897 0.420001 0 -0.00379992 -0.00260174
21 1 0.304369 0.498297 0.349379 0 0.000456691 -0.00300372
22 1 0.132814 0.168056 0.420001 0 0.00379908 -0.00260234
23 1 0.054369 0.66837 0.349379 0 -0.000455976 -0.00300312
24 1 0.0396025 -0.00104301 0.560528 0 -0.00659394 -0.00187945
25 1 0.96116 0.498957 0.489925 0 -0.00659275 0.0018791
26 1 0.789602 0.16771 0.560528 0 0.00659323 -0.00187874
27 1 0.71116 0.66771 0.489925 0 0.00659347 0.00187945
28 1 0.490619 0.488194 0.0670807 0 0.00451326 -0.000244617
29 1 0.240619 0.678473 0.0670807 0 -0.00451267 -0.000244379
30 1 0.147486 0.499156 0.208178 0 0.000389457 -0.000352025
31 1 0.897486 0.667511 0.208178 0 -0.000389338 -0.000351906
32 1 0.804369 0.498297 0.349379 0 0.000456572 -0.00300407
33 1 0.603276 0.167511 0.842275 0 -0.000389338 0.000352025
34 1 0.510144 0.988194 0.983372 0 0.00451279 0.000245094
35 1 0.260144 0.178473 0.983372 0 -0.00451255 0.000244737
36 1 0.696393 -0.00170309 0.701074 0 0.000456572 0.00300372
37 1 0.617949 0.498611 0.630452 0 -0.0037998 0.00260162
38 1 0.446393 0.16837 0.701074 0 -0.000456452 0.00300372
39 1 0.367949 0.668056 0.630452 0 0.0037998 0.0026021
40 1 0.353276 0.999156 0.842275 0 0.000389457 0.000351429
41 1 0.274718 0.498288 0.77085 0 -0.000558257 -0.00294459
42 1 0.103276 0.167511 0.842275 0 -0.000389457 0.000352025
43 1 0.0247184 0.668379 0.77085 0 0.000558257 -0.00294447
44 1 0.0101437 0.988194 0.983372 0 0.00451279 0.000244975
45 1 0.931327 0.497082 0.910117 0 0.00354218 -0.00281131
46 1 0.554369 0.66837 0.349379 0 -0.000456452 -0.00300312
47 1 0.46116 0.498957 0.489925 0 -0.00659311 0.00187922
48 1 0.21116 0.66771 0.489925 0 0.00659359 0.00187922
49 1 0.117949 0.498611 0.630452 0 -0.0037992 0.0026021
50 1 0.867949 0.668056 0.630452 0 0.00379944 0.00260198
51 1 0.774718 0.498288 0.77085 0 -0.000558257 -0.00294447
52 1 0.760144 0.178473 0.983372 0 -0.00451314 0.000244617
53 1 0.681327 0.669585 0.910117 0 -0.00354207 -0.00281143
54 1 0.524718 0.668379 0.77085 0 0.000558376 -0.00294411
55 1 0.431327 0.497082 0.910117 0 0.00354207 -0.00281131
56 1 0.181327 0.669585 0.910117 0 -0.00354183 -0.00281072
ITEM: TIMESTEP
5
ITEM: NUMBER OF ATOMS
56
ITEM: BOX BOUNDS xy xz yz pp pp pp
-1.7529641985893250e+00 1.2206987559795380e+01 -4.7683715820312500e-07
-7.5370073318481445e-03 5.5339480042457581e+00 -1.7310760021209717e+00
-3.2569408416748047e-02 1.9052529454231262e+01 2.8610229492187500e-06
ITEM: ATOMS id type xs ys zs fx fy fz
1 1 0.569446 0.997399 0.140409 0 0.000693202 5.20945e-05
2 1 0.319446 0.169269 0.140409 0 -0.000692368 5.13792e-05
3 1 0.226058 0.998228 0.2797 0 0.000325918 -0.00126374
4 1 0.976058 0.168439 0.2797 0 -0.000325084 -0.00126374
5 1 0.882805 -0.00176588 0.419941 0 -0.00121403 0.00137055
6 1 0.0694458 0.997399 0.140409 0 0.000692844 5.20945e-05
7 1 0.990616 0.488622 0.067058 0 0.00180364 0.000213981
8 1 0.819446 0.169269 0.140409 0 -0.000692248 5.17368e-05
9 1 0.740616 0.678045 0.067058 0 -0.00180411 0.000214219
10 1 0.726058 0.998228 0.2797 0 0.000325918 -0.00126314
11 1 0.632805 0.168433 0.419941 0 0.0012145 0.00137126
12 1 0.539594 -0.00170089 0.560467 0 -0.000410557 0.00180161
13 1 0.289594 0.168368 0.560467 0 0.000411868 0.00180101
14 1 0.196404 -0.00166662 0.701146 0 -0.000975132 -0.0023936
15 1 0.946404 0.168334 0.701146 0 0.00097549 -0.00239313
16 1 0.853277 0.999191 0.842277 0 0.000619411 0.000819445
17 1 0.647486 0.499191 0.208175 0 0.000619888 -0.000818491
18 1 0.476058 0.168439 0.2797 0 -0.000325918 -0.00126338
19 1 0.397486 0.667476 0.208175 0 -0.000619411 -0.000818849
20 1 0.382805 -0.0017659 0.419941 0 -0.00121379 0.00137055
21 1 0.304359 0.498333 0.349307 0 -0.000975847 0.00239289
22 1 0.132805 0.168433 0.419941 0 0.00121474 0.0013721
23 1 0.0543587 0.668334 0.349307 0 0.000974536 0.00239253
24 1 0.0395938 -0.00170093 0.560467 0 -0.00041008 0.00180125
25 1 0.961169 0.498299 0.489986 0 -0.000411987 -0.00180089
26 1 0.789594 0.168368 0.560467 0 0.000410914 0.00180066
27 1 0.711169 0.668368 0.489986 0 0.000410676 -0.00180137
28 1 0.490616 0.488622 0.067058 0 0.00180316 0.000214815
29 1 0.240616 0.678045 0.067058 0 -0.00180411 0.000215292
30 1 0.147486 0.499191 0.208175 0 0.00061965 -0.00081861
31 1 0.897486 0.667476 0.208175 0 -0.000620127 -0.000818968
32 1 0.804359 0.498333 0.349307 0 -0.000975609 0.00239336
33 1 0.603277 0.167476 0.842277 0 -0.000620365 0.000818968
34 1 0.510147 0.988622 0.983395 0 0.00180399 -0.00021565
35 1 0.260147 0.178045 0.983395 0 -0.00180364 -0.000215173
36 1 0.696404 -0.00166658 0.701146 0 -0.000975609 -0.00239301
37 1 0.617957 0.498234 0.630512 0 -0.00121415 -0.00137091
38 1 0.446404 0.168334 0.701146 0 0.000975609 -0.00239336
39 1 0.367957 0.668433 0.630512 0 0.00121403 -0.00137091
40 1 0.353277 0.999191 0.842277 0 0.000620008 0.000819445
41 1 0.274705 0.498228 0.770753 0 0.000325561 0.00126386
42 1 0.103277 0.167476 0.842277 0 -0.00061965 0.000818729
43 1 0.0247047 0.668439 0.770753 0 -0.00032568 0.00126362
44 1 0.0101469 0.988622 0.983395 0 0.00180399 -0.00021565
45 1 0.931317 0.497399 0.910044 0 0.000692368 -5.00679e-05
46 1 0.554359 0.668334 0.349307 0 0.000974894 0.00239217
47 1 0.461169 0.498299 0.489986 0 -0.000411272 -0.00180078
48 1 0.211169 0.668368 0.489986 0 0.000410318 -0.00180101
49 1 0.117957 0.498234 0.630512 0 -0.00121498 -0.00137174
50 1 0.867957 0.668433 0.630512 0 0.00121462 -0.00137126
51 1 0.774705 0.498228 0.770753 0 0.000326037 0.00126314
52 1 0.760147 0.178045 0.983395 0 -0.00180328 -0.000214815
53 1 0.681317 0.669269 0.910044 0 -0.000692487 -5.05447e-05
54 1 0.524705 0.668439 0.770753 0 -0.000325918 0.00126266
55 1 0.431317 0.497399 0.910044 0 0.000692368 -5.13792e-05
56 1 0.181317 0.669269 0.910044 0 -0.000692725 -5.126e-05
ITEM: TIMESTEP
6
ITEM: NUMBER OF ATOMS
56
ITEM: BOX BOUNDS xy xz yz pp pp pp
-1.7529641985893250e+00 1.2206987559795380e+01 -4.7683715820312500e-07
-7.5370073318481445e-03 5.5339480042457581e+00 -1.7310760021209717e+00
-3.2569408416748047e-02 1.9052529454231262e+01 2.8610229492187500e-06
ITEM: ATOMS id type xs ys zs fx fy fz
1 1 0.569447 0.997483 0.140418 0 0.000269651 -0.00117874
2 1 0.319447 0.169184 0.140418 0 -0.000270247 -0.00117862
3 1 0.226056 0.998244 0.279685 0 -7.86781e-05 0.000404716
4 1 0.976056 0.168423 0.279685 0 7.78437e-05 0.000404477
5 1 0.882808 -0.00189441 0.419962 0 0.00031817 0.000683784
6 1 0.0694472 0.997483 0.140418 0 0.000269771 -0.00117874
7 1 0.990616 0.488798 0.0670598 0 0.000594139 -0.000240564
8 1 0.819447 0.169184 0.140418 0 -0.000270605 -0.0011785
9 1 0.740616 0.677869 0.0670598 0 -0.000593901 -0.000240564
10 1 0.726056 0.998244 0.279685 0 -7.85589e-05 0.000404477
11 1 0.632808 0.168562 0.419962 0 -0.000318766 0.000683546
12 1 0.539598 -0.00180496 0.560497 0 9.38177e-05 -0.000333548
13 1 0.289598 0.168472 0.560497 0 -9.47714e-05 -0.000333667
14 1 0.196398 -0.00173111 0.701105 0 -0.000543237 0.000267982
15 1 0.946398 0.168398 0.701105 0 0.000543714 0.000268102
16 1 0.853279 0.999239 0.842294 0 0.000446916 -0.000841379
17 1 0.647483 0.499239 0.208158 0 0.000446916 0.00084126
18 1 0.476056 0.168423 0.279685 0 7.80821e-05 0.000404239
19 1 0.397483 0.667428 0.208158 0 -0.0004462 0.000841618
20 1 0.382808 -0.00189442 0.419962 0 0.000318408 0.000684142
21 1 0.304364 0.498269 0.349348 0 -0.000543475 -0.000267744
22 1 0.132808 0.168562 0.419962 0 -0.000319004 0.000683069
23 1 0.0543645 0.668398 0.349348 0 0.000543833 -0.000267744
24 1 0.0395981 -0.00180496 0.560497 0 9.36985e-05 -0.000333309
25 1 0.961164 0.498195 0.489956 0 9.47714e-05 0.000333428
26 1 0.789598 0.168472 0.560497 0 -9.39369e-05 -0.000333071
27 1 0.711164 0.668472 0.489956 0 -9.38177e-05 0.000333548
28 1 0.490616 0.488798 0.0670598 0 0.000594258 -0.000241041
29 1 0.240616 0.677869 0.0670598 0 -0.00059402 -0.000241399
30 1 0.147483 0.499239 0.208158 0 0.000446796 0.000841379
31 1 0.897483 0.667428 0.208158 0 -0.000446081 0.000841618
32 1 0.804364 0.498269 0.349348 0 -0.000543594 -0.00026834
33 1 0.603279 0.167428 0.842294 0 -0.000446439 -0.000841856
34 1 0.510147 0.988798 0.983393 0 0.000594139 0.000241518
35 1 0.260147 0.177869 0.983393 0 -0.000594139 0.000241399
36 1 0.696398 -0.0017311 0.701105 0 -0.000543356 0.000267744
37 1 0.617954 0.498106 0.630491 0 0.000318527 -0.000683904
38 1 0.446398 0.168398 0.701105 0 0.000543714 0.000268459
39 1 0.367954 0.668562 0.630491 0 -0.000318408 -0.000683665
40 1 0.353279 0.999239 0.842294 0 0.00044632 -0.000841737
41 1 0.274707 0.498244 0.770767 0 -7.80821e-05 -0.000404477
42 1 0.103279 0.167428 0.842294 0 -0.000447154 -0.000841737
43 1 0.0247067 0.668423 0.770767 0 7.83205e-05 -0.000404358
44 1 0.0101467 0.988798 0.983393 0 0.000594258 0.000241399
45 1 0.931315 0.497483 0.910035 0 0.000270128 0.00117767
46 1 0.554364 0.668398 0.349348 0 0.000543833 -0.000267744
47 1 0.461164 0.498195 0.489956 0 9.38177e-05 0.000332832
48 1 0.211164 0.668472 0.489956 0 -9.35793e-05 0.000333309
49 1 0.117954 0.498106 0.630491 0 0.000318885 -0.000683188
50 1 0.867954 0.668562 0.630491 0 -0.000318527 -0.000683665
51 1 0.774707 0.498244 0.770767 0 -7.85589e-05 -0.000403762
52 1 0.760147 0.177869 0.983393 0 -0.00059402 0.000241041
53 1 0.681315 0.669184 0.910035 0 -0.000270247 0.00117743
54 1 0.524707 0.668423 0.770767 0 7.79629e-05 -0.000403762
55 1 0.431315 0.497483 0.910035 0 0.000270367 0.00117838
56 1 0.181315 0.669184 0.910035 0 -0.000269651 0.00117826
ITEM: TIMESTEP
7
ITEM: NUMBER OF ATOMS
56
ITEM: BOX BOUNDS xy xz yz pp pp pp
-1.7529641985893250e+00 1.2206987559795380e+01 -4.7683715820312500e-07
-7.5370073318481445e-03 5.5339480042457581e+00 -1.7310760021209717e+00
-3.2569408416748047e-02 1.9052529454231262e+01 2.8610229492187500e-06
ITEM: ATOMS id type xs ys zs fx fy fz
1 1 0.569444 0.997518 0.140397 0 0.00022018 0.000193477
2 1 0.319444 0.169149 0.140397 0 -0.00022006 0.000193834
3 1 0.226056 0.998242 0.279691 0 5.51939e-05 0.000118852
4 1 0.976056 0.168425 0.279691 0 -5.57899e-05 0.00011766
5 1 0.882811 -0.00189766 0.419979 0 0.000121474 -6.33001e-05
6 1 0.0694441 0.997518 0.140397 0 0.000220299 0.000193238
7 1 0.990615 0.488872 0.0670554 0 0.00026381 0.000612378
8 1 0.819444 0.169149 0.140397 0 -0.000219941 0.000193119
9 1 0.740615 0.677795 0.0670554 0 -0.000264049 0.00061214
10 1 0.726056 0.998242 0.279691 0 5.54323e-05 0.000118375
11 1 0.632811 0.168565 0.419979 0 -0.000120997 -6.40154e-05
12 1 0.539598 -0.00181867 0.560496 0 0.0002141 -0.000107884
13 1 0.289598 0.168486 0.560496 0 -0.000214338 -0.000107169
14 1 0.196398 -0.00178032 0.701103 0 9.02414e-05 -3.69549e-06
15 1 0.946398 0.168447 0.701103 0 -9.0003e-05 -3.8147e-06
16 1 0.853277 0.999278 0.842281 0 -4.11272e-05 -0.000156403
17 1 0.647485 0.499278 0.208172 0 -4.1008e-05 0.000155926
18 1 0.476056 0.168425 0.279691 0 -5.54323e-05 0.000118256
19 1 0.397485 0.667389 0.208172 0 4.1008e-05 0.00015533
20 1 0.382811 -0.00189764 0.419979 0 0.00012064 -6.34193e-05
21 1 0.304365 0.49822 0.34935 0 9.0003e-05 4.17233e-06
22 1 0.132811 0.168565 0.419979 0 -0.000120878 -6.40154e-05
23 1 0.0543649 0.668447 0.34935 0 -9.02414e-05 4.29153e-06
24 1 0.039598 -0.00181868 0.560496 0 0.000214219 -0.000107765
25 1 0.961164 0.498181 0.489956 0 0.000214338 0.000107408
26 1 0.789598 0.168486 0.560496 0 -0.000214338 -0.000108004
27 1 0.711164 0.668486 0.489956 0 -0.000214338 0.000107646
28 1 0.490615 0.488872 0.0670554 0 0.000264525 0.00061202
29 1 0.240615 0.677795 0.0670554 0 -0.000263691 0.000612497
30 1 0.147485 0.499278 0.208172 0 -4.11272e-05 0.000155807
31 1 0.897485 0.667389 0.208172 0 4.1008e-05 0.000156164
32 1 0.804365 0.49822 0.34935 0 9.01222e-05 4.29153e-06
33 1 0.603277 0.167389 0.842281 0 4.07696e-05 -0.000156283
34 1 0.510147 0.988872 0.983397 0 0.000263572 -0.000612497
35 1 0.260147 0.177795 0.983397 0 -0.000264168 -0.000612259
36 1 0.696398 -0.00178032 0.701103 0 9.02414e-05 -3.93391e-06
37 1 0.617952 0.498102 0.630474 0 0.000121117 6.40154e-05
38 1 0.446398 0.168447 0.701103 0 -9.05991e-05 -4.41074e-06
39 1 0.367952 0.668565 0.630474 0 -0.000121117 6.31809e-05
40 1 0.353277 0.999278 0.842281 0 -4.07696e-05 -0.000156045
41 1 0.274706 0.498242 0.770762 0 5.55515e-05 -0.000117898
42 1 0.103277 0.167389 0.842281 0 4.11272e-05 -0.000156403
43 1 0.024706 0.668425 0.770762 0 -5.55515e-05 -0.000118136
44 1 0.0101473 0.988872 0.983397 0 0.000264049 -0.000612259
45 1 0.931318 0.497518 0.910056 0 0.00022018 -0.000193715
46 1 0.554365 0.668447 0.34935 0 -9.0003e-05 4.41074e-06
47 1 0.461164 0.498181 0.489956 0 0.000214696 0.000108004
48 1 0.211164 0.668486 0.489956 0 -0.000214219 0.000107765
49 1 0.117952 0.498102 0.630474 0 0.000120997 6.36578e-05
50 1 0.867952 0.668565 0.630474 0 -0.000121117 6.34193e-05
51 1 0.774706 0.498242 0.770762 0 5.56707e-05 -0.000118375
52 1 0.760147 0.177795 0.983397 0 -0.000264049 -0.000611901
53 1 0.681318 0.669149 0.910056 0 -0.00022006 -0.000192761
54 1 0.524706 0.668425 0.770762 0 -5.49555e-05 -0.000118375
55 1 0.431318 0.497518 0.910056 0 0.000219584 -0.000193
56 1 0.181318 0.669149 0.910056 0 -0.00022018 -0.000193596
ITEM: TIMESTEP
8
ITEM: NUMBER OF ATOMS
56
ITEM: BOX BOUNDS xy xz yz pp pp pp
-1.7529641985893250e+00 1.2206987559795380e+01 -4.7683715820312500e-07
-7.5370073318481445e-03 5.5339480042457581e+00 -1.7310760021209717e+00
-3.2569408416748047e-02 1.9052529454231262e+01 2.8610229492187500e-06
ITEM: ATOMS id type xs ys zs fx fy fz
1 1 0.569444 0.997544 0.140397 0 -5.96046e-07 -1.83582e-05
2 1 0.319444 0.169123 0.140397 0 1.54972e-06 -1.80006e-05
3 1 0.226057 0.998246 0.279695 0 8.9407e-06 3.00407e-05
4 1 0.976057 0.168421 0.279694 0 -8.58307e-06 3.12328e-05
5 1 0.882811 -0.00188808 0.419981 0 -4.05312e-06 -0.000122666
6 1 0.0694442 0.997544 0.140397 0 -9.53674e-07 -1.75238e-05
7 1 0.990617 0.48891 0.0670695 0 9.70364e-05 -0.000132561
8 1 0.819444 0.169123 0.140397 0 1.19209e-06 -1.7643e-05
9 1 0.740617 0.677758 0.0670695 0 -9.63211e-05 -0.000131845
10 1 0.726057 0.998246 0.279695 0 8.9407e-06 3.00407e-05
11 1 0.632811 0.168555 0.419981 0 3.45707e-06 -0.000122428
12 1 0.539598 -0.00180343 0.560494 0 8.03471e-05 6.13928e-05
13 1 0.289598 0.16847 0.560494 0 -7.99894e-05 6.06775e-05
14 1 0.196398 -0.0017828 0.701102 0 0.000161767 -0.000182629
15 1 0.946397 0.16845 0.701102 0 -0.000162125 -0.000182986
16 1 0.853276 0.999283 0.842275 0 -4.72069e-05 -0.000123501
17 1 0.647486 0.499283 0.208178 0 -4.73261e-05 0.000124216
18 1 0.476057 0.168421 0.279694 0 -9.05991e-06 3.09944e-05
19 1 0.397486 0.667384 0.208178 0 4.673e-05 0.000123978
20 1 0.382811 -0.00188813 0.419981 0 -2.98023e-06 -0.00012219
21 1 0.304365 0.498217 0.349351 0 0.000161767 0.000181913
22 1 0.132811 0.168555 0.419981 0 3.8147e-06 -0.000122309
23 1 0.054365 0.66845 0.349351 0 -0.000161886 0.000181437
24 1 0.0395976 -0.00180342 0.560494 0 8.03471e-05 6.13928e-05
25 1 0.961165 0.498197 0.489959 0 7.99894e-05 -6.06775e-05
26 1 0.789598 0.168471 0.560494 0 -7.98702e-05 6.10352e-05