LAMMPS (4 May 2022)
Reading data file ...
  triclinic box = (0 0 0) to (12.4447 12.4447 12.4447) with tilt (0 0 0)
  1 by 2 by 2 MPI processor grid
  reading atoms ...
  192 atoms
  read_data CPU = 0.001 seconds
Replicating atoms ...
  triclinic box = (0 0 0) to (24.8894 24.8894 24.8894) with tilt (0 0 0)
  1 by 2 by 2 MPI processor grid
  1536 atoms
  replicate CPU = 0.000 seconds
nh nw 0: 229 3 
nh nw 1: 50176 3 
nh nw 2: 50176 3 
nh nw 3: 4096 4 
nh nw 4: 4096 4 
nh nw 5: 32768 8 
nh nw 0: 229 3 
nh nw 1: 50176 3 
nh nw 2: 50176 3 
nh nw 3: 4096 4 
nh nw 4: 4096 4 
nh nw 5: 32768 8 
nh nw 6: 32768 8 
rcut 50331648 
nh nw 0: 229 3 
nh nw 1: 50176 3 
nh nw 2: 50176 3 
nh nw 3: 4096 4 
nh nw 4: 4096 4 
nh nw 5: 32768 8 
nh nw 6: 32768 8 
rcut 50331648 
nh nw 0: 229 3 
nh nw 1: 50176 3 
nh nw 2: 50176 3 
nh nw 3: 4096 4 
nh nw 4: 4096 4 
nh nw 5: 32768 8 
nh nw 6: 32768 8 
rcut 50331648 
nh nw 6: 32768 8 
rcut 50331648 
Generated 0 of 1 mixed pair_coeff terms from geometric mixing rule
Neighbor list info ...
  update every 20 steps, delay 0 steps, check no
  max neighbors/atom: 2000, page size: 100000
  master list distance cutoff = 8
  ghost atom cutoff = 8
  binsize = 4, bins = 7 7 7
  2 neighbor lists, perpetual/occasional/extra = 1 1 0
  (1) pair nvnmd, perpetual
      attributes: full, newton on
      pair build: full/bin/atomonly
      stencil: full/bin/3d
      bin: standard
  (2) compute rdf, occasional, copy from (1)
      attributes: full, newton on
      pair build: copy
      stencil: none
      bin: none
Setting up Verlet run ...
  Unit style    : metal
  Current step  : 0
  Time step     : 0.0005
Per MPI rank memory allocation (min/avg/max) = 2.698 | 2.698 | 2.698 Mbytes
   Step         PotEng         KinEng         TotEng          Temp          Press          Volume    
         0   8868.535       65.476726      8934.0118      330            211.29098      15418.541    
       200   8886.9335      63.14094       8950.0744      318.22773      681.58107      15418.541    
       400   8932.1664      66.058471      8998.2249      332.93197      967.14483      15418.541    
       600   9014.1707      64.278297      9078.449       323.95996      75.979261      15418.541    
       800   8900.1066      66.631609      8966.7382      335.82056      407.04258      15418.541    
      1000   8789.2421      65.934309      8855.1764      332.3062       161.95913      15418.541    
      1200   8934.601       65.123733      8999.7248      328.22093      1040.4111      15418.541    
      1400   8967.831       64.628045      9032.459       325.72268     -295.77792      15418.541    
      1600   8775.7713      65.487909      8841.2592      330.05636      234.29897      15418.541    
      1800   8858.2036      63.803865      8922.0075      321.56885     -1221.5931      15418.541    
      2000   9046.8967      67.656702      9114.5534      340.98699     -1128.8122      15418.541    
      2200   8905.5796      65.320479      8970.9001      329.21252     -2343.0037      15418.541    
      2400   8952.7163      66.412231      9019.1286      334.71491      1645.2905      15418.541    
      2600   8777.8962      65.347553      8843.2438      329.34897     -952.69701      15418.541    
      2800   8985.4506      65.843108      9051.2937      331.84655     -3708.1213      15418.541    
      3000   8939.3         64.011363      9003.3114      322.61463     -2657.6782      15418.541    
      3200   8823.6453      67.68604       8891.3313      341.13485      2103.7341      15418.541    
      3400   8984.4565      66.918716      9051.3752      337.26757      1669.9072      15418.541    
      3600   8857.0397      66.245985      8923.2857      333.87703      1635.607       15418.541    
      3800   8635.2918      63.931718      8699.2235      322.21322     -2541.2301      15418.541    
      4000   8890.2556      64.921643      8955.1772      327.2024      -257.93194      15418.541    
      4200   8775.6819      67.425564      8843.1075      339.82206     -1393.929       15418.541    
      4400   8889.6993      65.271841      8954.9712      328.96738     -1294.4249      15418.541    
      4600   8967.972       66.792073      9034.7641      336.62929     -2687.0599      15418.541    
      4800   8809.6713      64.780801      8874.4521      326.49256     -1416.0585      15418.541    
      5000   8935.5644      66.527798      9002.0922      335.29735     -1263.3402      15418.541    
      5200   8856.1049      65.61983       8921.7247      330.72124      814.05752      15418.541    
      5400   8857.6254      63.698241      8921.3236      321.0365      -1612.9685      15418.541    
      5600   9016.4595      64.414647      9080.8741      324.64716     -556.30149      15418.541    
      5800   8983.5174      64.833232      9048.3506      326.75682     -1250.795       15418.541    
      6000   8841.1839      62.645115      8903.829       315.7288      -3309.2999      15418.541    
      6200   8933.0094      66.244683      8999.2541      333.87047     -192.92452      15418.541    
      6400   8871.1138      63.626278      8934.7401      320.67382      397.78521      15418.541    
      6600   8933.9376      64.361434      8998.2991      324.37897      157.07809      15418.541    
      6800   8806.9091      63.086612      8869.9957      317.95392      125.12971      15418.541    
      7000   9012.3407      65.440164      9077.7808      329.81573     -2495.9424      15418.541    
      7200   8996.953       64.771367      9061.7243      326.44502     -1974.8306      15418.541    
      7400   8950.0456      63.794184      9013.8398      321.52006      1039.1433      15418.541    
      7600   8902.0177      64.141247      8966.159       323.26924      1762.069       15418.541    
      7800   8965.6453      65.045107      9030.6904      327.82465      909.96559      15418.541    
      8000   8917.8572      65.651064      8983.5082      330.87865     -87.627655      15418.541    
      8200   8968.7724      63.781471      9032.5539      321.45598     -882.73667      15418.541    
      8400   8791.3683      66.180218      8857.5485      333.54557      759.38207      15418.541    
      8600   8938.5608      63.734786      9002.2956      321.22069     -3628.3392      15418.541    
      8800   8938.3581      64.443191      9002.8013      324.79102      655.34743      15418.541    
      9000   9000.0533      67.141612      9067.1949      338.39095     -2242.762       15418.541    
      9200   8938.2663      65.144585      9003.4109      328.32602     -2572.4576      15418.541    
      9400   8826.1874      65.375692      8891.5631      329.49079      480.6015       15418.541    
      9600   8905.1984      66.444887      8971.6433      334.87949      116.45512      15418.541    
      9800   8795.2869      64.425481      8859.7124      324.70177     -745.67134      15418.541    
     10000   8905.3312      66.458772      8971.7899      334.94947      1774.9269      15418.541    
     10200   8906.2574      65.607087      8971.8645      330.65701      21.298379      15418.541    
     10400   8906.9628      64.999625      8971.9625      327.59543     -1335.0752      15418.541    
     10600   8876.4147      63.711176      8940.1259      321.1017      -4398.2082      15418.541    
     10800   8970.1503      66.169179      9036.3194      333.48993     -3112.5526      15418.541    
     11000   8858.5676      65.976333      8924.5439      332.51799      133.5435       15418.541    
     11200   8890.7337      66.059955      8956.7936      332.93945     -1604.1926      15418.541    
     11400   8795.4803      65.553143      8861.0335      330.38514     -1072.8976      15418.541    
     11600   8940.8996      64.397101      9005.2967      324.55873      2.6781553      15418.541    
     11800   8841.8316      67.725284      8909.5568      341.33264      446.13747      15418.541    
     12000   8859.536       66.274337      8925.8103      334.01992      176.27504      15418.541    
     12200   8954.7804      67.270432      9022.0508      339.0402      -2079.1226      15418.541    
     12400   8875.6276      66.662678      8942.2903      335.97715     -3285.7691      15418.541    
     12600   8874.6905      67.81934       8942.5098      341.80668     -2214.662       15418.541    
     12800   8988.6261      66.072604      9054.6987      333.0032       569.87453      15418.541    
     13000   8891.834       66.973208      8958.8072      337.54221     -1444.0984      15418.541    
     13200   8796.5466      66.265884      8862.8124      333.97732     -3070.1742      15418.541    
     13400   8938.3452      68.28992       9006.6351      344.17838      1208.8168      15418.541    
     13600   8811.7272      66.555458      8878.2826      335.43676     -440.24575      15418.541    
     13800   8955.678       66.0098        9021.6878      332.68667     -1373.5003      15418.541    
     14000   8762.8147      66.065865      8828.8806      332.96923     -1657.4511      15418.541    
     14200   8793.5831      66.477571      8860.0607      335.04422     -461.91565      15418.541    
     14400   8921.1712      66.172106      8987.3434      333.50468      143.63332      15418.541    
     14600   8858.0734      64.625694      8922.6991      325.71083     -297.27496      15418.541    
     14800   8793.3866      64.841793      8858.2284      326.79996      528.17337      15418.541    
     15000   9016.3475      65.523111      9081.8706      330.23377     -3271.2847      15418.541    
     15200   8871.8808      65.694932      8937.5757      331.09975     -1098.0528      15418.541    
     15400   8953.2353      64.107894      9017.3432      323.10114      239.78069      15418.541    
     15600   8985.503       63.705211      9049.2083      321.07163     -1378.1797      15418.541    
     15800   8854.7091      66.401026      8921.1101      334.65843      617.06112      15418.541    
     16000   8887.4376      65.605159      8953.0427      330.64729     -638.90894      15418.541    
     16200   8905.2764      63.769113      8969.0455      321.3937      -742.51552      15418.541    
     16400   8886.4608      66.639068      8953.0999      335.85815     -778.57395      15418.541    
     16600   9016.6622      64.562264      9081.2244      325.39115     -1785.9734      15418.541    
     16800   8934.2706      67.160932      9001.4315      338.48833     -523.58937      15418.541    
     17000   8824.7403      64.945469      8889.6857      327.32248     -1937.1794      15418.541    
     17200   8824.1716      65.862177      8890.0338      331.94265     -520.49496      15418.541    
     17400   8807.6944      66.744686      8874.4391      336.39047     -177.804        15418.541    
     17600   8954.0945      64.831719      9018.9262      326.74919     -1777.5752      15418.541    
     17800   8856.9987      66.542457      8923.5412      335.37124     -224.42941      15418.541    
     18000   8828.0453      64.225318      8892.2707      323.69295     -346.02104      15418.541    
     18200   8921.2924      67.774791      8989.0672      341.58215     -274.47083      15418.541    
     18400   8988.3286      65.499274      9053.8279      330.11364     -1368.492       15418.541    
     18600   8873.9567      68.531374      8942.4881      345.3953      -1931.6004      15418.541    
     18800   8829.6381      65.313103      8894.9512      329.17535     -1704.9776      15418.541    
     19000   8859.5689      67.669247      8927.2381      341.05022     -2146.4675      15418.541    
     19200   8907.4767      67.864256      8975.3409      342.03305     -1358.8833      15418.541    
     19400   8829.5291      65.831702      8895.3608      331.78906      986.12497      15418.541    
     19600   8891.1869      68.084907      8959.2718      343.14512     -1449.6622      15418.541    
     19800   8973.2117      65.939021      9039.1507      332.32995     -2367.7267      15418.541    
     20000   8844.4175      66.560083      8910.9776      335.46007     -2509.7905      15418.541    
     20200   8957.1254      65.663809      9022.7892      330.94289      332.21618      15418.541    
     20400   8923.5856      66.956159      8990.5418      337.45628     -334.41048      15418.541    
     20600   8925.0687      65.187162      8990.2559      328.54061     -1323.5603      15418.541    
     20800   8732.0044      65.904175      8797.9085      332.15432     -730.40654      15418.541    
     21000   8925.1291      64.400183      8989.5293      324.57426     -2248.4771      15418.541    
     21200   8878.0572      63.092622      8941.1499      317.98421     -2038.6388      15418.541    
     21400   8940.5479      64.232117      9004.78        323.72722      208.22659      15418.541    
     21600   8891.4924      64.914923      8956.4073      327.16853      1178.8073      15418.541    
     21800   8749.1103      62.97504       8812.0854      317.3916      -1193.4278      15418.541    
     22000   8924.6726      63.143093      8987.8157      318.23858     -1359.8348      15418.541    
     22200   8841.2102      66.365827      8907.576       334.48103     -896.19169      15418.541    
     22400   8779.4863      63.901812      8843.3881      322.06249     -2353.4076      15418.541    
     22600   8985.6119      65.554917      9051.1668      330.39408     -1510.7087      15418.541    
     22800   8842.3216      64.622553      8906.9442      325.695       -2314.8086      15418.541    
     23000   8890.4731      64.139807      8954.6129      323.26198     -2493.0742      15418.541    
     23200   8809.1819      64.871733      8874.0536      326.95086     -2604.652       15418.541    
     23400   8857.1288      64.232297      8921.3611      323.72813     -982.98263      15418.541    
     23600   8966.0747      66.545511      9032.6202      335.38663     -3070.4684      15418.541    
     23800   8968.7597      63.241529      9032.0013      318.7347       1086.7768      15418.541    
     24000   8982.0551      65.43206       9047.4871      329.77489     -2380.3845      15418.541    
     24200   8982.9677      64.118049      9047.0857      323.15232     -979.80156      15418.541    
     24400   8791.481       63.373826      8854.8549      319.40147     -211.36361      15418.541    
     24600   8855.2474      63.533804      8918.7812      320.20775     -1181.2369      15418.541    
     24800   8936.6726      62.194701      8998.8673      313.45873     -2056.6492      15418.541    
     25000   8901.903       65.185846      8967.0888      328.53397     -595.95906      15418.541    
     25200   8918.7961      64.626772      8983.4228      325.71626     -607.98263      15418.541    
     25400   8920.6519      63.20544       8983.8573      318.55281     -498.55668      15418.541    
     25600   8825.0322      63.419854      8888.4521      319.63345      1379.3252      15418.541    
     25800   8903.1355      65.98561       8969.1211      332.56475     -2619.0144      15418.541    
     26000   8935.9833      65.84116       9001.8245      331.83673     -1402.7766      15418.541    
     26200   8905.1073      65.310998      8970.4183      329.16473     -295.97677      15418.541    
     26400   8840.6407      66.242205      8906.8829      333.85798     -2816.5064      15418.541    
     26600   8888.4906      66.730276      8955.2209      336.31784     -1097.7273      15418.541    
     26800   8795.5672      63.943637      8859.5108      322.27329     -2278.9228      15418.541    
     27000   8872.5413      67.142118      8939.6835      338.39351     -1306.0925      15418.541    
     27200   8888.3785      67.375855      8955.7544      339.57153     -388.47465      15418.541    
     27400   8824.4369      67.275299      8891.7122      339.06473      1095.8776      15418.541    
     27600   8904.6909      66.884528      8971.5755      337.09526     -309.35913      15418.541    
     27800   8968.7078      66.738287      9035.4461      336.35821     -3099.4473      15418.541    
     28000   8842.4411      64.856098      8907.2972      326.87206     -1006.0845      15418.541    
     28200   8952.5696      66.549378      9019.119       335.40612     -1850.8991      15418.541    
     28400   8858.3886      64.566248      8922.9549      325.41122     -234.29072      15418.541    
     28600   8808.2445      66.574947      8874.8194      335.53499     -640.89324      15418.541    
     28800   8890.5799      64.060133      8954.6401      322.86043     -528.30474      15418.541    
     29000   8953.6908      64.78065       9018.4715      326.4918      -917.62746      15418.541    
     29200   9031.8228      66.470509      9098.2933      335.00863      322.94872      15418.541    
     29400   8825.2051      64.831983      8890.0371      326.75052      2251.0824      15418.541    
     29600   8872.9112      64.772184      8937.6834      326.44913     -1669.8555      15418.541    
     29800   8826.5         62.799335      8889.2993      316.50606      1051.1029      15418.541    
     30000   8920.1305      64.702832      8984.8333      326.0996      -1626.562       15418.541    
     30200   9001.3909      62.921788      9064.3126      317.12321     -349.86695      15418.541    
     30400   8872.5959      63.172031      8935.7679      318.38443     -357.68846      15418.541    
     30600   8983.5533      63.769925      9047.3232      321.39779     -486.70864      15418.541    
     30800   8918.886       64.074604      8982.9606      322.93336     -1828.5402      15418.541    
     31000   8935.9479      62.772076      8998.72        316.36867      290.13665      15418.541    
     31200   8871.671       62.948972      8934.62        317.26022     -93.403502      15418.541    
     31400   8998.4877      64.102251      9062.5899      323.0727       797.59202      15418.541    
     31600   8980.9382      65.660097      9046.5983      330.92418      952.11778      15418.541    
     31800   8806.2619      64.443704      8870.7056      324.79361      259.85013      15418.541    
     32000   8855.0165      63.914166      8918.9307      322.12476     -347.19283      15418.541    
     32200   8965.5969      65.628844      9031.2258      330.76666      3102.2906      15418.541    
     32400   8885.9614      65.635508      8951.5969      330.80025     -52.363997      15418.541    
     32600   8918.27        65.824067      8984.0941      331.75058     -1335.1468      15418.541    
     32800   8857.776       62.964431      8920.7404      317.33813     -1090.4833      15418.541    
     33000   8904.0316      65.493528      8969.5252      330.08468      295.54994      15418.541    
     33200   8921.9504      64.396964      8986.3474      324.55804      627.59418      15418.541    
     33400   8856.2376      66.764069      8923.0017      336.48815     -433.15434      15418.541    
     33600   8919.8068      67.635952      8987.4428      340.88241     -2703.3067      15418.541    
     33800   8889.8324      65.918607      8955.751       332.22706      717.577        15418.541    
     34000   8857.6627      66.301213      8923.9639      334.15538     -1458.5909      15418.541    
     34200   8873.8206      66.182357      8940.0029      333.55635     -1797.7931      15418.541    
     34400   8765.0005      63.045589      8828.0461      317.74717      214.98881      15418.541    
     34600   8908.3841      63.729179      8972.1133      321.19243     -1868.9423      15418.541    
     34800   8904.3976      67.776995      8972.1746      341.59326     -70.570113      15418.541    
     35000   8937.7797      66.394127      9004.1738      334.62366     -1265.4915      15418.541    
     35200   8970.2853      65.789245      9036.0746      331.57508     -1740.575       15418.541    
     35400   8922.0823      65.898232      8987.9805      332.12437     -980.95134      15418.541    
     35600   8936.7208      67.126687      9003.8474      338.31573     -688.93228      15418.541    
     35800   8953.669       66.010168      9019.6792      332.68852     -1773.0156      15418.541    
     36000   8969.3011      66.093053      9035.3941      333.10626     -2339.4384      15418.541    
     36200   8889.1443      65.85779       8955.0021      331.92055     -1099.4923      15418.541    
     36400   8873.4121      65.059256      8938.4713      327.89596      635.63105      15418.541    
     36600   8857.609       64.20439       8921.8134      323.58748     -470.10396      15418.541    
     36800   8875.1191      61.953192      8937.0723      312.24153     -21.525947      15418.541    
     37000   8824.0632      64.254826      8888.318       323.84167     -3046.5352      15418.541    
     37200   8919.4183      64.231956      8983.6502      323.72641     -2729.7575      15418.541    
     37400   8950.1258      64.96721       9015.093       327.43206     -3183.1367      15418.541    
     37600   8772.242       66.419064      8838.6611      334.74934     -1431.6271      15418.541    
     37800   8950.8769      63.483087      9014.36        319.95214     -3006.2466      15418.541    
     38000   8868.7286      65.475573      8934.2042      329.99418     -2636.8442      15418.541    
     38200   8790.5846      63.573789      8854.1584      320.40927     -1732.1582      15418.541    
     38400   8932.9339      65.262726      8998.1966      328.92145      1449.831       15418.541    
     38600   8934.4573      63.849506      8998.3068      321.79888     -1414.8622      15418.541    
     38800   8982.1128      64.351911      9046.4647      324.33098     -897.95858      15418.541    
     39000   8888.671       62.015259      8950.6862      312.55435     -1363.5413      15418.541    
     39200   8935.3223      63.62168       8998.944       320.65064     -774.84213      15418.541    
     39400   8935.3419      63.912145      8999.254       322.11457     -1351.2652      15418.541    
     39600   8822.9895      64.577123      8887.5666      325.46604     -1755.9729      15418.541    
     39800   8904.0246      63.795955      8967.8206      321.52898     -2037.5168      15418.541    
     40000   8997.8444      66.166929      9064.0114      333.47859     -2135.2982      15418.541    
     40200   8952.937       63.279505      9016.2165      318.9261      -193.11231      15418.541    
     40400   8936.921       63.562621      9000.4836      320.35299     -534.95856      15418.541    
     40600   8967.1343      65.650141      9032.7844      330.874       -1615.0044      15418.541    
     40800   9015.9666      65.135977      9081.1026      328.28263      1769.1492      15418.541    
     41000   8970.4021      63.05894       9033.4611      317.81445      672.02138      15418.541    
     41200   9000.3707      65.44558       9065.8163      329.84302      1296.7565      15418.541    
     41400   8920.9216      65.264286      8986.1859      328.92931     -1194.2651      15418.541    
     41600   8922.409       64.171302      8986.5803      323.42071     -1331.6321      15418.541    
     41800   8984.5855      66.383194      9050.9687      334.56856     -1343.5581      15418.541    
     42000   8856.9616      66.362858      8923.3245      334.46607     -263.60242      15418.541    
     42200   8890.6421      64.959283      8955.6014      327.3921       801.47042      15418.541    
     42400   8937.5979      66.139764      9003.7376      333.34168     -748.36128      15418.541    
     42600   8825.9334      65.920333      8891.8537      332.23576     -408.91113      15418.541    
     42800   8763.0013      64.966477      8827.9678      327.42836     -1708.8438      15418.541    
     43000   8890.0358      65.973037      8956.0089      332.50139     -230.94906      15418.541    
     43200   8873.2946      66.66795       8939.9625      336.00372     -1259.2031      15418.541    
     43400   8985.205       66.744104      9051.9491      336.38753     -2046.6607      15418.541    
     43600   9019.2391      64.630394      9083.8694      325.73452     -1230.7048      15418.541    
     43800   8890.2009      65.527168      8955.728       330.25422     -3075.1361      15418.541    
     44000   8811.6694      63.889713      8875.5591      322.00152      647.60802      15418.541    
     44200   8890.0447      65.266698      8955.3114      328.94147     -1556.5499      15418.541    
     44400   8874.4081      64.521391      8938.9295      325.18515     -1578.5359      15418.541    
     44600   8761.5006      64.916994      8826.4176      327.17897      65.899246      15418.541    
     44800   8953.4719      64.394385      9017.8662      324.54504     -3274.971       15418.541    
     45000   8889.5793      63.752432      8953.3317      321.30963     -344.73151      15418.541    
     45200   8890.0074      62.955833      8952.9633      317.2948      -2636.5533      15418.541    
     45400   8986.6275      62.116972      9048.7445      313.06698     -1079.8452      15418.541    
     45600   8905.858       62.83754       8968.6956      316.69861     -2176.2803      15418.541    
     45800   9031.6572      65.166941      9096.8241      328.43869     -1407.5946      15418.541    
     46000   8969.6919      63.368572      9033.0605      319.37499      343.69119      15418.541    
     46200   8888.8216      64.604593      8953.4262      325.60449     -2212.3563      15418.541    
     46400   8938.7847      63.21966       9002.0044      318.62448     -1139.9037      15418.541    
     46600   8936.2116      66.531395      9002.743       335.31548      52.494246      15418.541    
     46800   8858.504       65.015492      8923.5195      327.6754      -1828.9895      15418.541    
     47000   8890.6831      65.527829      8956.2109      330.25755     -3500.5101      15418.541    
     47200   8891.2005      65.559003      8956.7595      330.41467     -13.064402      15418.541    
     47400   8923.1762      65.935538      8989.1118      332.31239     -1126.36        15418.541    
     47600   8844.0568      65.315575      8909.3724      329.1878      -3232.8045      15418.541    
     47800   8843.8684      65.685526      8909.554       331.05234     -1999.8834      15418.541    
     48000   8794.4784      67.135758      8861.6141      338.36145     -633.60151      15418.541    
     48200   8683.5473      66.10103       8749.6483      333.14646     -1372.3059      15418.541    
     48400   8796.5767      65.052459      8861.6292      327.86171      1573.1772      15418.541    
     48600   8683.7597      65.82409       8749.5838      331.7507       1276.751       15418.541    
     48800   8844.1374      65.409642      8909.5471      329.6619       634.25704      15418.541    
     49000   8877.2141      64.344508      8941.5586      324.29366     -270.28913      15418.541    
     49200   8908.2651      65.38449       8973.6496      329.53513     -2911.3799      15418.541    
     49400   8906.6851      67.038829      8973.724       337.87293     -749.53143      15418.541    
     49600   8876.656       65.198654      8941.8546      328.59853     -2778.9424      15418.541    
     49800   8925.4099      64.62854       8990.0385      325.72517     -2996.7335      15418.541    
     50000   8861.7573      64.500517      8926.2579      325.07994     -703.1922       15418.541    
     50200   9118.3391      64.252506      9182.5916      323.82998     -2748.8403      15418.541    
     50400   8779.7967      67.173573      8846.9703      338.55204     -615.41697      15418.541    
     50600   8844.9931      66.380314      8911.3734      334.55404     -576.57666      15418.541    
     50800   8812.2041      67.639209      8879.8433      340.89883     -2988.9614      15418.541    
     51000   8830.3055      66.011014      8896.3165      332.69279     -84.138405      15418.541    
     51200   8798.6521      66.146765      8864.7989      333.37697     -1528.7519      15418.541    
     51400   8910.0096      67.224279      8977.2339      338.80759      509.41727      15418.541    
     51600   8972.9668      68.588707      9041.5555      345.68425     -689.00333      15418.541    
     51800   8863.1119      66.60916       8929.7211      335.70742     -1135.184       15418.541    
     52000   8831.2266      66.569863      8897.7965      335.50936      936.70646      15418.541    
     52200   8767.0643      66.71174       8833.776       336.22442     -378.62502      15418.541    
     52400   8829.7848      67.857054      8897.6419      341.99675      1135.9677      15418.541    
     52600   8734.8089      66.563712      8801.3726      335.47836     -864.65681      15418.541    
     52800   8909.7869      67.112754      8976.8996      338.24551     -101.92006      15418.541    
     53000   8778.4861      69.670246      8848.1563      351.13516      338.69841      15418.541    
     53200   8829.2029      65.979738      8895.1827      332.53516     -99.540421      15418.541    
     53400   8911.425       62.838779      8974.2637      316.70485     -1106.7992      15418.541    
     53600   8940.1718      65.376664      9005.5485      329.49569      1225.76        15418.541    
     53800   8907.4587      65.60221       8973.0609      330.63243     -1610.3366      15418.541    
     54000   8779.1775      65.46322       8844.6407      329.93193      237.53754      15418.541    
     54200   8937.1001      67.20646       9004.3066      338.71779     -1967.9903      15418.541    
     54400   8954.7183      65.381533      9020.0999      329.52023     -1185.792       15418.541    
     54600   8889.8665      66.048548      8955.9151      332.88196      815.32779      15418.541    
     54800   8809.8072      65.938567      8875.7458      332.32766     -1007.0073      15418.541    
     55000   8905.7306      65.873214      8971.6038      331.99828      49.505656      15418.541    
     55200   8970.0229      65.442445      9035.4653      329.82722      294.5024       15418.541    
     55400   8904.284       67.031805      8971.3158      337.83753      2640.8363      15418.541    
     55600   8937.1763      65.946524      9003.1229      332.36776     -613.01062      15418.541    
     55800   8713.6566      65.279241      8778.9358      329.00468     -984.25         15418.541    
     56000   8904.7634      65.998617      8970.762       332.63031     -774.87667      15418.541    
     56200   8841.2856      65.291419      8906.577       329.06606      1654.6673      15418.541    
     56400   8871.9442      66.48827       8938.4325      335.09814     -611.56903      15418.541    
     56600   8841.6324      64.620908      8906.2534      325.68671      1250.6491      15418.541    
     56800   8904.9593      65.084096      8970.0434      328.02116     -1629.6794      15418.541    
     57000   8871.0607      66.709444      8937.7701      336.21285     -1610.0896      15418.541    
     57200   8902.8424      66.535323      8969.3777      335.33528      1290.7286      15418.541    
     57400   8823.7621      65.10719       8888.8693      328.13755      2036.1267      15418.541    
     57600   8901.9731      66.287973      8968.261       334.08865     -1474.3995      15418.541    
     57800   8982.8501      64.767827      9047.6179      326.42717     -697.48585      15418.541    
     58000   8806.7179      64.306132      8871.024       324.10025     -608.88062      15418.541    
     58200   8965.7764      64.778469      9030.5548      326.48081      642.94958      15418.541    
     58400   8854.9382      63.25932       8918.1976      318.82436     -243.63029      15418.541    
     58600   8808.5032      61.528357      8870.0316      310.10038      1087.8106      15418.541    
     58800   8870.301       63.782326      8934.0833      321.46029     -626.18814      15418.541    
     59000   8919.367       62.926012      8982.293       317.1445       2910.6364      15418.541    
     59200   9030.802       63.928391      9094.7304      322.19645     -2744.203       15418.541    
     59400   8936.8688      62.507553      8999.3763      315.03549      307.24335      15418.541    
     59600   8936.2563      63.879139      9000.1354      321.94823     -2239.9401      15418.541    
     59800   8984.4762      64.441523      9048.9177      324.78262     -3707.3762      15418.541    
     60000   8903.4125      66.155276      8969.5677      333.41986      504.80663      15418.541    
     60200   8920.0221      65.97213       8985.9942      332.49681      46.297977      15418.541    
     60400   8922.4429      63.758422      8986.2013      321.33981     -1756.9447      15418.541    
     60600   8921.631       64.712912      8986.3439      326.1504       630.60305      15418.541    
     60800   8970.8492      63.648088      9034.4972      320.78374     -758.84609      15418.541    
     61000   8920.6483      66.026576      8986.6749      332.77122     -706.27689      15418.541    
     61200   8761.9868      64.856071      8826.8429      326.87192      1480.5468      15418.541    
     61400   8999.9301      67.068574      9066.9987      338.02284      1047.0598      15418.541    
     61600   9034.8249      64.290348      9099.1153      324.0207       83.361207      15418.541    
     61800   8872.7888      66.293742      8939.0825      334.11772     -1736.5768      15418.541    
     62000   8858.6086      64.447514      8923.0561      324.81281     -209.92216      15418.541    
     62200   9000.3051      66.722093      9067.0272      336.2766      -2656.1869      15418.541    
     62400   8937.1172      65.899885      9003.0171      332.1327       62.46812       15418.541    
     62600   8843.0724      63.936178      8907.0086      322.2357       1854.089       15418.541    
     62800   8937.5335      65.467952      9003.0014      329.95577     -68.963665      15418.541    
     63000   8824.8865      66.045429      8890.932       332.86624      2146.0053      15418.541    
     63200   9032.7015      66.044418      9098.746       332.86114     -2625.2836      15418.541    
     63400   8774.7288      67.637857      8842.3667      340.89201      1426.7894      15418.541    
     63600   8808.3621      65.446158      8873.8083      329.84594     -166.44001      15418.541    
     63800   8904.0811      65.040752      8969.1219      327.80271     -1162.2914      15418.541    
     64000   8984.9055      63.580004      9048.4855      320.4406      -3479.5821      15418.541    
     64200   8806.9241      65.022013      8871.9461      327.70826      1532.2158      15418.541    
     64400   9030.3864      65.082971      9095.4693      328.01549      1224.6271      15418.541    
     64600   8933.036       66.0671        8999.1031      332.97546     -426.11537      15418.541    
     64800   8870.9057      63.932993      8934.8387      322.21965     -2422.7211      15418.541    
     65000   8920.0757      62.632364      8982.7081      315.66453     -887.08053      15418.541    
     65200   8953.2889      61.470215      9014.7591      309.80735     -664.4273       15418.541    
     65400   9015.6386      63.321783      9078.9604      319.13918     -1431.9974      15418.541    
     65600   8952.2407      63.075659      9015.3164      317.89872     -1432.8705      15418.541    
     65800   8917.8028      65.991244      8983.7941      332.59315     -2307.1083      15418.541    
     66000   8870.5338      65.856617      8936.3904      331.91463     -1549.6728      15418.541    
     66200   8937.7506      63.342914      9001.0935      319.24567      1633.2484      15418.541    
     66400   8794.4057      63.36976       8857.7755      319.38097      1370.5784      15418.541    
     66600   8999.7871      66.572369      9066.3594      335.52199      313.29696      15418.541    
     66800   8906.5867      64.170593      8970.7573      323.41714     -346.53197      15418.541    
     67000   9001.9964      64.990181      9066.9866      327.54783     -177.75236      15418.541    
     67200   8729.4928      65.66573       8795.1585      330.95257      162.00302      15418.541    
     67400   8938.7934      64.50014       9003.2935      325.07805     -2907.3907      15418.541    
     67600   8842.0129      65.409653      8907.4226      329.66195      1258.355       15418.541    
     67800   8906.3181      65.187465      8971.5055      328.54213     -467.15635      15418.541    
     68000   9017.5918      65.981929      9083.5737      332.5462      -395.86825      15418.541    
     68200   8827.8437      63.82369       8891.6674      321.66876      1285.4655      15418.541    
     68400   8924.0801      63.718539      8987.7986      321.13881      1562.8104      15418.541    
     68600   8922.3421      65.6244        8987.9665      330.74427     -571.16281      15418.541    
     68800   8746.4568      65.711712      8812.1685      331.18432     -198.02183      15418.541    
     69000   8874.6061      65.737747      8940.3439      331.31553     -2199.6794      15418.541    
     69200   8954.6871      65.763387      9020.4505      331.44476     -1179.2773      15418.541    
     69400   8699.1699      65.436003      8764.6059      329.79476     -553.31464      15418.541    
     69600   8826.5867      66.161866      8892.7485      333.45307      827.19505      15418.541    
     69800   8919.5466      69.332389      8988.8789      349.43238     -372.49493      15418.541    
     70000   8745.826       67.13017       8812.9561      338.33329      230.34001      15418.541    
     70200   8921.2468      67.675435      8988.9223      341.0814      -2355.6093      15418.541    
     70400   8857.9664      66.799438      8924.7659      336.66641     -66.663951      15418.541    
     70600   8889.0244      67.452327      8956.4767      339.95695     -3256.4136      15418.541    
     70800   8825.7683      66.261372      8892.0297      333.95458     -510.86486      15418.541    
     71000   8778.547       64.956105      8843.5031      327.37609     -1682.6189      15418.541    
     71200   8838.7951      68.079897      8906.875       343.11987      769.04205      15418.541    
     71400   8890.369       63.844795      8954.2138      321.77513      30.493626      15418.541    
     71600   8838.8528      66.750213      8905.603       336.41832     -2002.7787      15418.541    
     71800   8840.8341      64.335629      8905.1698      324.24892     -2211.1777      15418.541    
     72000   8905.3175      63.492531      8968.81        319.99974      577.2107       15418.541    
     72200   9015.5858      64.968074      9080.5538      327.43641     -2744.1538      15418.541    
     72400   8967.0172      65.400196      9032.4174      329.61429      560.28778      15418.541    
     72600   8936.3549      63.973842      9000.3288      322.42552     -3548.5004      15418.541    
     72800   8952.7518      63.544013      9016.2958      320.25921     -790.00688      15418.541    
     73000   8744.4997      63.864945      8808.3646      321.87669      1494.6562      15418.541    
     73200   8966.8915      65.616462      9032.508       330.70426      525.54718      15418.541    
     73400   8887.4638      65.285124      8952.7489      329.03433      11.868165      15418.541    
     73600   8951.7416      65.418252      9017.1598      329.70529     -771.18729      15418.541    
     73800   8904.9628      64.771176      8969.734       326.44405     -2086.3236      15418.541    
     74000   8986.0519      64.452292      9050.5042      324.83689     -1516.6104      15418.541    
     74200   8810.8177      64.588293      8875.406       325.52233      2284.5582      15418.541    
     74400   8953.6147      66.669577      9020.2843      336.01192     -2795.25        15418.541    
     74600   8923.274       65.762596      8989.0366      331.44077     -826.29949      15418.541    
     74800   8843.8089      65.682213      8909.4911      331.03564      1233.1374      15418.541    
     75000   8906.5265      67.198499      8973.725       338.67766      670.98403      15418.541    
     75200   8796.7281      65.107026      8861.8352      328.13672      1104.5483      15418.541    
     75400   8875.4791      66.337777      8941.8169      334.33966      1680.6423      15418.541    
     75600   8921.9969      67.760541      8989.7575      341.51033      438.00641      15418.541    
     75800   8986.7076      66.869088      9053.5767      337.01744      297.09021      15418.541    
     76000   8969.771       67.524641      9037.2957      340.3214       1406.9435      15418.541    
     76200   9036.1385      64.836231      9100.9747      326.77193     -2295.507       15418.541    
     76400   8795.0704      65.529922      8860.6003      330.2681      -1047.307       15418.541    
     76600   8939.1524      65.105347      9004.2577      328.12826     -2245.0158      15418.541    
     76800   8891.0181      64.978285      8955.9964      327.48787     -1094.5325      15418.541    
     77000   8872.9385      66.773779      8939.7123      336.53709      387.93891      15418.541    
     77200   8856.3792      67.010362      8923.3896      337.72946     -2110.7857      15418.541    
     77400   8842.9645      64.138515      8907.103       323.25547     -1325.6544      15418.541    
     77600   8855.6485      67.150636      8922.7991      338.43643     -1198.9687      15418.541    
     77800   8889.0413      65.480894      8954.5222      330.02101      497.86701      15418.541    
     78000   8905.3106      64.965928      8970.2765      327.4256      -45.548432      15418.541    
     78200   8952.2456      65.834684      9018.0803      331.80409     -1835.5708      15418.541    
     78400   8919.5139      66.352006      8985.8659      334.41137      2820.2591      15418.541    
     78600   8838.7095      66.924256      8905.6337      337.29549     -2763.9061      15418.541    
     78800   8759.2187      66.176257      8825.3949      333.52561     -455.31529      15418.541    
     79000   8953.5729      63.612691      9017.1856      320.60534     -2232.9183      15418.541    
     79200   8856.6136      64.369589      8920.9832      324.42007     -1677.9607      15418.541    
     79400   8985.405       63.360145      9048.7651      319.33252     -369.89373      15418.541    
     79600   8934.5567      65.931962      9000.4886      332.29437      1479.3452      15418.541    
     79800   8856.0218      64.107881      8920.1297      323.10108     -1173.9861      15418.541    
     80000   8919.4779      64.273076      8983.751       323.93365      357.27468      15418.541    
     80200   8903.4011      64.042001      8967.4431      322.76904     -546.35159      15418.541    
     80400   8934.2119      65.002694      8999.2146      327.61089     -896.05187      15418.541    
     80600   8776.7447      62.397618      8839.1424      314.48142      3134.2699      15418.541    
     80800   8966.7582      64.45731       9031.2155      324.86219      588.77883      15418.541    
     81000   8903.6138      63.797531      8967.4114      321.53692     -1478.003       15418.541    
     81200   8966.8144      64.884179      9031.6986      327.01358     -75.457809      15418.541    
     81400   8952.0903      64.094323      9016.1847      323.03274     -692.35088      15418.541    
     81600   8950.1271      66.668672      9016.7958      336.00736      1309.8202      15418.541    
     81800   8792.229       65.162164      8857.3912      328.41462     -389.3589       15418.541    
     82000   8872.0901      65.912002      8938.0021      332.19377      508.34118      15418.541    
     82200   8954.3395      64.269393      9018.6089      323.91509     -2290.4021      15418.541    
     82400   8857.0509      66.123213      8923.1742      333.25826     -2390.242       15418.541    
     82600   8780.3828      63.294363      8843.6771      319.00098     -3467.9577      15418.541    
     82800   9032.9617      67.16226       9100.124       338.49502      753.81939      15418.541    
     83000   8825.5041      66.964858      8892.469       337.50012      453.56614      15418.541    
     83200   9016.945       67.700415      9084.6454      341.2073      -660.9708       15418.541    
     83400   8844.7976      63.975925      8908.7735      322.43602     -1144.137       15418.541    
     83600   8874.5694      66.298892      8940.8683      334.14368     -1737.439       15418.541    
     83800   8954.5723      66.398146      9020.9704      334.64391      181.68821      15418.541    
     84000   8921.7295      67.295669      8989.0252      339.1674      -4632.7201      15418.541    
     84200   8842.5462      66.524014      8909.0702      335.27829     -2031.1407      15418.541    
     84400   8780.0297      65.061764      8845.0915      327.90861     -2292.697       15418.541    
     84600   8874.0391      67.115228      8941.1543      338.25798     -1697.423       15418.541    
     84800   8730.4446      66.757457      8797.202       336.45483      579.91037      15418.541    
     85000   8970.4175      66.806146      9037.2236      336.70022     -900.54547      15418.541    
     85200   8828.116       65.005554      8893.1215      327.62531      1404.9177      15418.541    
     85400   8891.5396      65.370143      8956.9097      329.46282     -999.7614       15418.541    
     85600   9082.3244      66.288538      9148.613       334.0915      -2663.8937      15418.541    
     85800   8922.691       65.483941      8988.175       330.03636     -1863.131       15418.541    
     86000   9050.8556      64.75542       9115.6111      326.36465     -891.02401      15418.541    
     86200   8810.5362      64.478822      8875.0151      324.9706       226.1158       15418.541    
     86400   8951.9018      66.516487      9018.4183      335.24035     -1128.369       15418.541    
     86600   8857.6514      64.258218      8921.9096      323.85877     -185.59308      15418.541    
     86800   8859.5007      62.012355      8921.513       312.53971     -3521.7108      15418.541    
     87000   8935.7936      65.368455      9001.162       329.45431      919.03238      15418.541    
     87200   8808.0842      64.743256      8872.8275      326.30334      2190.017       15418.541    
     87400   8936.7673      63.722752      9000.4901      321.16004      516.53168      15418.541    
     87600   8888.3013      63.946463      8952.2478      322.28753     -21.383593      15418.541    
     87800   9078.1739      65.94293       9144.1169      332.34964     -799.63557      15418.541    
     88000   8918.3598      65.653945      8984.0137      330.89318      169.21723      15418.541    
     88200   8951.6937      64.227433      9015.9212      323.70361     -800.41733      15418.541    
     88400   8920.3714      63.563959      8983.9353      320.35973     -3695.3388      15418.541    
     88600   8758.8231      65.301115      8824.1242      329.11493      238.7025       15418.541    
     88800   8887.7166      64.797212      8952.5138      326.57527     -649.15045      15418.541    
     89000   8920.0948      65.038045      8985.1328      327.78906     -1518.6059      15418.541    
     89200   8699.8842      62.121105      8762.0053      313.08781     -650.06453      15418.541    
     89400   8938.4473      64.524265      9002.9715      325.19963     -1322.6108      15418.541    
     89600   8888.587       67.252362      8955.8393      338.94913     -102.54979      15418.541    
     89800   8938.7547      65.631634      9004.3864      330.78073     -2047.9499      15418.541    
     90000   8903.98        68.718252      8972.6983      346.33715      493.42683      15418.541    
     90200   9018.8601      65.985757      9084.8459      332.5655      -1702.0199      15418.541    
     90400   8875.0369      65.838866      8940.8758      331.82517     -243.34876      15418.541    
     90600   8906.6951      66.21732       8972.9124      333.73256     -1813.3539      15418.541    
     90800   8954.3317      66.550677      9020.8823      335.41267     -2673.7553      15418.541    
     91000   8937.138       67.644728      9004.7827      340.92664     -285.528        15418.541    
     91200   8906.7887      65.869296      8972.658       331.97853     -1917.5567      15418.541    
     91400   8938.249       66.215794      9004.4648      333.72487      303.06053      15418.541    
     91600   8922.7428      65.478552      8988.2213      330.0092      -3217.2757      15418.541    
     91800   8872.8777      67.040538      8939.9182      337.88155     -1314.3317      15418.541    
     92000   8968.1531      67.455688      9035.6088      339.97388      1325.8051      15418.541    
     92200   8969.2739      65.913088      9035.1869      332.19924     -343.68938      15418.541    
     92400   8969.8282      64.802925      9034.6311      326.60407     -2805.5906      15418.541    
     92600   8872.8591      65.127533      8937.9867      328.24008     -618.84095      15418.541    
     92800   8825.2225      64.105311      8889.3278      323.08812     -507.30924      15418.541    
     93000   8744.2027      64.493523      8808.6963      325.0447       21.093766      15418.541    
     93200   8984.1953      64.004836      9048.2002      322.58173      331.86945      15418.541    
     93400   8983.6219      64.24913       9047.871       323.81297     -1664.2988      15418.541    
     93600   9014.9633      64.753446      9079.7168      326.35469     -5328.1738      15418.541    
     93800   9030.8034      64.895084      9095.6985      327.06855     -2225.8485      15418.541    
     94000   8809.0087      62.757543      8871.7662      316.29543     -3196.7561      15418.541    
     94200   8951.0575      64.884164      9015.9417      327.01351     -1393.0495      15418.541    
     94400   8904.4401      63.696893      8968.137       321.02971      1337.6444      15418.541    
     94600   8869.9995      66.306928      8936.3064      334.18418     -742.81019      15418.541    
     94800   8919.7459      64.720654      8984.4666      326.18943     -3630.1223      15418.541    
     95000   8936.1387      64.535026      9000.6738      325.25387      256.58187      15418.541    
     95200   8761.0986      63.842035      8824.9406      321.76122     -2727.2787      15418.541    
     95400   8871.6614      65.530307      8937.1917      330.27004      323.54776      15418.541    
     95600   8922.0824      63.351266      8985.4337      319.28777      979.82995      15418.541    
     95800   8888.1795      65.552819      8953.7323      330.3835      -1394.4424      15418.541    
     96000   9000.1264      65.948973      9066.0754      332.3801      -806.24601      15418.541    
     96200   8792.1074      66.275788      8858.3831      334.02724      1123.5513      15418.541    
     96400   8920.0399      66.560544      8986.6005      335.4624       1769.7911      15418.541    
     96600   8986.7945      63.987589      9050.7821      322.49481     -1318.9155      15418.541    
     96800   8872.4096      66.552209      8938.9618      335.42039      1009.547       15418.541    
     97000   8872.5615      66.544937      8939.1064      335.38374     -2156.9091      15418.541    
     97200   8920.7031      66.441874      8987.145       334.8643      -192.13086      15418.541    
     97400   8889.4785      65.732909      8955.2114      331.29115     -641.34568      15418.541    
     97600   8984.1501      67.162187      9051.3123      338.49465     -2636.7305      15418.541    
     97800   8776.8903      66.530528      8843.4208      335.31111     -975.18336      15418.541    
     98000   8858.2095      65.240124      8923.4496      328.80753     -1108.4264      15418.541    
     98200   9032.6397      66.763034      9099.4027      336.48293      899.09031      15418.541    
     98400   8873.8928      65.348673      8939.2415      329.35462     -96.567126      15418.541    
     98600   9002.5766      64.378866      9066.9555      324.46683     -1849.148       15418.541    
     98800   9016.1075      66.493426      9082.6009      335.12413      178.68692      15418.541    
     99000   8934.7016      67.447297      9002.1489      339.9316       1299.5897      15418.541    
     99200   8952.393       65.173015      9017.566       328.4693      -3293.1551      15418.541    
     99400   8919.5089      65.494229      8985.0032      330.08821     -616.22613      15418.541    
     99600   8823.4864      64.955867      8888.4422      327.37489     -875.50696      15418.541    
     99800   8823.947       63.998766      8887.9458      322.55114      191.2718       15418.541    
    100000   8998.7406      64.733177      9063.4738      326.25254     -302.32204      15418.541    
    100200   8871.3519      63.765203      8935.1172      321.37399     -2779.276       15418.541    
    100400   8823.8625      63.002849      8886.8653      317.53176     -1085.398       15418.541    
    100600   8919.2836      63.47414       8982.7577      319.90705      422.97598      15418.541    
    100800   8838.0824      64.634062      8902.7165      325.75301      939.45792      15418.541    
    101000   8806.6574      64.035094      8870.6925      322.73423     -691.98395      15418.541    
    101200   8885.7494      64.963368      8950.7128      327.41269     -786.11102      15418.541    
    101400   8854.4992      64.382414      8918.8816      324.48471     -150.48826      15418.541    
    101600   8918.6504      64.480497      8983.1309      324.97905     -577.25205      15418.541    
    101800   8951.0907      64.372364      9015.4631      324.43406     -1173.8432      15418.541    
    102000   8902.9691      64.952783      8967.9219      327.35935     -383.46186      15418.541    
    102200   8855.1028      65.469986      8920.5728      329.96603      771.20403      15418.541    
    102400   8889.316       64.040831      8953.3568      322.76315      1670.9963      15418.541    
    102600   8823.9045      66.325687      8890.2302      334.27872     -4338.3384      15418.541    
    102800   8828.2284      62.731021      8890.9594      316.16176     -1931.2205      15418.541    
    103000   8809.6652      65.820458      8875.4857      331.73239     -1462.7352      15418.541    
    103200   8731.1272      64.696636      8795.8239      326.06837     -2550.7675      15418.541    
    103400   8823.2494      68.754585      8892.004       346.52027     -957.80289      15418.541    
    103600   8920.8049      67.205053      8988.01        338.71069     -2485.6074      15418.541    
    103800   8809.0897      66.833024      8875.9228      336.83568     -415.57796      15418.541    
    104000   8936.1072      67.705927      9003.8131      341.23508     -2156.9375      15418.541    
    104200   8921.1449      66.458986      8987.6039      334.95055     -987.73452      15418.541    
    104400   9048.2897      67.018165      9115.3079      337.76879     -2438.1741      15418.541    
    104600   8794.2852      64.683814      8858.969       326.00375     -4293.7768      15418.541    
    104800   8838.8998      67.656223      8906.5561      340.98457      1653.0866      15418.541    
    105000   8935.7226      66.376321      9002.0989      334.53392     -1160.296       15418.541    
    105200   8808.6305      64.990463      8873.621       327.54925     -2846.4885      15418.541    
    105400   8919.1846      65.986826      8985.1714      332.57088     -1112.2432      15418.541    
    105600   8952.4341      64.354584      9016.7887      324.34445     -4452.954       15418.541    
    105800   8949.992       66.42259       9016.4146      334.76711     -2527.2865      15418.541    
    106000   8903.4502      64.603649      8968.0539      325.59973     -802.4932       15418.541    
    106200   8852.4451      67.256658      8919.7018      338.97078      1778.3137      15418.541    
    106400   8837.8168      65.606939      8903.4237      330.65627     -165.60235      15418.541    
    106600   8935.5016      63.756175      8999.2578      321.32849     -2092.3365      15418.541    
    106800   8886.5602      64.634243      8951.1944      325.75392     -73.227455      15418.541    
    107000   8869.5999      65.562502      8935.1624      330.43231      1170.1892      15418.541    
    107200   8854.9161      64.273088      8919.1892      323.93371      1681.3856      15418.541    
    107400   8918.8217      64.45279       8983.2745      324.8394       2265.0639      15418.541    
    107600   8886.1099      65.306853      8951.4168      329.14385      831.32777      15418.541    
    107800   8966.2821      65.239721      9031.5218      328.8055      -2045.9482      15418.541    
    108000   8856.9001      62.695654      8919.5957      315.98351      175.747        15418.541    
    108200   8887.6287      64.093908      8951.7226      323.03065      626.59015      15418.541    
    108400   8966.4975      65.348228      9031.8457      329.35237     -779.09852      15418.541    
    108600   8870.9133      65.096526      8936.0098      328.0838      -3119.3109      15418.541    
    108800   9112.5867      63.605919      9176.1926      320.57121     -2287.5967      15418.541    
    109000   8951.3842      65.02551       9016.4097      327.72589     -317.04699      15418.541    
    109200   8806.9208      65.722903      8872.6437      331.24072     -1684.5338      15418.541    
    109400   9015.4979      65.312055      9080.81        329.17006     -4116.2942      15418.541    
    109600   8823.0945      65.904197      8888.9987      332.15443     -2018.728       15418.541    
    109800   8920.4394      64.714102      8985.1535      326.1564       507.63955      15418.541    
    110000   8919.486       65.738921      8985.2249      331.32145      549.26353      15418.541    
    110200   8903.8259      65.438091      8969.264       329.80528     -111.6197       15418.541    
    110400   8920.7752      64.519387      8985.2946      325.17505     -31.889966      15418.541    
    110600   8760.8398      64.469589      8825.3094      324.92407     -1307.9178      15418.541    
    110800   8984.0964      65.237558      9049.3339      328.7946      -1145.7025      15418.541    
    111000   8873.0767      64.297395      8937.3741      324.05622     -1017.0127      15418.541    
    111200   8966.9898      66.470469      9033.4602      335.00842     -821.46347      15418.541    
    111400   8776.7391      64.758227      8841.4974      326.37879     -1709.4967      15418.541    
    111600   8857.7646      63.759002      8921.5236      321.34274      1837.3818      15418.541    
    111800   8966.832       66.777191      9033.6092      336.55429     -210.94511      15418.541    
    112000   9030.6603      67.030838      9097.6912      337.83266     -1536.2948      15418.541    
    112200   8856.5829      65.173484      8921.7564      328.47167     -2455.1556      15418.541    
    112400   8888.1164      65.692333      8953.8088      331.08665     -898.34287      15418.541    
    112600   8872.8515      64.981521      8937.833       327.50419     -2918.7992      15418.541    
    112800   8952.4099      65.414692      9017.8246      329.68735     -2896.7128      15418.541    
    113000   8934.778       67.083648      9001.8617      338.09882     -1712.562       15418.541    
    113200   8985.9571      63.900878      9049.8579      322.05779     -878.8328       15418.541    
    113400   8966.5861      67.299273      9033.8854      339.18556     -280.76061      15418.541    
    113600   8951.4971      66.485046      9017.9821      335.08189     -1558.446       15418.541    
    113800   8984.1977      65.863152      9050.0609      331.94757      563.97299      15418.541    
    114000   8840.182       65.943546      8906.1256      332.35275      271.19949      15418.541    
    114200   8952.2032      65.925742      9018.1289      332.26302     -1833.0233      15418.541    
    114400   8887.5         66.587171      8954.0871      335.59659     -618.34396      15418.541    
    114600   8969.3379      64.632174      9033.9701      325.74349      506.10634      15418.541    
    114800   9000.0571      65.754563      9065.8117      331.40028     -177.64312      15418.541    
    115000   8998.5694      67.002123      9065.5716      337.68794      2129.1779      15418.541    
    115200   8903.0888      66.196051      8969.2849      333.62537     -1316.5664      15418.541    
    115400   8999.9523      64.999864      9064.9522      327.59663     -3107.2218      15418.541    
    115600   8936.0504      64.596054      9000.6465      325.56145     -3867.2193      15418.541    
    115800   8917.7183      66.649872      8984.3681      335.91261     -813.94366      15418.541    
    116000   8918.8646      65.277857      8984.1425      328.9977      -297.94802      15418.541    
    116200   9032.3732      63.54785       9095.921       320.27854     -2107.4499      15418.541    
    116400   8791.4106      64.303841      8855.7145      324.08871     -1799.7099      15418.541    
    116600   8902.6784      64.874827      8967.5532      326.96645     -564.75325      15418.541    
    116800   8981.8902      65.549521      9047.4397      330.36688      1311.139       15418.541    
    117000   8933.2706      66.056488      8999.3271      332.92197     -710.53575      15418.541    
    117200   8871.5297      63.68188       8935.2116      320.95405     -73.383537      15418.541    
    117400   8854.5773      64.647323      8919.2246      325.81984      3348.1323      15418.541    
    117600   8806.2522      65.109797      8871.3619      328.15069      1390.6176      15418.541    
    117800   8950.5499      65.074326      9015.6242      327.97192     -453.62182      15418.541    
    118000   8935.7563      64.232148      8999.9885      323.72737     -121.96983      15418.541    
    118200   8965.9811      66.473781      9032.4549      335.02511     -516.36457      15418.541    
    118400   8838.9171      66.121587      8905.0387      333.25007      2149.842       15418.541    
    118600   8951.7768      65.804248      9017.581       331.6507      -2587.8537      15418.541    
    118800   8967.2918      66.828693      9034.1205      336.81385     -1055.4562      15418.541    
    119000   8873.2139      65.436314      8938.6502      329.79632     -476.56655      15418.541    
    119200   8713.6857      65.428786      8779.1145      329.75838     -861.9577       15418.541    
    119400   8858.0417      65.483641      8923.5253      330.03485      955.3527       15418.541    
    119600   9032.8276      67.029102      9099.8567      337.82391     -382.67329      15418.541    
    119800   8939.0057      65.079089      9004.0848      327.99592     -1536.5062      15418.541    
    120000   8983.7065      68.581866      9052.2884      345.64978     -811.04434      15418.541    
    120200   8888.9212      67.50975       8956.431       340.24636     -1275.3452      15418.541    
    120400   8810.0706      66.449753      8876.5204      334.90401      1239.671       15418.541    
    120600   8891.0269      65.446861      8956.4738      329.84948     -1888.8485      15418.541    
    120800   8938.9933      65.279768      9004.273       329.00734     -3837.9614      15418.541    
    121000   8920.8275      67.165082      8987.9926      338.50924     -3275.8917      15418.541    
    121200   8936.468       66.961675      9003.4297      337.48408     -2669.6961      15418.541    
    121400   8953.4504      65.147766      9018.5982      328.34205     -1284.7838      15418.541    
    121600   8950.4278      67.14666       9017.5744      338.41639     -1171.4291      15418.541    
    121800   8936.9992      63.603818      9000.603       320.56062     -1624.6382      15418.541    
    122000   8855.4721      64.443981      8919.9161      324.795       -66.177495      15418.541    
    122200   8903.0052      64.478029      8967.4832      324.96661      916.41603      15418.541    
    122400   8902.404       64.892419      8967.2965      327.05511      1244.6134      15418.541    
    122600   8951.7042      63.537913      9015.2421      320.22846     -1631.1212      15418.541    
    122800   8870.9736      64.331528      8935.3051      324.22825     -1916.6992      15418.541    
    123000   9000.0374      63.412424      9063.4498      319.596       -2223.8536      15418.541    
    123200   8888.4269      63.241644      8951.6686      318.73528      622.82675      15418.541    
    123400   8856.7279      63.237305      8919.9652      318.71341      1061.779       15418.541    
    123600   8824.7108      63.683161      8888.3939      320.9605      -1776.3138      15418.541    
    123800   8904.8259      64.001242      8968.8272      322.56362      1651.5114      15418.541    
    124000   9016.4953      64.828864      9081.3242      326.7348       577.26383      15418.541    
    124200   9000.2621      65.582851      9065.8449      330.53486     -3238.2186      15418.541    
    124400   8681.5677      64.823284      8746.391       326.70668      1539.8394      15418.541    
    124600   8889.403       65.450991      8954.854       329.8703       966.89992      15418.541    
    124800   8922.8054      64.458734      8987.2641      324.86936     -810.53738      15418.541    
    125000   8873.2201      66.380633      8939.6007      334.55565     -1016.687       15418.541    
    125200   8969.3639      66.451446      9035.8153      334.91255      605.4041       15418.541    
    125400   8808.6914      67.24871       8875.9401      338.93072     -1596.8137      15418.541    
    125600   8937.0598      66.917463      9003.9772      337.26125     -2659.4983      15418.541    
    125800   8826.9538      65.02097       8891.9748      327.70301      510.11533      15418.541    
    126000   8762.6269      65.274963      8827.9019      328.98312     -1285.5386      15418.541    
    126200   8887.7006      68.071828      8955.7724      343.07921      727.62         15418.541    
    126400   8954.7441      64.837765      9019.5818      326.77966     -3555.7167      15418.541    
    126600   8952.2065      67.145847      9019.3524      338.4123      -711.39584      15418.541    
    126800   8937.7323      65.370444      9003.1028      329.46434     -136.29149      15418.541    
    127000   8888.09        66.739057      8954.8291      336.36209      1231.9651      15418.541    
    127200   8921.6951      64.839335      8986.5344      326.78757     -850.61224      15418.541    
    127400   8938.4962      63.749609      9002.2459      321.2954      -1930.5304      15418.541    
    127600   8857.3986      64.600147      8921.9987      325.58207     -1021.4404      15418.541    
    127800   8889.8181      63.934865      8953.753       322.22908     -2808.7796      15418.541    
    128000   9079.4013      66.110562      9145.5118      333.1945      -2487.9371      15418.541    
    128200   8791.7732      65.386577      8857.1598      329.54565     -594.37143      15418.541    
    128400   8920.4256      64.234085      8984.6597      323.73714     -2240.4165      15418.541    
    128600   8936.1692      63.895509      9000.0647      322.03073     -2970.3079      15418.541    
    128800   9033.2443      62.231835      9095.4761      313.64588     -4211.1593      15418.541    
    129000   8919.4779      63.518503      8982.9964      320.13063     -413.04848      15418.541    
    129200   8759.0668      63.608719      8822.6755      320.58532      455.91944      15418.541    
    129400   8950.4065      64.103147      9014.5097      323.07722     -649.9728       15418.541    
    129600   8980.6999      65.760826      9046.4607      331.43185      96.084806      15418.541    
    129800   8839.7778      62.682045      8902.4598      315.91492      1560.2545      15418.541    
    130000   9013.8308      64.705213      9078.536       326.1116      -1357.1183      15418.541    
    130200   8871.2244      63.541294      8934.7657      320.2455      -1854.4721      15418.541    
    130400   8886.7236      64.42036       8951.144       324.67596      159.82793      15418.541    
    130600   8760.0843      63.643053      8823.7273      320.75836      1021.3426      15418.541    
    130800   9031.239       65.14255       9096.3816      328.31576      1152.5975      15418.541    
    131000   8840.4962      64.564701      8905.0609      325.40343     -14.356966      15418.541    
    131200   8807.7074      66.038627      8873.7461      332.83195     -1856.5373      15418.541    
    131400   8842.2868      64.056978      8906.3438      322.84453     -601.01502      15418.541    
    131600   8809.5302      65.313684      8874.8439      329.17827     -1257.3808      15418.541    
    131800   8986.9881      64.290163      9051.2783      324.01977     -287.70045      15418.541    
    132000   8841.0472      66.604368      8907.6516      335.68327      1039.3155      15418.541    
    132200   8936.1673      67.797643      9003.9649      341.69733     -1394.0074      15418.541    
    132400   8874.6782      65.541488      8940.2197      330.32639     -1014.1901      15418.541    
    132600   8761.9959      66.437436      8828.4333      334.84194     -2916.0596      15418.541    
    132800   9001.5742      67.017116      9068.5913      337.7635      -2526.5651      15418.541    
    133000   8699.8007      64.8912        8764.6919      327.04897     -3204.8506      15418.541    
    133200   8937.4038      67.312591      9004.7164      339.25268      302.97714      15418.541    
    133400   8762.3239      66.402735      8828.7266      334.66704     -1078.594       15418.541    
    133600   8780.0031      64.695132      8844.6983      326.0608      -1618.036       15418.541    
    133800   8889.6696      66.963866      8956.6335      337.49512     -952.56683      15418.541    
    134000   8872.47        68.050169      8940.5202      342.97004     -2004.5148      15418.541    
    134200   8714.4796      65.784098      8780.2637      331.54914     -935.26092      15418.541    
    134400   8730.557       65.335113      8795.8921      329.28627     -2359.3554      15418.541    
    134600   8888.3505      67.065691      8955.4162      338.00832     -1204.7032      15418.541    
    134800   8792.2705      66.46316       8858.7336      334.97158      1224.5687      15418.541    
    135000   8856.9617      64.869496      8921.8312      326.93959      1937.4342      15418.541    
    135200   8986.3344      62.623529      9048.958       315.62        -1129.3869      15418.541    
    135400   8871.4857      64.796841      8936.2825      326.57341     -2898.4753      15418.541    
    135600   8793.6522      62.235101      8855.8873      313.66234     -1371.1831      15418.541    
    135800   8969.0578      62.662108      9031.7199      315.81444     -836.28471      15418.541    
    136000   8871.2483      64.485324      8935.7337      325.00337      43.988856      15418.541    
    136200   9015.2977      64.549626      9079.8473      325.32745     -2696.8575      15418.541    
    136400   8873.1728      62.933571      8936.1064      317.1826      -1551.2106      15418.541    
    136600   8904.5817      63.915811      8968.4975      322.13305     -1301.5171      15418.541    
    136800   8872.3503      64.527886      8936.8782      325.21788     -1437.931       15418.541    
    137000   8842.2304      63.044743      8905.2752      317.7429       727.90392      15418.541    
    137200   8903.2228      66.482843      8969.7057      335.07078     -912.51269      15418.541    
    137400   8950.0214      68.063954      9018.0853      343.03952     -877.95195      15418.541    
    137600   8888.0487      66.327635      8954.3763      334.28854      2101.6637      15418.541    
    137800   8921.9735      64.603581      8986.5771      325.59938     -2189.1843      15418.541    
    138000   8874.3602      64.385108      8938.7453      324.49829     -749.39817      15418.541    
    138200   8905.5498      65.289905      8970.8397      329.05843     -1866.1566      15418.541    
    138400   9001.0186      65.930967      9066.9495      332.28935     -2322.7981      15418.541    
    138600   8905.1363      65.924334      8971.0607      332.25592     -272.79081      15418.541    
    138800   8827.0349      64.101891      8891.1368      323.07088      309.80405      15418.541    
    139000   8921.5483      65.678907      8987.2272      331.01898     -3163.4606      15418.541    
    139200   8889.427       65.863431      8955.2904      331.94897     -1310.2092      15418.541    
    139400   8936.3227      67.081461      9003.4042      338.0878      -813.35529      15418.541    
    139600   8875.4826      63.997553      8939.4801      322.54503      1603.3623      15418.541    
    139800   8889.3561      66.175846      8955.5319      333.52353     -764.44842      15418.541    
    140000   8952.0796      67.450574      9019.5301      339.94811     -589.89848      15418.541    
    140200   8952.0056      67.400564      9019.4062      339.69606     -635.61369      15418.541    
    140400   8761.7754      65.387807      8827.1632      329.55185     -2610.2586      15418.541    
    140600   8889.4777      65.223293      8954.701       328.72271     -1160.4495      15418.541    
    140800   8936.4507      65.56913       9002.0198      330.46571     -376.65382      15418.541    
    141000   8824.4461      64.784152      8889.2303      326.50945     -2331.4823      15418.541    
    141200   8856.3165      64.195097      8920.5116      323.54064     -1076.8489      15418.541    
    141400   8919.6919      64.161139      8983.853       323.36949     -757.01449      15418.541    
    141600   8917.2652      66.143903      8983.4091      333.36254     -1426.8884      15418.541    
    141800   8855.8354      63.272052      8919.1074      318.88853      973.9816       15418.541    
    142000   8983.0944      63.826158      9046.9206      321.6812      -2900.2494      15418.541    
    142200   8871.5681      63.302299      8934.8704      319.04097      220.02357      15418.541    
    142400   8919.2051      63.752367      8982.9575      321.3093      -1376.4546      15418.541    
    142600   8727.3096      63.872824      8791.1824      321.9164       385.64198      15418.541    
    142800   8920.1924      63.311897      8983.5043      319.08935     -1273.616       15418.541    
    143000   8982.4986      65.416472      9047.9151      329.69632     -540.15278      15418.541    
    143200   8760.2647      64.154816      8824.4195      323.33763     -977.73959      15418.541    
    143400   8969.2536      63.762465      9033.016       321.36019     -360.14879      15418.541    
    143600   9017.4306      64.249519      9081.6802      323.81493     -2220.4996      15418.541    
    143800   8729.8816      64.469358      8794.351       324.9229      -2049.2828      15418.541    
    144000   8856.7741      66.137478      8922.9116      333.33016     -883.8411       15418.541    
    144200   8794.8394      64.525202      8859.3646      325.20436     -1181.8923      15418.541    
    144400   8906.4873      65.230464      8971.7177      328.75885     -960.6416       15418.541    
    144600   8953.3092      66.733004      9020.0422      336.33159      1328.9223      15418.541    
    144800   8938.7705      65.513585      9004.284       330.18577     -1194.684       15418.541    
    145000   8921.7321      66.722823      8988.455       336.28027     -565.5017       15418.541    
    145200   8811.4174      65.134011      8876.5514      328.27273     -518.09714      15418.541    
    145400   8905.5094      67.059706      8972.5692      337.97815     -953.21752      15418.541    
    145600   8846.0826      62.446068      8908.5287      314.72561      312.53318      15418.541    
    145800   8860.2461      64.34312       8924.5892      324.28667     -1643.7901      15418.541    
    146000   8970.8859      65.81181       9036.6977      331.68881     -1093.4196      15418.541    
    146200   8938.6368      66.270478      9004.9073      334.00047     -165.98987      15418.541    
    146400   8830.9372      62.12559       8893.0627      313.11041     -1508.9735      15418.541    
    146600   8924.5072      64.739287      8989.2465      326.28333      821.82272      15418.541    
    146800   8973.0241      64.497961      9037.5221      325.06706     -1263.5537      15418.541    
    147000   8860.7907      65.110981      8925.9017      328.15666     -1060.0407      15418.541    
    147200   8859.8109      66.571364      8926.3822      335.51693      306.62584      15418.541    
    147400   8652.1056      66.748659      8718.8542      336.41049      1306.4951      15418.541    
    147600   8893.9659      65.357724      8959.3236      329.40023     -1187.397       15418.541    
    147800   8940.1209      67.615744      9007.7366      340.78056     -822.96279      15418.541    
    148000   8862.0177      66.138767      8928.1565      333.33665     -2020.2117      15418.541    
    148200   8766.2468      66.299362      8832.5462      334.14605      1466.8978      15418.541    
    148400   8782.9041      65.972675      8848.8768      332.49956     -887.06782      15418.541    
    148600   8875.8105      69.364541      8945.1751      349.59442     -407.15737      15418.541    
    148800   8845.1511      68.132238      8913.2833      343.38367      624.79822      15418.541    
    149000   8876.2715      68.834331      8945.1058      346.92219      2563.4305      15418.541    
    149200   8764.0712      68.514817      8832.586       345.31185     -995.85705      15418.541    
    149400   8715.2587      68.509157      8783.7679      345.28332     -1812.1364      15418.541    
    149600   8906.0698      68.672699      8974.7425      346.10757      1332.1789      15418.541    
    149800   8954.464       67.271538      9021.7355      339.04578     -1368.4164      15418.541    
    150000   8792.9389      67.950093      8860.889       342.46566     -111.92885      15418.541    
    150200   8987.671       64.625527      9052.2966      325.70999     -763.05049      15418.541    
    150400   8905.066       66.780994      8971.847       336.57345      207.81187      15418.541    
    150600   8984.863       66.636412      9051.4994      335.84477     -1792.703       15418.541    
    150800   8811.5252      63.642023      8875.1673      320.75317     -1565.8788      15418.541    
    151000   8857.6487      65.244177      8922.8929      328.82796      700.53242      15418.541    
    151200   9001.4842      65.214716      9066.6989      328.67948     -794.45975      15418.541    
    151400   8858.0909      64.465673      8922.5565      324.90433     -149.57096      15418.541    
    151600   8795.1995      63.291924      8858.4915      318.98869     -346.7032       15418.541    
    151800   8890.4781      64.049254      8954.5274      322.8056      -69.982049      15418.541    
    152000   8938.3362      64.326478      9002.6626      324.20279     -1700.2162      15418.541    
    152200   9003.4141      63.484899      9066.899       319.96127     -2371.9736      15418.541    
    152400   8857.9709      65.26556       8923.2365      328.93573      658.09384      15418.541    
    152600   8971.9816      63.684409      9035.666       320.9668      -1252.0532      15418.541    
    152800   8939.1608      64.984324      9004.1451      327.51831     -2464.0861      15418.541    
    153000   8859.431       65.310659      8924.7417      329.16303     -1334.9097      15418.541    
[...]
    163400   8840.2758      63.667213      8903.943       320.88013      155.40858      15418.541    
    163600   8839.0607      65.239913      8904.3006      328.80647      1037.8918      15418.541    
    163800   8904.6986      64.190286      8968.8889      323.51639     -2046.9606      15418.541    
    164000   8888.6817      65.02851       8953.7102      327.74101      1573.4288      15418.541    
    164200   8904.8235      65.899346      8970.7228      332.12999     -678.42973      15418.541    
    164400   8761.2619      66.436378      8827.6982      334.83661     -675.66204      15418.541    
    164600   8938.2821      66.091602      9004.3737      333.09895     -2507.6526      15418.541    
    164800   8939.1424      65.607896      9004.7503      330.66109     -2746.4984      15418.541    
    165000   8825.8142      67.137513      8892.9517      338.3703       8.0302781      15418.541    
    165200   8889.5831      67.450757      8957.0339      339.94903      562.36961      15418.541    
    165400   8860.2959      64.74472       8925.0407      326.31072     -1253.2741      15418.541    
    165600   8940.3149      64.68845       9005.0033      326.02712      1007.6154      15418.541    
    165800   8713.728       67.273834      8781.0019      339.05735     -294.67301      15418.541    
    166000   8922.8976      66.043928      8988.9415      332.85867     -1405.4669      15418.541    
    166200   8891.0079      65.839293      8956.8472      331.82732      257.32327      15418.541    
    166400   8890.3966      66.324201      8956.7208      334.27124      1600.5048      15418.541    
    166600   8953.7185      66.757584      9020.4761      336.45547     -335.65293      15418.541    
    166800   8908.0869      64.069889      8972.1568      322.9096       188.76677      15418.541    
    167000   8923.334       64.46324       8987.7973      324.89207     -2608.6682      15418.541    
    167200   8970.3725      65.038584      9035.4111      327.79178     -2047.4169      15418.541    
    167400   8792.0749      66.905303      8858.9802      337.19996      1335.369       15418.541    
    167600   8823.6358      66.933824      8890.5696      337.34371      871.10308      15418.541    
    167800   8938.445       63.781981      9002.227       321.45855     -1407.0483      15418.541    
    168000   8938.0891      63.905228      9001.9944      322.07971     -170.61077      15418.541    
    168200   8952.1283      65.721367      9017.8497      331.23298     -395.94476      15418.541    
    168400   8905.1945      64.623161      8969.8176      325.69806     -647.15624      15418.541    
    168600   8857.6422      64.199698      8921.8419      323.56383     -752.54547      15418.541    
    168800   8999.7879      66.162741      9065.9506      333.45748     -3908.4975      15418.541    
    169000   8937.7343      64.432724      9002.167       324.73827     -1247.658       15418.541    
    169200   8889.133       65.424093      8954.5571      329.73473     -980.99039      15418.541    
    169400   8730.2542      64.894321      8795.1485      327.0647      -2074.2742      15418.541    
    169600   8970.9998      64.916302      9035.9161      327.17549      350.0604       15418.541    
    169800   8940.3085      64.421875      9004.7304      324.68359     -1522.4343      15418.541    
    170000   8810.5239      66.937592      8877.4615      337.3627      -191.04895      15418.541    
    170200   8874.465       67.536874      8942.0019      340.38306      75.972139      15418.541    
    170400   8875.3517      67.027665      8942.3794      337.81667      760.45624      15418.541    
    170600   8811.4589      67.072879      8878.5318      338.04454     -2130.5781      15418.541    
    170800   8938.662       67.857529      9006.5196      341.99915     -1555.4705      15418.541    
    171000   8876.5035      65.938601      8942.4421      332.32783     -1803.1084      15418.541    
    171200   8779.7048      66.584836      8846.2896      335.58483     -2570.3378      15418.541    
    171400   8780.065       65.966024      8846.031       332.46604     -3978.6458      15418.541    
    171600   8877.1136      64.587364      8941.7009      325.51765     -374.75627      15418.541    
    171800   8811.4904      65.794981      8877.2854      331.60399     -2056.8358      15418.541    
    172000   8747.6945      65.111713      8812.8062      328.16035     -1341.6632      15418.541    
    172200   8860.3685      63.970759      8924.3393      322.40999      383.78006      15418.541    
    172400   8793.7206      66.183513      8859.9041      333.56218     -2649.8549      15418.541    
    172600   8763.9859      63.492889      8827.4788      320.00154     -835.10345      15418.541    
    172800   8938.0297      65.072598      9003.1023      327.96321     -1850.0824      15418.541    
    173000   8968.9085      65.874923      9034.7835      332.00689     -325.47301      15418.541    
    173200   8907.0169      63.458915      8970.4758      319.83031      107.1095       15418.541    
    173400   8823.4852      66.631721      8890.1169      335.82112      1464.1603      15418.541    
    173600   8954.7035      63.097848      9017.8014      318.01055     -676.60149      15418.541    
    173800   8792.8685      64.642345      8857.5109      325.79475     -922.84279      15418.541    
    174000   8969.7004      63.492828      9033.1932      320.00123     -439.41957      15418.541    
    174200   8857.4131      63.463482      8920.8766      319.85333      263.52741      15418.541    
    174400   8810.1355      62.411249      8872.5468      314.55012      1080.4146      15418.541    
    174600   8903.1487      64.970653      8968.1193      327.44941     -737.06952      15418.541    
    174800   8841.332       62.359475      8903.6914      314.28918     -2363.8356      15418.541    
    175000   9031.6214      63.695671      9095.317       321.02355     -228.07022      15418.541    
    175200   8932.7109      66.364324      8999.0752      334.47346     -335.06247      15418.541    
    175400   8792.6838      62.2277        8854.9115      313.62504      832.7528       15418.541    
    175600   8870.6489      64.235933      8934.8848      323.74645     -2505.906       15418.541    
    175800   8856.4843      62.589         8919.0733      315.44598      934.35091      15418.541    
    176000   8905.1154      62.34618       8967.4616      314.22218     -1985.5408      15418.541    
    176200   8823.4063      64.634608      8888.0409      325.75576     -1279.3983      15418.541    
    176400   8809.0946      63.653291      8872.7479      320.80996     -857.3636       15418.541    
    176600   8840.6041      64.881325      8905.4855      326.9992      -1799.4533      15418.541    
    176800   8923.2635      62.922546      8986.1861      317.12704      14.091187      15418.541    
    177000   8855.4224      67.374755      8922.7972      339.56599     -1312.4927      15418.541    
    177200   8856.6103      66.675568      8923.2859      336.04211      1594.1129      15418.541    
    177400   9001.3861      66.224609      9067.6108      333.7693      -625.11346      15418.541    
    177600   8998.814       69.004604      9067.8186      347.78035     -723.99619      15418.541    
    177800   8889.7372      66.171038      8955.9082      333.4993      -2242.4636      15418.541    
    178000   8890.9807      64.96726       8955.9479      327.43231     -436.0863       15418.541    
    178200   8811.2291      64.769716      8875.9988      326.4367       562.40845      15418.541    
    178400   8939.3446      64.741158      9004.0858      326.29276     -3176.0377      15418.541    
    178600   8969.546       66.612548      9036.1586      335.72449     -1230.082       15418.541    
    178800   8858.4064      65.803753      8924.2102      331.6482       337.50844      15418.541    
    179000   8922.7283      65.499977      8988.2282      330.11718     -1810.4549      15418.541    
    179200   8827.3658      64.923067      8892.2889      327.20958     -1556.5124      15418.541    
    179400   8827.2157      65.187307      8892.403       328.54134     -2701.4293      15418.541    
    179600   8937.0772      67.4139        9004.4911      339.76327     -1909.6936      15418.541    
    179800   8906.1198      66.400291      8972.5201      334.65473     -2041.8891      15418.541    
    180000   8650.2994      66.16931       8716.4687      333.49059      162.60308      15418.541    
    180200   8761.6481      66.67818       8828.3263      336.05527      500.73609      15418.541    
    180400   8889.7226      66.283875      8956.0065      334.068        928.4678       15418.541    
    180600   8839.7688      67.683291      8907.4521      341.12099      1592.2418      15418.541    
    180800   8890.4709      64.294151      8954.7651      324.03987     -1663.7482      15418.541    
    181000   8809.1078      64.935038      8874.0429      327.26991     -240.95832      15418.541    
    181200   8920.2368      65.104603      8985.3414      328.12451     -1242.866       15418.541    
    181400   8920.1753      64.550865      8984.7262      325.3337      -2712.3068      15418.541    
    181600   8933.6822      66.636566      9000.3188      335.84554     -6.5126298      15418.541    
    181800   8932.5067      67.478482      8999.9852      340.08876      328.56922      15418.541    
    182000   8934.8044      64.901608      8999.706       327.10142     -2537.6724      15418.541    
    182200   8983.8743      63.54609       9047.4204      320.26967     -485.12032      15418.541    
    182400   8791.3022      63.918874      8855.2211      322.14849      583.65008      15418.541    
    182600   8935.5923      63.467782      8999.0601      319.87501     -9.8253219      15418.541    
    182800   9000.7447      62.275556      9063.0203      313.86623     -1065.2565      15418.541    
    183000   8951.0825      64.034222      9015.1168      322.72984     -1016.0074      15418.541    
    183200   8983.0894      64.252784      9047.3422      323.83138      152.9316       15418.541    
    183400   9047.4516      64.212987      9111.6646      323.63081     -399.32353      15418.541    
    183600   8936.2811      63.853884      9000.135       321.82094     -1726.7365      15418.541    
    183800   9030.5851      66.219369      9096.8044      333.74289     -1666.2021      15418.541    
    184000   8920.7695      64.714475      8985.484       326.15828     -850.09069      15418.541    
    184200   8983.6421      66.574898      9050.217       335.53474     -231.33115      15418.541    
    184400   8889.0333      65.760207      8954.7935      331.42873     -174.71682      15418.541    
    184600   8856.3219      66.85387       8923.1758      336.94075     -586.94126      15418.541    
    184800   8872.7159      66.711793      8939.4277      336.22469     -1582.8718      15418.541    
    185000   8826.6204      65.013751      8891.6341      327.66662     -181.16516      15418.541    
    185200   9001.73        66.058868      9067.7888      332.93397     -523.48602      15418.541    
    185400   8792.1767      67.654799      8859.8315      340.9774       784.03147      15418.541    
    185600   8841.6925      66.147488      8907.84        333.38061      307.47761      15418.541    
    185800   8954.0984      65.696245      9019.7946      331.10636     -62.661818      15418.541    
    186000   8827.9769      63.742037      8891.719       321.25724     -1151.4732      15418.541    
    186200   8874.3245      65.288057      8939.6125      329.04912      43.899267      15418.541    
    186400   8906.0598      65.451673      8971.5115      329.87373     -2239.3823      15418.541    
    186600   8824.0913      67.32453       8891.4158      339.31285     -735.06996      15418.541    
    186800   9112.8846      66.410901      9179.2955      334.7082      -2571.3087      15418.541    
    187000   8745.3993      65.797055      8811.1963      331.61444     -421.94974      15418.541    
    187200   8922.3049      64.686297      8986.9912      326.01627     -508.19096      15418.541    
    187400   9114.3421      64.444992      9178.7871      324.8001       188.71314      15418.541    
    187600   8919.9763      66.539569      8986.5159      335.35668      791.43854      15418.541    
    187800   8985.6788      64.496835      9050.1756      325.06139     -3020.7787      15418.541    
    188000   8872.187       65.603484      8937.7905      330.63886     -1339.0041      15418.541    
    188200   8920.0353      65.311375      8985.3466      329.16664      911.22821      15418.541    
    188400   8935.2494      65.586846      9000.8362      330.555        883.85887      15418.541    
    188600   8968.2736      63.965091      9032.2387      322.38142     -1014.5243      15418.541    
    188800   8808.5002      63.142402      8871.6426      318.2351      -2203.0355      15418.541    
    189000   8823.7485      63.28135       8887.0299      318.93539     -1243.4813      15418.541    
    189200   8949.9221      64.543006      9014.4651      325.29409     -4665.9841      15418.541    
    189400   8886.1654      63.801648      8949.9671      321.55768     -1605.6493      15418.541    
    189600   8980.2987      65.239971      9045.5387      328.80676     -738.99582      15418.541    
    189800   8934.0393      63.162441      8997.2017      318.3361      -1105.5494      15418.541    
    190000   8933.5164      63.505424      8997.0218      320.06472     -2569.2304      15418.541    
    190200   8901.7046      63.270512      8964.9751      318.88077      1900.2739      15418.541    
    190400   8869.488       63.524222      8933.0122      320.15946     -441.12018      15418.541    
    190600   8916.7278      64.504998      8981.2328      325.10253      147.30897      15418.541    
    190800   8871.0866      62.558165      8933.6448      315.29057      789.27365      15418.541    
    191000   8806.033       64.414775      8870.4478      324.64781     -1247.1059      15418.541    
    191200   8856.5439      63.075698      8919.6196      317.89892      961.1456       15418.541    
    191400   8936.4543      64.304147      9000.7585      324.09025     -1467.6067      15418.541    
    191600   8872.5892      64.998091      8937.5873      327.58769      151.25478      15418.541    
    191800   8966.7479      67.383506      9034.1314      339.61009      115.6903       15418.541    
    192000   8792.6061      65.853867      8858.4599      331.90077      384.3798       15418.541    
    192200   8777.1684      65.499653      8842.6681      330.11555      450.52403      15418.541    
    192400   8855.7672      66.9827        8922.7499      337.59005     -447.91823      15418.541    
    192600   8810.6885      64.087823      8874.7763      322.99999      2679.8031      15418.541    
    192800   8746.1816      64.66142       8810.843       325.89089     -1051.0195      15418.541    
    193000   8858.5473      64.402549      8922.9498      324.58619     -1174.4453      15418.541    
    193200   8985.7087      65.397421      9051.1061      329.6003      -1328.4886      15418.541    
    193400   8841.0512      66.214119      8907.2653      333.71643      1175.8828      15418.541    
    193600   8808.9751      66.427141      8875.4022      334.79005      692.03926      15418.541    
    193800   8955.4075      64.106636      9019.5141      323.0948       33.565249      15418.541    
    194000   8906.6552      65.024777      8971.68        327.7222      -217.02113      15418.541    
    194200   8810.4965      65.405601      8875.9021      329.64153      362.41849      15418.541    
    194400   8923.1023      65.021287      8988.1236      327.70461      105.48069      15418.541    
    194600   8874.0815      66.318968      8940.4004      334.24486     -1842.951       15418.541    
    194800   8939.4626      65.230661      9004.6932      328.75984     -2590.402       15418.541    
    195000   8937.9921      67.024404      9005.0165      337.80023     -26.322318      15418.541    
    195200   8859.2015      66.097247      8925.2988      333.1274       714.88046      15418.541    
    195400   8875.18        66.392524      8941.5725      334.61558     -1808.4366      15418.541    
    195600   8859.267       66.582057      8925.8491      335.57082      651.65257      15418.541    
    195800   8954.7694      67.345232      9022.1146      339.41719     -2568.098       15418.541    
    196000   8860.1394      66.204852      8926.3443      333.66972     -1754.0134      15418.541    
    196200   8876.5728      65.963976      8942.5367      332.45572      189.6987       15418.541    
    196400   8956.3034      66.388622      9022.692       334.59592     -2326.0718      15418.541    
    196600   8875.4397      67.378063      8942.8177      339.58266     -1173.1512      15418.541    
    196800   8971.3969      67.488304      9038.8852      340.13827     -1471.5255      15418.541    
    197000   8923.4579      67.289344      8990.7472      339.13552     -207.55121      15418.541    
    197200   8797.4625      64.927452      8862.39        327.23168      53.168465      15418.541    
    197400   8826.2319      67.542908      8893.7748      340.41347      993.86397      15418.541    
    197600   8843.0834      65.826506      8908.9099      331.76287     -1063.3878      15418.541    
    197800   8873.1654      66.889808      8940.0552      337.12187      2154.2286      15418.541    
    198000   8969.946       65.35831       9035.3043      329.40319     -2107.3122      15418.541    
    198200   8855.7991      66.905294      8922.7044      337.19992     -321.97402      15418.541    
    198400   8857.8567      64.418286      8922.275       324.66551     -1340.4023      15418.541    
    198600   8984.6558      65.268548      9049.9243      328.95079     -1282.8134      15418.541    
    198800   8857.763       63.920281      8921.6833      322.15558     -1752.3851      15418.541    
    199000   8968.9488      64.605203      9033.554       325.60756     -1468.1411      15418.541    
    199200   8872.2131      65.327292      8937.5404      329.24686     -1870.058       15418.541    
    199400   8743.4363      66.146584      8809.5829      333.37605      188.88305      15418.541    
    199600   8983.923       65.694458      9049.6175      331.09736     -3564.7806      15418.541    
    199800   8808.0944      65.555268      8873.6497      330.39584     -1256.2641      15418.541    
    200000   8921.7098      63.983428      8985.6932      322.47384     -1136.5783      15418.541    
Loop time of 283.879 on 4 procs for 200000 steps with 1536 atoms

Performance: 30.436 ns/day, 0.789 hours/ns, 704.525 timesteps/s
88.3% CPU use with 4 MPI tasks x no OpenMP threads

MPI task timing breakdown:
Section |  min time  |  avg time  |  max time  |%varavg| %total
---------------------------------------------------------------
Pair    | 145.37     | 195.81     | 245.79     | 267.5 | 68.98
Neigh   | 25.275     | 25.527     | 26.008     |   5.8 |  8.99
Comm    | 7.9089     | 58.374     | 109.07     | 493.5 | 20.56
Output  | 0.01709    | 0.019297   | 0.025663   |   2.6 |  0.01
Modify  | 3.6735     | 3.7102     | 3.7278     |   1.2 |  1.31
Other   |            | 0.4398     |            |       |  0.15

Nlocal:            384 ave         387 max         376 min
Histogram: 1 0 0 0 0 0 0 0 0 3
Nghost:           2904 ave        2935 max        2881 min
Histogram: 1 0 0 2 0 0 0 0 0 1
Neighs:              0 ave           0 max           0 min
Histogram: 4 0 0 0 0 0 0 0 0 0
FullNghs:      81968.5 ave       83977 max       79461 min
Histogram: 1 0 0 0 0 0 2 0 0 1

Total # of neighbors = 327874
Ave neighs/atom = 213.45964
Neighbor list builds = 10000
Dangerous builds not checked
Total wall time: 0:04:50
