ITEM: TIMESTEP
0
ITEM: NUMBER OF ATOMS
48
ITEM: BOX BOUNDS xy xz yz pp pp pp
-5.4229428768157959e+00 8.6067802309989929e+00 2.5094206929206848e+00
-9.4973444938659668e-03 9.3236122131347656e+00 -5.4109057784080505e+00
-2.8691649436950684e-02 1.9545819282531738e+01 7.1304261684417725e-02
ITEM: ATOMS id type xs ys zs fx fy fz
1 1 0.94996 0.16703 0.0320218 0 0 2.85106
2 1 0.505012 0.0738739 0.0528103 0 0 0.072485
3 1 0.605603 0.125314 0.657023 0 0 0.000471115
4 1 0.822752 0.948847 0.927808 0 0 -2.85103
5 1 0.491742 0.157156 0.802805 0 0 -0.00443649
6 1 0.267699 0.0420026 0.90702 0 0 -0.0724792
7 1 0.936687 0.250315 0.78202 0 0 0.00384331
8 1 0.943224 0.208712 0.407029 0 0 0.00112724
9 1 0.160658 0.0321465 0.677802 0 0 -0.00378227
10 1 0.829488 0.240498 0.552801 0 0 -0.00111961
11 1 0.836025 0.198895 0.17781 0 0 -0.00385284
12 1 0.612055 0.0837297 0.282028 0 0 0.00378036
13 1 0.280971 0.292053 0.157025 0 0 0.00443649
14 1 0.498279 0.115534 0.427803 0 0 0.000198364
15 1 0.949961 0.500363 0.0320219 0 0 2.85103
16 1 0.505013 0.407207 0.0528103 0 0 0.0724812
17 1 0.605603 0.458648 0.657023 0 0 0.000471115
18 1 0.822751 0.28218 0.927808 0 0 -2.85106
19 1 0.491742 0.49049 0.802805 0 0 -0.00443459
20 1 0.2677 0.375336 0.90702 0 0 -0.0724735
21 1 0.936687 0.583648 0.78202 0 0 0.00384712
22 1 0.274434 0.333676 0.532027 0 0 -0.000202179
23 1 0.943224 0.542046 0.407029 0 0 0.00112152
24 1 0.160658 0.36548 0.677802 0 0 -0.00377846
25 1 0.829488 0.573831 0.552801 0 0 -0.00112343
26 1 0.16711 0.323895 0.302807 0 0 -0.000469208
27 1 0.836025 0.532228 0.17781 0 0 -0.00384712
28 1 0.612054 0.417063 0.282028 0 0 0.00378227
29 1 0.280971 0.625387 0.157025 0 0 0.00443459
30 1 0.498279 0.448867 0.427803 0 0 0.000198364
31 1 0.949961 0.833696 0.0320219 0 0 2.85103
32 1 0.505013 0.740541 0.0528104 0 0 0.0724735
33 1 0.605602 0.791981 0.657023 0 0 0.000469208
34 1 0.822751 0.615514 0.927808 0 0 -2.85103
35 1 0.491742 0.823823 0.802805 0 0 -0.00443459
36 1 0.2677 0.708669 0.90702 0 0 -0.0724773
37 1 0.936687 0.916981 0.78202 0 0 0.00384712
38 1 0.274434 0.667009 0.532027 0 0 -0.000204086
39 1 0.943224 0.875379 0.407029 0 0 0.00112152
40 1 0.160658 0.698813 0.677802 0 0 -0.00378418
41 1 0.829488 0.907164 0.552801 0 0 -0.00111771
42 1 0.16711 0.657228 0.302807 0 0 -0.000473022
43 1 0.836026 0.865562 0.17781 0 0 -0.00384331
44 1 0.612055 0.750396 0.282028 0 0 0.00378036
45 1 0.280971 0.95872 0.157026 0 0 0.00442886
46 1 0.498279 0.782201 0.427803 0 0 0.000204086
47 1 0.274433 0.000342385 0.532027 0 0 -0.000204086
48 1 0.16711 0.990562 0.302807 0 0 -0.000471115
ITEM: TIMESTEP
1
ITEM: NUMBER OF ATOMS
48
ITEM: BOX BOUNDS xy xz yz pp pp pp
-5.4229428768157959e+00 8.6067802309989929e+00 2.5094206929206848e+00
-9.4973444938659668e-03 9.3236122131347656e+00 -5.4109057784080505e+00
-2.8691649436950684e-02 1.9545819282531738e+01 7.1304261684417725e-02
ITEM: ATOMS id type xs ys zs fx fy fz
1 1 0.954501 0.16699 0.0371305 0 0 1.47445
2 1 0.505128 0.0738729 0.0529402 0 0 0.0595169
3 1 0.605603 0.125314 0.657024 0 0 -0.000833511
4 1 0.818211 0.948886 0.9227 0 0 -1.47444
5 1 0.491735 0.157157 0.802797 0 0 -0.0874081
6 1 0.267584 0.0420036 0.90689 0 0 -0.0595169
7 1 0.936693 0.250315 0.782027 0 0 -0.0553684
8 1 0.943226 0.208712 0.407031 0 0 -0.00019455
9 1 0.160652 0.0321465 0.677795 0 0 -0.00703049
10 1 0.829487 0.240498 0.552799 0 0 0.00019455
11 1 0.836019 0.198895 0.177803 0 0 0.0553703
12 1 0.612061 0.0837296 0.282035 0 0 0.0070343
13 1 0.280978 0.292053 0.157033 0 0 0.0874023
14 1 0.498279 0.115534 0.427804 0 0 -0.000808716
15 1 0.954501 0.500324 0.0371306 0 0 1.47445
16 1 0.505128 0.407206 0.0529402 0 0 0.0595188
17 1 0.605603 0.458648 0.657024 0 0 -0.000822067
18 1 0.818211 0.28222 0.9227 0 0 -1.47445
19 1 0.491735 0.49049 0.802797 0 0 -0.0873985
20 1 0.267584 0.375337 0.90689 0 0 -0.0595188
21 1 0.936693 0.583648 0.782027 0 0 -0.0553761
22 1 0.274434 0.333676 0.532027 0 0 0.000810623
23 1 0.943226 0.542046 0.407031 0 0 -0.000192642
24 1 0.160652 0.36548 0.677795 0 0 -0.00703049
25 1 0.829486 0.573831 0.552799 0 0 0.000190735
26 1 0.167109 0.323895 0.302806 0 0 0.000825882
27 1 0.836019 0.532228 0.177803 0 0 0.0553761
28 1 0.61206 0.417063 0.282035 0 0 0.0070343
29 1 0.280978 0.625386 0.157033 0 0 0.0873985
30 1 0.498279 0.448867 0.427804 0 0 -0.000810623
31 1 0.954501 0.833657 0.0371306 0 0 1.47444
32 1 0.505128 0.74054 0.0529403 0 0 0.059515
33 1 0.605603 0.791981 0.657024 0 0 -0.000823975
34 1 0.818211 0.615553 0.9227 0 0 -1.47445
35 1 0.491735 0.823823 0.802797 0 0 -0.0874004
36 1 0.267584 0.70867 0.90689 0 0 -0.059515
37 1 0.936693 0.916981 0.782027 0 0 -0.0553761
38 1 0.274433 0.667009 0.532027 0 0 0.000806808
39 1 0.943226 0.875379 0.407031 0 0 -0.00019455
40 1 0.160652 0.698813 0.677795 0 0 -0.00703049
41 1 0.829486 0.907164 0.552799 0 0 0.000192642
42 1 0.167109 0.657228 0.302806 0 0 0.000829697
43 1 0.836019 0.865562 0.177803 0 0 0.0553722
44 1 0.612061 0.750396 0.282035 0 0 0.00703239
45 1 0.280978 0.95872 0.157033 0 0 0.0873966
46 1 0.498279 0.782201 0.427804 0 0 -0.000810623
47 1 0.274433 0.000342388 0.532027 0 0 0.000812531
48 1 0.167109 0.990562 0.302806 0 0 0.000829697
ITEM: TIMESTEP
2
ITEM: NUMBER OF ATOMS
48
ITEM: BOX BOUNDS xy xz yz pp pp pp
-5.4229428768157959e+00 8.6067802309989929e+00 2.5094206929206848e+00
-9.4973444938659668e-03 9.3236122131347656e+00 -5.4109057784080505e+00
-2.8691649436950684e-02 1.9545819282531738e+01 7.1304261684417725e-02
ITEM: ATOMS id type xs ys zs fx fy fz
1 1 0.959042 0.166951 0.0422392 0 0 0.460592
2 1 0.505311 0.0738713 0.0531464 0 0 0.0414219
3 1 0.605601 0.125314 0.657021 0 0 -0.00819778
4 1 0.81367 0.948926 0.917591 0 0 -0.460585
5 1 0.491466 0.157159 0.802494 0 0 -0.176428
6 1 0.267401 0.0420052 0.906684 0 0 -0.0414219
7 1 0.936523 0.250316 0.781835 0 0 -0.126118
8 1 0.943225 0.208712 0.407031 0 0 -0.000862122
9 1 0.16063 0.0321467 0.677771 0 0 -0.014286
10 1 0.829487 0.240498 0.5528 0 0 0.000867844
11 1 0.83619 0.198893 0.177995 0 0 0.126122
12 1 0.612082 0.0837294 0.282059 0 0 0.0142879
13 1 0.281247 0.292051 0.157336 0 0 0.176422
14 1 0.498277 0.115534 0.427801 0 0 -0.00101852
15 1 0.959042 0.500284 0.0422392 0 0 0.460583
16 1 0.505311 0.407205 0.0531464 0 0 0.0414181
17 1 0.605601 0.458648 0.657021 0 0 -0.00819397
18 1 0.81367 0.282259 0.917591 0 0 -0.460596
19 1 0.491465 0.490492 0.802494 0 0 -0.176424
20 1 0.267401 0.375339 0.906684 0 0 -0.0414181
21 1 0.936523 0.58365 0.781835 0 0 -0.126122
22 1 0.274436 0.333676 0.532029 0 0 0.00101662
23 1 0.943226 0.542046 0.407031 0 0 -0.000865936
24 1 0.16063 0.36548 0.677771 0 0 -0.014286
25 1 0.829487 0.573831 0.5528 0 0 0.000864029
26 1 0.167112 0.323895 0.302809 0 0 0.00819588
27 1 0.83619 0.532227 0.177995 0 0 0.126122
28 1 0.612082 0.417063 0.282059 0 0 0.0142899
29 1 0.281247 0.625384 0.157336 0 0 0.176422
30 1 0.498277 0.448867 0.427801 0 0 -0.00101852
31 1 0.959042 0.833618 0.0422392 0 0 0.460594
32 1 0.505311 0.740538 0.0531465 0 0 0.04142
33 1 0.605601 0.791981 0.657021 0 0 -0.00819397
34 1 0.81367 0.615592 0.917591 0 0 -0.460588
35 1 0.491465 0.823826 0.802494 0 0 -0.176418
36 1 0.267401 0.708672 0.906684 0 0 -0.04142
37 1 0.936523 0.916983 0.781835 0 0 -0.126123
38 1 0.274436 0.667009 0.532029 0 0 0.00101089
39 1 0.943225 0.875379 0.407031 0 0 -0.000869751
40 1 0.16063 0.698813 0.677771 0 0 -0.0142841
41 1 0.829487 0.907164 0.5528 0 0 0.000865936
42 1 0.167112 0.657228 0.302809 0 0 0.00819778
43 1 0.83619 0.86556 0.177995 0 0 0.12612
44 1 0.612082 0.750396 0.282059 0 0 0.0142879
45 1 0.281247 0.958718 0.157336 0 0 0.176422
46 1 0.498277 0.782201 0.427801 0 0 -0.00101662
47 1 0.274435 0.000342367 0.532029 0 0 0.0010128
48 1 0.167112 0.990562 0.302809 0 0 0.00819969
ITEM: TIMESTEP
3
ITEM: NUMBER OF ATOMS
48
ITEM: BOX BOUNDS xy xz yz pp pp pp
-5.4229428768157959e+00 8.6067802309989929e+00 2.5094206929206848e+00
-9.4973444938659668e-03 9.3236122131347656e+00 -5.4109057784080505e+00
-2.8691649436950684e-02 1.9545819282531738e+01 7.1304261684417725e-02
ITEM: ATOMS id type xs ys zs fx fy fz
1 1 0.962841 0.166918 0.0465129 0 0 -0.133057
2 1 0.505653 0.0738684 0.0535307 0 0 0.0341625
3 1 0.605533 0.125315 0.656945 0 0 -0.0402565
4 1 0.809872 0.948959 0.913317 0 0 0.133043
5 1 0.49001 0.157171 0.800857 0 0 -0.186386
6 1 0.267059 0.0420081 0.906299 0 0 -0.0341587
7 1 0.935482 0.250325 0.780665 0 0 -0.151049
8 1 0.943218 0.208712 0.407023 0 0 0.00183487
9 1 0.160513 0.0321477 0.677638 0 0 -0.0433693
10 1 0.829494 0.240498 0.552808 0 0 -0.00182724
11 1 0.83723 0.198884 0.179165 0 0 0.151052
12 1 0.6122 0.0837284 0.282192 0 0 0.0433617
13 1 0.282702 0.292038 0.158973 0 0 0.186384
14 1 0.498269 0.115534 0.427791 0 0 0.00225639
15 1 0.962841 0.500251 0.0465129 0 0 -0.133049
16 1 0.505653 0.407202 0.0535307 0 0 0.0341606
17 1 0.605533 0.458648 0.656945 0 0 -0.0402508
18 1 0.809871 0.282292 0.913317 0 0 0.13306
19 1 0.49001 0.490505 0.800857 0 0 -0.186388
20 1 0.267059 0.375341 0.906299 0 0 -0.0341568
21 1 0.935482 0.583659 0.780665 0 0 -0.151047
22 1 0.274444 0.333676 0.532039 0 0 -0.00225449
23 1 0.943218 0.542046 0.407023 0 0 0.00182915
24 1 0.160513 0.365481 0.677638 0 0 -0.0433655
25 1 0.829494 0.573831 0.552808 0 0 -0.00182915
26 1 0.167179 0.323895 0.302885 0 0 0.0402527
27 1 0.83723 0.532218 0.179165 0 0 0.151047
28 1 0.6122 0.417062 0.282192 0 0 0.0433636
29 1 0.282702 0.625372 0.158973 0 0 0.186384
30 1 0.498268 0.448868 0.427791 0 0 0.00225449
31 1 0.962841 0.833585 0.046513 0 0 -0.133051
32 1 0.505653 0.740535 0.0535308 0 0 0.0341587
33 1 0.605533 0.791982 0.656945 0 0 -0.0402546
34 1 0.809871 0.615625 0.913317 0 0 0.133045
35 1 0.49001 0.823838 0.800857 0 0 -0.186382
36 1 0.267059 0.708675 0.906299 0 0 -0.0341587
37 1 0.935482 0.916992 0.780665 0 0 -0.151043
38 1 0.274444 0.667009 0.532039 0 0 -0.00225449
39 1 0.943218 0.875379 0.407023 0 0 0.00182915
40 1 0.160512 0.698815 0.677638 0 0 -0.0433636
41 1 0.829494 0.907164 0.552808 0 0 -0.00182724
42 1 0.167179 0.657228 0.302885 0 0 0.0402546
43 1 0.83723 0.865551 0.179165 0 0 0.151049
44 1 0.6122 0.750395 0.282192 0 0 0.0433655
45 1 0.282702 0.958705 0.158973 0 0 0.186382
46 1 0.498268 0.782201 0.427791 0 0 0.00225067
47 1 0.274444 0.000342294 0.532039 0 0 -0.00225449
48 1 0.167179 0.990561 0.302885 0 0 0.0402508
ITEM: TIMESTEP
4
ITEM: NUMBER OF ATOMS
48
ITEM: BOX BOUNDS xy xz yz pp pp pp
-5.4229428768157959e+00 8.6067802309989929e+00 2.5094206929206848e+00
-9.4973444938659668e-03 9.3236122131347656e+00 -5.4109057784080505e+00
-2.8691649436950684e-02 1.9545819282531738e+01 7.1304261684417725e-02
ITEM: ATOMS id type xs ys zs fx fy fz
1 1 0.963162 0.166915 0.0468749 0 0 -0.0142555
2 1 0.506415 0.0738618 0.0543882 0 0 0.0525875
3 1 0.60485 0.125321 0.656176 0 0 -0.103695
4 1 0.80955 0.948961 0.912955 0 0 0.0142727
5 1 0.486114 0.157205 0.796474 0 0 0.0440884
6 1 0.266297 0.0420147 0.905442 0 0 -0.0525913
7 1 0.932414 0.250352 0.777213 0 0 0.00564384
8 1 0.943243 0.208712 0.40705 0 0 0.0175648
9 1 0.159748 0.0321544 0.676778 0 0 -0.103287
10 1 0.82947 0.240498 0.55278 0 0 -0.0175743
11 1 0.840298 0.198858 0.182617 0 0 -0.00565147
12 1 0.612965 0.0837218 0.283053 0 0 0.103291
13 1 0.286598 0.292004 0.163356 0 0 -0.0440845
14 1 0.498299 0.115534 0.427826 0 0 0.0195389
15 1 0.963163 0.500249 0.0468749 0 0 -0.0142651
16 1 0.506415 0.407195 0.0543882 0 0 0.052597
17 1 0.60485 0.458654 0.656176 0 0 -0.103701
18 1 0.80955 0.282295 0.912955 0 0 0.0142555
19 1 0.486114 0.490539 0.796474 0 0 0.0440865
20 1 0.266297 0.375348 0.905442 0 0 -0.052599
21 1 0.932414 0.583685 0.777213 0 0 0.00563812
22 1 0.274414 0.333676 0.532005 0 0 -0.0195389
23 1 0.943243 0.542045 0.40705 0 0 0.0175686
24 1 0.159748 0.365488 0.676778 0 0 -0.103285
25 1 0.82947 0.573831 0.55278 0 0 -0.017561
26 1 0.167862 0.323889 0.303654 0 0 0.103699
27 1 0.840298 0.532191 0.182617 0 0 -0.00564003
28 1 0.612965 0.417055 0.283053 0 0 0.103289
29 1 0.286598 0.625338 0.163356 0 0 -0.0440769
30 1 0.498299 0.448867 0.427826 0 0 0.0195389
31 1 0.963163 0.833582 0.0468751 0 0 -0.0142727
32 1 0.506415 0.740528 0.0543882 0 0 0.0525932
33 1 0.60485 0.791988 0.656176 0 0 -0.103687
34 1 0.809549 0.615628 0.912955 0 0 0.014267
35 1 0.486115 0.823872 0.796474 0 0 0.0440788
36 1 0.266297 0.708681 0.905442 0 0 -0.052599
37 1 0.932414 0.917018 0.777213 0 0 0.00563812
38 1 0.274414 0.667009 0.532005 0 0 -0.0195332
39 1 0.943243 0.875379 0.40705 0 0 0.0175705
40 1 0.159747 0.698821 0.676778 0 0 -0.103287
41 1 0.829469 0.907164 0.55278 0 0 -0.0175743
42 1 0.167862 0.657222 0.303654 0 0 0.103689
43 1 0.840298 0.865524 0.182617 0 0 -0.00564194
44 1 0.612965 0.750389 0.283053 0 0 0.103285
45 1 0.286598 0.958671 0.163356 0 0 -0.0440807
46 1 0.498299 0.782201 0.427826 0 0 0.0195408
47 1 0.274413 0.000342558 0.532005 0 0 -0.0195312
48 1 0.167863 0.990555 0.303654 0 0 0.103691
ITEM: TIMESTEP
5
ITEM: NUMBER OF ATOMS
48
ITEM: BOX BOUNDS xy xz yz pp pp pp
-5.4229428768157959e+00 8.6067802309989929e+00 2.5094206929206848e+00
-9.4973444938659668e-03 9.3236122131347656e+00 -5.4109057784080505e+00
-2.8691649436950684e-02 1.9545819282531738e+01 7.1304261684417725e-02
ITEM: ATOMS id type xs ys zs fx fy fz
1 1 0.962988 0.166917 0.0466791 0 0 0.0479889
2 1 0.507824 0.0738496 0.055973 0 0 -0.0256062
3 1 0.602395 0.125342 0.653414 0 0 0.000795364
4 1 0.809724 0.94896 0.913151 0 0 -0.0480213
5 1 0.485512 0.15721 0.795795 0 0 -0.00281715
6 1 0.264888 0.0420269 0.903857 0 0 0.0256042
7 1 0.931327 0.250361 0.775989 0 0 -0.011837
8 1 0.943623 0.208709 0.407478 0 0 0.0502186
9 1 0.157269 0.0321758 0.673989 0 0 0.00609398
10 1 0.82909 0.240501 0.552352 0 0 -0.0502148
11 1 0.841386 0.198848 0.183841 0 0 0.0118427
12 1 0.615444 0.0837003 0.285841 0 0 -0.00608253
13 1 0.287201 0.291999 0.164035 0 0 0.00282288
14 1 0.498723 0.11553 0.428303 0 0 0.0551548
15 1 0.962988 0.50025 0.0466789 0 0 0.0480061
16 1 0.507824 0.407183 0.0559732 0 0 -0.0256119
17 1 0.602395 0.458676 0.653414 0 0 0.000795364
18 1 0.809724 0.282293 0.913151 0 0 -0.0479908
19 1 0.485511 0.490544 0.795795 0 0 -0.00282288
20 1 0.264888 0.37536 0.903857 0 0 0.02561
21 1 0.931326 0.583695 0.775989 0 0 -0.0118294
22 1 0.27399 0.333679 0.531528 0 0 -0.0551643
23 1 0.943623 0.542042 0.407478 0 0 0.0502167
24 1 0.157269 0.365509 0.673989 0 0 0.00608063
25 1 0.82909 0.573834 0.552353 0 0 -0.0502262
26 1 0.170318 0.323867 0.306416 0 0 -0.000795364
27 1 0.841386 0.532182 0.183841 0 0 0.0118332
28 1 0.615444 0.417034 0.285841 0 0 -0.00608444
29 1 0.287201 0.625333 0.164035 0 0 0.00280952
30 1 0.498723 0.448864 0.428303 0 0 0.0551624
31 1 0.962988 0.833583 0.0466789 0 0 0.0480213
32 1 0.507824 0.740516 0.0559731 0 0 -0.0256042
33 1 0.602395 0.792009 0.653414 0 0 0.000780106
34 1 0.809724 0.615627 0.913151 0 0 -0.0480022
35 1 0.485512 0.823877 0.795795 0 0 -0.00281715
36 1 0.264888 0.708694 0.903857 0 0 0.0256081
37 1 0.931326 0.917028 0.775989 0 0 -0.0118275
38 1 0.27399 0.667013 0.531528 0 0 -0.0551586
39 1 0.943623 0.875375 0.407478 0 0 0.0502224
40 1 0.157269 0.698843 0.673989 0 0 0.00608253
41 1 0.829089 0.907168 0.552352 0 0 -0.0502148
42 1 0.170317 0.657201 0.306416 0 0 -0.000780106
43 1 0.841386 0.865515 0.183841 0 0 0.0118256
44 1 0.615444 0.750367 0.285841 0 0 -0.00608635
45 1 0.287201 0.958666 0.164035 0 0 0.00281906
46 1 0.498723 0.782197 0.428303 0 0 0.0551605
47 1 0.27399 0.000346229 0.531528 0 0 -0.0551701
48 1 0.170318 0.990534 0.306416 0 0 -0.000789642
ITEM: TIMESTEP
6
ITEM: NUMBER OF ATOMS
48
ITEM: BOX BOUNDS xy xz yz pp pp pp
-5.4229428768157959e+00 8.6067802309989929e+00 2.5094206929206848e+00
-9.4973444938659668e-03 9.3236122131347656e+00 -5.4109057784080505e+00
-2.8691649436950684e-02 1.9545819282531738e+01 7.1304261684417725e-02
ITEM: ATOMS id type xs ys zs fx fy fz
1 1 0.963543 0.166912 0.0473032 0 0 -0.0170574
2 1 0.507803 0.0738498 0.0559495 0 0 -0.0183392
3 1 0.601891 0.125347 0.652847 0 0 0.000497818
4 1 0.809169 0.948965 0.912527 0 0 0.0170803
5 1 0.485351 0.157212 0.795615 0 0 -0.0194111
6 1 0.264909 0.0420268 0.903881 0 0 0.0183372
7 1 0.930953 0.250365 0.775569 0 0 -0.0125923
8 1 0.944321 0.208703 0.408263 0 0 0.00520134
9 1 0.156826 0.0321797 0.67349 0 0 0.0038414
10 1 0.828392 0.240507 0.551567 0 0 -0.00519943
11 1 0.841759 0.198845 0.184261 0 0 0.0125904
12 1 0.615887 0.0836965 0.28634 0 0 -0.00384712
13 1 0.287362 0.291998 0.164216 0 0 0.0194035
14 1 0.499491 0.115524 0.429167 0 0 0.00886917
15 1 0.963543 0.500245 0.0473032 0 0 -0.0170593
16 1 0.507803 0.407183 0.0559496 0 0 -0.0183392
17 1 0.601891 0.45868 0.652847 0 0 0.000501633
18 1 0.809169 0.282298 0.912527 0 0 0.0170631
19 1 0.485351 0.490545 0.795614 0 0 -0.0194092
20 1 0.264909 0.37536 0.903881 0 0 0.0183353
21 1 0.930953 0.583698 0.775569 0 0 -0.0125866
22 1 0.273222 0.333686 0.530663 0 0 -0.00886154
23 1 0.944321 0.542036 0.408263 0 0 0.00520515
24 1 0.156826 0.365513 0.67349 0 0 0.00384712
25 1 0.828392 0.57384 0.551567 0 0 -0.00521088
26 1 0.170821 0.323863 0.306983 0 0 -0.000495911
27 1 0.841759 0.532178 0.184261 0 0 0.0125866
28 1 0.615887 0.41703 0.28634 0 0 -0.00384521
29 1 0.287362 0.625331 0.164216 0 0 0.0193977
30 1 0.499491 0.448857 0.429167 0 0 0.00887299
31 1 0.963543 0.833579 0.0473034 0 0 -0.0170803
32 1 0.507803 0.740516 0.0559496 0 0 -0.0183411
33 1 0.601891 0.792013 0.652847 0 0 0.000492096
34 1 0.809169 0.615631 0.912527 0 0 0.017065
35 1 0.485351 0.823879 0.795615 0 0 -0.0194035
36 1 0.264909 0.708693 0.90388 0 0 0.0183411
37 1 0.930953 0.917031 0.775569 0 0 -0.0125961
38 1 0.273222 0.66702 0.530664 0 0 -0.00886917
39 1 0.944321 0.875369 0.408263 0 0 0.00520325
40 1 0.156825 0.698846 0.67349 0 0 0.00384521
41 1 0.828391 0.907174 0.551567 0 0 -0.00519943
42 1 0.170821 0.657196 0.306983 0 0 -0.000495911
43 1 0.841759 0.865512 0.184261 0 0 0.0125904
44 1 0.615887 0.750363 0.28634 0 0 -0.00384331
45 1 0.287362 0.958665 0.164216 0 0 0.0194054
46 1 0.499491 0.78219 0.429167 0 0 0.00887108
47 1 0.273221 0.000352883 0.530663 0 0 -0.00886536
48 1 0.170821 0.99053 0.306983 0 0 -0.000495911
ITEM: TIMESTEP
7
ITEM: NUMBER OF ATOMS
48
ITEM: BOX BOUNDS xy xz yz pp pp pp
-5.4229428768157959e+00 8.6067802309989929e+00 2.5094206929206848e+00
-9.4973444938659668e-03 9.3236122131347656e+00 -5.4109057784080505e+00
-2.8691649436950684e-02 1.9545819282531738e+01 7.1304261684417725e-02
ITEM: ATOMS id type xs ys zs fx fy fz
1 1 0.963415 0.166913 0.0471588 0 0 0.00742912
2 1 0.507629 0.0738513 0.0557545 0 0 -0.00281715
3 1 0.601867 0.125347 0.65282 0 0 -0.0053463
4 1 0.809298 0.948963 0.912671 0 0 -0.00743103
5 1 0.48516 0.157213 0.795399 0 0 -0.00312614
6 1 0.265083 0.0420253 0.904076 0 0 0.00281715
7 1 0.930814 0.250366 0.775412 0 0 -0.000329971
8 1 0.94441 0.208702 0.408363 0 0 -0.00255966
9 1 0.156836 0.0321796 0.673502 0 0 -0.00403404
10 1 0.828303 0.240508 0.551467 0 0 0.00257301
11 1 0.841899 0.198844 0.184418 0 0 0.000331879
12 1 0.615876 0.0836966 0.286328 0 0 0.00402832
13 1 0.287553 0.291996 0.164431 0 0 0.00312614
14 1 0.499618 0.115522 0.42931 0 0 -0.000406265
15 1 0.963415 0.500246 0.0471589 0 0 0.00742722
16 1 0.50763 0.407185 0.0557546 0 0 -0.00282097
17 1 0.601867 0.45868 0.65282 0 0 -0.00534058
18 1 0.809297 0.282297 0.912671 0 0 -0.00744057
19 1 0.485159 0.490547 0.795399 0 0 -0.00311852
20 1 0.265083 0.375359 0.904076 0 0 0.00282478
21 1 0.930814 0.583699 0.775412 0 0 -0.000333786
22 1 0.273095 0.333687 0.53052 0 0 0.000408173
23 1 0.94441 0.542035 0.408363 0 0 -0.00256157
24 1 0.156836 0.365513 0.673502 0 0 -0.00403023
25 1 0.828303 0.573841 0.551467 0 0 0.00255966
26 1 0.170845 0.323863 0.30701 0 0 0.00534821
27 1 0.841899 0.532177 0.184418 0 0 0.000333786
28 1 0.615876 0.41703 0.286328 0 0 0.00402832
29 1 0.287553 0.62533 0.164431 0 0 0.00312996
30 1 0.499618 0.448856 0.42931 0 0 -0.000413895
31 1 0.963415 0.83358 0.0471588 0 0 0.00743484
32 1 0.507629 0.740518 0.0557546 0 0 -0.00282669
33 1 0.601867 0.792013 0.65282 0 0 -0.0053463
34 1 0.809297 0.61563 0.912671 0 0 -0.00742912
35 1 0.48516 0.82388 0.795399 0 0 -0.00312233
36 1 0.265083 0.708692 0.904076 0 0 0.00282478
37 1 0.930814 0.917032 0.775412 0 0 -0.000331879
38 1 0.273094 0.667021 0.53052 0 0 0.000408173
39 1 0.94441 0.875368 0.408363 0 0 -0.00256157
40 1 0.156836 0.698846 0.673502 0 0 -0.00403214
41 1 0.828302 0.907174 0.551467 0 0 0.00255775
42 1 0.170845 0.657196 0.30701 0 0 0.00534248
43 1 0.841899 0.865511 0.184418 0 0 0.000331879
44 1 0.615876 0.750363 0.286328 0 0 0.00403023
45 1 0.287553 0.958663 0.164431 0 0 0.00312042
46 1 0.499618 0.782189 0.42931 0 0 -0.000413895
47 1 0.273094 0.000353985 0.53052 0 0 0.000408173
48 1 0.170845 0.990529 0.30701 0 0 0.00535011
ITEM: TIMESTEP
8
ITEM: NUMBER OF ATOMS
48
ITEM: BOX BOUNDS xy xz yz pp pp pp
-5.4229428768157959e+00 8.6067802309989929e+00 2.5094206929206848e+00
-9.4973444938659668e-03 9.3236122131347656e+00 -5.4109057784080505e+00
-2.8691649436950684e-02 1.9545819282531738e+01 7.1304261684417725e-02
ITEM: ATOMS id type xs ys zs fx fy fz
1 1 0.963502 0.166912 0.0472572 0 0 -0.00138092
2 1 0.507547 0.073852 0.0556623 0 0 0.00402641
3 1 0.601779 0.125348 0.652721 0 0 -0.00222397
4 1 0.80921 0.948964 0.912573 0 0 0.00137711
5 1 0.485069 0.157214 0.795297 0 0 -0.000705719
6 1 0.265164 0.0420245 0.904168 0 0 -0.00402832
7 1 0.930778 0.250366 0.775372 0 0 -0.000846863
8 1 0.944389 0.208702 0.40834 0 0 0.000396729
9 1 0.156776 0.0321801 0.673434 0 0 -0.00244141
10 1 0.828323 0.240508 0.55149 0 0 -0.000406265
11 1 0.841935 0.198844 0.184458 0 0 0.000844955
12 1 0.615937 0.083696 0.286396 0 0 0.00244522
13 1 0.287644 0.291995 0.164533 0 0 0.000711441
14 1 0.49964 0.115522 0.429334 0 0 0.000699997
15 1 0.963502 0.500246 0.0472572 0 0 -0.00137901
16 1 0.507548 0.407185 0.0556623 0 0 0.00403214
17 1 0.601779 0.458681 0.652721 0 0 -0.00223541
18 1 0.80921 0.282298 0.912573 0 0 0.00138664
19 1 0.485069 0.490548 0.795297 0 0 -0.000711441
20 1 0.265165 0.375358 0.904168 0 0 -0.00403214
21 1 0.930778 0.583699 0.775372 0 0 -0.000844955
22 1 0.273073 0.333687 0.530496 0 0 -0.000703812
23 1 0.94439 0.542035 0.40834 0 0 0.000404358
24 1 0.156776 0.365513 0.673434 0 0 -0.00244141
25 1 0.828323 0.573841 0.55149 0 0 -0.000396729
26 1 0.170934 0.323862 0.30711 0 0 0.00222397
27 1 0.841935 0.532177 0.184458 0 0 0.000841141
28 1 0.615937 0.417029 0.286396 0 0 0.00244522
29 1 0.287644 0.625329 0.164533 0 0 0.000711441
30 1 0.49964 0.448856 0.429334 0 0 0.000703812
31 1 0.963502 0.833579 0.0472572 0 0 -0.00138092
32 1 0.507547 0.740519 0.0556622 0 0 0.00402832
33 1 0.601778 0.792014 0.65272 0 0 -0.00222588
34 1 0.80921 0.615631 0.912573 0 0 0.00138092
35 1 0.485069 0.823881 0.795297 0 0 -0.000709534
36 1 0.265165 0.708691 0.904168 0 0 -0.00402832
37 1 0.930778 0.917033 0.775372 0 0 -0.00084877
38 1 0.273073 0.667021 0.530496 0 0 -0.000703812
39 1 0.944389 0.875369 0.40834 0 0 0.000394821
40 1 0.156776 0.698847 0.673434 0 0 -0.00244331
41 1 0.828323 0.907174 0.55149 0 0 -0.000389099
42 1 0.170934 0.657195 0.30711 0 0 0.00222778
43 1 0.841935 0.86551 0.184458 0 0 0.00084877
44 1 0.615937 0.750363 0.286396 0 0 0.00244141
45 1 0.287644 0.958662 0.164533 0 0 0.000709534
46 1 0.49964 0.782189 0.429334 0 0 0.000705719
47 1 0.273073 0.000354172 0.530496 0 0 -0.000703812
48 1 0.170934 0.990529 0.30711 0 0 0.00222397
ITEM: TIMESTEP
9
ITEM: NUMBER OF ATOMS
48
ITEM: BOX BOUNDS xy xz yz pp pp pp
-5.4229428768157959e+00 8.6067802309989929e+00 2.5094206929206848e+00
-9.4973444938659668e-03 9.3236122131347656e+00 -5.4109057784080505e+00
-2.8691649436950684e-02 1.9545819282531738e+01 7.1304261684417725e-02
ITEM: ATOMS id type xs ys zs fx fy fz
1 1 0.963501 0.166912 0.0472559 0 0 0.000631332
2 1 0.507617 0.0738514 0.0557402 0 0 0.000322342
3 1 0.601689 0.125348 0.65262 0 0 0.00108719
4 1 0.809211 0.948964 0.912574 0 0 -0.000635147
5 1 0.485017 0.157215 0.795238 0 0 -0.000522614
6 1 0.265095 0.0420251 0.90409 0 0 -0.000324249
7 1 0.930743 0.250366 0.775333 0 0 -0.0020237
8 1 0.944391 0.208702 0.408343 0 0 0.00213242
9 1 0.156692 0.0321808 0.67334 0 0 0.000761032
10 1 0.828321 0.240508 0.551488 0 0 -0.00213051
11 1 0.841969 0.198843 0.184497 0 0 0.0020237
12 1 0.616021 0.0836953 0.286491 0 0 -0.000762939
13 1 0.287696 0.291995 0.164592 0 0 0.000514984
14 1 0.499666 0.115522 0.429363 0 0 0.00145721
15 1 0.963501 0.500246 0.047256 0 0 0.000631332
16 1 0.507617 0.407185 0.0557404 0 0 0.000322342
17 1 0.601689 0.458682 0.65262 0 0 0.0010891
18 1 0.809211 0.282298 0.912574 0 0 -0.000629425
19 1 0.485016 0.490548 0.795238 0 0 -0.000513077
20 1 0.265095 0.375358 0.90409 0 0 -0.000322342
21 1 0.930743 0.5837 0.775333 0 0 -0.00202179
22 1 0.273047 0.333688 0.530467 0 0 -0.00144958
23 1 0.944392 0.542035 0.408343 0 0 0.00212097
24 1 0.156692 0.365514 0.67334 0 0 0.000757217
25 1 0.828321 0.573841 0.551487 0 0 -0.00213432
26 1 0.171023 0.323861 0.30721 0 0 -0.0010891
27 1 0.841969 0.532177 0.184497 0 0 0.00202751
28 1 0.616021 0.417029 0.286491 0 0 -0.00075531
29 1 0.287696 0.625328 0.164592 0 0 0.000514984
30 1 0.499665 0.448855 0.429363 0 0 0.00145912
31 1 0.963501 0.833579 0.047256 0 0 0.000629425
32 1 0.507617 0.740518 0.0557401 0 0 0.000329971
33 1 0.601689 0.792015 0.65262 0 0 0.0010891
34 1 0.809211 0.615631 0.912574 0 0 -0.000635147
35 1 0.485017 0.823881 0.795238 0 0 -0.000516891
36 1 0.265095 0.708692 0.90409 0 0 -0.000326157
37 1 0.930743 0.917033 0.775333 0 0 -0.00201416
38 1 0.273047 0.667021 0.530467 0 0 -0.0014534
39 1 0.944391 0.875369 0.408343 0 0 0.00214005
40 1 0.156692 0.698848 0.67334 0 0 0.000761032
41 1 0.828321 0.907174 0.551488 0 0 -0.00214577
42 1 0.171023 0.657195 0.30721 0 0 -0.00108719
43 1 0.841969 0.86551 0.184497 0 0 0.00202179
44 1 0.616021 0.750362 0.28649 0 0 -0.00075531
45 1 0.287696 0.958662 0.164592 0 0 0.000516891
46 1 0.499665 0.782189 0.429363 0 0 0.0014534
47 1 0.273047 0.000354396 0.530467 0 0 -0.00145721
48 1 0.171023 0.990528 0.30721 0 0 -0.0010891
ITEM: TIMESTEP
10
ITEM: NUMBER OF ATOMS
48
ITEM: BOX BOUNDS xy xz yz pp pp pp
-5.4229428768157959e+00 8.6067802309989929e+00 2.5094206929206848e+00
-9.4973444938659668e-03 9.3236122131347656e+00 -5.4109057784080505e+00
-2.8691649436950684e-02 1.9545819282531738e+01 7.1304261684417725e-02
ITEM: ATOMS id type xs ys zs fx fy fz
1 1 0.963509 0.166912 0.0472654 0 0 0.000535965
2 1 0.507637 0.0738512 0.0557635 0 0 -0.000476837
3 1 0.601683 0.125348 0.652613 0 0 -0.000150681
4 1 0.809203 0.948964 0.912565 0 0 -0.000534058
5 1 0.484997 0.157215 0.795217 0 0 6.86646e-05
6 1 0.265074 0.0420253 0.904066 0 0 0.00047493
7 1 0.930707 0.250367 0.775292 0 0 -0.000583649
8 1 0.944421 0.208702 0.408376 0 0 -0.000112534
9 1 0.156683 0.0321809 0.673329 0 0 -0.000213623
10 1 0.828291 0.240508 0.551454 0 0 0.000112534
11 1 0.842005 0.198843 0.184538 0 0 0.000577927
12 1 0.61603 0.0836952 0.286501 0 0 0.00021553
13 1 0.287715 0.291995 0.164614 0 0 -7.24792e-05
14 1 0.499692 0.115522 0.429393 0 0 -0.000524521
15 1 0.96351 0.500246 0.0472654 0 0 0.000534058
16 1 0.507638 0.407184 0.0557637 0 0 -0.000476837
17 1 0.601683 0.458682 0.652613 0 0 -0.000135422
18 1 0.809203 0.282298 0.912565 0 0 -0.000534058
19 1 0.484997 0.490548 0.795217 0 0 6.29425e-05
20 1 0.265075 0.375359 0.904066 0 0 0.000476837
21 1 0.930707 0.5837 0.775292 0 0 -0.000583649
22 1 0.273021 0.333688 0.530438 0 0 0.000520706
23 1 0.944422 0.542035 0.408376 0 0 -0.000120163
24 1 0.156683 0.365514 0.673329 0 0 -0.000207901
25 1 0.828291 0.573841 0.551454 0 0 0.00012207
26 1 0.171029 0.323861 0.307217 0 0 0.000152588
27 1 0.842005 0.532176 0.184538 0 0 0.000579834
28 1 0.61603 0.417029 0.286501 0 0 0.000209808
29 1 0.287715 0.625328 0.164614 0 0 -7.43866e-05
30 1 0.499691 0.448855 0.429393 0 0 -0.000526428
31 1 0.96351 0.833579 0.0472654 0 0 0.000543594
32 1 0.507637 0.740518 0.0557635 0 0 -0.000463486
33 1 0.601683 0.792015 0.652613 0 0 -0.000146866
34 1 0.809202 0.615631 0.912565 0 0 -0.000534058
35 1 0.484997 0.823882 0.795217 0 0 6.67572e-05
36 1 0.265075 0.708692 0.904067 0 0 0.000471115
37 1 0.930707 0.917033 0.775292 0 0 -0.000581741
38 1 0.273021 0.667021 0.530438 0 0 0.000522614
39 1 0.944421 0.875368 0.408376 0 0 -0.00012207
40 1 0.156682 0.698848 0.673329 0 0 -0.000207901
41 1 0.828291 0.907174 0.551454 0 0 0.000114441
42 1 0.171029 0.657195 0.307217 0 0 0.000148773
43 1 0.842005 0.86551 0.184538 0 0 0.000577927
44 1 0.61603 0.750362 0.286501 0 0 0.000211716
45 1 0.287715 0.958661 0.164614 0 0 -6.86646e-05
46 1 0.499692 0.782189 0.429393 0 0 -0.000524521
47 1 0.273021 0.000354622 0.530438 0 0 0.000526428
48 1 0.171029 0.990528 0.307217 0 0 0.000148773
ITEM: TIMESTEP
11
ITEM: NUMBER OF ATOMS
48
ITEM: BOX BOUNDS xy xz yz pp pp pp
-5.4229428768157959e+00 8.6067802309989929e+00 2.5094206929206848e+00
-9.4973444938659668e-03 9.3236122131347656e+00 -5.4109057784080505e+00
-2.8691649436950684e-02 1.9545819282531738e+01 7.1304261684417725e-02
ITEM: ATOMS id type xs ys zs fx fy fz
1 1 0.963517 0.166912 0.0472744 0 0 -0.000299454
2 1 0.507633 0.0738512 0.0557583 0 0 -1.90735e-05
3 1 0.601681 0.125348 0.65261 0 0 -0.000135422
4 1 0.809195 0.948964 0.912556 0 0 0.000310898
5 1 0.484996 0.157215 0.795216 0 0 -0.000120163
6 1 0.265079 0.0420253 0.904072 0 0 1.90735e-05
7 1 0.930696 0.250367 0.77528 0 0 -8.58307e-05
8 1 0.944423 0.208702 0.408378 0 0 -5.14984e-05
9 1 0.156679 0.032181 0.673325 0 0 -8.96454e-05
10 1 0.82829 0.240508 0.551453 0 0 5.14984e-05
11 1 0.842016 0.198843 0.18455 0 0 9.91821e-05
12 1 0.616034 0.0836952 0.286505 0 0 8.39233e-05
13 1 0.287716 0.291995 0.164614 0 0 0.000127792
14 1 0.499687 0.115522 0.429387 0 0 -0.000114441
15 1 0.963518 0.500246 0.0472744 0 0 -0.000305176
16 1 0.507633 0.407185 0.0557586 0 0 -2.47955e-05
17 1 0.601681 0.458682 0.65261 0 0 -0.000131607
18 1 0.809195 0.282298 0.912556 0 0 0.000289917
19 1 0.484996 0.490548 0.795216 0 0 -0.000110626
20 1 0.265079 0.375359 0.904072 0 0 2.09808e-05
21 1 0.930696 0.5837 0.77528 0 0 -9.53674e-05
22 1 0.273026 0.333688 0.530443 0 0 0.000116348
23 1 0.944423 0.542035 0.408377 0 0 -4.57764e-05
24 1 0.156679 0.365514 0.673325 0 0 -9.72748e-05
25 1 0.82829 0.573841 0.551453 0 0 4.95911e-05
26 1 0.171032 0.323861 0.30722 0 0 0.000125885
27 1 0.842016 0.532176 0.18455 0 0 9.91821e-05