ITEM: TIMESTEP
0
ITEM: NUMBER OF ATOMS
32
ITEM: BOX BOUNDS xy xz yz pp pp pp
-4.7826766967773438e-03 6.6393066048622131e+00 2.3997491598129272e-01
-3.7661075592041016e-02 2.2120539069175720e+01 0.0000000000000000e+00
-1.1393904685974121e-02 5.1938598752021790e+00 0.0000000000000000e+00
ITEM: ATOMS id type xs ys zs fx fy fz
1 1 0.00660269 0.336542 0.593597 0 0.000804901 5.72205e-06
2 1 0.506603 0.336542 0.593597 0 0.000806808 5.72205e-06
3 1 0.258159 0.295033 0.0935973 0 -0.00109673 -5.72205e-06
4 1 0.758159 0.295033 0.0935973 0 -0.00109482 -3.8147e-06
5 1 0.251919 0.461543 0.593597 0 0.000993729 0
6 1 0.751919 0.461543 0.593597 0 0.000997543 5.72205e-06
7 1 0.00347397 0.420037 0.0935973 0 -0.00097084 -7.62939e-06
8 1 0.503474 0.420037 0.0935973 0 -0.00097084 -3.8147e-06
9 1 0.997235 0.586543 0.593597 0 0.000904083 0
10 1 0.497235 0.586543 0.593597 0 0.000902176 0
11 1 0.242551 0.711539 0.593597 0 0.00118637 7.62939e-06
12 1 0.742551 0.711539 0.593597 0 0.00118256 3.8147e-06
13 1 0.994106 0.670042 0.0935972 0 -0.00104523 -3.8147e-06
14 1 0.24879 0.545043 0.0935972 0 -0.00109863 0
15 1 0.74879 0.545043 0.0935972 0 -0.00109482 0
16 1 0.494106 0.670042 0.0935972 0 -0.00104713 -5.72205e-06
17 1 0.987867 0.836533 0.593597 0 0.00359917 1.90735e-06
18 1 0.487867 0.836533 0.593597 0 0.00359917 1.90735e-06
19 1 0.233183 0.961533 0.593597 0 -0.0112324 3.8147e-06
20 1 0.733183 0.961533 0.593597 0 -0.0112152 1.90735e-06
21 1 0.239422 0.795035 0.0935971 0 -0.000486374 -1.90735e-06
22 1 0.739422 0.795035 0.0935971 0 -0.000492096 0
23 1 0.984738 0.920032 0.0935971 0 -0.0249729 -7.62939e-06
24 1 0.484739 0.920032 0.0935971 0 -0.0249691 -1.90735e-06
25 1 0.0159709 0.0865377 0.593597 0 0.0249138 0
26 1 0.515971 0.0865377 0.593597 0 0.0249176 0
27 1 0.267527 0.045031 0.093597 0 0.0113773 0
28 1 0.767527 0.045031 0.093597 0 0.0113811 0
29 1 0.261287 0.211541 0.593597 0 0.000480652 1.90735e-06
30 1 0.761287 0.211541 0.593597 0 0.000482559 1.90735e-06
31 1 0.0128422 0.170031 0.093597 0 -0.00337029 0
32 1 0.512843 0.170031 0.093597 0 -0.00337219 0
ITEM: TIMESTEP
1
ITEM: NUMBER OF ATOMS
32
ITEM: BOX BOUNDS xy xz yz pp pp pp
-4.7826766967773438e-03 6.6393066048622131e+00 2.3997491598129272e-01
-3.7661075592041016e-02 2.2120539069175720e+01 0.0000000000000000e+00
-1.1393904685974121e-02 5.1938598752021790e+00 0.0000000000000000e+00
ITEM: ATOMS id type xs ys zs fx fy fz
1 1 0.00660226 0.336554 0.593597 0 0.000537872 -5.72205e-06
2 1 0.506603 0.336554 0.593597 0 0.00053978 -7.62939e-06
3 1 0.258159 0.295017 0.0935969 0 -0.000860214 7.62939e-06
4 1 0.758159 0.295017 0.0935971 0 -0.000865936 3.8147e-06
5 1 0.251919 0.461557 0.593597 0 0.000619888 -3.8147e-06
6 1 0.751919 0.461557 0.593597 0 0.000608444 -3.8147e-06
7 1 0.00347449 0.420024 0.0935968 0 -0.000799179 7.62939e-06
8 1 0.503475 0.420024 0.0935971 0 -0.000797272 3.8147e-06
9 1 0.997234 0.586556 0.593597 0 0.000740051 1.90735e-06
10 1 0.497235 0.586556 0.593597 0 0.000740051 -1.90735e-06
11 1 0.242551 0.711556 0.593597 0 0.000936508 -1.90735e-06
12 1 0.742551 0.711556 0.593597 0 0.000932693 -3.8147e-06
13 1 0.994106 0.670027 0.093597 0 -0.000646591 3.8147e-06
14 1 0.248791 0.545027 0.0935972 0 -0.000766754 -1.90735e-06
15 1 0.748791 0.545027 0.0935972 0 -0.000762939 1.90735e-06
16 1 0.494107 0.670027 0.0935968 0 -0.000654221 3.8147e-06
17 1 0.987865 0.836584 0.593597 0 -0.00455856 -1.90735e-06
18 1 0.487866 0.836584 0.593597 0 -0.00455666 -1.90735e-06
19 1 0.233189 0.961373 0.593597 0 0.00582886 -1.90735e-06
20 1 0.733189 0.961373 0.593597 0 0.00582695 -5.72205e-06
21 1 0.239423 0.795028 0.093597 0 -0.00691032 1.90735e-06
22 1 0.739423 0.795028 0.0935971 0 -0.0069046 0
23 1 0.984752 0.919676 0.0935966 0 -0.00257111 3.8147e-06
24 1 0.484752 0.919676 0.093597 0 -0.00257874 1.90735e-06
25 1 0.0159576 0.0868923 0.593597 0 0.00265121 0
26 1 0.515958 0.0868924 0.593597 0 0.00265121 0
27 1 0.267521 0.045193 0.093597 0 -0.00572968 0
28 1 0.767521 0.045193 0.093597 0 -0.0057354 3.8147e-06
29 1 0.261287 0.211548 0.593597 0 0.00685883 -5.72205e-06
30 1 0.761287 0.211548 0.593597 0 0.00685883 -3.8147e-06
31 1 0.012844 0.169983 0.093597 0 0.00468254 5.72205e-06
32 1 0.512844 0.169983 0.093597 0 0.00468445 0
ITEM: TIMESTEP
2
ITEM: NUMBER OF ATOMS
32
ITEM: BOX BOUNDS xy xz yz pp pp pp
-4.7826766967773438e-03 6.6393066048622131e+00 2.3997491598129272e-01
-3.7661075592041016e-02 2.2120539069175720e+01 0.0000000000000000e+00
-1.1393904685974121e-02 5.1938598752021790e+00 0.0000000000000000e+00
ITEM: ATOMS id type xs ys zs fx fy fz
1 1 0.00660161 0.336572 0.593597 0 0.00327682 3.8147e-06
2 1 0.506602 0.336572 0.593597 0 0.00326538 1.14441e-05
3 1 0.25816 0.29499 0.0935977 0 0.0038147 -1.14441e-05
4 1 0.75816 0.29499 0.0935974 0 0.00380325 -3.8147e-06
5 1 0.251918 0.461577 0.593597 0 6.10352e-05 1.33514e-05
6 1 0.751918 0.461577 0.593597 0 7.24792e-05 7.62939e-06
7 1 0.00347543 0.419998 0.0935976 0 -0.000127792 -7.62939e-06
8 1 0.503476 0.419998 0.0935974 0 -0.000131607 -1.52588e-05
9 1 0.997233 0.58658 0.593597 0 8.7738e-05 1.90735e-06
10 1 0.497234 0.58658 0.593597 0 8.58307e-05 3.8147e-06
11 1 0.242549 0.711586 0.593597 0 -0.00385094 0
12 1 0.742549 0.711586 0.593597 0 -0.00383949 7.62939e-06
13 1 0.994107 0.670006 0.0935973 0 -0.00329781 -3.8147e-06
14 1 0.248792 0.545002 0.093597 0 -0.000148773 -1.90735e-06
15 1 0.748792 0.545002 0.0935974 0 -0.000154495 -5.72205e-06
16 1 0.494108 0.670006 0.0935972 0 -0.00328636 0
17 1 0.987869 0.836479 0.593597 0 0.00143623 3.8147e-06
18 1 0.487869 0.836479 0.593597 0 0.00143623 5.72205e-06
19 1 0.233185 0.96148 0.593597 0 0.000570297 1.90735e-06
20 1 0.733185 0.96148 0.593597 0 0.000555038 3.8147e-06
21 1 0.23943 0.794843 0.0935972 0 -0.00113678 -5.72205e-06
22 1 0.73943 0.794843 0.0935971 0 -0.0011425 -3.8147e-06
23 1 0.984758 0.919504 0.0935969 0 0.000429153 -1.90735e-06
24 1 0.484758 0.919504 0.0935972 0 0.000432968 -3.8147e-06
25 1 0.0159511 0.0870666 0.593597 0 -0.000366211 5.72205e-06
26 1 0.515951 0.0870667 0.593597 0 -0.000368118 3.8147e-06
27 1 0.267524 0.0450889 0.093597 0 -0.000480652 0
28 1 0.767524 0.0450888 0.0935974 0 -0.000471115 -7.62939e-06
29 1 0.26128 0.211731 0.593597 0 0.00113487 1.33514e-05
30 1 0.76128 0.211731 0.593597 0 0.00114059 3.8147e-06
31 1 0.0128399 0.170093 0.0935976 0 -0.00139999 -1.33514e-05
32 1 0.51284 0.170093 0.093597 0 -0.00139999 -5.72205e-06
ITEM: TIMESTEP
3
ITEM: NUMBER OF ATOMS
32
ITEM: BOX BOUNDS xy xz yz pp pp pp
-4.7826766967773438e-03 6.6393066048622131e+00 2.3997491598129272e-01
-3.7661075592041016e-02 2.2120539069175720e+01 0.0000000000000000e+00
-1.1393904685974121e-02 5.1938598752021790e+00 0.0000000000000000e+00
ITEM: ATOMS id type xs ys zs fx fy fz
1 1 0.00659841 0.336657 0.593597 0 0.000516891 -5.72205e-06
2 1 0.506599 0.336657 0.593598 0 0.000526428 -1.33514e-05
3 1 0.258157 0.295078 0.0935967 0 -0.000226974 1.14441e-05
4 1 0.758157 0.295078 0.0935971 0 -0.000209808 0
5 1 0.251918 0.461584 0.593598 0 0.00131607 -1.52588e-05
6 1 0.751918 0.461584 0.593598 0 0.0013237 -1.71661e-05
7 1 0.00347577 0.419989 0.0935969 0 0.00260353 9.53674e-06
8 1 0.503476 0.419989 0.0935959 0 0.00260544 2.67029e-05
9 1 0.997233 0.586587 0.593597 0 -0.00264931 -5.72205e-06
10 1 0.497233 0.586587 0.593597 0 -0.00264549 -7.62939e-06
11 1 0.242553 0.711497 0.593597 0 0.000196457 -7.62939e-06
12 1 0.742553 0.711497 0.593598 0 0.000192642 -5.72205e-06
13 1 0.99411 0.669919 0.093597 0 -0.00053215 3.8147e-06
14 1 0.248792 0.544993 0.0935967 0 -0.0013237 9.53674e-06
15 1 0.748792 0.544993 0.0935969 0 -0.00132942 7.62939e-06
16 1 0.494111 0.669919 0.0935972 0 -0.000543594 1.90735e-06
17 1 0.987869 0.83649 0.593597 0 -0.000514984 -3.8147e-06
18 1 0.487869 0.83649 0.593598 0 -0.000516891 -1.14441e-05
19 1 0.233184 0.961519 0.593597 0 -0.00104523 -5.72205e-06
20 1 0.733184 0.961519 0.593597 0 -0.00103378 1.90735e-06
21 1 0.239432 0.794772 0.0935966 0 -0.000404358 9.53674e-06
22 1 0.739432 0.794772 0.0935967 0 -0.000396729 1.14441e-05
23 1 0.984759 0.919475 0.0935968 0 -1.71661e-05 3.8147e-06
24 1 0.484759 0.919475 0.0935968 0 -1.71661e-05 3.8147e-06
25 1 0.0159499 0.0870976 0.593598 0 4.19617e-05 -1.33514e-05
26 1 0.51595 0.0870976 0.593597 0 3.8147e-05 -7.62939e-06
27 1 0.267526 0.0450531 0.093597 0 0.0010891 7.62939e-06
28 1 0.767526 0.0450532 0.0935967 0 0.00108719 5.72205e-06
29 1 0.261277 0.211802 0.593598 0 0.000442505 -1.52588e-05
30 1 0.761277 0.211802 0.593597 0 0.000425339 -3.8147e-06
31 1 0.0128402 0.170084 0.0935964 0 0.000499725 1.33514e-05
32 1 0.512841 0.170084 0.0935964 0 0.000501633 1.14441e-05
ITEM: TIMESTEP
4
ITEM: NUMBER OF ATOMS
32
ITEM: BOX BOUNDS xy xz yz pp pp pp
-4.7826766967773438e-03 6.6393066048622131e+00 2.3997491598129272e-01
-3.7661075592041016e-02 2.2120539069175720e+01 0.0000000000000000e+00
-1.1393904685974121e-02 5.1938598752021790e+00 0.0000000000000000e+00
ITEM: ATOMS id type xs ys zs fx fy fz
1 1 0.00659694 0.336696 0.593597 0 0.000181198 1.71661e-05
2 1 0.506597 0.336696 0.593597 0 0.000183105 1.14441e-05
3 1 0.258156 0.295102 0.0935974 0 0.000150681 -1.33514e-05
4 1 0.758156 0.295101 0.093597 0 0.00015831 -3.8147e-06
5 1 0.251916 0.461615 0.593597 0 -0.00079155 5.72205e-06
6 1 0.751916 0.461615 0.593596 0 -0.000802994 1.52588e-05
7 1 0.00347371 0.420045 0.0935976 0 4.00543e-05 -9.53674e-06
8 1 0.503474 0.420044 0.0935979 0 3.8147e-05 -1.52588e-05
9 1 0.997235 0.586531 0.593597 0 -5.53131e-05 5.72205e-06
10 1 0.497236 0.586531 0.593597 0 -5.91278e-05 7.62939e-06
11 1 0.242554 0.711473 0.593597 0 -0.000146866 9.53674e-06
12 1 0.742554 0.711473 0.593597 0 -0.000144958 3.8147e-06
13 1 0.994112 0.669879 0.0935973 0 -0.000207901 -7.62939e-06
14 1 0.248793 0.54496 0.0935976 0 0.00079155 -9.53674e-06
15 1 0.748793 0.54496 0.0935974 0 0.000797272 -5.72205e-06
16 1 0.494112 0.669879 0.0935975 0 -0.000190735 -9.53674e-06
17 1 0.987869 0.836482 0.593597 0 -0.000921249 1.90735e-06
18 1 0.487869 0.836482 0.593597 0 -0.000923157 1.14441e-05
19 1 0.233184 0.961508 0.593597 0 -0.000333786 7.62939e-06
20 1 0.733184 0.961508 0.593597 0 -0.000322342 0
21 1 0.239434 0.79474 0.0935973 0 2.09808e-05 -5.72205e-06
22 1 0.739433 0.79474 0.0935976 0 7.62939e-06 -7.62939e-06
23 1 0.984759 0.919465 0.0935971 0 1.90735e-06 -1.90735e-06
24 1 0.48476 0.919465 0.093597 0 3.8147e-06 -5.72205e-06
25 1 0.0159495 0.0871086 0.593597 0 2.09808e-05 9.53674e-06
26 1 0.51595 0.0871085 0.593597 0 2.47955e-05 5.72205e-06
27 1 0.267525 0.0450657 0.0935977 0 0.00031662 -1.14441e-05
28 1 0.767525 0.0450658 0.093597 0 0.000314713 -3.8147e-06
29 1 0.261276 0.211834 0.593597 0 -1.33514e-05 7.62939e-06
30 1 0.761276 0.211834 0.593597 0 -1.33514e-05 5.72205e-06
31 1 0.0128399 0.170092 0.0935972 0 0.000936508 -7.62939e-06
32 1 0.51284 0.170092 0.0935973 0 0.000938416 -7.62939e-06
ITEM: TIMESTEP
5
ITEM: NUMBER OF ATOMS
32
ITEM: BOX BOUNDS xy xz yz pp pp pp
-4.7826766967773438e-03 6.6393066048622131e+00 2.3997491598129272e-01
-3.7661075592041016e-02 2.2120539069175720e+01 0.0000000000000000e+00
-1.1393904685974121e-02 5.1938598752021790e+00 0.0000000000000000e+00
ITEM: ATOMS id type xs ys zs fx fy fz
1 1 0.0065965 0.336708 0.593598 0 -0.000471115 -2.67029e-05
2 1 0.506597 0.336708 0.593598 0 -0.000471115 -1.52588e-05
3 1 0.258156 0.29511 0.0935961 0 0.000499725 2.47955e-05
4 1 0.758156 0.29511 0.0935966 0 0.000482559 1.52588e-05
5 1 0.251917 0.461601 0.593597 0 8.58307e-05 -3.8147e-06
6 1 0.751917 0.461601 0.593598 0 8.39233e-05 -5.72205e-06
7 1 0.00347329 0.420056 0.0935967 0 -2.47955e-05 1.14441e-05
8 1 0.503474 0.420056 0.0935967 0 -2.09808e-05 7.62939e-06
9 1 0.997236 0.586519 0.593598 0 3.8147e-05 -9.53674e-06
10 1 0.497236 0.586519 0.593597 0 4.00543e-05 -7.62939e-06
11 1 0.242554 0.711465 0.593598 0 -0.000490189 -9.53674e-06
12 1 0.742554 0.711465 0.593598 0 -0.00050354 -1.33514e-05
13 1 0.994112 0.669867 0.0935965 0 0.000480652 1.33514e-05
14 1 0.248793 0.544974 0.0935967 0 -0.000110626 5.72205e-06
15 1 0.748793 0.544974 0.0935969 0 -9.91821e-05 1.90735e-06
16 1 0.494113 0.669867 0.0935965 0 0.000465393 1.33514e-05
17 1 0.98787 0.836458 0.593597 0 -5.72205e-05 -7.62939e-06
18 1 0.48787 0.836458 0.593598 0 -5.34058e-05 -1.33514e-05
19 1 0.233185 0.961498 0.593597 0 -6.86646e-05 -5.72205e-06
20 1 0.733185 0.961498 0.593597 0 -8.58307e-05 -1.90735e-06
21 1 0.239434 0.794735 0.0935968 0 -0.000110626 1.14441e-05
22 1 0.739434 0.794735 0.093597 0 -9.34601e-05 9.53674e-06
23 1 0.984759 0.919463 0.093597 0 -2.86102e-05 1.90735e-06
24 1 0.48476 0.919463 0.0935965 0 -3.62396e-05 1.33514e-05
25 1 0.0159494 0.0871111 0.593597 0 1.14441e-05 -7.62939e-06
26 1 0.51595 0.0871111 0.593597 0 2.28882e-05 -3.8147e-06
27 1 0.267525 0.0450759 0.0935966 0 9.34601e-05 5.72205e-06
28 1 0.767525 0.045076 0.0935967 0 9.72748e-05 3.8147e-06
29 1 0.261276 0.21184 0.593597 0 0.000101089 -1.52588e-05
30 1 0.761276 0.21184 0.593597 0 0.000108719 -9.53674e-06
31 1 0.012839 0.170117 0.0935966 0 6.10352e-05 5.72205e-06
32 1 0.512839 0.170117 0.0935966 0 5.34058e-05 1.14441e-05
ITEM: TIMESTEP
6
ITEM: NUMBER OF ATOMS
32
ITEM: BOX BOUNDS xy xz yz pp pp pp
-4.7826766967773438e-03 6.6393066048622131e+00 2.3997491598129272e-01
-3.7661075592041016e-02 2.2120539069175720e+01 0.0000000000000000e+00
-1.1393904685974121e-02 5.1938598752021790e+00 0.0000000000000000e+00
ITEM: ATOMS id type xs ys zs fx fy fz
1 1 0.0065965 0.336708 0.593598 0 -0.000471115 -2.67029e-05
2 1 0.506597 0.336708 0.593598 0 -0.000471115 -1.52588e-05
3 1 0.258156 0.29511 0.0935961 0 0.000499725 2.47955e-05
4 1 0.758156 0.29511 0.0935966 0 0.000482559 1.52588e-05
5 1 0.251917 0.461601 0.593597 0 8.58307e-05 -3.8147e-06
6 1 0.751917 0.461601 0.593598 0 8.39233e-05 -5.72205e-06
7 1 0.00347329 0.420056 0.0935967 0 -2.47955e-05 1.14441e-05
8 1 0.503474 0.420056 0.0935967 0 -2.09808e-05 7.62939e-06
9 1 0.997236 0.586519 0.593598 0 3.8147e-05 -9.53674e-06
10 1 0.497236 0.586519 0.593597 0 4.00543e-05 -7.62939e-06
11 1 0.242554 0.711465 0.593598 0 -0.000490189 -9.53674e-06
12 1 0.742554 0.711465 0.593598 0 -0.00050354 -1.33514e-05
13 1 0.994112 0.669867 0.0935965 0 0.000480652 1.33514e-05
14 1 0.248793 0.544974 0.0935967 0 -0.000110626 5.72205e-06
15 1 0.748793 0.544974 0.0935969 0 -9.91821e-05 1.90735e-06
16 1 0.494113 0.669867 0.0935965 0 0.000465393 1.33514e-05
17 1 0.98787 0.836458 0.593597 0 -5.72205e-05 -7.62939e-06
18 1 0.48787 0.836458 0.593598 0 -5.34058e-05 -1.33514e-05
19 1 0.233185 0.961498 0.593597 0 -6.86646e-05 -5.72205e-06
20 1 0.733185 0.961498 0.593597 0 -8.58307e-05 -1.90735e-06
21 1 0.239434 0.794735 0.0935968 0 -0.000110626 1.14441e-05
22 1 0.739434 0.794735 0.093597 0 -9.34601e-05 9.53674e-06
23 1 0.984759 0.919463 0.093597 0 -2.86102e-05 1.90735e-06
24 1 0.48476 0.919463 0.0935965 0 -3.62396e-05 1.33514e-05
25 1 0.0159494 0.0871111 0.593597 0 1.14441e-05 -7.62939e-06
26 1 0.51595 0.0871111 0.593597 0 2.28882e-05 -3.8147e-06
27 1 0.267525 0.0450759 0.0935966 0 9.34601e-05 5.72205e-06
28 1 0.767525 0.045076 0.0935967 0 9.72748e-05 3.8147e-06
29 1 0.261276 0.21184 0.593597 0 0.000101089 -1.52588e-05
30 1 0.761276 0.21184 0.593597 0 0.000108719 -9.53674e-06
31 1 0.012839 0.170117 0.0935966 0 6.10352e-05 5.72205e-06
32 1 0.512839 0.170117 0.0935966 0 5.34058e-05 1.14441e-05
