LAMMPS (23 Jun 2022 - Update 1)
OMP_NUM_THREADS environment is not set. Defaulting to 1 thread. (src/comm.cpp:98)
  using 1 OpenMP thread(s) per MPI task
Loaded 1 plugins from /software/deepmd-kit/2.1.5/gpu/lib/deepmd_lmp
Loaded 0 plugins from 
Reading data file ...
  orthogonal box = (0 0 0) to (26.16621 26.16621 25.2548)
  1 by 1 by 1 MPI processor grid
  reading atoms ...
  900 atoms
  read_data CPU = 0.007 seconds
Summary of lammps deepmd module ...
  >>> Info of deepmd-kit:
  installed to:       /software/deepmd-kit/2.1.5/gpu
  source:             v2.1.5
  source branch:       HEAD
  source commit:      6e3d4a62
  source commit at:   2022-09-23 16:10:28 +0800
  surpport model ver.:1.1 
  build float prec:   double
  build variant:      cuda
  build with tf inc:  /software/deepmd-kit/2.1.5/gpu/include;/software/deepmd-kit/2.1.5/gpu/include
  build with tf lib:  /software/deepmd-kit/2.1.5/gpu/lib/libtensorflow_cc.so;/software/deepmd-kit/2.1.5/gpu/lib/libtensorflow_framework.so
  set tf intra_op_parallelism_threads: 0
  set tf inter_op_parallelism_threads: 0
  >>> Info of lammps module:
  use deepmd-kit at:  /software/deepmd-kit/2.1.5/gpuDeePMD-kit WARNING: Environmental variable TF_INTRA_OP_PARALLELISM_THREADS is not set. Tune TF_INTRA_OP_PARALLELISM_THREADS for the best performance.
DeePMD-kit WARNING: Environmental variable TF_INTER_OP_PARALLELISM_THREADS is not set. Tune TF_INTER_OP_PARALLELISM_THREADS for the best performance.
DeePMD-kit WARNING: Environmental variable OMP_NUM_THREADS is not set. Tune OMP_NUM_THREADS for the best performance.
2023-03-06 09:18:42.074241: I tensorflow/core/platform/cpu_feature_guard.cc:193] This TensorFlow binary is optimized with oneAPI Deep Neural Network Library (oneDNN) to use the following CPU instructions in performance-critical operations:  SSE4.1 SSE4.2 AVX
To enable them in other operations, rebuild TensorFlow with the appropriate compiler flags.
2023-03-06 09:18:42.690836: I tensorflow/core/common_runtime/gpu/gpu_device.cc:1532] Created device /job:localhost/replica:0/task:0/device:GPU:0 with 10059 MB memory:  -> device: 0, name: GeForce GTX 1080 Ti, pci bus id: 0000:04:00.0, compute capability: 6.1
2023-03-06 09:18:42.691133: I tensorflow/core/common_runtime/process_util.cc:146] Creating new thread pool with default inter op setting: 2. Tune using inter_op_parallelism_threads for best performance.
2023-03-06 09:18:42.736360: I tensorflow/compiler/mlir/mlir_graph_optimization_pass.cc:354] MLIR V1 optimization pass is not enabled
  >>> Info of model(s):
  using   1 model(s): model.pb 
  rcut in model:      6
  ntypes in model:    4

CITE-CITE-CITE-CITE-CITE-CITE-CITE-CITE-CITE-CITE-CITE-CITE-CITE

Your simulation uses code contributions which should be cited:
- USER-DEEPMD package:
The log file lists these citations in BibTeX format.

CITE-CITE-CITE-CITE-CITE-CITE-CITE-CITE-CITE-CITE-CITE-CITE-CITE

Generated 0 of 6 mixed pair_coeff terms from geometric mixing rule
Neighbor list info ...
  update every 10 steps, delay 0 steps, check no
  max neighbors/atom: 2000, page size: 100000
  master list distance cutoff = 7
  ghost atom cutoff = 7
  binsize = 3.5, bins = 8 8 8
  1 neighbor lists, perpetual/occasional/extra = 1 0 0
  (1) pair deepmd, perpetual
      attributes: full, newton on
      pair build: full/bin/atomonly
      stencil: full/bin/3d
      bin: standard
Setting up Verlet run ...
  Unit style    : metal
  Current step  : 0
  Time step     : 0.002
Per MPI rank memory allocation (min/avg/max) = 2.658 | 2.658 | 2.658 Mbytes
   Step          Temp          E_pair         E_mol          TotEng         Press     
         0   400           -3888.4767      0             -3841.9947      14656.634    
      2000   396.7753      -3846.976       0             -3800.8688      14828.145    
Loop time of 110.501 on 1 procs for 2000 steps with 900 atoms

Performance: 3.128 ns/day, 7.674 hours/ns, 18.099 timesteps/s
56.2% CPU use with 1 MPI tasks x 1 OpenMP threads

MPI task timing breakdown:
Section |  min time  |  avg time  |  max time  |%varavg| %total
---------------------------------------------------------------
Pair    | 109.51     | 109.51     | 109.51     |   0.0 | 99.10
Neigh   | 0.89434    | 0.89434    | 0.89434    |   0.0 |  0.81
Comm    | 0.040389   | 0.040389   | 0.040389   |   0.0 |  0.04
Output  | 0.00030912 | 0.00030912 | 0.00030912 |   0.0 |  0.00
Modify  | 0.045025   | 0.045025   | 0.045025   |   0.0 |  0.04
Other   |            | 0.01484    |            |       |  0.01

Nlocal:            900 ave         900 max         900 min
Histogram: 1 0 0 0 0 0 0 0 0 0
Nghost:           2466 ave        2466 max        2466 min
Histogram: 1 0 0 0 0 0 0 0 0 0
Neighs:              0 ave           0 max           0 min
Histogram: 1 0 0 0 0 0 0 0 0 0
FullNghs:        66348 ave       66348 max       66348 min
Histogram: 1 0 0 0 0 0 0 0 0 0

Total # of neighbors = 66348
Ave neighs/atom = 73.72
Neighbor list builds = 200
Dangerous builds not checked
Generated 0 of 6 mixed pair_coeff terms from geometric mixing rule
Setting up Verlet run ...
  Unit style    : metal
  Current step  : 0
  Time step     : 0.002
Per MPI rank memory allocation (min/avg/max) = 3.942 | 3.942 | 3.942 Mbytes
   Step          Time           Temp          KinEng         TotEng         Press     
         0   0              396.7753       46.107222     -3800.8688      14828.145    
       100   0.2            400.37157      46.525127     -3802.5867      14763.664    
       200   0.4            405.372        47.1062       -3804.5984      15049.181    
       300   0.6            383.70214      44.588058     -3805.0518      13633.874    
       400   0.8            393.949        45.778793     -3804.2046      14990.902    
       500   1              399.87642      46.467587     -3803.2091      15602.119    
       600   1.2            402.41642      46.762747     -3802.2121      14388.204    
       700   1.4            417.7903       48.549268     -3800.5769      14687.775    
       800   1.6            405.74519      47.149567     -3799.2179      15452.267    
       900   1.8            426.98411      49.617633     -3801.8378      13654.492    
      1000   2              395.69863      45.982108     -3804.2022      15649.279    
      1100   2.2            390.64208      45.394512     -3804.7777      14862.973    
      1200   2.4            401.95889      46.709581     -3804.1933      14709.394    
      1300   2.6            414.59598      48.178072     -3801.8578      13350.635    
      1400   2.8            409.13064      47.542973     -3800.1641      15262.547    
      1500   3              399.9483       46.47594      -3802.0989      13868.276    
      1600   3.2            415.35392      48.266149     -3803.7527      13933.115    
      1700   3.4            397.57407      46.200044     -3804.351       15348.054    
      1800   3.6            394.56821      45.850747     -3804.2507      13845.395    
      1900   3.8            399.37859      46.409737     -3803.366       15113.084    
      2000   4              399.53945      46.42843      -3801.252       14624.455    
      2100   4.2            417.66527      48.534739     -3800.3039      14214.446    
      2200   4.4            407.93142      47.403618     -3802.8758      14783.266    
      2300   4.6            393.81604      45.763342     -3805.3508      13750.665    
      2400   4.8            392.58161      45.619895     -3805.399       14686.94     
      2500   5              408.59194      47.480373     -3804.1547      13936.037    
      2600   5.2            414.47159      48.163617     -3801.9136      14966.835    
      2700   5.4            405.66079      47.13976      -3800.8197      15545.83     
      2800   5.6            398.75955      46.337801     -3803.3341      15234.962    
      2900   5.8            377.33889      43.848617     -3805.8872      14032.367    
      3000   6              384.5864       44.690812     -3805.2858      15208.944    
      3100   6.2            411.31266      47.796535     -3803.2985      15091.598    
      3200   6.4            406.90187      47.283979     -3801.648       14301.746    
      3300   6.6            411.29531      47.794519     -3802.4687      15315.214    
      3400   6.8            393.9926       45.78386      -3806.5488      13899.69     
      3500   7              389.83102      45.300263     -3806.3316      12860.712    
      3600   7.2            404.5778       47.013911     -3803.9947      14984.034    
      3700   7.4            404.18964      46.968805     -3802.488       15472.823    
      3800   7.6            402.83839      46.811783     -3802.291       13518.129    
      3900   7.8            405.31406      47.099468     -3803.9675      15774.66     
      4000   8              390.77243      45.409659     -3807.3578      12414.517    
      4100   8.2            389.62236      45.276016     -3806.8669      14612.212    
      4200   8.4            392.16478      45.571457     -3805.1193      12811.441    
      4300   8.6            408.65988      47.488268     -3803.6611      13601.42     
      4400   8.8            405.34793      47.103404     -3803.1053      13323.469    
      4500   9              394.97493      45.898011     -3803.4332      13956.831    
      4600   9.2            402.64771      46.789625     -3806.5956      12907.434    
      4700   9.4            384.04585      44.627998     -3808.1159      14348.957    
      4800   9.6            376.00769      43.693925     -3806.2409      15437.083    
      4900   9.8            408.49919      47.469596     -3804.3033      14537.642    
      5000   10             403.91438      46.936819     -3803.4575      15442.476    
      5100   10.2           411.53835      47.822761     -3803.7887      14790.066    
      5200   10.4           395.1242       45.915357     -3805.5757      13985.818    
      5300   10.6           380.30183      44.192925     -3808.269       13744.405    
      5400   10.8           391.93443      45.54469      -3807.811       15317.682    
      5500   11             402.55174      46.778473     -3804.4952      14121.21     
      5600   11.2           403.4114       46.87837      -3803.7642      14994.027    
      5700   11.4           399.3137       46.402196     -3803.5861      14716.493    
      5800   11.6           400.21526      46.506963     -3803.627       13786.058    
      5900   11.8           398.41068      46.297261     -3803.7743      16053.665    
      6000   12             383.75699      44.594432     -3804.4246      13958.776    
      6100   12.2           393.95844      45.779889     -3805.8187      16875.312    
      6200   12.4           399.17601      46.386197     -3806.5018      13624.323    
      6300   12.6           400.27916      46.514388     -3804.469       14317.662    
      6400   12.8           405.85769      47.16264      -3801.888       14934.512    
      6500   13             408.73848      47.497402     -3802.1789      14844.982    
      6600   13.2           399.289        46.399327     -3804.1692      13555.296    
      6700   13.4           387.56377      45.036798     -3805.0072      14484.351    
      6800   13.6           396.46678      46.071371     -3804.4792      14235.428    
      6900   13.8           402.19007      46.736445     -3804.0408      14262.284    
      7000   14             403.9906       46.945676     -3803.8376      15637.192    
      7100   14.2           410.25732      47.673899     -3803.294       12444.847    
      7200   14.4           393.21722      45.693756     -3802.8697      15960.257    
      7300   14.6           398.82837      46.345799     -3802.6386      14009.228    
      7400   14.8           390.08283      45.329524     -3803.456       13885.605    
      7500   15             398.88261      46.352102     -3804.2492      15776.152    
      7600   15.2           395.48189      45.956922     -3804.7729      13165.956    
      7700   15.4           387.64995      45.046813     -3804.696       14104.516    
      7800   15.6           403.11403      46.843813     -3803.0481      15105.963    
      7900   15.8           413.73689      48.078242     -3801.3935      15028.956    
      8000   16             401.70856      46.680491     -3802.1363      13899.04     
      8100   16.2           388.18469      45.108952     -3805.3342      14204.018    
      8200   16.4           398.4436       46.301086     -3805.9415      12976.057    
      8300   16.6           394.4021       45.831444     -3805.2529      14986.537    
      8400   16.8           405.66966      47.14079      -3804.1109      13052.286    
      8500   17             414.71947      48.192422     -3802.7748      14946.709    
      8600   17.2           426.49386      49.560664     -3799.1313      14488.208    
      8700   17.4           409.08204      47.537326     -3799.9533      13562.96     
      8800   17.6           394.03747      45.789073     -3802.8528      16546.023    
      8900   17.8           392.34129      45.591969     -3804.3747      12014.324    
      9000   18             373.21766      43.369709     -3805.497       15052.571    
      9100   18.2           388.00922      45.088561     -3805.6216      14286.858    
      9200   18.4           412.22292      47.902311     -3803.451       15099.219    
      9300   18.6           408.02975      47.415044     -3801.4246      13553.136    
      9400   18.8           416.4698       48.395819     -3802.4697      14856.876    
      9500   19             397.94683      46.24336      -3805.2993      14861.931    
      9600   19.2           407.80301      47.388696     -3805.8138      13970.921    
      9700   19.4           400.75178      46.569309     -3804.9181      14802.15     
      9800   19.6           397.8088       46.22732      -3803.6921      14650.376    
      9900   19.8           407.67054      47.373302     -3802.4482      15575.635    
     10000   20             416.86006      48.441169     -3800.3211      14794.438    
     10100   20.2           410.86051      47.743993     -3800.5106      13837.641    
     10200   20.4           398.26029      46.279785     -3803.9323      15177.566    
     10300   20.6           386.07474      44.863765     -3804.7419      13025.349    
     10400   20.8           389.39004      45.249019     -3804.5334      15567.39     
     10500   21             401.90194      46.702962     -3802.3003      14688.462    
     10600   21.2           402.66657      46.791817     -3800.4294      15738.34     
     10700   21.4           414.02735      48.111995     -3801.7408      15182.759    
     10800   21.6           410.35082      47.684764     -3803.5077      14887.51     
     10900   21.8           396.11557      46.030559     -3804.0334      15754.377    
     11000   22             395.40596      45.948098     -3804.8086      12836.771    
     11100   22.2           395.51155      45.960368     -3804.6899      14692.431    
     11200   22.4           413.61074      48.063583     -3802.6679      14579.966    
     11300   22.6           411.01368      47.761792     -3801.3541      14416.367    
     11400   22.8           400.60648      46.552424     -3802.7145      15675.02     
     11500   23             396.89054      46.120614     -3806.1277      15231.108    
     11600   23.2           388.02702      45.090629     -3806.2442      13044.568    
     11700   23.4           409.45785      47.580996     -3804.1338      14523.083    
     11800   23.6           410.22089      47.669665     -3802.6465      13836.07     
     11900   23.8           401.127        46.612911     -3803.0564      14847.043    
     12000   24             411.27126      47.791724     -3803.6939      15001.093    
     12100   24.2           399.16291      46.384674     -3804.1454      14481.327    
     12200   24.4           387.59531      45.040463     -3804.3844      15782.512    
     12300   24.6           416.23616      48.368669     -3804.0227      15573.309    
     12400   24.8           402.692        46.794771     -3804.1454      14581.163    
     12500   25             412.88366      47.979093     -3805.0219      14116.993    
     12600   25.2           402.29483      46.748618     -3806.0187      15614.904    
     12700   25.4           397.30552      46.168836     -3805.8288      15276.513    
     12800   25.6           421.83215      49.01895      -3803.0696      15946.719    
     12900   25.8           422.80961      49.132536     -3801.896       14695.413    
     13000   26             396.42071      46.066018     -3802.2827      15024.381    
     13100   26.2           384.60502      44.692976     -3805.3313      15325.332    
     13200   26.4           378.71652      44.008704     -3807.1856      14269.493    
     13300   26.6           387.78468      45.062469     -3805.9666      13195.833    
     13400   26.8           406.45851      47.232458     -3804.0301      14662.835    
     13500   27             389.78285      45.294666     -3803.4325      14942.273    
     13600   27.2           399.47089      46.420463     -3803.8608      15261.626    
     13700   27.4           387.83187      45.067952     -3806.8628      15379.418    
     13800   27.6           378.57828      43.99264      -3808.2155      14169.441    
     13900   27.8           399.76308      46.454417     -3806.1547      14590.367    
     14000   28             411.77208      47.849922     -3804.3637      13897.367    
     14100   28.2           387.45013      45.023592     -3803.4303      14472.373    
     14200   28.4           398.81622      46.344387     -3802.7763      13392.415    
     14300   28.6           397.99716      46.249208     -3803.2286      14190.397    
     14400   28.8           390.95513      45.430891     -3806.0995      15053.719    
     14500   29             385.49526      44.796427     -3807.5196      14920.308    
     14600   29.2           390.45874      45.373208     -3805.9403      13345.225    
     14700   29.4           401.24121      46.626183     -3803.5728      14377.385    
     14800   29.6           417.8265       48.553474     -3803.3114      14251.245    
     14900   29.8           388.70707      45.169654     -3804.1125      15099.198    
     15000   30             396.74258      46.10342      -3805.2628      14325.884    
     15100   30.2           390.18134      45.340973     -3807.8928      14982.301    
     15200   30.4           383.24433      44.534857     -3807.97        14541.637    
     15300   30.6           400.90788      46.587448     -3804.3678      14126.852    
     15400   30.8           407.41478      47.343582     -3803.588       15844.715    
     15500   31             407.9684       47.407915     -3804.0286      13854.864    
     15600   31.2           403.2859       46.863786     -3804.6865      13925.757    
     15700   31.4           377.24341      43.837521     -3805.2894      14178.966    
     15800   31.6           402.52215      46.775035     -3805.1077      16071.041    
     15900   31.8           399.21363      46.390568     -3803.6646      13534.265    
     16000   32             420.1415       48.822489     -3802.0688      15061.292    
     16100   32.2           418.95437      48.684538     -3802.2406      15814.351    
     16200   32.4           397.15391      46.151218     -3805.6618      14535.105    
     16300   32.6           395.88674      46.003968     -3806.5625      13986.212    
     16400   32.8           399.7565       46.453652     -3805.2482      14904.839    
     16500   33             398.77116      46.339151     -3803.3932      14681.52     
     16600   33.2           403.84434      46.928679     -3803.2293      14916.717    
     16700   33.4           397.98293      46.247555     -3803.7871      13754.884    
     16800   33.6           406.08598      47.189168     -3804.2752      15170.446    
     16900   33.8           407.71051      47.377947     -3805.1465      14199.227    
     17000   34             381.47386      44.32912      -3806.6678      15294.855    
     17100   34.2           390.35003      45.360574     -3807.7713      13557.87     
     17200   34.4           382.85499      44.489614     -3806.1938      16207.095    
     17300   34.6           406.55309      47.243449     -3803.1895      14868.165    
     17400   34.8           407.38014      47.339556     -3802.2971      16231.42     
     17500   35             406.94453      47.288937     -3803.3418      14253.41     
     17600   35.2           380.79169      44.249849     -3806.1718      13308.909    
     17700   35.4           391.88821      45.539319     -3806.6668      15523.729    
     17800   35.6           405.03591      47.067146     -3805.8482      14831.537    
     17900   35.8           393.99721      45.784395     -3804.8092      15064.813    
     18000   36             411.63655      47.834172     -3804.6152      14390.422    
     18100   36.2           395.38168      45.945277     -3804.9226      14012.502    
     18200   36.4           391.2562       45.465877     -3804.385       13495.342    
     18300   36.6           423.88066      49.256997     -3801.8312      16068.251    
     18400   36.8           423.73537      49.240113     -3801.2231      13588.192    
     18500   37             412.86617      47.97706      -3803.887       13767.503    
     18600   37.2           382.54892      44.454048     -3805.529       16233.885    
     18700   37.4           400.42963      46.531873     -3805.3521      11550.154    
     18800   37.6           417.17777      48.478089     -3804.1713      15951.585    
     18900   37.8           415.08142      48.234482     -3801.2084      15538.555    
     19000   38             416.94619      48.451178     -3800.2435      13862.207    
     19100   38.2           403.22974      46.85726      -3803.2009      16689.856    
     19200   38.4           400.24479      46.510394     -3804.0678      14679.32     
     19300   38.6           398.58615      46.317651     -3804.2135      14148.541    
     19400   38.8           402.9166       46.820871     -3803.8798      15967.686    
     19500   39             410.97413      47.757196     -3802.7772      15719.251    
     19600   39.2           410.55786      47.708823     -3802.8687      14304.534    
     19700   39.4           393.70412      45.750337     -3804.7193      15716.764    
     19800   39.6           383.84118      44.604215     -3806.2933      13893.439    
     19900   39.8           397.28811      46.166814     -3805.1257      15540.856    
     20000   40             409.23723      47.555359     -3802.0243      16438.333    
     20100   40.2           407.21477      47.32034      -3801.8546      14104.725    
     20200   40.4           405.70632      47.14505      -3803.2044      15742.647    
     20300   40.6           398.00427      46.250034     -3804.8105      14221.628    
     20400   40.8           401.78994      46.689947     -3804.9079      15048.062    
     20500   41             407.71436      47.378395     -3804.1806      13746.759    
     20600   41.2           386.68483      44.934661     -3803.7317      16627.473    
     20700   41.4           408.52308      47.472371     -3803.6731      14747.612    
     20800   41.6           419.03646      48.694078     -3803.8         14460.222    
     20900   41.8           385.70188      44.820437     -3804.5306      16180.119    
     21000   42             396.83826      46.114538     -3805.0669      13254.293    
     21100   42.2           396.46005      46.070589     -3804.3189      14752.658    
     21200   42.4           404.62637      47.019555     -3802.6153      13409.531    
     21300   42.6           410.24887      47.672916     -3801.5495      15213.983    
     21400   42.8           396.69695      46.098118     -3803.3283      14210.805    
     21500   43             383.59525      44.575636     -3805.8274      15414.386    
     21600   43.2           383.94646      44.616449     -3806.1012      15268.747    
     21700   43.4           400.52608      46.543081     -3804.6225      14705.604    
     21800   43.6           415.7696       48.314453     -3801.7688      14806.456    
     21900   43.8           429.6045       49.922135     -3799.7622      13608.661    
     22000   44             408.0235       47.414318     -3800.7915      16228.979    
     22100   44.2           423.97433      49.267882     -3802.8307      14795.664    
     22200   44.4           392.72787      45.636892     -3805.0072      14445.563    
     22300   44.6           408.25209      47.440881     -3805.5051      15602.373    
     22400   44.8           398.61367      46.32085      -3805.2593      14558.24     
     22500   45             409.4381       47.578701     -3802.3989      14638.002    
     22600   45.2           414.41394      48.156918     -3800.7493      16978.909    
     22700   45.4           423.81881      49.249809     -3802.1326      13646.705    
     22800   45.6           381.92556      44.38161      -3804.2686      15075.092    
     22900   45.8           411.02308      47.762884     -3804.6191      14022.918    
     23000   46             395.29687      45.935421     -3804.2969      12544.978    
     23100   46.2           408.81113      47.505844     -3803.3483      14258.052    
     23200   46.4           400.38422      46.526596     -3801.331       13982.535    
     23300   46.6           423.18297      49.175922     -3798.9699      13230.433    
     23400   46.8           412.69479      47.957144     -3801.2476      14219.075    
     23500   47             398.63771      46.323643     -3803.5522      14035.638    
     23600   47.2           394.86661      45.885423     -3804.52        14332.177    
     23700   47.4           406.16432      47.198272     -3805.7804      14942.096    
     23800   47.6           392.40165      45.598983     -3806.2821      13488.062    
     23900   47.8           386.43122      44.905189     -3804.1429      14843.46     
     24000   48             416.43791      48.392113     -3801.6809      13504.997    
     24100   48.2           400.28013      46.5145       -3802.4341      13824.745    
     24200   48.4           393.3238       45.706142     -3804.5675      15839.42     
     24300   48.6           382.28489      44.423366     -3805.4832      13435.222    
     24400   48.8           396.00012      46.017142     -3804.8837      15148.526    
     24500   49             407.53914      47.358033     -3804.5126      16067.563    
     24600   49.2           400.04212      46.486843     -3804.1684      12735.883    
     24700   49.4           390.87373      45.421431     -3803.5038      15761.289    
     24800   49.6           402.60998      46.785241     -3802.6107      15892.751    
     24900   49.8           399.16529      46.384951     -3802.1511      14057.969    
     25000   50             399.65875      46.442293     -3803.7145      15110.848    
     25100   50.2           401.00953      46.599261     -3805.5638      14773.697    
     25200   50.4           406.35597      47.220543     -3806.4165      13027.223    
     25300   50.6           381.39569      44.320037     -3804.6148      15456.154    
     25400   50.8           403.14576      46.847501     -3801.5506      13383.27     
     25500   51             391.5103       45.495404     -3801.7198      14585.837    
     25600   51.2           420.52046      48.866526     -3803.7908      15931.351    
     25700   51.4           401.53137      46.6599       -3805.688       13065.356    
     25800   51.6           391.94736      45.546192     -3805.54        14316.057    
     25900   51.8           391.23987      45.463978     -3804.286       14270.658    
     26000   52             417.64467      48.532345     -3803.4521      14492.783    
     26100   52.2           391.8872       45.539201     -3803.3705      14076.046    
     26200   52.4           384.22976      44.649369     -3803.3839      14647.022    
     26300   52.6           392.96643      45.664613     -3803.6152      14983.86     
     26400   52.8           402.03197      46.718073     -3803.5533      13712.811    
     26500   53             401.82518      46.694043     -3803.9422      15543.581    
     26600   53.2           397.68243      46.212635     -3804.9997      12797.514    
     26700   53.4           389.95767      45.314981     -3805.7521      15715.678    
     26800   53.6           385.80515      44.832437     -3804.6739      14113.57     
     26900   53.8           407.3093       47.331325     -3801.9981      14016.355    
     27000   54             409.65448      47.603845     -3801.5815      14844.582    
     27100   54.2           408.4101       47.459243     -3803.1081      12971.818    
     27200   54.4           406.09388      47.190087     -3804.0987      15174.02     
     27300   54.6           394.6459       45.859776     -3807.243       14223.662    
     27400   54.8           390.79361      45.412121     -3808.6278      13586.579    
     27500   55             386.00402      44.855548     -3806.0039      15061.701    
     27600   55.2           395.71407      45.983902     -3803.8005      15038.662    
     27700   55.4           396.51465      46.076933     -3803.0966      14699.458    
     27800   55.6           388.29003      45.121193     -3803.0983      13861.206    
     27900   55.8           409.51576      47.587726     -3803.911       13617.18     
     28000   56             401.68897      46.678215     -3805.7993      13741.796    
     28100   56.2           395.18812      45.922785     -3806.4791      15605.922    
     28200   56.4           392.20654      45.57631      -3804.323       14504.449    
     28300   56.6           404.54074      47.009604     -3801.8647      16048.029    
     28400   56.8           399.58756      46.43402      -3802.609       17292.472    
     28500   57             417.59715      48.526822     -3804.3408      13389.486    
     28600   57.2           381.71793      44.357483     -3804.9363      16967.337    
     28700   57.4           400.62168      46.554191     -3804.4544      15783.283    
     28800   57.6           404.57382      47.013449     -3804.0839      12523.632    
     28900   57.8           402.67206      46.792455     -3803.7005      16490.92     
     29000   58             410.83176      47.740651     -3803.68        15002.028    
     29100   58.2           410.95388      47.754842     -3806.0827      13074.85     
     29200   58.4           392.29358      45.586425     -3806.9943      15747.187    
     29300   58.6           389.13648      45.219554     -3805.272       13243.494    
     29400   58.8           405.24069      47.090942     -3803.0655      14499.679    
     29500   59             390.59359      45.388878     -3802.3048      14371.088    
     29600   59.2           406.21494      47.204155     -3803.1134      15595.191    
     29700   59.4           383.5172       44.566566     -3806.4715      14145.516    
     29800   59.6           382.15245      44.407976     -3807.7071      16529.962    
     29900   59.8           400.9844       46.596341     -3806.2162      13720.66     
     30000   60             394.57337      45.851347     -3803.9042      15122.795    
     30100   60.2           399.7335       46.45098      -3802.986       14646.889    
     30200   60.4           403.21511      46.855559     -3802.8301      16524.134    
     30300   60.6           410.94912      47.754289     -3803.4943      14087.019    
     30400   60.8           387.65051      45.046878     -3805.8006      14968.43     
     30500   61             397.47585      46.18863      -3806.6116      14524.237    
     30600   61.2           397.14369      46.150031     -3805.063       14348.266    
     30700   61.4           404.06863      46.954743     -3802.3885      15293.056    
     30800   61.6           403.96778      46.943023     -3801.7973      14698.158    
     30900   61.8           405.24338      47.091255     -3802.8076      15118.354    
     31000   62             389.6113       45.274731     -3803.8987      14219.694    
     31100   62.2           393.20948      45.692856     -3804.6064      15422.933    
     31200   62.4           417.08535      48.467349     -3804.475       13798.314    
     31300   62.6           393.14304      45.685136     -3804.2547      15464.216    
     31400   62.8           400.67151      46.559981     -3803.7708      13692.062    
     31500   63             378.55705      43.990173     -3803.0457      13219.165    
     31600   63.2           419.86659      48.790543     -3802.8486      15875.425    
     31700   63.4           407.85926      47.395232     -3803.9049      12886.372    
     31800   63.6           401.65625      46.674412     -3805.122       13474.447    
     31900   63.8           400.35199      46.522851     -3805.5157      13795.837    
     32000   64             394.93138      45.89295      -3804.6033      13551.448    
     32100   64.2           394.98876      45.899618     -3802.1771      14835.697    
     32200   64.4           408.42229      47.46066      -3802.0315      13928.944    
     32300   64.6           392.27475      45.584236     -3805.0929      15433.38     
     32400   64.8           398.00919      46.250607     -3806.6707      13382.539    
     32500   65             402.76252      46.802966     -3805.6734      13705.832    
     32600   65.2           383.89358      44.610304     -3804.2461      15692.253    
     32700   65.4           400.58622      46.550069     -3802.7993      12130.141    
     32800   65.6           395.91482      46.00723      -3802.9028      15525.521    
     32900   65.8           394.53647      45.84706      -3805.8497      13939.001    
     33000   66             398.95906      46.360986     -3807.1484      15187.813    
     33100   66.2           406.91941      47.286018     -3806.0007      13670.142    
     33200   66.4           406.37691      47.222977     -3803.4395      15804.704    
     33300   66.6           397.89425      46.23725      -3802.8724      15759.589    
     33400   66.8           411.34222      47.799969     -3803.9482      13906.717    
     33500   67             396.54126      46.080025     -3804.9889      15915.27     
     33600   67.2           399.512        46.42524      -3805.2356      14244.293    
     33700   67.4           406.82192      47.274689     -3805.2249      13923.946    
     33800   67.6           389.78925      45.295409     -3804.8666      15016.746    
     33900   67.8           415.19282      48.247428     -3801.1601      15609.614    
     34000   68             407.69588      47.376247     -3800.3487      12556.703    
     34100   68.2           397.90527      46.238531     -3802.8259      16293.161    
     34200   68.4           409.01736      47.529809     -3804.596       13572.302    
     34300   68.6           412.11881      47.890213     -3805.0917      14653.545    
     34400   68.8           387.94223      45.080776     -3805.2965      14859.55     
     34500   69             407.8884       47.398618     -3805.1641      13627.085    
     34600   69.2           403.00421      46.831052     -3804.7386      15033.168    
     34700   69.4           392.04098      45.557071     -3804.0408      14846.799    
     34800   69.6           397.73226      46.218426     -3803.4034      15487.35     
     34900   69.8           394.01377      45.78632      -3804.4431      14456.824    
     35000   70             398.18653      46.271214     -3806.8745      14017.197    
     35100   70.2           387.97564      45.084659     -3807.4597      14291.536    
     35200   70.4           418.90934      48.679305     -3804.7798      13406.645    
     35300   70.6           411.33445      47.799067     -3802.7617      14068.306    
     35400   70.8           411.61026      47.831117     -3802.969       13761.557    
     35500   71             401.22006      46.623725     -3804.8014      13946.14     
     35600   71.2           389.56847      45.269754     -3806.7039      13433.266    
     35700   71.4           402.78127      46.805145     -3806.2954      15223.223    
     35800   71.6           386.06063      44.862126     -3805.4379      13568.335    
     35900   71.8           390.4771       45.375341     -3805.0845      15433.087    
     36000   72             406.05933      47.186072     -3805.0831      14015.353    
     36100   72.2           396.82932      46.1135       -3804.9694      14444.436    
     36200   72.4           410.02746      47.647188     -3805.1184      16263.392    
     36300   72.6           402.97928      46.828155     -3806.2034      13797.907    
     36400   72.8           393.20928      45.692833     -3807.0298      15234.108    
     36500   73             400.80765      46.5758       -3805.7094      15259.569    
     36600   73.2           407.40134      47.34202      -3803.5566      15107.699    
     36700   73.4           414.64805      48.184122     -3803.0301      14815.585    
     36800   73.6           406.42597      47.228678     -3806.2948      14785.977    
     36900   73.8           388.83904      45.18499      -3807.8997      14635.217    
     37000   74             393.5801       45.735925     -3806.8452      14816.988    
     37100   74.2           388.77075      45.177054     -3804.6702      16419.45     
     37200   74.4           411.18541      47.781747     -3803.6683      13531.134    
     37300   74.6           404.03165      46.950446     -3804.2561      15527.096    
     37400   74.8           389.77255      45.293469     -3805.0626      16191.845    
     37500   75             402.48002      46.770138     -3805.3475      15867.549    
     37600   75.2           397.04857      46.138977     -3805.1186      14410.037    
     37700   75.4           398.47332      46.304541     -3804.7974      15544.804    
     37800   75.6           394.71018      45.867245     -3804.9395      14673.294    
     37900   75.8           396.90992      46.122866     -3805.5575      14730.877    
     38000   76             389.48152      45.25965      -3805.9438      13762.039    
     38100   76.2           386.37557      44.898723     -3805.8628      15508.477    
     38200   76.4           399.01716      46.367737     -3804.6185      14906.602    
     38300   76.6           410.88884      47.747284     -3803.1926      16450.439    
     38400   76.8           413.27414      48.024468     -3802.2016      15043.427    
     38500   77             400.34995      46.522615     -3804.1679      14076.155    
     38600   77.2           390.5855       45.387937     -3806.7495      15413.381    
     38700   77.4           388.50701      45.146407     -3806.4006      15311.591    
     38800   77.6           398.81289      46.344        -3804.5557      15605.36     
     38900   77.8           413.34139      48.032283     -3802.9381      14731.503    
     39000   78             415.61062      48.295978     -3803.8248      15140.997    
     39100   78.2           397.91552      46.239722     -3807.5703      13550.334    
     39200   78.4           389.76912      45.29307      -3807.6202      14812.597    
     39300   78.6           400.20799      46.506118     -3805.1558      14304.883    
     39400   78.8           405.18428      47.084386     -3803.66        14588.992    
     39500   79             409.59155      47.596533     -3803.8646      15427.184    
     39600   79.2           387.24987      45.000321     -3806.3087      13664.602    
     39700   79.4           379.61322      44.112906     -3808.5933      14283.379    
     39800   79.6           383.33857      44.545808     -3807.4163      15314.79     
     39900   79.8           401.07939      46.607379     -3805.821       14063.188    
     40000   80             401.50263      46.656561     -3804.7521      15224.164    
     40100   80.2           420.29138      48.839905     -3804.1503      15491.878    
     40200   80.4           408.13733      47.427546     -3805.8061      13695.544    
     40300   80.6           402.30234      46.749491     -3808.2982      15002.051    
     40400   80.8           400.71312      46.564816     -3807.5466      13016.387    
     40500   81             401.00784      46.599064     -3804.9533      16656.004    
     40600   81.2           410.54458      47.70728      -3803.9363      15195.164    
     40700   81.4           398.13009      46.264655     -3804.16        14243.844    
     40800   81.6           393.68644      45.748281     -3804.9769      15810.215    
     40900   81.8           400.36077      46.523871     -3808.214       14902.117    
     41000   82             383.8012       44.599569     -3809.3187      15040.104    
     41100   82.2           387.11741      44.984928     -3807.6887      15125.478    
     41200   82.4           389.81902      45.298869     -3805.614       16135.095    
     41300   82.6           407.42908      47.345243     -3804.0942      13194.119    
     41400   82.8           417.65942      48.534059     -3803.4874      15388.64     
     41500   83             417.51292      48.517035     -3804.2758      15367.365    
     41600   83.2           383.85026      44.60527      -3807.7046      14024.572    
     41700   83.4           396.97344      46.130247     -3807.5356      15410.59     
     41800   83.6           388.8989       45.191946     -3805.2615      15021.941    
     41900   83.8           402.77045      46.803888     -3804.1002      15015.306    
     42000   84             418.56093      48.638818     -3803.9677      15426.476    
     42100   84.2           399.47442      46.420873     -3804.4235      14940.761    
     42200   84.4           382.07308      44.398752     -3806.0227      15241.106    
     42300   84.6           387.70344      45.053028     -3808.1045      15375.893    
     42400   84.8           391.07807      45.445177     -3807.5265      14765.072    
     42500   85             407.41764      47.343914     -3804.4317      15290        
     42600   85.2           414.35961      48.150604     -3804.0348      15286.728    
     42700   85.4           405.66222      47.139925     -3804.8786      15163.517    
     42800   85.6           396.32849      46.0553       -3806.291       15000.376    
     42900   85.8           403.39492      46.876455     -3807.8396      14390.405    
     43000   86             378.60903      43.996213     -3808.223       13294.955    
     43100   86.2           399.32423      46.403421     -3805.3112      16103.273    
     43200   86.4           412.9745       47.989648     -3803.5464      14464.192    
     43300   86.6           414.04329      48.113847     -3803.5635      13364.342    
     43400   86.8           386.84564      44.953347     -3805.6196      15564.881    
     43500   87             394.90197      45.889532     -3807.4223      13350.491    
     43600   87.2           389.54247      45.266733     -3807.9686      12763.804    
     43700   87.4           396.80929      46.111172     -3804.9684      16042.998    
     43800   87.6           414.95278      48.219534     -3803.1379      12659.354    
     43900   87.8           394.36463      45.827091     -3803.3879      16098.528    
     44000   88             398.09113      46.260129     -3805.4936      13924.796    
     44100   88.2           390.78199      45.410771     -3807.2109      13765.756    
     44200   88.4           393.20038      45.691799     -3806.8186      15166.786    
     44300   88.6           432.26607      50.231423     -3802.5555      13210.402    
     44400   88.8           406.56139      47.244414     -3802.4495      14611.037    
     44500   89             407.13745      47.311355     -3804.4516      14461.755    
     44600   89.2           397.6084       46.204033     -3806.3         15193.977    
     44700   89.4           391.92886      45.544043     -3806.513       13324.068    
     44800   89.6           416.60441      48.411461     -3804.203       15663.871    
     44900   89.8           413.99313      48.108018     -3801.8488      14990.797    
     45000   90             424.49871      49.328817     -3802.6915      14286.646    
     45100   90.2           385.2555       44.768566     -3804.6367      16890.068    
     45200   90.4           388.86765      45.188315     -3805.7831      14290.365    
     45300   90.6           404.33013      46.98513      -3805.4631      13873.494    
     45400   90.8           408.42895      47.461433     -3804.7798      14994.104    
     45500   91             403.51714      46.890657     -3804.2597      14355.057    
     45600   91.2           395.56015      45.966015     -3804.1944      16773.337    
     45700   91.4           391.66655      45.51356      -3804.3812      14614.885    
     45800   91.6           410.99334      47.759428     -3804.2608      14912.151    
     45900   91.8           400.51014      46.541229     -3805.0701      14192.93     
     46000   92             388.3196       45.124629     -3806.6932      15137.836    
     46100   92.2           382.88738      44.493379     -3807.9605      14205.769    
     46200   92.4           385.97597      44.852288     -3806.3532      14944.023    
     46300   92.6           417.55019      48.521366     -3803.377       15417.105    
     46400   92.8           407.81565      47.390164     -3802.8242      14782.617    
     46500   93             400.3827       46.526419     -3803.9917      16904.172    
     46600   93.2           394.64564      45.859745     -3806.3472      14468.472    
     46700   93.4           386.29842      44.889758     -3807.712       16108.333    
     46800   93.6           391.92771      45.543908     -3806.4414      16043.389    
     46900   93.8           398.12582      46.26416      -3805.5988      16701.685    
     47000   94             394.29684      45.819214     -3804.6263      15654.634    
     47100   94.2           406.26682      47.210183     -3803.852       15375.652    
     47200   94.4           407.43971      47.346479     -3804.0019      16465.256    
     47300   94.6           386.96156      44.966818     -3806.0011      14277.508    
     47400   94.8           404.65456      47.022831     -3807.8126      15034.754    
     47500   95             382.33234      44.42888      -3806.9235      15380.812    
     47600   95.2           411.66167      47.837091     -3803.45        15039.311    
     47700   95.4           413.3213       48.029948     -3803.1844      15048.136    
     47800   95.6           402.9837       46.828668     -3803.8579      15043.268    
     47900   95.8           387.56562      45.037012     -3805.1981      14324.657    
     48000   96             387.00668      44.972061     -3806.5673      14373.613    
     48100   96.2           387.64454      45.046183     -3807.567       15865.661    
     48200   96.4           394.30962      45.820698     -3805.1436      15526.71     
     48300   96.6           415.50685      48.28392      -3802.9006      14061.053    
     48400   96.8           403.28084      46.863197     -3802.9268      14801.814    
     48500   97             392.47022      45.606951     -3804.8121      14482.799    
     48600   97.2           389.47342      45.258708     -3806.9539      14334.409    
     48700   97.4           394.4109       45.832467     -3806.6379      13519.131    
     48800   97.6           398.99308      46.364939     -3805.5514      13229.795    
     48900   97.8           398.20316      46.273146     -3805.004       15000.928    
     49000   98             396.44958      46.069372     -3804.1555      14679.737    
     49100   98.2           408.88955      47.514958     -3803.2592      16783.647    
     49200   98.4           416.41118      48.389007     -3802.4632      13927.982    
     49300   98.6           396.54081      46.079973     -3803.9778      16721.256    
     49400   98.8           409.96485      47.639913     -3806.5575      15461.479    
     49500   99             394.30169      45.819777     -3807.2187      14272.197    
     49600   99.2           388.78984      45.179273     -3805.9685      16341.919    
     49700   99.4           417.866        48.558064     -3802.4764      14452.189    
     49800   99.6           399.35203      46.406651     -3802.8221      15309.25     
     49900   99.8           415.20267      48.248572     -3804.4093      15108.922    
     50000   100            394.66167      45.861608     -3806.2514      13372.301    
     50100   100.2          402.84359      46.812388     -3806.351       14171.581    
     50200   100.4          390.35456      45.361101     -3804.7757      13732.408    
     50300   100.6          425.17382      49.407269     -3802.9367      16084.301    
     50400   100.8          397.02319      46.136028     -3803.5088      14558.509    
     50500   101            388.71957      45.171107     -3804.8559      13428.205    
     50600   101.2          388.38388      45.132098     -3805.7722      14422.037    
     50700   101.4          397.4384       46.184278     -3805.1026      14693.957    
     50800   101.6          398.50783      46.30855      -3802.6026      16029.012    
     50900   101.8          432.10379      50.212565     -3801.2728      15439.28     
     51000   102            414.10177      48.120643     -3803.8423      14453.636    
     51100   102.2          380.04923      44.163572     -3806.2619      15951.15     
     51200   102.4          385.39203      44.78443      -3805.3518      14188.367    
     51300   102.6          398.89943      46.354056     -3804.056       14858.623    
     51400   102.8          403.17281      46.850644     -3802.5004      15367.848    
     51500   103            426.52099      49.563816     -3802.4852      16110.128    
     51600   103.2          390.31303      45.356275     -3805.9056      14319.602    
     51700   103.4          386.79742      44.947744     -3807.0338      14666.692    
     51800   103.6          402.63782      46.788475     -3805.7621      14768.222    
     51900   103.8          402.73007      46.799195     -3803.4311      13542.318    
     52000   104            393.86113      45.768581     -3802.7673      15988.502    
     52100   104.2          411.87124      47.861444     -3803.5181      15278.021    
     52200   104.4          391.42986      45.486056     -3804.5699      15112.323    
     52300   104.6          389.50494      45.262372     -3804.7319      15702.071    
     52400   104.8          400.84448      46.580081     -3803.8893      14667.551    
     52500   105            415.18399      48.246402     -3801.3194      14531.703    
     52600   105.2          410.5439       47.707201     -3800.6596      17824.662    
     52700   105.4          408.03497      47.41565      -3803.6508      13629.599    
     52800   105.6          397.51454      46.193125     -3805.2462      14908.646    
     52900   105.8          400.3651       46.524375     -3804.8966      14653.799    
     53000   106            395.71138      45.98359      -3803.6099      15700.577    
     53100   106.2          410.6232       47.716416     -3801.3919      15641.823    
     53200   106.4          409.45662      47.580854     -3799.7184      13253.133    
     53300   106.6          402.41858      46.762999     -3802.8691      15422.493    
     53400   106.8          408.63992      47.485949     -3805.227       14886.778    
     53500   107            395.72142      45.984756     -3805.5681      13169.901    
     53600   107.2          404.84966      47.045503     -3804.9175      15872.066    
     53700   107.4          400.03261      46.485737     -3803.1645      14866.565    
     53800   107.6          401.44072      46.649367     -3801.5838      13760.678    
     53900   107.8          418.31706      48.61048      -3801.4417      14428        
     54000   108            402.10563      46.726632     -3804.9056      14674.321    
     54100   108.2          392.08273      45.561923     -3806.1788      15255.138    
     54200   108.4          378.94255      44.03497      -3805.5641      14164.146    
     54300   108.6          405.8398       47.160562     -3803.2236      14600.247    
     54400   108.8          414.03325      48.11268      -3801.6069      14726.491    
     54500   109            405.33552      47.101962     -3802.2253      15625.606    
     54600   109.2          396.86672      46.117846     -3803.1738      14673.117    
     54700   109.4          396.40489      46.064179     -3803.9999      14011.641    
     54800   109.6          385.7801       44.829527     -3805.3616      14920.705    
     54900   109.8          395.14089      45.917296     -3806.926       14135.148    
     55000   110            370.48434      43.052085     -3809.0134      15140.965    
     55100   110.2          370.32068      43.033067     -3807.9736      13450.99     
     55200   110.4          403.16238      46.849432     -3804.4492      14624.946    
     55300   110.6          408.03104      47.415194     -3803.773       15126.109    
     55400   110.8          405.80396      47.156397     -3804.5295      14687.73     
     55500   111            405.3757       47.10663      -3806.559       13813.667    
     55600   111.2          389.4865       45.260229     -3807.6481      14009.242    
     55700   111.4          401.16697      46.617556     -3805.314       14876.122    
     55800   111.6          406.65094      47.25482      -3802.8073      14315.628    
     55900   111.8          408.52052      47.472074     -3803.0766      15226.41     
     56000   112            383.49895      44.564446     -3805.2239      15353.65     
     56100   112.2          387.76872      45.060613     -3806.5599      14662.873    
     56200   112.4          379.27618      44.073739     -3806.388       14375.78     
     56300   112.6          400.64669      46.557096     -3801.9548      14475.847    
     56400   112.8          416.75265      48.428688     -3801.7856      13874.806    
     56500   113            402.5931       46.783279     -3803.855       15220.231    
     56600   113.2          396.25094      46.046289     -3805.8873      14372.539    
     56700   113.4          396.52221      46.077813     -3806.1622      14348.608    
     56800   113.6          409.51932      47.58814      -3804.3422      14367.484    
     56900   113.8          421.8831       49.02487      -3800.9537      13772.254    
     57000   114            415.48291      48.281138     -3800.5736      17528.192    
     57100   114.2          411.96878      47.872779     -3802.0486      13598.17     
     57200   114.4          405.12545      47.077551     -3804.0835      16459.172    
     57300   114.6          400.61419      46.55332      -3805.6748      15597.784    
     57400   114.8          393.83632      45.765698     -3805.641       13359.964    
     57500   115            407.99469      47.410971     -3802.978       14655.822    
     57600   115.2          410.04748      47.649514     -3800.8856      15250.125    
     57700   115.4          423.09623      49.165843     -3802.3594      15499.432    
     57800   115.6          408.52784      47.472925     -3804.398       16106.848    
     57900   115.8          398.91091      46.355391     -3804.9449      14244.892    
     58000   116            404.7536       47.034339     -3804.5358      14875.801    
     58100   116.2          411.32603      47.798087     -3802.781       15390.268    
     58200   116.4          418.38042      48.617843     -3799.6655      15803.376    
     58300   116.6          423.34989      49.195319     -3800.946       16581.464    
     58400   116.8          393.40333      45.715382     -3803.1363      14795.95     
     58500   117            399.15932      46.384257     -3804.0915      14315.369    
     58600   117.2          402.96093      46.826023     -3804.8123      16254.35     
     58700   117.4          384.91749      44.729287     -3805.4352      14535.843    
     58800   117.6          397.03417      46.137304     -3805.8386      13234.841    
     58900   117.8          398.22477      46.275658     -3804.555       16056.435    
     59000   118            406.98645      47.293808     -3802.5743      12911.083    
     59100   118.2          400.79219      46.574005     -3802.2474      15604.156    
     59200   118.4          393.35059      45.709254     -3804.882       14923.031    
     59300   118.6          398.54584      46.312967     -3806.8031      13327.922    
     59400   118.8          395.61653      45.972567     -3806.0041      15406.287    
     59500   119            399.97703      46.479279     -3804.674       14059.961    
     59600   119.2          392.88884      45.655597     -3803.5943      14672.513    
     59700   119.4          398.05418      46.255834     -3803.3276      14052.934    
     59800   119.6          410.00095      47.644108     -3803.7566      14816.372    
     59900   119.8          381.28722      44.307432     -3807.0103      13939.661    
     60000   120            384.48859      44.679447     -3807.5953      15512.332    
     60100   120.2          394.42956      45.834636     -3805.542       15266.758    
     60200   120.4          400.14256      46.498514     -3803.4133      13873.905    
     60300   120.6          410.64978      47.719505     -3803.7025      14721.565    
     60400   120.8          407.31878      47.332426     -3804.5605      13848.563    
     60500   121            386.91764      44.961714     -3806.5387      15147.277    
     60600   121.2          378.2577       43.955387     -3808.3431      14852.715    
     60700   121.4          381.88441      44.376828     -3809.4456      14114.497    
     60800   121.6          395.46005      45.954384     -3806.485       13495.84     
     60900   121.8          401.31783      46.635086     -3804.3308      15149.674    
     61000   122            399.17398      46.385961     -3803.6634      15755.476    
     61100   122.2          393.50841      45.727594     -3803.862       14299.199    
     61200   122.4          391.77956      45.526693     -3805.1559      13504.842    
     61300   122.6          390.32827      45.358045     -3807.4144      14252.503    
     61400   122.8          388.81611      45.182326     -3807.5076      15161.496    
     61500   123            410.33509      47.682936     -3804.1607      14423.653    
     61600   123.2          411.20901      47.78449      -3803.0899      14325.857    
     61700   123.4          403.99875      46.946622     -3803.7044      14968.795    
     61800   123.6          407.70458      47.377257     -3804.8834      14223.353    
     61900   123.8          395.12398      45.915331     -3807.2755      14668.288    
     62000   124            381.12938      44.28909      -3808.4747      13304.871    
     62100   124.2          407.00008      47.295392     -3805.2428      14720.789    
     62200   124.4          409.9767       47.64129      -3803.3432      14972.504    
     62300   124.6          395.14024      45.91722      -3802.9985      15614.404    
     62400   124.8          399.62658      46.438555     -3804.4224      14833.304    
     62500   125            388.06706      45.095282     -3806.7287      14120.058    
     62600   125.2          376.28229      43.725835     -3807.0221      14951.015    
     62700   125.4          414.72697      48.193294     -3803.9159      15112.651    
     62800   125.6          396.19452      46.039733     -3801.8721      15572.243    
     62900   125.8          406.72089      47.262948     -3802.6415      13950.158    
     63000   126            398.70931      46.331964     -3804.4789      14903.042    
     63100   126.2          390.38809      45.364997     -3805.7186      14109.953    
     63200   126.4          388.05804      45.094234     -3805.2804      12621.931    
     63300   126.6          418.0445       48.578807     -3801.7848      15332.207    
     63400   126.8          409.99865      47.64384      -3801.686       14539.131    
     63500   127            402.54224      46.777369     -3803.7732      14767.585    
     63600   127.2          398.1354       46.265272     -3805.3302      14822.875    
     63700   127.4          412.38756      47.921443     -3805.7603      13461.686    
     63800   127.6          393.37068      45.711588     -3805.603       15859.571    
     63900   127.8          395.34806      45.941371     -3804.2985      14892        
     64000   128            400.26735      46.513016     -3800.738       14627.425    
     64100   128.2          414.01767      48.110869     -3800.7107      16636.416    
     64200   128.4          405.40903      47.110504     -3803.1831      15022.624    
     64300   128.6          394.66111      45.861543     -3804.5371      15439.24     
     64400   128.8          396.33063      46.055549     -3805.3952      14724.417    
     64500   129            392.13594      45.568106     -3805.6121      14289.697    
     64600   129.2          413.14169      48.009077     -3803.2591      15111.861    
     64700   129.4          421.61148      48.993308     -3801.0597      15681.033    
     64800   129.6          401.63298      46.671708     -3802.0029      16398.649    
     64900   129.8          409.4083       47.575238     -3804.1305      15424.986    
     65000   130            402.88329      46.817001     -3804.7269      14703.881    
     65100   130.2          404.06321      46.954113     -3804.6236      14529.264    
     65200   130.4          404.87135      47.048022     -3803.9027      15017.584    
     65300   130.6          408.67102      47.489562     -3802.8922      14442.567    
     65400   130.8          414.67155      48.186854     -3802.1087      16207.186    
     65500   131            400.52681      46.543166     -3803.4753      14039.155    
     65600   131.2          398.6469       46.324712     -3805.9795      15263.471    
     65700   131.4          392.54647      45.615812     -3806.2933      14435.242    
     65800   131.6          400.39528      46.527882     -3804.8856      15295.348    
     65900   131.8          417.6496       48.532918     -3801.2644      16503.782    
     66000   132            409.48674      47.584354     -3801.4429      14735.8      
     66100   132.2          398.99704      46.365399     -3803.4549      14917.708    
     66200   132.4          388.4299       45.137446     -3805.0106      16212.095    
     66300   132.6          405.6007       47.132777     -3806.1041      13639.207    
     66400   132.8          394.36361      45.826972     -3806.5521      14867.532    
     66500   133            397.87997      46.235591     -3804.5766      15719.907    
     66600   133.2          409.30345      47.563054     -3802.3119      12428.172    
     66700   133.4          396.25247      46.046467     -3803.3579      15221.801    
     66800   133.6          387.85717      45.070892     -3805.9286      13617.838    
     66900   133.8          391.46719      45.490394     -3806.5159      14030.498    
     67000   134            386.13449      44.870709     -3805.9208      15057.561    
     67100   134.2          397.78967      46.225097     -3804.5322      14404.572    
     67200   134.4          415.96082      48.336673     -3804.0003      15966.099    
     67300   134.6          403.49643      46.88825      -3804.4869      13608.598    
     67400   134.8          388.69155      45.167851     -3806.1304      14834.501    
     67500   135            388.99092      45.202639     -3806.7018      13328.336    
     67600   135.2          402.60561      46.784732     -3805.2258      15479.532    
     67700   135.4          401.23681      46.625672     -3802.9913      14050.865    
     67800   135.6          418.21411      48.598516     -3802.236       14615.94     
     67900   135.8          405.14103      47.079361     -3804.4502      15761.713    
     68000   136            383.6328       44.58         -3807.4606      13451.957    
     68100   136.2          398.69341      46.330116     -3806.6566      15743.957    
     68200   136.4          402.66963      46.792172     -3804.3268      13464.925    
     68300   136.6          403.49967      46.888627     -3803.164       14858.522    
     68400   136.8          403.14314      46.847197     -3803.4628      15883.251    
     68500   137            384.59736      44.692086     -3806.1299      13829.84     
     68600   137.2          380.65598      44.234079     -3807.8421      14941.136    
     68700   137.4          393.41906      45.717211     -3806.5245      14586.72     
     68800   137.6          398.6611       46.326361     -3805.1343      15075.605    
     68900   137.8          407.7291       47.380108     -3804.1524      14681.561    
     69000   138            402.23106      46.741208     -3803.9892      16333.199    
     69100   138.2          398.10977      46.262294     -3805.2654      13021.924    
     69200   138.4          382.7779       44.480656     -3807.6919      14601.275    
     69300   138.6          393.64602      45.743584     -3806.8526      14331.181    
     69400   138.8          392.78262      45.643254     -3804.1029      15283.936    
     69500   139            400.67861      46.560806     -3803.4111      16080.613    
     69600   139.2          407.12988      47.310475     -3803.4069      14400.738    
     69700   139.4          397.85125      46.232253     -3804.7515      15228.282    
     69800   139.6          396.85692      46.116707     -3807.9859      14084.268    
     69900   139.8          379.31494      44.078243     -3808.0399      13271.761    
     70000   140            377.29622      43.843658     -3805.923       14591.812    
     70100   140.2          389.97127      45.316561     -3804.3845      14789.616    
     70200   140.4          408.49297      47.468873     -3803.6403      14989.793    
     70300   140.6          401.29499      46.632432     -3803.6414      15676.802    
     70400   140.8          400.561        46.547139     -3804.2491      13157.07     
     70500   141            391.91012      45.541865     -3806.0306      14609.498    
     70600   141.2          391.89936      45.540614     -3806.8916      12080.004    
     70700   141.4          400.26097      46.512274     -3805.048       14959.042    
     70800   141.6          403.66446      46.907776     -3802.733       16018.223    
     70900   141.8          414.13974      48.125055     -3803.1457      14367.931    
     71000   142            396.48058      46.072975     -3804.9842      15470.285    
     71100   142.2          387.83231      45.068003     -3805.6366      14142.859    
     71200   142.4          397.31472      46.169906     -3805.285       14822.782    
     71300   142.6          401.8484       46.696741     -3804.3815      13224.298    
     71400   142.8          403.05082      46.836469     -3803.4926      13739.284    
     71500   143            424.60319      49.340959     -3800.8567      13862.961    
     71600   143.2          402.04339      46.7194       -3800.1653      13625.357    
     71700   143.4          401.71808      46.681597     -3803.2766      14138.82     
     71800   143.6          405.14125      47.079387     -3804.7461      15480.238    
     71900   143.8          399.53439      46.427842     -3804.6518      12787.751    
     72000   144            403.5884       46.898938     -3803.5961      15272.844    
     72100   144.2          406.4276       47.228867     -3801.6246      14101.84     
     72200   144.4          434.58627      50.501042     -3800.4969      13921.272    
     72300   144.6          400.39071      46.527351     -3803.5137      16359.856    
     72400   144.8          395.49966      45.958986     -3805.5023      14287.31     
     72500   145            403.23603      46.857991     -3805.5499      12835.357    
     72600   145.2          395.59442      45.969999     -3804.7172      15959.544    
     72700   145.4          411.57554      47.827082     -3802.2583      14348.805    
     72800   145.6          420.99404      48.921558     -3800.4832      13584.188    
     72900   145.8          401.14789      46.615338     -3802.7519      15842.696    
     73000   146            397.28746      46.166738     -3805.5481      13844.052    
     73100   146.2          390.40715      45.367212     -3804.9992      14021.983    
     73200   146.4          417.82941      48.553813     -3803.1931      14377.843    
     73300   146.6          404.20663      46.970779     -3801.5763      14227.329    
     73400   146.8          402.96789      46.826831     -3802.1573      13610.599    
     73500   147            383.28161      44.53919      -3805.8845      13497.948    
     73600   147.2          383.50301      44.564917     -3806.2157      13873.297    
     73700   147.4          394.66557      45.862061     -3804.6081      13240.992    
     73800   147.6          412.05417      47.882702     -3802.7516      14226.323    
     73900   147.8          385.95667      44.850044     -3802.6501      14425.737    
     74000   148            393.63409      45.742199     -3803.1599      13479.119    
     74100   148.2          383.39815      44.552732     -3803.7743      14297.071    
     74200   148.4          382.18898      44.412221     -3803.9089      14150.997    
     74300   148.6          396.7935       46.109337     -3803.9894      14606.877    
     74400   148.8          400.46519      46.536006     -3803.5844      14118.093    
     74500   149            396.64072      46.091584     -3802.908       13888.27     
     74600   149.2          401.7029       46.679834     -3802.9653      13179.34     
     74700   149.4          409.10116      47.539548     -3803.0768      15897.279    
     74800   149.6          398.78342      46.340576     -3803.2939      12616.3      
     74900   149.8          390.31565      45.35658      -3803.3676      14492.153    
     75000   150            407.8547       47.394702     -3803.367       13650.926    
     75100   150.2          396.88597      46.120082     -3803.2524      13693.265    
     75200   150.4          405.54071      47.125805     -3803.2046      14163.429    
     75300   150.6          393.68269      45.747846     -3803.4125      14674.553    
     75400   150.8          379.56484      44.107283     -3804.344       13383.03     
     75500   151            397.89046      46.23681      -3805.326       14210.848    
     75600   151.2          409.90914      47.633438     -3805.0971      13373.574    
     75700   151.4          406.119        47.193006     -3802.6439      15533.588    
     75800   151.6          399.9723       46.478729     -3800.8057      14367.758    
     75900   151.8          401.92977      46.706197     -3801.3443      13779.631    
     76000   152            411.18016      47.781137     -3803.81        15427.532    
     76100   152.2          398.05931      46.25643      -3804.364       12261.816    
     76200   152.4          400.20826      46.50615      -3803.911       16132.722    
     76300   152.6          394.72984      45.86953      -3802.8882      15576.701    
     76400   152.8          422.23446      49.0657       -3801.1963      12978.562    
     76500   153            406.37851      47.223162     -3799.4661      16218.397    
     76600   153.2          414.89665      48.213011     -3800.1771      13083.534    
     76700   153.4          386.85092      44.953961     -3803.864       14300.521    
     76800   153.6          381.03099      44.277657     -3804.7801      14043.782    
     76900   153.8          387.0767       44.980198     -3804.5055      14125.466    
     77000   154            415.13791      48.241047     -3802.3439      13916.344    
     77100   154.2          427.28259      49.652319     -3800.6107      14203.986    
     77200   154.4          381.38031      44.31825      -3802.7011      14332.999    
     77300   154.6          408.29767      47.446178     -3805.3719      13126.597    
     77400   154.8          382.22572      44.41649      -3805.2739      15092.821    
     77500   155            397.1814       46.154413     -3803.7254      14599.265    
     77600   155.2          396.11709      46.030736     -3802.0931      13909.665    
     77700   155.4          411.06333      47.767561     -3801.4487      15041.714    
     77800   155.6          406.79919      47.272048     -3805.1707      13927.186    
     77900   155.8          374.14666      43.477664     -3806.39        15043.821    
     78000   156            388.3555       45.128801     -3805.2573      15311.929    
     78100   156.2          413.86806      48.093484     -3802.9218      15067.1      
     78200   156.4          417.46845      48.511867     -3801.7903      13847.531    
     78300   156.6          407.69964      47.376683     -3802.3018      15909.712    
     78400   156.8          407.20951      47.319728     -3803.2363      15142.716    
     78500   157            401.22387      46.624168     -3803.5268      14947.627    
     78600   157.2          406.603        47.249249     -3803.8988      14526.568    
     78700   157.4          398.37224      46.292795     -3804.4295      14452.996    
     78800   157.6          406.28263      47.212021     -3804.5798      14683.17     
     78900   157.8          378.9494       44.035766     -3804.2343      13528.869    
     79000   158            415.49855      48.282955     -3802.6795      13713.554    
     79100   158.2          403.34787      46.870987     -3801.3389      13883.798    
     79200   158.4          400.93238      46.590295     -3801.4638      15445.109    
     79300   158.6          405.7222       47.146896     -3804.8942      14248.011    
     79400   158.8          397.46644      46.187536     -3805.6958      14245.218    
     79500   159            398.72752      46.33408      -3804.9051      13656.073    
     79600   159.2          413.38515      48.037368     -3802.3085      13803.153    
     79700   159.4          400.6489       46.557353     -3801.5915      15216.948    
     79800   159.6          402.80545      46.807955     -3802.4776      14342.364    
     79900   159.8          396.15894      46.035598     -3803.6435      14759.344    
     80000   160            398.24033      46.277465     -3804.8076      14286.783    
     80100   160.2          393.92295      45.775765     -3806.3292      13813.736    
     80200   160.4          389.51916      45.264024     -3808.5655      15953.458    
     80300   160.6          400.64442      46.556833     -3807.1053      13713.671    
     80400   160.8          402.26889      46.745604     -3804.392       16659.946    
     80500   161            399.46601      46.419896     -3803.5206      13948.547    
     80600   161.2          406.56775      47.245153     -3803.4864      15394.37     
     80700   161.4          401.31104      46.634297     -3803.1515      15610.574    
     80800   161.6          405.9759       47.176377     -3802.3962      14477.837    
     80900   161.8          403.66177      46.907463     -3802.5126      15953.255    
     81000   162            393.66686      45.746007     -3804.4357      16038.241    
     81100   162.2          403.09932      46.842104     -3806.2822      11011.244    
     81200   162.4          393.86966      45.769573     -3805.8649      15098.031    
     81300   162.6          391.23343      45.46323      -3802.2947      14745.249    
     81400   162.8          415.46662      48.279245     -3801.6202      14596.511    
     81500   163            386.4535       44.907779     -3803.5934      13883.31     
     81600   163.2          387.17782      44.991949     -3805.1981      13839.206    
     81700   163.4          391.02411      45.438905     -3805.4109      14352.451    
     81800   163.6          407.71887      47.378919     -3803.3444      14147.585    
     81900   163.8          421.58853      48.99064      -3800.3986      13813.241    
     82000   164            412.28771      47.909839     -3801.8982      14671.072    
     82100   164.2          390.37734      45.363748     -3804.3378      15085.983    
     82200   164.4          393.61499      45.739979     -3805.2756      13288.128    
     82300   164.6          408.08248      47.421172     -3804.9469      15072.387    
     82400   164.8          407.69459      47.376097     -3803.207       14502.33     
     82500   165            401.46939      46.652699     -3800.5336      14692.328    
     82600   165.2          407.62003      47.367432     -3801.8242      14134.568    
     82700   165.4          396.43993      46.068251     -3804.2363      16202.857    
     82800   165.6          399.59294      46.434646     -3804.6058      12500.278    
     82900   165.8          380.1835       44.179175     -3804.964       16279.962    
     83000   166            399.74512      46.452329     -3804.2945      14085.775    
     83100   166.2          403.49418      46.887989     -3802.1152      15542.672    
     83200   166.4          411.48664      47.816752     -3801.3214      14479.16     
     83300   166.6          400.21924      46.507424     -3804.353       12795.265    
     83400   166.8          378.02185      43.92798      -3806.0578      14830.089    
     83500   167            393.7335       45.75375      -3805.5526      13434.116    
     83600   167.2          397.54283      46.196413     -3804.0305      14522.497    
     83700   167.4          397.70489      46.215245     -3802.1189      15177.105    
     83800   167.6          429.68538      49.931534     -3799.786       15520.664    
     83900   167.8          415.23605      48.252451     -3801.6337      16049.472    
     84000   168            399.51268      46.425319     -3804.6567      14776.829    
     84100   168.2          395.82046      45.996266     -3805.9197      14339.046    
     84200   168.4          397.88805      46.236529     -3805.5166      14768.139    
     84300   168.6          401.56754      46.664103     -3803.9229      14035.562    
     84400   168.8          415.80624      48.31871      -3801.6875      16116.829    
     84500   169            416.71922      48.424803     -3801.9868      14493.867    
     84600   169.2          400.86525      46.582494     -3805.7875      13893.228    
     84700   169.4          385.98117      44.852891     -3806.6048      14966.662    
     84800   169.6          409.5781       47.59497      -3805.5726      13604.711    
     84900   169.8          409.30621      47.563375     -3803.4013      13644.284    
     85000   170            409.25408      47.557317     -3802.1137      14597.746    
     85100   170.2          394.52483      45.845706     -3803.9619      13994.651    
     85200   170.4          379.15409      44.059552     -3807.1107      12745.1      
     85300   170.6          384.75217      44.710077     -3806.8434      13602.393    
     85400   170.8          401.81931      46.693361     -3804.8534      15435.286    
     85500   171            408.14154      47.428035     -3803.2407      13471.86     
     85600   171.2          400.45846      46.535223     -3803.4025      14110.16     
     85700   171.4          386.1059       44.867386     -3807.2935      13745.428    
[...]
    478600   957.2          403.6549       46.906665     -3802.7846      14797.481    
    478700   957.4          417.61092      48.528423     -3801.4457      16345.215    
    478800   957.6          413.21599      48.017711     -3802.7006      14678.061    
    478900   957.8          418.53168      48.635419     -3805.0214      15712.629    
    479000   958            379.93586      44.150397     -3805.7945      13906.737    
    479100   958.2          408.66336      47.488673     -3805.1906      15999.947    
    479200   958.4          402.91842      46.821082     -3804.0027      14595.762    
    479300   958.6          393.51554      45.728423     -3803.0969      13650.95     
    479400   958.8          417.95981      48.568966     -3802.3659      13740.341    
    479500   959            400.18425      46.503358     -3802.523       16405.548    
    479600   959.2          410.39906      47.69037      -3804.1793      14815.807    
    479700   959.4          385.79934      44.831762     -3806.3222      14220.087    
    479800   959.6          387.87412      45.072862     -3806.3604      14847.893    
    479900   959.8          406.68033      47.258235     -3804.0396      16133.57     
    480000   960            415.15599      48.243148     -3801.5994      14415.969    
    480100   960.2          422.465        49.092491     -3802.2658      15404.578    
    480200   960.4          406.23691      47.206708     -3803.7245      13808.835    
    480300   960.6          398.73308      46.334726     -3804.9951      14908.431    
    480400   960.8          387.91302      45.077382     -3805.507       15351.255    
    480500   961            407.00591      47.296069     -3805.0447      15300.839    
    480600   961.2          412.78568      47.967707     -3801.5587      14584.23     
    480700   961.4          419.09739      48.701158     -3800.8075      15416.325    
    480800   961.6          396.593        46.086039     -3803.5256      15904.205    
    480900   961.8          399.89397      46.469627     -3805.1449      14991.474    
    481000   962            374.06042      43.467642     -3805.418       15225.401    
    481100   962.2          409.7049       47.609705     -3804.5648      14441.076    
    481200   962.4          418.96754      48.686069     -3801.3021      15148.346    
    481300   962.6          421.40406      48.969205     -3800.8182      15970.607    
    481400   962.8          398.52531      46.310582     -3803.1736      13695.728    
    481500   963            402.5766       46.781362     -3804.2279      14347.856    
    481600   963.2          384.34411      44.662657     -3804.7555      14956.539    
    481700   963.4          400.7676       46.571147     -3805.2237      13183.192    
    481800   963.6          417.9785       48.571138     -3805.9073      14072.749    
    481900   963.8          410.93829      47.753031     -3806.5234      14896.903    
    482000   964            391.12728      45.450895     -3806.1519      14009.169    
    482100   964.2          399.92035      46.472693     -3803.6228      15550.673    
    482200   964.4          399.63006      46.438959     -3802.0451      14235.668    
    482300   964.6          405.18973      47.08502      -3802.6227      14863.23     
    482400   964.8          399.14838      46.382986     -3804.8383      15171.443    
    482500   965            405.78331      47.153997     -3805.4842      14225.175    
    482600   965.2          395.25654      45.930735     -3804.8352      15308.606    
    482700   965.4          405.37974      47.1071       -3803.5901      14042.863    
    482800   965.6          394.55582      45.849308     -3802.3935      14192.355    
    482900   965.8          420.87983      48.908286     -3802.0255      14331.472    
    483000   966            397.14671      46.150382     -3803.9445      14590.541    
    483100   966.2          401.31457      46.634707     -3806.169       15294.635    
    483200   966.4          378.75181      44.012805     -3806.0821      12761.22     
    483300   966.6          405.9915       47.17819      -3803.5051      15213.831    
    483400   966.8          408.52819      47.472965     -3801.9434      16286.884    
    483500   967            405.35863      47.104647     -3802.6203      13987.437    
    483600   967.2          407.23835      47.323079     -3803.7162      14690.886    
    483700   967.4          382.92067      44.497246     -3805.0093      16317.262    
    483800   967.6          381.975        44.387356     -3805.7043      13640.059    
    483900   967.8          387.80947      45.06535      -3805.4352      14903.093    
    484000   968            399.73632      46.451307     -3803.3856      16312.943    
    484100   968.2          409.48616      47.584286     -3801.7913      14378.894    
    484200   968.4          412.89908      47.980884     -3801.8508      15537.531    
    484300   968.6          401.68356      46.677586     -3804.403       14240.924    
    484400   968.8          401.86867      46.699097     -3806.1592      13026.179    
    484500   969            398.04922      46.255258     -3805.3726      15559.956    
    484600   969.2          396.48506      46.073495     -3804.19        12785.846    
    484700   969.4          407.02173      47.297907     -3803.2183      16125.223    
    484800   969.6          390.1598       45.338469     -3803.0154      12579.242    
    484900   969.8          392.02448      45.555154     -3803.2167      16766.96     
    485000   970            389.58929      45.272173     -3804.1076      15419.957    
    485100   970.2          387.40819      45.018719     -3806.5667      16439.773    
    485200   970.4          374.293        43.494669     -3808.8434      15100.181    
    485300   970.6          393.5717       45.734948     -3806.7824      14101.226    
    485400   970.8          390.52228      45.380591     -3804.5117      17237.723    
    485500   971            408.46044      47.465092     -3803.2632      14483.624    
    485600   971.2          405.99949      47.179118     -3803.0002      15490.848    
    485700   971.4          403.65149      46.90627      -3803.9043      14565.257    
    485800   971.6          384.50438      44.681282     -3806.3623      13019.523    
    485900   971.8          385.04466      44.744065     -3806.6709      16014.36     
    486000   972            394.90013      45.889319     -3804.2865      14850.251    
    486100   972.2          401.76503      46.687054     -3802.4899      14431.914    
    486200   972.4          398.10357      46.261574     -3802.7387      15134.734    
    486300   972.6          392.76596      45.641317     -3803.6886      14445.4      
    486400   972.8          377.82067      43.904602     -3804.5216      14479.311    
    486500   973            385.16373      44.757901     -3806.534       14749.051    
    486600   973.2          382.04813      44.395853     -3807.6034      14099.678    
    486700   973.4          393.84319      45.766497     -3805.0835      13721.335    
    486800   973.6          399.19235      46.388096     -3803.1524      14146.778    
    486900   973.8          413.62327      48.065038     -3802.3036      13577.385    
    487000   974            397.02239      46.135936     -3802.9822      14886.972    
    487100   974.2          398.51754      46.309679     -3805.5869      12883.58     
    487200   974.4          399.39523      46.411671     -3807.1333      13793.762    
    487300   974.6          395.32934      45.939194     -3805.4793      13657.109    
    487400   974.8          393.57971      45.73588      -3803.6392      12074.191    
    487500   975            405.77035      47.152491     -3802.8987      14424.741    
    487600   975.2          404.10069      46.958469     -3802.1578      14514.074    
    487700   975.4          419.2411       48.717858     -3801.6343      14679.668    
    487800   975.6          394.23778      45.81235      -3803.3806      13892.615    
    487900   975.8          387.97241      45.084283     -3805.5211      15447.108    
    488000   976            391.67723      45.514802     -3805.7994      14856.57     
    488100   976.2          397.40017      46.179835     -3802.5694      14026.777    
    488200   976.4          417.45226      48.509985     -3800.9287      15179.468    
    488300   976.6          406.73673      47.264789     -3801.9356      14947.092    
    488400   976.8          398.21129      46.274091     -3804.0683      14209.192    
    488500   977            396.12874      46.032089     -3805.3048      14825.357    
    488600   977.2          384.90943      44.72835      -3805.3328      13430.675    
    488700   977.4          413.62448      48.065179     -3801.8995      14639.499    
    488800   977.6          412.0057       47.877069     -3800.4755      14048.537    
    488900   977.8          408.0597       47.418525     -3802.2571      15270.939    
    489000   978            386.8321       44.951774     -3804.2509      13300.452    
    489100   978.2          391.10177      45.447931     -3804.9923      13844.784    
    489200   978.4          394.45705      45.83783      -3804.227       14698.202    
    489300   978.6          413.36006      48.034452     -3800.7458      14833.147    
    489400   978.8          412.23161      47.903321     -3800.5522      13704.053    
    489500   979            410.41402      47.692108     -3802.6312      15163.498    
    489600   979.2          384.46592      44.676812     -3804.3172      13565.845    
    489700   979.4          401.71219      46.680913     -3804.3096      13785.612    
    489800   979.6          385.03444      44.742878     -3803.7917      16054.219    
    489900   979.8          408.05999      47.418558     -3801.9218      14453.918    
    490000   980            418.57063      48.639946     -3798.6355      14717.264    
    490100   980.2          416.68001      48.420247     -3799.1262      15321.142    
    490200   980.4          402.20906      46.738652     -3801.2355      14263.454    
    490300   980.6          395.29985      45.935768     -3802.5981      15097.601    
    490400   980.8          401.10628      46.610504     -3804.1258      13768.733    
    490500   981            407.44836      47.347483     -3805.1309      13473.899    
    490600   981.2          397.79074      46.225221     -3805.4627      16361.378    
    490700   981.4          397.04005      46.137988     -3803.8663      14592.777    
    490800   981.6          415.68127      48.304188     -3801.5885      14686.579    
    490900   981.8          407.25618      47.325152     -3801.4814      16242.396    
    491000   982            387.70417      45.053113     -3804.1254      15059.253    
    491100   982.2          381.243        44.302294     -3805.6966      14024.56     
    491200   982.4          404.535        47.008937     -3805.1098      14890.979    
    491300   982.6          402.22446      46.740441     -3804.3699      14269.146    
    491400   982.8          405.24882      47.091886     -3802.7334      14227.137    
    491500   983            424.74376      49.357294     -3799.6566      15384.674    
    491600   983.2          410.98261      47.758181     -3799.925       15017.842    
    491700   983.4          398.62121      46.321726     -3802.7386      14554.702    
    491800   983.6          402.30803      46.750152     -3803.7858      15983.269    
    491900   983.8          395.3407       45.940515     -3804.4737      14574.441    
    492000   984            401.41656      46.646559     -3804.8407      13578.551    
    492100   984.2          398.10749      46.26203      -3805.5865      16486.957    
    492200   984.4          389.27702      45.235886     -3805.1114      13887.239    
    492300   984.6          393.88476      45.771328     -3802.9879      15179.396    
    492400   984.8          413.57015      48.058866     -3801.5167      16435.477    
    492500   985            406.71509      47.262274     -3802.1553      13600.975    
    492600   985.2          390.10897      45.332562     -3805.9143      14112.996    
    492700   985.4          378.83511      44.022485     -3806.2872      14255.238    
    492800   985.6          388.94769      45.197616     -3804.7947      13744.011    
    492900   985.8          403.47071      46.885262     -3802.3611      15419.006    
    493000   986            406.64802      47.25448      -3802.3121      14953.878    
    493100   986.2          407.54533      47.358752     -3803.2714      16694.291    
    493200   986.4          401.22235      46.623991     -3804.5761      12939.868    
    493300   986.6          365.11108      42.427686     -3804.8857      13402.437    
    493400   986.8          405.15343      47.080801     -3804.301       15152.804    
    493500   987            403.82622      46.926573     -3803.9346      15567.962    
    493600   987.2          403.9769       46.944083     -3802.9278      14934.422    
    493700   987.4          415.57512      48.291853     -3800.8049      15719.912    
    493800   987.6          421.7347       49.007627     -3799.6835      14346.299    
    493900   987.8          421.50473      48.980903     -3802.5183      14877.211    
    494000   988            395.32184      45.938323     -3804.5251      16704.937    
    494100   988.2          401.66228      46.675113     -3804.5234      14248.863    
    494200   988.4          397.08398      46.143093     -3803.9333      15156.38     
    494300   988.6          403.05424      46.836866     -3802.1429      15473.731    
    494400   988.8          433.99045      50.431804     -3800.132       14323.341    
    494500   989            418.6933       48.6542       -3802.2331      14597.641    
    494600   989.2          394.64591      45.859777     -3805.1938      14175.814    
    494700   989.4          384.72541      44.706966     -3805.1805      15460.289    
    494800   989.6          407.49043      47.352373     -3803.7382      14215.225    
    494900   989.8          419.43071      48.739891     -3802.0603      14558.288    
    495000   990            389.61674      45.275363     -3802.5078      14649.054    
    495100   990.2          385.5922       44.807691     -3806.0223      14365.484    
    495200   990.4          377.43939      43.860296     -3806.8886      14465.971    
    495300   990.6          391.68627      45.515852     -3804.9916      15468.734    
    495400   990.8          402.58607      46.782462     -3803.1763      13706.881    
    495500   991            403.56819      46.89659      -3802.7872      16322.726    
    495600   991.2          401.56632      46.663963     -3803.2692      13902.238    
    495700   991.4          404.02572      46.949756     -3804.2689      16709.686    
    495800   991.6          373.4821       43.400439     -3807.6989      13862.04     
    495900   991.8          386.19559      44.877809     -3807.8516      14029.473    
    496000   992            384.19157      44.644931     -3805.2617      14281.073    
    496100   992.2          408.76966      47.501026     -3803.4512      15125.291    
    496200   992.4          393.50351      45.727024     -3802.7171      14022.279    
    496300   992.6          393.4099       45.716147     -3802.5317      14905.455    
    496400   992.8          418.18648      48.595306     -3802.7159      15109.354    
    496500   993            401.46064      46.651682     -3804.3864      12596.317    
    496600   993.2          405.34982      47.103623     -3805.9404      14771.795    
    496700   993.4          384.83656      44.719883     -3805.521       14347.819    
    496800   993.6          394.64891      45.860125     -3802.6377      13546.823    
    496900   993.8          399.29926      46.400519     -3801.3365      14466.501    
    497000   994            415.26674      48.256018     -3802.0783      13756.716    
    497100   994.2          403.0512       46.836513     -3803.1238      12768.838    
    497200   994.4          411.47601      47.815517     -3803.7591      13914.926    
    497300   994.6          409.18221      47.548966     -3804.0541      14191.226    
    497400   994.8          396.40009      46.063621     -3804.1787      13876.419    
    497500   995            411.39062      47.805593     -3804.134       14635.234    
    497600   995.2          400.51495      46.541788     -3804.0379      13369.257    
    497700   995.4          391.9198       45.54299      -3804.0783      15317.728    
    497800   995.6          394.02587      45.787725     -3804.0187      13362.161    
    497900   995.8          391.61293      45.507329     -3804.2191      14122.01     
    498000   996            406.01971      47.181467     -3804.9574      14868.415    
    498100   996.2          396.49569      46.07473      -3805.5872      13970.747    
    498200   996.4          389.35941      45.245459     -3805.2036      15910.227    
    498300   996.6          400.44838      46.534052     -3803.0016      14641.326    
    498400   996.8          407.09459      47.306374     -3801.759       15878.31     
    498500   997            409.4763       47.58314      -3803.3838      14833.869    
    498600   997.2          398.59272      46.318416     -3806.5885      13790.638    
    498700   997.4          388.43501      45.138041     -3806.5012      15251.911    
    498800   997.6          391.23078      45.462922     -3804.9347      14632.563    
    498900   997.8          404.9186       47.053513     -3803.3758      14037.269    
    499000   998            415.21313      48.249788     -3803.0575      14338.207    
    499100   998.2          404.55858      47.011678     -3804.2224      13453.754    
    499200   998.4          383.18556      44.528028     -3808.3871      13827.476    
    499300   998.6          370.66452      43.073022     -3808.9503      14701.676    
    499400   998.8          392.02977      45.555769     -3805.9276      14367.559    
    499500   999            395.79378      45.993164     -3803.9091      12196.898    
    499600   999.2          401.79083      46.690051     -3802.8208      16955.477    
    499700   999.4          406.25721      47.209066     -3802.644       13847.568    
    499800   999.6          392.6927       45.632804     -3804.3507      15830.291    
    499900   999.8          386.14663      44.872119     -3806.646       15941.171    
    500000   1000           390.3177       45.356818     -3806.2593      14806.159    
Loop time of 28303.9 on 1 procs for 500000 steps with 900 atoms

Performance: 3.053 ns/day, 7.862 hours/ns, 17.665 timesteps/s
59.1% CPU use with 1 MPI tasks x 1 OpenMP threads

MPI task timing breakdown:
Section |  min time  |  avg time  |  max time  |%varavg| %total
---------------------------------------------------------------
Pair    | 28010      | 28010      | 28010      |   0.0 | 98.96
Neigh   | 248.63     | 248.63     | 248.63     |   0.0 |  0.88
Comm    | 10.915     | 10.915     | 10.915     |   0.0 |  0.04
Output  | 11.387     | 11.387     | 11.387     |   0.0 |  0.04
Modify  | 19.334     | 19.334     | 19.334     |   0.0 |  0.07
Other   |            | 4.01       |            |       |  0.01

Nlocal:            900 ave         900 max         900 min
Histogram: 1 0 0 0 0 0 0 0 0 0
Nghost:           2455 ave        2455 max        2455 min
Histogram: 1 0 0 0 0 0 0 0 0 0
Neighs:              0 ave           0 max           0 min
Histogram: 1 0 0 0 0 0 0 0 0 0
FullNghs:        66494 ave       66494 max       66494 min
Histogram: 1 0 0 0 0 0 0 0 0 0

Total # of neighbors = 66494
Ave neighs/atom = 73.882222
Neighbor list builds = 50000
Dangerous builds not checked
Total wall time: 7:53:37
