ITEM: TIMESTEP
0
ITEM: NUMBER OF ATOMS
32
ITEM: BOX BOUNDS xy xz yz pp pp pp
-4.7826766967773438e-03 8.1591479182243347e+00 1.7598162293434143e+00
-3.7661075592041016e-02 2.2120539069175720e+01 0.0000000000000000e+00
-1.1393904685974121e-02 5.1938598752021790e+00 0.0000000000000000e+00
ITEM: ATOMS id type xs ys zs fx fy fz
1 1 0.926734 0.336542 0.593597 0 0.000802994 5.72205e-06
2 1 0.426734 0.336542 0.593597 0 0.000799179 5.72205e-06
3 1 0.188141 0.295033 0.0935973 0 -0.00213432 -5.72205e-06
4 1 0.688141 0.295033 0.0935973 0 -0.00213242 -3.8147e-06
5 1 0.142385 0.461543 0.593597 0 0.000881195 0
6 1 0.642385 0.461543 0.593597 0 0.00088501 5.72205e-06
7 1 0.90379 0.420037 0.0935973 0 -0.00147438 -7.62939e-06
8 1 0.40379 0.420037 0.0935973 0 -0.00147438 -3.8147e-06
9 1 0.858035 0.586543 0.593597 0 0.00140762 0
10 1 0.358035 0.586543 0.593597 0 0.00140572 0
11 1 0.0736869 0.711539 0.593597 0 0.00221825 7.62939e-06
12 1 0.573687 0.711539 0.593597 0 0.00221825 3.8147e-06
13 1 0.83509 0.670042 0.0935972 0 -0.00104332 -3.8147e-06
14 1 0.119439 0.545043 0.0935972 0 -0.000988007 0
15 1 0.619439 0.545043 0.0935972 0 -0.000984192 0
16 1 0.33509 0.670042 0.0935972 0 -0.00104713 -7.62939e-06
17 1 0.789339 0.836533 0.593597 0 0.0123024 1.90735e-06
18 1 0.289339 0.836533 0.593597 0 0.0123024 1.90735e-06
19 1 0.00499003 0.961533 0.593597 0 -0.401529 1.90735e-06
20 1 0.50499 0.961533 0.593597 0 -0.401527 1.90735e-06
21 1 0.0507428 0.795035 0.0935971 0 0.00377846 0
22 1 0.550743 0.795035 0.0935971 0 0.00377464 -1.90735e-06
23 1 0.766394 0.920032 0.0935971 0 -0.659229 -3.8147e-06
24 1 0.266394 0.920032 0.0935971 0 -0.659227 -1.90735e-06
25 1 0.995434 0.0865377 0.593597 0 0.658941 0
26 1 0.495434 0.0865377 0.593597 0 0.658949 0
27 1 0.25684 0.045031 0.093597 0 0.401922 0
28 1 0.75684 0.045031 0.093597 0 0.401913 0
29 1 0.211084 0.211541 0.593597 0 -0.00377083 1.90735e-06
30 1 0.711084 0.211541 0.593597 0 -0.00376892 1.90735e-06
31 1 0.97249 0.170031 0.093597 0 -0.0120869 0
32 1 0.47249 0.170031 0.093597 0 -0.0120831 0
ITEM: TIMESTEP
1
ITEM: NUMBER OF ATOMS
32
ITEM: BOX BOUNDS xy xz yz pp pp pp
-4.7826766967773438e-03 8.1591479182243347e+00 1.7598162293434143e+00
-3.7661075592041016e-02 2.2120539069175720e+01 0.0000000000000000e+00
-1.1393904685974121e-02 5.1938598752021790e+00 0.0000000000000000e+00
ITEM: ATOMS id type xs ys zs fx fy fz
1 1 0.926732 0.336548 0.593597 0 -2.28882e-05 -1.90735e-06
2 1 0.426732 0.336548 0.593597 0 -2.09808e-05 0
3 1 0.188145 0.295018 0.0935971 0 0.000385284 -3.8147e-06
4 1 0.688145 0.295018 0.0935972 0 0.000387192 0
5 1 0.142383 0.461549 0.593597 0 0.0013485 1.90735e-06
6 1 0.642383 0.461549 0.593597 0 0.00135422 0
7 1 0.903792 0.420027 0.0935971 0 -0.00196075 1.90735e-06
8 1 0.403793 0.420027 0.0935972 0 -0.00196075 -1.90735e-06
9 1 0.858032 0.586553 0.593597 0 0.0019207 1.90735e-06
10 1 0.358032 0.586553 0.593597 0 0.0019207 0
11 1 0.0736827 0.711554 0.593597 0 -0.000299454 0
12 1 0.573683 0.711554 0.593597 0 -0.000307083 -5.72205e-06
13 1 0.835092 0.670035 0.0935971 0 -0.000160217 1.90735e-06
14 1 0.119441 0.545036 0.0935972 0 -0.00148964 0
15 1 0.619441 0.545036 0.0935972 0 -0.00149155 -1.90735e-06
16 1 0.335092 0.670035 0.093597 0 -0.00015831 1.90735e-06
17 1 0.789316 0.836617 0.593597 0 -0.0948277 -1.90735e-06
18 1 0.289316 0.836617 0.593597 0 -0.0948257 0
19 1 0.00574539 0.958784 0.593597 0 0.0318794 0
20 1 0.505745 0.958784 0.593597 0 0.0318985 -1.90735e-06
21 1 0.0507357 0.79506 0.0935971 0 -0.106264 0
22 1 0.550736 0.79506 0.093597 0 -0.10626 1.90735e-06
23 1 0.767634 0.915519 0.093597 0 -0.129803 3.8147e-06
24 1 0.267634 0.915519 0.093597 0 -0.129795 0
25 1 0.994194 0.0910487 0.593597 0 0.129959 0
26 1 0.494194 0.0910488 0.593597 0 0.129946 0
27 1 0.256084 0.0477825 0.093597 0 -0.0318565 0
28 1 0.756084 0.0477825 0.093597 0 -0.0318527 0
29 1 0.211091 0.211515 0.593597 0 0.10614 0
30 1 0.711091 0.211515 0.593597 0 0.106146 0
31 1 0.972513 0.169948 0.093597 0 0.0950336 3.8147e-06
32 1 0.472513 0.169948 0.093597 0 0.0950375 0
ITEM: TIMESTEP
2
ITEM: NUMBER OF ATOMS
32
ITEM: BOX BOUNDS xy xz yz pp pp pp
-4.7826766967773438e-03 8.1591479182243347e+00 1.7598162293434143e+00
-3.7661075592041016e-02 2.2120539069175720e+01 0.0000000000000000e+00
-1.1393904685974121e-02 5.1938598752021790e+00 0.0000000000000000e+00
ITEM: ATOMS id type xs ys zs fx fy fz
1 1 0.926732 0.336547 0.593597 0 0.0619392 1.90735e-06
2 1 0.426733 0.336547 0.593597 0 0.0619373 -1.90735e-06
3 1 0.188142 0.295029 0.0935967 0 0.078043 5.72205e-06
4 1 0.688142 0.295029 0.0935972 0 0.0780468 -1.90735e-06
5 1 0.142373 0.461586 0.593597 0 5.14984e-05 -5.72205e-06
6 1 0.642373 0.461586 0.593597 0 4.3869e-05 0
7 1 0.903807 0.419974 0.0935973 0 0.0010128 -1.90735e-06
8 1 0.403808 0.419974 0.093597 0 0.0010128 1.90735e-06
9 1 0.858018 0.586606 0.593597 0 -0.00110245 -1.90735e-06
10 1 0.358018 0.586606 0.593597 0 -0.00110245 3.8147e-06
11 1 0.0736849 0.711546 0.593597 0 -0.0780354 0
12 1 0.573685 0.711546 0.593596 0 -0.078022 1.14441e-05
13 1 0.835093 0.670031 0.0935973 0 -0.0620041 -5.72205e-06
14 1 0.119452 0.544995 0.0935972 0 -0.0001297 0
15 1 0.619452 0.544995 0.093597 0 -0.000123978 5.72205e-06
16 1 0.335093 0.670031 0.0935972 0 -0.0620022 -3.8147e-06
17 1 0.79003 0.834018 0.593597 0 0.0220718 5.72205e-06
18 1 0.29003 0.834018 0.593597 0 0.0220699 0
19 1 0.00550529 0.959657 0.593597 0 0.0272675 -1.90735e-06
20 1 0.505505 0.959658 0.593597 0 0.0272236 1.90735e-06
21 1 0.051536 0.792148 0.0935971 0 -0.0346794 0
22 1 0.551536 0.792148 0.0935973 0 -0.034687 -7.62939e-06
23 1 0.768612 0.911961 0.0935974 0 0.0182686 -3.8147e-06
24 1 0.268612 0.911961 0.093597 0 0.0182514 0
25 1 0.993215 0.0946106 0.593597 0 -0.0184288 3.8147e-06
26 1 0.493216 0.0946103 0.593597 0 -0.0183868 0
27 1 0.256324 0.0469094 0.093597 0 -0.0269985 0
28 1 0.756324 0.0469095 0.093597 0 -0.0270061 1.90735e-06
29 1 0.210291 0.214424 0.593597 0 0.0348129 -1.90735e-06
30 1 0.710291 0.214424 0.593597 0 0.0348034 -3.8147e-06
31 1 0.971797 0.172553 0.0935974 0 -0.022068 -5.72205e-06
32 1 0.471797 0.172553 0.093597 0 -0.0220795 3.8147e-06
ITEM: TIMESTEP
3
ITEM: NUMBER OF ATOMS
32
ITEM: BOX BOUNDS xy xz yz pp pp pp
-4.7826766967773438e-03 8.1591479182243347e+00 1.7598162293434143e+00
-3.7661075592041016e-02 2.2120539069175720e+01 0.0000000000000000e+00
-1.1393904685974121e-02 5.1938598752021790e+00 0.0000000000000000e+00
ITEM: ATOMS id type xs ys zs fx fy fz
1 1 0.926304 0.338107 0.593597 0 0.0209045 0
2 1 0.426304 0.338107 0.593597 0 0.0209064 0
3 1 0.187601 0.296997 0.0935972 0 -0.00329399 -5.72205e-06
4 1 0.687601 0.296998 0.093597 0 -0.00330734 0
5 1 0.142369 0.461598 0.593597 0 0.0278339 5.72205e-06
6 1 0.642369 0.461598 0.593597 0 0.0278358 1.90735e-06
7 1 0.903805 0.419983 0.0935972 0 0.0528717 0
8 1 0.403805 0.419983 0.0935971 0 0.0528736 -1.90735e-06
9 1 0.858021 0.586594 0.593597 0 -0.0528927 0
10 1 0.358021 0.586594 0.593597 0 -0.0528908 -3.8147e-06
11 1 0.0742257 0.709578 0.593597 0 0.00323677 -7.62939e-06
12 1 0.574226 0.709578 0.593597 0 0.00323677 -7.62939e-06
13 1 0.835522 0.668468 0.0935968 0 -0.020834 5.72205e-06
14 1 0.119457 0.544979 0.0935972 0 -0.0278969 -1.90735e-06
15 1 0.619457 0.54498 0.0935975 0 -0.0279045 -3.8147e-06
16 1 0.335523 0.668468 0.0935969 0 -0.0208416 7.62939e-06
17 1 0.790094 0.833786 0.593597 0 -0.000520706 -9.53674e-06
18 1 0.290094 0.833786 0.593597 0 -0.000526428 -1.90735e-06
19 1 0.00524383 0.960609 0.593597 0 -0.0234718 0
20 1 0.505244 0.960609 0.593597 0 -0.0234261 3.8147e-06
21 1 0.0520185 0.790392 0.0935971 0 0.00535011 1.90735e-06
22 1 0.552019 0.790392 0.0935965 0 0.00535965 9.53674e-06
23 1 0.768781 0.911343 0.0935972 0 -0.0123692 0
24 1 0.268782 0.911343 0.093597 0 -0.0123577 1.90735e-06
25 1 0.993046 0.0952258 0.593597 0 0.0127277 -7.62939e-06
26 1 0.493046 0.0952264 0.593597 0 0.0126629 3.8147e-06
27 1 0.256583 0.0459649 0.093597 0 0.0232735 1.90735e-06
28 1 0.756583 0.0459648 0.0935972 0 0.0232811 0
29 1 0.209808 0.216182 0.593597 0 -0.00546646 7.62939e-06
30 1 0.709808 0.216182 0.593597 0 -0.00545692 3.8147e-06
31 1 0.971733 0.172787 0.093597 0 0.000543594 5.72205e-06
32 1 0.471733 0.172786 0.0935974 0 0.000558853 -9.53674e-06
ITEM: TIMESTEP
4
ITEM: NUMBER OF ATOMS
32
ITEM: BOX BOUNDS xy xz yz pp pp pp
-4.7826766967773438e-03 8.1591479182243347e+00 1.7598162293434143e+00
-3.7661075592041016e-02 2.2120539069175720e+01 0.0000000000000000e+00
-1.1393904685974121e-02 5.1938598752021790e+00 0.0000000000000000e+00
ITEM: ATOMS id type xs ys zs fx fy fz
1 1 0.926057 0.339003 0.593597 0 0.00346184 -5.72205e-06
2 1 0.426058 0.339003 0.593597 0 0.00346184 1.90735e-06
3 1 0.187456 0.297523 0.0935968 0 -0.00037384 3.8147e-06
4 1 0.687456 0.297523 0.0935969 0 -0.000364304 -1.90735e-06
5 1 0.142212 0.46217 0.593597 0 -0.0071106 0
6 1 0.642212 0.46217 0.593597 0 -0.0071106 0
7 1 0.903508 0.421064 0.0935971 0 0.00579834 1.90735e-06
8 1 0.403508 0.421064 0.093597 0 0.00579643 -1.90735e-06
9 1 0.858318 0.585512 0.593597 0 -0.00581932 0
10 1 0.358319 0.585512 0.593597 0 -0.00582123 0
11 1 0.0743703 0.709052 0.593597 0 0.000347137 7.62939e-06
12 1 0.57437 0.709052 0.593597 0 0.00034523 1.90735e-06
13 1 0.835768 0.667573 0.0935971 0 -0.00350952 -3.8147e-06
14 1 0.119614 0.544406 0.093597 0 0.00711823 1.90735e-06
15 1 0.619614 0.544406 0.0935974 0 0.00711823 0
16 1 0.335769 0.667573 0.0935974 0 -0.00349808 0
17 1 0.790116 0.833706 0.593597 0 -0.0156269 5.72205e-06
18 1 0.290116 0.833706 0.593597 0 -0.0156288 3.8147e-06
19 1 0.00529669 0.960417 0.593597 0 -0.00175667 1.90735e-06
20 1 0.505297 0.960417 0.593597 0 -0.00178719 -1.90735e-06
21 1 0.0521337 0.789973 0.0935973 0 -0.00553513 -9.53674e-06
22 1 0.552134 0.789973 0.0935971 0 -0.00553513 -3.8147e-06
23 1 0.768902 0.910905 0.0935971 0 0.0140247 -1.90735e-06
24 1 0.268902 0.910905 0.0935972 0 0.0140324 -1.90735e-06
25 1 0.992924 0.0956705 0.593597 0 -0.0142479 7.62939e-06
26 1 0.492924 0.0956701 0.593597 0 -0.0142097 -9.53674e-06
27 1 0.256531 0.0461553 0.0935972 0 0.00193214 1.90735e-06
28 1 0.756531 0.0461553 0.0935973 0 0.00193214 -1.90735e-06
29 1 0.209693 0.2166 0.593597 0 0.00566483 -5.72205e-06
30 1 0.709693 0.2166 0.593597 0 0.0056591 3.8147e-06
31 1 0.97171 0.172868 0.0935973 0 0.0156269 -3.8147e-06
32 1 0.471711 0.172868 0.0935967 0 0.0156155 9.53674e-06
ITEM: TIMESTEP
5
ITEM: NUMBER OF ATOMS
32
ITEM: BOX BOUNDS xy xz yz pp pp pp
-4.7826766967773438e-03 8.1591479182243347e+00 1.7598162293434143e+00
-3.7661075592041016e-02 2.2120539069175720e+01 0.0000000000000000e+00
-1.1393904685974121e-02 5.1938598752021790e+00 0.0000000000000000e+00
ITEM: ATOMS id type xs ys zs fx fy fz
1 1 0.926019 0.339141 0.593597 0 -0.000879288 1.90735e-06
2 1 0.42602 0.339141 0.593597 0 -0.000879288 -1.90735e-06
3 1 0.187445 0.297565 0.093597 0 0.00795364 0
4 1 0.687445 0.297565 0.0935968 0 0.00795555 0
5 1 0.14223 0.462106 0.593597 0 -0.00396156 0
6 1 0.64223 0.462107 0.593597 0 -0.00395966 -3.8147e-06
7 1 0.903454 0.421257 0.0935972 0 -0.000888824 -1.90735e-06
8 1 0.403455 0.421257 0.0935968 0 -0.000888824 5.72205e-06
9 1 0.858371 0.585318 0.593597 0 0.000873566 3.8147e-06
10 1 0.358372 0.585318 0.593597 0 0.00087738 0
11 1 0.074382 0.709009 0.593597 0 -0.00792885 -3.8147e-06
12 1 0.574382 0.70901 0.593597 0 -0.00793266 0
13 1 0.835807 0.667433 0.0935969 0 0.000883102 7.62939e-06
14 1 0.119597 0.544469 0.0935971 0 0.0039444 0
15 1 0.619597 0.544469 0.0935973 0 0.0039444 -3.8147e-06
16 1 0.335807 0.667433 0.0935975 0 0.00087738 -5.72205e-06
17 1 0.790187 0.833445 0.593597 0 -0.00245476 -3.8147e-06
18 1 0.290188 0.833445 0.593597 0 -0.00244904 -7.62939e-06
19 1 0.00530939 0.96037 0.593597 0 -0.00839996 -5.72205e-06
20 1 0.505309 0.96037 0.593597 0 -0.00839424 -9.53674e-06
21 1 0.052169 0.789844 0.0935966 0 0.0031414 7.62939e-06
22 1 0.552169 0.789844 0.0935969 0 0.00313377 5.72205e-06
23 1 0.76885 0.911093 0.0935969 0 -0.00523758 5.72205e-06
24 1 0.268851 0.911093 0.0935971 0 -0.00524139 3.8147e-06
25 1 0.992976 0.0954798 0.593597 0 0.005373 -3.8147e-06
26 1 0.492977 0.0954799 0.593597 0 0.00536156 7.62939e-06
27 1 0.256517 0.0462042 0.0935973 0 0.00832939 0
28 1 0.756517 0.0462042 0.0935971 0 0.00831985 3.8147e-06
29 1 0.209658 0.21673 0.593597 0 -0.00318718 -3.8147e-06
30 1 0.709658 0.21673 0.593597 0 -0.00318718 1.90735e-06
31 1 0.971639 0.173129 0.0935971 0 0.00244713 5.72205e-06
32 1 0.471639 0.173129 0.0935973 0 0.00245476 -5.72205e-06
ITEM: TIMESTEP
6
ITEM: NUMBER OF ATOMS
32
ITEM: BOX BOUNDS xy xz yz pp pp pp
-4.7826766967773438e-03 8.1591479182243347e+00 1.7598162293434143e+00
-3.7661075592041016e-02 2.2120539069175720e+01 0.0000000000000000e+00
-1.1393904685974121e-02 5.1938598752021790e+00 0.0000000000000000e+00
ITEM: ATOMS id type xs ys zs fx fy fz
1 1 0.926006 0.339191 0.593597 0 -0.00510788 3.8147e-06
2 1 0.426006 0.339191 0.593597 0 -0.0051136 0
3 1 0.187392 0.297757 0.0935972 0 0.00332832 -7.62939e-06
4 1 0.687392 0.297758 0.0935967 0 0.00332642 9.53674e-06
5 1 0.142262 0.46199 0.593597 0 0.0028019 1.90735e-06
6 1 0.642262 0.46199 0.593597 0 0.00280762 3.8147e-06
7 1 0.903433 0.421335 0.0935971 0 0.00178719 -7.62939e-06
8 1 0.403433 0.421335 0.0935973 0 0.00178909 -1.90735e-06
9 1 0.858393 0.58524 0.593597 0 -0.00177574 -5.72205e-06
10 1 0.358393 0.58524 0.593597 0 -0.00177956 0
11 1 0.0744349 0.708817 0.593597 0 -0.00334549 1.90735e-06
12 1 0.574435 0.708817 0.593597 0 -0.00333786 1.90735e-06
13 1 0.83582 0.667383 0.0935974 0 0.00511932 -5.72205e-06
14 1 0.119565 0.544585 0.0935972 0 -0.00281525 0
15 1 0.619565 0.544585 0.093597 0 -0.00281715 1.90735e-06
16 1 0.335821 0.667383 0.093597 0 0.00511169 5.72205e-06
17 1 0.790238 0.833262 0.593597 0 -0.000530243 7.62939e-06
18 1 0.290238 0.833261 0.593597 0 -0.000518799 1.52588e-05
19 1 0.00536554 0.960166 0.593596 0 0.00158691 7.62939e-06
20 1 0.505366 0.960166 0.593596 0 0.00161171 3.8147e-06
21 1 0.052168 0.789848 0.093597 0 -0.00125122 -5.72205e-06
22 1 0.552168 0.789848 0.0935973 0 -0.00124359 -9.53674e-06
23 1 0.768856 0.911073 0.0935974 0 -0.000364304 -9.53674e-06
24 1 0.268856 0.911073 0.0935974 0 -0.000356674 -1.33514e-05
25 1 0.992971 0.0955006 0.593597 0 0.000392914 5.72205e-06
26 1 0.492971 0.0955008 0.593597 0 0.000371933 7.62939e-06
27 1 0.256461 0.0464083 0.0935974 0 -0.0016098 -5.72205e-06
28 1 0.756461 0.0464081 0.0935974 0 -0.00159454 -3.8147e-06
29 1 0.209659 0.216727 0.593597 0 0.00122261 9.53674e-06
30 1 0.709659 0.216727 0.593597 0 0.00122643 -5.72205e-06
31 1 0.971588 0.173312 0.0935975 0 0.00053978 -5.72205e-06
32 1 0.471589 0.173312 0.0935971 0 0.000537872 0
ITEM: TIMESTEP
7
ITEM: NUMBER OF ATOMS
32
ITEM: BOX BOUNDS xy xz yz pp pp pp
-4.7826766967773438e-03 8.1591479182243347e+00 1.7598162293434143e+00
-3.7661075592041016e-02 2.2120539069175720e+01 0.0000000000000000e+00
-1.1393904685974121e-02 5.1938598752021790e+00 0.0000000000000000e+00
ITEM: ATOMS id type xs ys zs fx fy fz
1 1 0.926025 0.33912 0.593597 0 0.00034523 -1.90735e-06
2 1 0.426026 0.33912 0.593597 0 0.000349045 0
3 1 0.187368 0.297845 0.0935967 0 0.00047493 1.90735e-06
4 1 0.687368 0.297845 0.0935973 0 0.000463486 -1.90735e-06
5 1 0.142255 0.462012 0.593597 0 -0.00104523 0
6 1 0.642255 0.462013 0.593597 0 -0.00105286 -7.62939e-06
7 1 0.903421 0.421377 0.0935966 0 0.000343323 9.53674e-06
8 1 0.403422 0.421377 0.0935972 0 0.000341415 -3.8147e-06
9 1 0.858405 0.585197 0.593597 0 -0.000339508 0
10 1 0.358405 0.585197 0.593597 0 -0.000347137 5.72205e-06
11 1 0.0744591 0.708729 0.593597 0 -0.0004673 -1.90735e-06
12 1 0.574459 0.708729 0.593597 0 -0.000480652 -7.62939e-06
13 1 0.835801 0.667455 0.0935972 0 -0.000352859 -1.90735e-06
14 1 0.119571 0.544562 0.0935972 0 0.00104523 -3.8147e-06
15 1 0.619571 0.544562 0.093597 0 0.00104713 5.72205e-06
16 1 0.335801 0.667455 0.0935973 0 -0.000347137 -1.90735e-06
17 1 0.790249 0.83322 0.593597 0 -0.000377655 -5.72205e-06
18 1 0.29025 0.83322 0.593597 0 -0.000385284 -7.62939e-06
19 1 0.00536892 0.960154 0.593597 0 0.00172806 0
20 1 0.505369 0.960154 0.593596 0 0.00172234 1.90735e-06
21 1 0.0521733 0.789829 0.0935967 0 0.000238419 5.72205e-06
22 1 0.552173 0.789829 0.0935968 0 0.000240326 5.72205e-06
23 1 0.768858 0.911064 0.0935968 0 -0.000246048 5.72205e-06
24 1 0.268858 0.911064 0.0935965 0 -0.000263214 3.8147e-06
25 1 0.992968 0.0955107 0.593598 0 0.000202179 -7.62939e-06
26 1 0.492968 0.0955105 0.593598 0 0.000226974 -7.62939e-06
27 1 0.256458 0.0464203 0.093597 0 -0.00169563 3.8147e-06
28 1 0.756458 0.0464203 0.0935972 0 -0.00170326 3.8147e-06
29 1 0.209654 0.216745 0.593597 0 -0.000219345 0
30 1 0.709654 0.216745 0.593597 0 -0.00022316 0
31 1 0.971577 0.173355 0.0935972 0 0.000389099 3.8147e-06
32 1 0.471577 0.173355 0.093597 0 0.000389099 3.8147e-06
ITEM: TIMESTEP
8
ITEM: NUMBER OF ATOMS
32
ITEM: BOX BOUNDS xy xz yz pp pp pp
-4.7826766967773438e-03 8.1591479182243347e+00 1.7598162293434143e+00
-3.7661075592041016e-02 2.2120539069175720e+01 0.0000000000000000e+00
-1.1393904685974121e-02 5.1938598752021790e+00 0.0000000000000000e+00
ITEM: ATOMS id type xs ys zs fx fy fz
1 1 0.926025 0.339119 0.593597 0 0.000141144 3.8147e-06
2 1 0.426026 0.339119 0.593597 0 0.000152588 -1.90735e-06
3 1 0.187363 0.297863 0.0935968 0 -6.48499e-05 5.72205e-06
4 1 0.687363 0.297863 0.0935972 0 -6.67572e-05 -5.72205e-06
5 1 0.14226 0.461995 0.593597 0 -0.000200272 1.90735e-06
6 1 0.64226 0.461995 0.593597 0 -0.000200272 1.33514e-05
7 1 0.903418 0.421388 0.0935973 0 0.000452042 -9.53674e-06
8 1 0.403419 0.421388 0.0935969 0 0.000461578 -1.90735e-06
9 1 0.858407 0.585187 0.593597 0 -0.000471115 3.8147e-06
10 1 0.358408 0.585187 0.593598 0 -0.000465393 -7.62939e-06
11 1 0.0744639 0.708711 0.593597 0 5.91278e-05 3.8147e-06
12 1 0.574464 0.708711 0.593597 0 7.82013e-05 3.8147e-06
13 1 0.8358 0.667455 0.093597 0 -0.000137329 -1.90735e-06
14 1 0.119567 0.544579 0.0935969 0 0.000205994 3.8147e-06
15 1 0.619567 0.544579 0.0935975 0 0.000198364 -1.14441e-05
16 1 0.335801 0.667455 0.0935971 0 -0.000146866 1.90735e-06
17 1 0.790252 0.833208 0.593597 0 0.000303268 5.72205e-06
18 1 0.290253 0.833208 0.593597 0 0.000293732 1.90735e-06
19 1 0.00536035 0.960185 0.593597 0 -0.000259399 -1.90735e-06
20 1 0.50536 0.960185 0.593597 0 -0.000249863 3.8147e-06
21 1 0.0521726 0.789831 0.0935971 0 -0.000173569 -1.90735e-06
22 1 0.552173 0.789831 0.0935972 0 -0.000179291 -5.72205e-06
23 1 0.76886 0.911058 0.0935972 0 -0.000673294 -7.62939e-06
24 1 0.26886 0.911058 0.0935968 0 -0.000658035 1.90735e-06
25 1 0.992966 0.0955155 0.593597 0 0.000717163 5.72205e-06
26 1 0.492967 0.0955157 0.593597 0 0.00069046 0
27 1 0.256466 0.0463897 0.0935973 0 0.000232697 0
28 1 0.756466 0.0463895 0.0935975 0 0.000238419 -1.90735e-06
29 1 0.209654 0.216743 0.593597 0 0.00015831 -1.90735e-06
30 1 0.709654 0.216743 0.593597 0 0.00015831 7.62939e-06
31 1 0.971574 0.173366 0.0935975 0 -0.000301361 -3.8147e-06
32 1 0.471574 0.173366 0.0935973 0 -0.000293732 -3.8147e-06
ITEM: TIMESTEP
9
ITEM: NUMBER OF ATOMS
32
ITEM: BOX BOUNDS xy xz yz pp pp pp
-4.7826766967773438e-03 8.1591479182243347e+00 1.7598162293434143e+00
-3.7661075592041016e-02 2.2120539069175720e+01 0.0000000000000000e+00
-1.1393904685974121e-02 5.1938598752021790e+00 0.0000000000000000e+00
ITEM: ATOMS id type xs ys zs fx fy fz
1 1 0.926025 0.339121 0.593597 0 4.57764e-05 -1.90735e-06
2 1 0.426025 0.339121 0.593597 0 3.43323e-05 1.90735e-06
3 1 0.187362 0.297865 0.0935972 0 -9.53674e-06 -1.90735e-06
4 1 0.687362 0.297865 0.0935968 0 -5.72205e-06 3.8147e-06
5 1 0.142262 0.461989 0.593597 0 8.01086e-05 -1.90735e-06
6 1 0.642262 0.461989 0.593597 0 8.01086e-05 -9.53674e-06
7 1 0.903416 0.421397 0.0935968 0 0.000131607 7.62939e-06
8 1 0.403416 0.421397 0.0935967 0 0.000123978 1.90735e-06
9 1 0.85841 0.585177 0.593597 0 -0.000125885 -7.62939e-06
10 1 0.35841 0.585177 0.593597 0 -0.000120163 0
11 1 0.0744645 0.708709 0.593597 0 1.90735e-06 1.90735e-06
12 1 0.574464 0.708709 0.593597 0 0 0
13 1 0.835801 0.667453 0.0935968 0 -4.3869e-05 3.8147e-06
14 1 0.119565 0.544586 0.0935971 0 -8.96454e-05 0
15 1 0.619565 0.544586 0.0935968 0 -8.01086e-05 9.53674e-06
16 1 0.335801 0.667453 0.0935972 0 -3.8147e-05 -1.90735e-06
17 1 0.790252 0.833211 0.593597 0 -1.52588e-05 -3.8147e-06
18 1 0.290252 0.833211 0.593597 0 -5.72205e-06 0
19 1 0.00536002 0.960186 0.593597 0 2.47955e-05 -1.90735e-06
20 1 0.50536 0.960186 0.593597 0 1.33514e-05 0
21 1 0.0521732 0.789829 0.093597 0 -0.000392914 0
22 1 0.552173 0.789829 0.0935968 0 -0.000379562 -1.90735e-06
23 1 0.768863 0.911046 0.0935968 0 0.000177383 5.72205e-06
24 1 0.268863 0.911046 0.0935969 0 0.000167847 0
25 1 0.992963 0.0955281 0.593597 0 -0.000192642 0
26 1 0.492963 0.095528 0.593597 0 -0.000171661 3.8147e-06
27 1 0.256467 0.0463881 0.0935973 0 -9.53674e-06 -1.90735e-06
28 1 0.756467 0.0463881 0.0935974 0 -1.33514e-05 -1.90735e-06
29 1 0.209654 0.216745 0.593597 0 0.000392914 3.8147e-06
30 1 0.709654 0.216745 0.593598 0 0.000396729 -5.72205e-06
31 1 0.971574 0.173363 0.0935972 0 1.71661e-05 -3.8147e-06
32 1 0.471575 0.173363 0.0935971 0 5.72205e-06 1.90735e-06
ITEM: TIMESTEP
10
ITEM: NUMBER OF ATOMS
32
ITEM: BOX BOUNDS xy xz yz pp pp pp
-4.7826766967773438e-03 8.1591479182243347e+00 1.7598162293434143e+00
-3.7661075592041016e-02 2.2120539069175720e+01 0.0000000000000000e+00
-1.1393904685974121e-02 5.1938598752021790e+00 0.0000000000000000e+00
ITEM: ATOMS id type xs ys zs fx fy fz
1 1 0.926025 0.339123 0.593597 0 0.000162125 0
2 1 0.426025 0.339123 0.593597 0 0.00015831 0
3 1 0.187362 0.297866 0.0935971 0 0.000131607 1.90735e-06
4 1 0.687362 0.297865 0.093597 0 0.000131607 3.8147e-06
5 1 0.142262 0.461989 0.593597 0 4.3869e-05 -3.8147e-06
6 1 0.642262 0.461989 0.593597 0 4.3869e-05 1.90735e-06
7 1 0.903415 0.421402 0.0935972 0 -4.95911e-05 0
8 1 0.403415 0.421402 0.0935968 0 -5.53131e-05 3.8147e-06
9 1 0.858411 0.585173 0.593597 0 5.34058e-05 3.8147e-06
10 1 0.358412 0.585173 0.593597 0 4.95911e-05 0
11 1 0.0744647 0.708709 0.593597 0 -0.00012207 -1.90735e-06
12 1 0.574465 0.708709 0.593597 0 -0.00012207 0
13 1 0.835801 0.667452 0.093597 0 -0.000164032 -1.90735e-06
14 1 0.119565 0.544586 0.0935972 0 -4.19617e-05 0
15 1 0.619565 0.544586 0.0935973 0 -4.3869e-05 -5.72205e-06
16 1 0.335802 0.667452 0.0935971 0 -0.000160217 1.90735e-06
17 1 0.790252 0.833212 0.593597 0 -4.76837e-05 -9.53674e-06
18 1 0.290252 0.833212 0.593597 0 -4.95911e-05 -3.8147e-06
19 1 0.00535983 0.960187 0.593597 0 -2.47955e-05 1.90735e-06
20 1 0.50536 0.960187 0.593597 0 -1.71661e-05 -1.90735e-06
21 1 0.0521751 0.789822 0.093597 0 3.8147e-06 3.8147e-06
22 1 0.552175 0.789822 0.0935966 0 -9.53674e-06 7.62939e-06
23 1 0.768863 0.911046 0.0935971 0 -2.28882e-05 1.90735e-06
24 1 0.268863 0.911046 0.093597 0 -2.47955e-05 0
25 1 0.992963 0.095528 0.593597 0 2.09808e-05 -7.62939e-06
26 1 0.492963 0.0955281 0.593597 0 1.33514e-05 -7.62939e-06
27 1 0.256467 0.0463876 0.0935972 0 2.86102e-05 7.62939e-06
28 1 0.756467 0.0463875 0.0935973 0 2.86102e-05 1.90735e-06
29 1 0.209652 0.216752 0.593597 0 3.8147e-06 -7.62939e-06
30 1 0.709652 0.216752 0.593597 0 1.90735e-06 -3.8147e-06
31 1 0.971574 0.173363 0.0935969 0 4.00543e-05 9.53674e-06
32 1 0.471575 0.173363 0.0935972 0 4.00543e-05 3.8147e-06
ITEM: TIMESTEP
11
ITEM: NUMBER OF ATOMS
32
ITEM: BOX BOUNDS xy xz yz pp pp pp
-4.7826766967773438e-03 8.1591479182243347e+00 1.7598162293434143e+00
-3.7661075592041016e-02 2.2120539069175720e+01 0.0000000000000000e+00
-1.1393904685974121e-02 5.1938598752021790e+00 0.0000000000000000e+00
ITEM: ATOMS id type xs ys zs fx fy fz
1 1 0.926025 0.339123 0.593597 0 0.000162125 0
2 1 0.426025 0.339123 0.593597 0 0.00015831 0
3 1 0.187362 0.297866 0.0935971 0 0.000131607 1.90735e-06
4 1 0.687362 0.297865 0.093597 0 0.000131607 3.8147e-06
5 1 0.142262 0.461989 0.593597 0 4.3869e-05 -3.8147e-06
6 1 0.642262 0.461989 0.593597 0 4.3869e-05 1.90735e-06
7 1 0.903415 0.421402 0.0935972 0 -4.95911e-05 0
8 1 0.403415 0.421402 0.0935968 0 -5.53131e-05 3.8147e-06
9 1 0.858411 0.585173 0.593597 0 5.34058e-05 3.8147e-06
10 1 0.358412 0.585173 0.593597 0 4.95911e-05 0
11 1 0.0744647 0.708709 0.593597 0 -0.00012207 -1.90735e-06
12 1 0.574465 0.708709 0.593597 0 -0.00012207 0
13 1 0.835801 0.667452 0.093597 0 -0.000164032 -1.90735e-06
14 1 0.119565 0.544586 0.0935972 0 -4.19617e-05 0
15 1 0.619565 0.544586 0.0935973 0 -4.3869e-05 -5.72205e-06
16 1 0.335802 0.667452 0.0935971 0 -0.000160217 1.90735e-06
17 1 0.790252 0.833212 0.593597 0 -4.76837e-05 -9.53674e-06
18 1 0.290252 0.833212 0.593597 0 -4.95911e-05 -3.8147e-06
19 1 0.00535983 0.960187 0.593597 0 -2.47955e-05 1.90735e-06
20 1 0.50536 0.960187 0.593597 0 -1.71661e-05 -1.90735e-06
21 1 0.0521751 0.789822 0.093597 0 3.8147e-06 3.8147e-06
22 1 0.552175 0.789822 0.0935966 0 -9.53674e-06 7.62939e-06
23 1 0.768863 0.911046 0.0935971 0 -2.28882e-05 1.90735e-06
24 1 0.268863 0.911046 0.093597 0 -2.47955e-05 0
25 1 0.992963 0.095528 0.593597 0 2.09808e-05 -7.62939e-06
26 1 0.492963 0.0955281 0.593597 0 1.33514e-05 -7.62939e-06
27 1 0.256467 0.0463876 0.0935972 0 2.86102e-05 7.62939e-06
28 1 0.756467 0.0463875 0.0935973 0 2.86102e-05 1.90735e-06
29 1 0.209652 0.216752 0.593597 0 3.8147e-06 -7.62939e-06
30 1 0.709652 0.216752 0.593597 0 1.90735e-06 -3.8147e-06
31 1 0.971574 0.173363 0.0935969 0 4.00543e-05 9.53674e-06
32 1 0.471575 0.173363 0.0935972 0 4.00543e-05 3.8147e-06
