ITEM: TIMESTEP
0
ITEM: NUMBER OF ATOMS
32
ITEM: BOX BOUNDS xy xz yz pp pp pp
-4.7826766967773438e-03 7.7591896653175354e+00 1.3598579764366150e+00
-3.7661075592041016e-02 2.2120539069175720e+01 0.0000000000000000e+00
-1.1393904685974121e-02 5.1938598752021790e+00 0.0000000000000000e+00
ITEM: ATOMS id type xs ys zs fx fy fz
1 1 0.947752 0.336542 0.593597 0 0.000812531 5.72205e-06
2 1 0.447752 0.336542 0.593597 0 0.000808716 5.72205e-06
3 1 0.206566 0.295033 0.0935973 0 -0.00200462 -5.72205e-06
4 1 0.706566 0.295033 0.0935973 0 -0.00200462 -3.8147e-06
5 1 0.171209 0.461543 0.593597 0 0.00088501 0
6 1 0.671209 0.461543 0.593597 0 0.000888824 5.72205e-06
7 1 0.930022 0.420037 0.0935973 0 -0.00145721 -7.62939e-06
8 1 0.430023 0.420037 0.0935973 0 -0.00145721 -3.8147e-06
9 1 0.894666 0.586543 0.593597 0 0.00139046 0
10 1 0.394667 0.586543 0.593597 0 0.00138855 0
11 1 0.118125 0.711539 0.593597 0 0.00209236 7.62939e-06
12 1 0.618125 0.711539 0.593597 0 0.00208855 3.8147e-06
13 1 0.876936 0.670042 0.0935972 0 -0.00105286 -3.8147e-06
14 1 0.153479 0.545043 0.0935972 0 -0.000991821 0
15 1 0.653479 0.545043 0.0935972 0 -0.000988007 0
16 1 0.376936 0.670042 0.0935972 0 -0.00105476 -7.62939e-06
17 1 0.841583 0.836533 0.593597 0 0.011734 0
18 1 0.341584 0.836533 0.593597 0 0.0117378 0
19 1 0.0650409 0.961533 0.593597 0 -0.388773 1.90735e-06
20 1 0.565041 0.961533 0.593597 0 -0.388779 0
21 1 0.100395 0.795035 0.0935971 0 0.00302887 0
22 1 0.600395 0.795035 0.0935971 0 0.00302505 0
23 1 0.823853 0.920032 0.0935971 0 -0.637918 -1.90735e-06
24 1 0.323853 0.920032 0.0935971 0 -0.637918 0
25 1 0.000838083 0.0865377 0.593597 0 0.637621 0
26 1 0.500838 0.0865377 0.593597 0 0.637627 0
27 1 0.259652 0.045031 0.093597 0 0.389183 0
28 1 0.759652 0.045031 0.093597 0 0.389191 0
29 1 0.224295 0.211541 0.593597 0 -0.00302505 1.90735e-06
30 1 0.724295 0.211541 0.593597 0 -0.00302505 1.90735e-06
31 1 0.983109 0.170031 0.093597 0 -0.0115261 0
32 1 0.483109 0.170031 0.093597 0 -0.0115261 0
ITEM: TIMESTEP
1
ITEM: NUMBER OF ATOMS
32
ITEM: BOX BOUNDS xy xz yz pp pp pp
-4.7826766967773438e-03 7.7591896653175354e+00 1.3598579764366150e+00
-3.7661075592041016e-02 2.2120539069175720e+01 0.0000000000000000e+00
-1.1393904685974121e-02 5.1938598752021790e+00 0.0000000000000000e+00
ITEM: ATOMS id type xs ys zs fx fy fz
1 1 0.947751 0.336548 0.593597 0 4.95911e-05 -1.90735e-06
2 1 0.447751 0.336548 0.593597 0 4.95911e-05 -1.90735e-06
3 1 0.206569 0.295019 0.0935971 0 0.000457764 1.90735e-06
4 1 0.706569 0.295019 0.0935972 0 0.000469208 0
5 1 0.171208 0.461549 0.593597 0 0.00135612 0
6 1 0.671208 0.461549 0.593597 0 0.00135231 0
7 1 0.930025 0.420027 0.0935971 0 -0.00192642 3.8147e-06
8 1 0.430025 0.420027 0.0935972 0 -0.00192833 0
9 1 0.894664 0.586553 0.593597 0 0.00188637 0
10 1 0.394665 0.586553 0.593597 0 0.00188637 0
11 1 0.118122 0.711554 0.593597 0 -0.00037384 -5.72205e-06
12 1 0.618122 0.711554 0.593597 0 -0.000368118 0
13 1 0.876938 0.670035 0.0935971 0 -0.000213623 1.90735e-06
14 1 0.15348 0.545036 0.0935972 0 -0.00149345 0
15 1 0.65348 0.545036 0.0935972 0 -0.00149918 0
16 1 0.376938 0.670035 0.093597 0 -0.000213623 1.90735e-06
17 1 0.841566 0.836616 0.593597 0 -0.09478 3.8147e-06
18 1 0.341566 0.836616 0.593597 0 -0.0947876 3.8147e-06
19 1 0.065625 0.958782 0.593597 0 0.0381565 1.90735e-06
20 1 0.565625 0.958782 0.593597 0 0.0381546 5.72205e-06
21 1 0.100391 0.795056 0.0935971 0 -0.106264 0
22 1 0.600391 0.795056 0.0935971 0 -0.106268 -3.8147e-06
23 1 0.824811 0.915519 0.093597 0 -0.116035 -5.72205e-06
24 1 0.324812 0.915519 0.0935971 0 -0.116034 -5.72205e-06
25 1 -0.000119767 0.0910486 0.593597 0 0.11618 0
26 1 0.499881 0.0910486 0.593597 0 0.11618 0
27 1 0.259067 0.0477843 0.093597 0 -0.0381222 0
28 1 0.759067 0.0477844 0.093597 0 -0.0381279 0
29 1 0.2243 0.21152 0.593597 0 0.106134 0
30 1 0.7243 0.21152 0.593597 0 0.106144 0
31 1 0.983126 0.16995 0.093597 0 0.0949879 0
32 1 0.483127 0.16995 0.093597 0 0.0949898 0
ITEM: TIMESTEP
2
ITEM: NUMBER OF ATOMS
32
ITEM: BOX BOUNDS xy xz yz pp pp pp
-4.7826766967773438e-03 7.7591896653175354e+00 1.3598579764366150e+00
-3.7661075592041016e-02 2.2120539069175720e+01 0.0000000000000000e+00
-1.1393904685974121e-02 5.1938598752021790e+00 0.0000000000000000e+00
ITEM: ATOMS id type xs ys zs fx fy fz
1 1 0.94775 0.33655 0.593597 0 0.0624485 5.72205e-06
2 1 0.447751 0.33655 0.593597 0 0.0624504 3.8147e-06
3 1 0.206567 0.295031 0.0935973 0 0.0786171 -7.62939e-06
4 1 0.706567 0.295032 0.0935972 0 0.0786076 -1.90735e-06
5 1 0.1712 0.461586 0.593597 0 -2.28882e-05 5.72205e-06
6 1 0.6712 0.461586 0.593597 0 -2.09808e-05 0
7 1 0.930036 0.419974 0.0935975 0 0.00115013 -5.72205e-06
8 1 0.430036 0.419974 0.0935972 0 0.00115967 -1.90735e-06
9 1 0.894653 0.586606 0.593597 0 -0.00120544 5.72205e-06
10 1 0.394653 0.586606 0.593597 0 -0.001194 1.90735e-06
11 1 0.118124 0.711544 0.593597 0 -0.0786228 1.14441e-05
12 1 0.618124 0.711544 0.593597 0 -0.0786324 -5.72205e-06
13 1 0.876939 0.670029 0.0935973 0 -0.0625687 -3.8147e-06
14 1 0.153489 0.544994 0.0935972 0 -6.67572e-05 0
15 1 0.653489 0.544994 0.0935972 0 -6.29425e-05 -5.72205e-06
16 1 0.376939 0.670029 0.0935972 0 -0.0625687 -3.8147e-06
17 1 0.842124 0.833988 0.593597 0 0.0306225 -1.14441e-05
18 1 0.342124 0.833988 0.593597 0 0.0306339 -9.53674e-06
19 1 0.0654003 0.95984 0.593597 0 0.0101128 -5.72205e-06
20 1 0.5654 0.95984 0.593598 0 0.0101223 -9.53674e-06
21 1 0.101016 0.792109 0.0935971 0 -0.0224171 0
22 1 0.601016 0.792109 0.0935966 0 -0.0224094 1.14441e-05
23 1 0.825494 0.912301 0.0935964 0 -0.00250816 1.52588e-05
24 1 0.325495 0.912301 0.0935964 0 -0.00251007 9.53674e-06
25 1 -0.000803812 0.09427 0.593597 0 0.00238991 0
26 1 0.499197 0.0942701 0.593597 0 0.00238419 0
27 1 0.259292 0.0467273 0.093597 0 -0.00989914 0
28 1 0.759292 0.0467272 0.093597 0 -0.00989151 0
29 1 0.223675 0.214462 0.593597 0 0.0225677 -3.8147e-06
30 1 0.723675 0.214463 0.593597 0 0.0225658 -1.90735e-06
31 1 0.982567 0.172583 0.093597 0 -0.0306187 3.8147e-06
32 1 0.482567 0.172583 0.093597 0 -0.0306129 3.8147e-06
ITEM: TIMESTEP
3
ITEM: NUMBER OF ATOMS
32
ITEM: BOX BOUNDS xy xz yz pp pp pp
-4.7826766967773438e-03 7.7591896653175354e+00 1.3598579764366150e+00
-3.7661075592041016e-02 2.2120539069175720e+01 0.0000000000000000e+00
-1.1393904685974121e-02 5.1938598752021790e+00 0.0000000000000000e+00
ITEM: ATOMS id type xs ys zs fx fy fz
1 1 0.947418 0.338113 0.593598 0 0.0139923 -1.14441e-05
2 1 0.447419 0.338113 0.593597 0 0.0139866 -5.72205e-06
3 1 0.206148 0.297002 0.0935966 0 -0.00973701 7.62939e-06
4 1 0.706148 0.297003 0.093597 0 -0.00974274 1.90735e-06
5 1 0.171198 0.461597 0.593598 0 0.0279446 -9.53674e-06
6 1 0.671198 0.461597 0.593597 0 0.0279465 -5.72205e-06
7 1 0.930033 0.419987 0.093597 0 0.0529537 9.53674e-06
8 1 0.430033 0.419987 0.093597 0 0.0529442 3.8147e-06
9 1 0.894656 0.586591 0.593598 0 -0.0530453 -7.62939e-06
10 1 0.394656 0.586591 0.593597 0 -0.0530548 -7.62939e-06
11 1 0.118542 0.709573 0.593598 0 0.00973511 -3.8147e-06
12 1 0.618542 0.709573 0.593597 0 0.00973892 7.62939e-06
13 1 0.877272 0.668461 0.093597 0 -0.0138779 1.90735e-06
14 1 0.153492 0.54498 0.0935972 0 -0.0280018 7.62939e-06
15 1 0.653492 0.54498 0.0935966 0 -0.0280018 1.14441e-05
16 1 0.377272 0.668461 0.0935968 0 -0.013876 5.72205e-06
17 1 0.842125 0.833983 0.593596 0 -0.013689 1.52588e-05
18 1 0.342125 0.833983 0.593597 0 -0.0136909 7.62939e-06
19 1 0.0652806 0.960404 0.593597 0 -0.00120544 3.8147e-06
20 1 0.565281 0.960404 0.593597 0 -0.00121689 5.72205e-06
21 1 0.101319 0.790684 0.0935971 0 -0.0139961 -1.90735e-06
22 1 0.601319 0.790684 0.0935977 0 -0.0139961 -1.71661e-05
23 1 0.825708 0.911294 0.0935978 0 0.019371 -1.14441e-05
24 1 0.325709 0.911294 0.0935972 0 0.0193768 -3.8147e-06
25 1 -0.00101723 0.0952751 0.593597 0 -0.0190716 1.90735e-06
26 1 0.498983 0.095275 0.593597 0 -0.0190449 5.72205e-06
27 1 0.25941 0.0461694 0.093597 0 0.00109863 -1.90735e-06
28 1 0.75941 0.0461694 0.093597 0 0.00109291 -3.8147e-06
29 1 0.223371 0.215891 0.593597 0 0.0138493 7.62939e-06
30 1 0.723371 0.215891 0.593597 0 0.0138378 3.8147e-06
31 1 0.982566 0.17259 0.0935974 0 0.0136986 -7.62939e-06
32 1 0.482566 0.17259 0.0935974 0 0.0136814 -9.53674e-06
ITEM: TIMESTEP
4
ITEM: NUMBER OF ATOMS
32
ITEM: BOX BOUNDS xy xz yz pp pp pp
-4.7826766967773438e-03 7.7591896653175354e+00 1.3598579764366150e+00
-3.7661075592041016e-02 2.2120539069175720e+01 0.0000000000000000e+00
-1.1393904685974121e-02 5.1938598752021790e+00 0.0000000000000000e+00
ITEM: ATOMS id type xs ys zs fx fy fz
1 1 0.947261 0.338855 0.593597 0 0.00953484 3.8147e-06
2 1 0.447261 0.338855 0.593597 0 0.00954247 7.62939e-06
3 1 0.20606 0.297415 0.093597 0 0.00304413 -3.8147e-06
4 1 0.70606 0.297415 0.0935971 0 0.00305176 1.90735e-06
5 1 0.171084 0.462134 0.593597 0 -0.0069046 7.62939e-06
6 1 0.671084 0.462134 0.593597 0 -0.00689888 9.53674e-06
7 1 0.929817 0.421003 0.0935977 0 0.00610542 -9.53674e-06
8 1 0.429818 0.421003 0.0935972 0 0.00610352 -1.90735e-06
9 1 0.894872 0.585572 0.593597 0 -0.00610733 1.90735e-06
10 1 0.394873 0.585572 0.593597 0 -0.00611877 7.62939e-06
11 1 0.11863 0.70916 0.593598 0 -0.0031147 -3.8147e-06
12 1 0.61863 0.70916 0.593597 0 -0.00310326 1.90735e-06
13 1 0.877429 0.66772 0.093597 0 -0.00958443 1.90735e-06
14 1 0.153607 0.544441 0.0935978 0 0.00689697 -1.14441e-05
15 1 0.653607 0.544441 0.0935973 0 0.00690079 -7.62939e-06
16 1 0.377429 0.66772 0.0935972 0 -0.00958252 -1.90735e-06
17 1 0.84218 0.83372 0.593597 0 -0.00693703 -5.72205e-06
18 1 0.342181 0.83372 0.593597 0 -0.00693893 -1.90735e-06
19 1 0.0652492 0.960552 0.593597 0 -0.0177555 3.8147e-06
20 1 0.565249 0.960552 0.593597 0 -0.0177479 0
21 1 0.101468 0.789983 0.0935969 0 0.0102577 5.72205e-06
22 1 0.601468 0.789983 0.0935967 0 0.0102577 5.72205e-06
23 1 0.825694 0.911359 0.0935973 0 -0.0112076 -1.90735e-06
24 1 0.325695 0.911359 0.0935972 0 -0.0112057 -5.72205e-06
25 1 -0.00100465 0.0952159 0.593597 0 0.011076 -3.8147e-06
26 1 0.498996 0.0952162 0.593597 0 0.0110474 -1.33514e-05
27 1 0.259442 0.0460209 0.0935968 0 0.0178642 1.90735e-06
28 1 0.759442 0.0460209 0.0935967 0 0.0178547 5.72205e-06
29 1 0.223223 0.216589 0.593597 0 -0.0101147 -5.72205e-06
30 1 0.723223 0.216589 0.593597 0 -0.0101128 -5.72205e-06
31 1 0.98251 0.172854 0.0935969 0 0.00694466 7.62939e-06
32 1 0.48251 0.172854 0.0935968 0 0.00695229 9.53674e-06
ITEM: TIMESTEP
5
ITEM: NUMBER OF ATOMS
32
ITEM: BOX BOUNDS xy xz yz pp pp pp
-4.7826766967773438e-03 7.7591896653175354e+00 1.3598579764366150e+00
-3.7661075592041016e-02 2.2120539069175720e+01 0.0000000000000000e+00
-1.1393904685974121e-02 5.1938598752021790e+00 0.0000000000000000e+00
ITEM: ATOMS id type xs ys zs fx fy fz
1 1 0.947211 0.339089 0.593597 0 -0.0029068 1.90735e-06
2 1 0.447211 0.339089 0.593597 0 -0.0029068 -3.8147e-06
3 1 0.20604 0.297512 0.0935968 0 0.00535774 3.8147e-06
4 1 0.70604 0.297512 0.0935972 0 0.00534439 -1.90735e-06
5 1 0.17109 0.462103 0.593597 0 -0.00421333 0
6 1 0.67109 0.462103 0.593597 0 -0.00421143 -1.90735e-06
7 1 0.929771 0.421222 0.0935972 0 -0.000494003 0
8 1 0.429771 0.421222 0.0935971 0 -0.000494003 1.90735e-06
9 1 0.894919 0.585353 0.593597 0 0.000476837 -1.90735e-06
10 1 0.394919 0.585353 0.593597 0 0.000480652 1.90735e-06
11 1 0.118651 0.709062 0.593597 0 -0.00535393 -3.8147e-06
12 1 0.618651 0.709062 0.593597 0 -0.00536156 -3.8147e-06
13 1 0.877479 0.667486 0.0935971 0 0.00292015 5.72205e-06
14 1 0.1536 0.544471 0.0935972 0 0.0042057 0
15 1 0.6536 0.544471 0.093597 0 0.00420189 0
16 1 0.377479 0.667486 0.0935971 0 0.00291824 -1.90735e-06
17 1 0.842209 0.833586 0.593597 0 -0.00763893 3.8147e-06
18 1 0.342209 0.833586 0.593597 0 -0.00764084 3.8147e-06
19 1 0.0652997 0.960314 0.593597 0 -0.000976562 -1.90735e-06
20 1 0.5653 0.960314 0.593597 0 -0.00097847 0
21 1 0.101455 0.790042 0.0935973 0 -0.00385666 -3.8147e-06
22 1 0.601455 0.790042 0.0935969 0 -0.00386047 1.90735e-06
23 1 0.825727 0.911205 0.0935971 0 0.00667763 -1.90735e-06
24 1 0.325728 0.911205 0.0935968 0 0.00667191 1.90735e-06
25 1 -0.0010371 0.0953687 0.593597 0 -0.00662231 0
26 1 0.498963 0.0953687 0.593597 0 -0.00662041 5.72205e-06
27 1 0.259391 0.0462606 0.0935969 0 0.000953674 0
28 1 0.759391 0.0462604 0.093597 0 0.000951767 0
29 1 0.223235 0.216533 0.593597 0 0.00383377 -1.90735e-06
30 1 0.723235 0.216533 0.593597 0 0.00383949 7.62939e-06
31 1 0.982481 0.172988 0.0935973 0 0.00764847 -5.72205e-06
32 1 0.482481 0.172988 0.0935973 0 0.00765419 -5.72205e-06
ITEM: TIMESTEP
6
ITEM: NUMBER OF ATOMS
32
ITEM: BOX BOUNDS xy xz yz pp pp pp
-4.7826766967773438e-03 7.7591896653175354e+00 1.3598579764366150e+00
-3.7661075592041016e-02 2.2120539069175720e+01 0.0000000000000000e+00
-1.1393904685974121e-02 5.1938598752021790e+00 0.0000000000000000e+00
ITEM: ATOMS id type xs ys zs fx fy fz
1 1 0.947204 0.339121 0.593597 0 -0.00457764 -7.62939e-06
2 1 0.447205 0.339121 0.593597 0 -0.00458145 0
3 1 0.206001 0.297695 0.0935971 0 0.00351334 -3.8147e-06
4 1 0.706001 0.297694 0.093597 0 0.00352669 7.62939e-06
5 1 0.171116 0.461981 0.593598 0 0.002285 -9.53674e-06
6 1 0.671116 0.461981 0.593597 0 0.00227928 -3.8147e-06
7 1 0.929752 0.42131 0.0935969 0 0.00135803 9.53674e-06
8 1 0.429752 0.42131 0.0935973 0 0.00135803 0
9 1 0.894938 0.585264 0.593597 0 -0.00135231 1.90735e-06
10 1 0.394938 0.585264 0.593597 0 -0.0013504 -7.62939e-06
11 1 0.11869 0.70888 0.593597 0 -0.0035038 3.8147e-06
12 1 0.61869 0.70888 0.593597 0 -0.00350189 9.53674e-06
13 1 0.877486 0.667453 0.0935978 0 0.00457382 -1.14441e-05
14 1 0.153574 0.544594 0.0935969 0 -0.00228691 7.62939e-06
15 1 0.653574 0.544594 0.0935968 0 -0.00227928 7.62939e-06
16 1 0.377486 0.667453 0.0935969 0 0.00457573 1.90735e-06
17 1 0.842264 0.833327 0.593597 0 0.0004673 -3.8147e-06
18 1 0.342264 0.833327 0.593597 0 0.0004673 -3.8147e-06
19 1 0.0653283 0.960179 0.593597 0 0.000183105 0
20 1 0.565328 0.960179 0.593597 0 0.000183105 3.8147e-06
21 1 0.101471 0.78997 0.093597 0 -0.000110626 0
22 1 0.601471 0.78997 0.0935972 0 -0.000120163 -3.8147e-06
23 1 0.825706 0.911306 0.0935968 0 -0.00208092 3.8147e-06
24 1 0.325706 0.911306 0.0935969 0 -0.00208092 1.90735e-06
25 1 -0.00101586 0.0952687 0.593597 0 0.00208473 1.90735e-06
26 1 0.498985 0.0952685 0.593597 0 0.00208855 0
27 1 0.259362 0.0463953 0.093597 0 -0.000179291 -3.8147e-06
28 1 0.759362 0.046395 0.0935971 0 -0.000171661 -3.8147e-06
29 1 0.22322 0.216605 0.593597 0 0.000101089 7.62939e-06
30 1 0.72322 0.216605 0.593597 0 8.7738e-05 -5.72205e-06
31 1 0.982426 0.173247 0.0935969 0 -0.000473022 -5.72205e-06
32 1 0.482426 0.173247 0.0935969 0 -0.000482559 5.72205e-06
ITEM: TIMESTEP
7
ITEM: NUMBER OF ATOMS
32
ITEM: BOX BOUNDS xy xz yz pp pp pp
-4.7826766967773438e-03 7.7591896653175354e+00 1.3598579764366150e+00
-3.7661075592041016e-02 2.2120539069175720e+01 0.0000000000000000e+00
-1.1393904685974121e-02 5.1938598752021790e+00 0.0000000000000000e+00
ITEM: ATOMS id type xs ys zs fx fy fz
1 1 0.947219 0.339053 0.593597 0 0.000377655 7.62939e-06
2 1 0.447219 0.339053 0.593597 0 0.00038147 0
3 1 0.205984 0.297777 0.0935969 0 0.000494003 3.8147e-06
4 1 0.705984 0.297777 0.0935975 0 0.000492096 -5.72205e-06
5 1 0.171112 0.461999 0.593597 0 -0.00105476 3.8147e-06
6 1 0.671112 0.462 0.593597 0 -0.00105286 3.8147e-06
7 1 0.929745 0.421344 0.0935975 0 0.000329971 -9.53674e-06
8 1 0.429745 0.421344 0.0935973 0 0.000335693 0
9 1 0.894945 0.58523 0.593597 0 -0.000335693 1.90735e-06
10 1 0.394945 0.58523 0.593597 0 -0.000335693 1.90735e-06
11 1 0.118707 0.708797 0.593597 0 -0.000484467 -5.72205e-06
12 1 0.618707 0.708797 0.593597 0 -0.000482559 -7.62939e-06
13 1 0.877471 0.667521 0.0935971 0 -0.00038147 1.90735e-06
14 1 0.153578 0.544575 0.0935974 0 0.00105476 -1.90735e-06
15 1 0.653578 0.544575 0.0935973 0 0.00105476 -3.8147e-06
16 1 0.377472 0.667521 0.093597 0 -0.000385284 3.8147e-06
17 1 0.84227 0.833298 0.593597 0 -3.43323e-05 -5.72205e-06
18 1 0.34227 0.833298 0.593597 0 -3.62396e-05 -3.8147e-06
19 1 0.0653318 0.960163 0.593597 0 0.00105095 -1.90735e-06
20 1 0.565332 0.960163 0.593597 0 0.00104523 -3.8147e-06
21 1 0.101473 0.789957 0.093597 0 0.00069809 5.72205e-06
22 1 0.601473 0.789957 0.093597 0 0.000709534 5.72205e-06
23 1 0.82571 0.911287 0.093597 0 -0.000854492 3.8147e-06
24 1 0.32571 0.911287 0.093597 0 -0.00084877 7.62939e-06
25 1 -0.00101985 0.0952875 0.593597 0 0.000839233 -1.90735e-06
26 1 0.498981 0.0952874 0.593597 0 0.000846863 3.8147e-06
27 1 0.259359 0.0464119 0.0935967 0 -0.00104904 0
28 1 0.759359 0.0464117 0.0935969 0 -0.00103378 0
29 1 0.223217 0.216617 0.593597 0 -0.000705719 -1.90735e-06
30 1 0.723217 0.216617 0.593597 0 -0.000705719 -5.72205e-06
31 1 0.98242 0.173277 0.0935964 0 3.62396e-05 7.62939e-06
32 1 0.48242 0.173277 0.0935972 0 3.43323e-05 -3.8147e-06
ITEM: TIMESTEP
8
ITEM: NUMBER OF ATOMS
32
ITEM: BOX BOUNDS xy xz yz pp pp pp
-4.7826766967773438e-03 7.7591896653175354e+00 1.3598579764366150e+00
-3.7661075592041016e-02 2.2120539069175720e+01 0.0000000000000000e+00
-1.1393904685974121e-02 5.1938598752021790e+00 0.0000000000000000e+00
ITEM: ATOMS id type xs ys zs fx fy fz
1 1 0.947219 0.339053 0.593597 0 -8.7738e-05 0
2 1 0.447219 0.339053 0.593597 0 -9.34601e-05 1.90735e-06
3 1 0.20598 0.297794 0.0935972 0 -0.000261307 -3.8147e-06
4 1 0.70598 0.297794 0.0935972 0 -0.000265121 -1.90735e-06
5 1 0.171116 0.461982 0.593597 0 -0.000185013 0
6 1 0.671116 0.461983 0.593597 0 -0.000188828 -1.90735e-06
7 1 0.929743 0.421354 0.0935969 0 0.000518799 1.90735e-06
8 1 0.429743 0.421354 0.0935973 0 0.000516891 0
9 1 0.894947 0.585221 0.593597 0 -0.000513077 0
10 1 0.394947 0.585221 0.593597 0 -0.000524521 0
11 1 0.118711 0.70878 0.593597 0 0.000265121 5.72205e-06
12 1 0.618711 0.70878 0.593597 0 0.000261307 5.72205e-06
13 1 0.877471 0.667521 0.0935972 0 0.000104904 0
14 1 0.153575 0.544592 0.0935973 0 0.000183105 -1.90735e-06
15 1 0.653575 0.544592 0.093597 0 0.000183105 1.90735e-06
16 1 0.377472 0.667521 0.0935973 0 9.53674e-05 -5.72205e-06
17 1 0.842271 0.833294 0.593597 0 -6.48499e-05 9.53674e-06
18 1 0.342271 0.833294 0.593597 0 -6.10352e-05 1.14441e-05
19 1 0.0653282 0.96018 0.593597 0 0.000370026 3.8147e-06
20 1 0.565328 0.96018 0.593597 0 0.000368118 7.62939e-06
21 1 0.101471 0.789969 0.0935974 0 -0.00053978 -9.53674e-06
22 1 0.601471 0.789969 0.0935974 0 -0.000555038 -5.72205e-06
23 1 0.825713 0.91127 0.0935974 0 0.000240326 -9.53674e-06
24 1 0.325714 0.91127 0.0935976 0 0.000230789 -1.14441e-05
25 1 -0.00102346 0.0953044 0.593597 0 -0.000230789 0
26 1 0.498977 0.0953045 0.593597 0 -0.000234604 -5.72205e-06
27 1 0.259362 0.0463947 0.0935967 0 -0.000366211 1.90735e-06
28 1 0.759362 0.0463948 0.0935969 0 -0.000379562 1.90735e-06
29 1 0.22322 0.216606 0.593597 0 0.000537872 3.8147e-06
30 1 0.72322 0.216606 0.593597 0 0.000541687 3.8147e-06
31 1 0.982419 0.17328 0.093597 0 6.48499e-05 -1.90735e-06
32 1 0.482419 0.17328 0.0935969 0 6.86646e-05 -1.90735e-06
ITEM: TIMESTEP
9
ITEM: NUMBER OF ATOMS
32
ITEM: BOX BOUNDS xy xz yz pp pp pp
-4.7826766967773438e-03 7.7591896653175354e+00 1.3598579764366150e+00
-3.7661075592041016e-02 2.2120539069175720e+01 0.0000000000000000e+00
-1.1393904685974121e-02 5.1938598752021790e+00 0.0000000000000000e+00
ITEM: ATOMS id type xs ys zs fx fy fz
1 1 0.947219 0.339053 0.593597 0 -8.7738e-05 0
2 1 0.447219 0.339053 0.593597 0 -9.34601e-05 1.90735e-06
3 1 0.20598 0.297794 0.0935972 0 -0.000261307 -3.8147e-06
4 1 0.70598 0.297794 0.0935972 0 -0.000265121 -1.90735e-06
5 1 0.171116 0.461982 0.593597 0 -0.000185013 0
6 1 0.671116 0.461983 0.593597 0 -0.000188828 -1.90735e-06
7 1 0.929743 0.421354 0.0935969 0 0.000518799 1.90735e-06
8 1 0.429743 0.421354 0.0935973 0 0.000516891 0
9 1 0.894947 0.585221 0.593597 0 -0.000513077 0
10 1 0.394947 0.585221 0.593597 0 -0.000524521 0
11 1 0.118711 0.70878 0.593597 0 0.000265121 5.72205e-06
12 1 0.618711 0.70878 0.593597 0 0.000261307 5.72205e-06
13 1 0.877471 0.667521 0.0935972 0 0.000104904 0
14 1 0.153575 0.544592 0.0935973 0 0.000183105 -1.90735e-06
15 1 0.653575 0.544592 0.093597 0 0.000183105 1.90735e-06
16 1 0.377472 0.667521 0.0935973 0 9.53674e-05 -5.72205e-06
17 1 0.842271 0.833294 0.593597 0 -6.48499e-05 9.53674e-06
18 1 0.342271 0.833294 0.593597 0 -6.10352e-05 1.14441e-05
19 1 0.0653282 0.96018 0.593597 0 0.000370026 3.8147e-06
20 1 0.565328 0.96018 0.593597 0 0.000368118 7.62939e-06
21 1 0.101471 0.789969 0.0935974 0 -0.00053978 -9.53674e-06
22 1 0.601471 0.789969 0.0935974 0 -0.000555038 -5.72205e-06
23 1 0.825713 0.91127 0.0935974 0 0.000240326 -9.53674e-06
24 1 0.325714 0.91127 0.0935976 0 0.000230789 -1.14441e-05
25 1 -0.00102346 0.0953044 0.593597 0 -0.000230789 0
26 1 0.498977 0.0953045 0.593597 0 -0.000234604 -5.72205e-06
27 1 0.259362 0.0463947 0.0935967 0 -0.000366211 1.90735e-06
28 1 0.759362 0.0463948 0.0935969 0 -0.000379562 1.90735e-06
29 1 0.22322 0.216606 0.593597 0 0.000537872 3.8147e-06
30 1 0.72322 0.216606 0.593597 0 0.000541687 3.8147e-06
31 1 0.982419 0.17328 0.093597 0 6.48499e-05 -1.90735e-06
32 1 0.482419 0.17328 0.0935969 0 6.86646e-05 -1.90735e-06
