ITEM: TIMESTEP
0
ITEM: NUMBER OF ATOMS
56
ITEM: BOX BOUNDS xy xz yz pp pp pp
-4.0417743325233459e+00 1.2206987559795380e+01 -4.7683715820312500e-07
-7.5370073318481445e-03 5.5339480042457581e+00 -4.0198861360549927e+00
-3.2569408416748047e-02 1.9052529454231262e+01 2.8610229492187500e-06
ITEM: ATOMS id type xs ys zs fx fy fz
7 1 0.00115556 0.5 0.0609408 0 2.40025 1.67087
16 1 0.01236 1 0.846655 0 0.00308084 -0.0077672
1 1 0.593083 1 0.132369 0 0.0201381 -0.0378308
2 1 0.343083 0.166667 0.132369 0 -0.0201387 -0.03783
3 1 0.276937 1 0.275226 0 0.00266111 0.000512362
4 1 0.0269371 0.166667 0.275226 0 -0.00266135 0.000512481
5 1 0.960793 5.00995e-07 0.418084 0 -0.000149012 0.000885844
6 1 0.0930826 1 0.132369 0 0.0201384 -0.0378306
8 1 0.843083 0.166667 0.132369 0 -0.0201386 -0.03783
9 1 0.751156 0.666667 0.0609408 0 -2.40025 1.67087
10 1 0.776937 1 0.275226 0 0.00266135 0.000512004
11 1 0.710793 0.166667 0.418084 0 0.000149488 0.000886321
12 1 0.644649 5.53965e-07 0.560941 0 -5.74589e-05 -0.000352859
13 1 0.394649 0.166667 0.560941 0 5.75781e-05 -0.000352979
14 1 0.328505 1.60387e-07 0.703798 0 -0.000493169 -0.00236547
15 1 0.078505 0.166667 0.703798 0 0.000493526 -0.00236523
17 1 0.68501 0.5 0.203798 0 0.00308073 0.00776732
18 1 0.526937 0.166667 0.275226 0 -0.00266135 0.000512481
19 1 0.43501 0.666667 0.203798 0 -0.00308037 0.00776744
20 1 0.460793 5.02326e-07 0.418084 0 -0.000149131 0.000885844
21 1 0.368865 0.5 0.346655 0 -0.000493407 0.00236535
22 1 0.210793 0.166667 0.418084 0 0.000149488 0.000885963
23 1 0.118865 0.666667 0.346655 0 0.000493288 0.00236535
24 1 0.144649 5.42012e-07 0.560941 0 -5.6982e-05 -0.000353217
25 1 0.0527208 0.500001 0.489512 0 -5.76973e-05 0.000353336
26 1 0.894649 0.166667 0.560941 0 5.76973e-05 -0.000353813
27 1 0.802721 0.666667 0.489512 0 5.72205e-05 0.000353336
28 1 0.501156 0.5 0.0609408 0 2.40025 1.67087
29 1 0.251156 0.666667 0.0609408 0 -2.40025 1.67088
30 1 0.18501 0.5 0.203798 0 0.0030812 0.00776708
31 1 0.93501 0.666667 0.203798 0 -0.00308049 0.00776768
32 1 0.868865 0.5 0.346655 0 -0.000493407 0.00236547
33 1 0.76236 0.166667 0.846655 0 -0.00308132 -0.0077672
34 1 0.696214 1 0.989512 0 2.40025 -1.67087
35 1 0.446214 0.166667 0.989512 0 -2.40025 -1.67087
36 1 0.828505 1.92026e-07 0.703798 0 -0.000493169 -0.00236523
37 1 0.736577 0.500001 0.632369 0 -0.000149608 -0.000886083
38 1 0.578505 0.166667 0.703798 0 0.000493884 -0.00236571
39 1 0.486577 0.666667 0.632369 0 0.000149012 -0.000885963
40 1 0.51236 1 0.846655 0 0.00308049 -0.00776684
41 1 0.420433 0.5 0.775226 0 0.00266159 -0.000512362
42 1 0.26236 0.166667 0.846655 0 -0.00308049 -0.00776756
43 1 0.170433 0.666667 0.775226 0 -0.00266135 -0.000512004
44 1 0.196214 1 0.989512 0 2.40025 -1.67088
45 1 0.104287 0.5 0.918083 0 0.0201378 0.0378299
46 1 0.618865 0.666667 0.346655 0 0.00049305 0.00236523
47 1 0.552721 0.500001 0.489512 0 -5.74589e-05 0.000353098
48 1 0.302721 0.666667 0.489512 0 5.71012e-05 0.000353098
49 1 0.236577 0.5 0.632369 0 -0.000149608 -0.000885963
50 1 0.986577 0.666667 0.632369 0 0.000149012 -0.000885844
51 1 0.920433 0.5 0.775226 0 0.00266147 -0.000512362
52 1 0.946214 0.166667 0.989512 0 -2.40025 -1.67087
53 1 0.854287 0.666667 0.918083 0 -0.0201383 0.0378309
54 1 0.670433 0.666667 0.775226 0 -0.00266099 -0.000512362
55 1 0.604287 0.5 0.918083 0 0.0201385 0.0378305
56 1 0.354287 0.666667 0.918083 0 -0.0201381 0.0378304
ITEM: TIMESTEP
1
ITEM: NUMBER OF ATOMS
56
ITEM: BOX BOUNDS xy xz yz pp pp pp
-4.0417743325233459e+00 1.2206987559795380e+01 -4.7683715820312500e-07
-7.5370073318481445e-03 5.5339480042457581e+00 -4.0198861360549927e+00
-3.2569408416748047e-02 1.9052529454231262e+01 2.8610229492187500e-06
ITEM: ATOMS id type xs ys zs fx fy fz
7 1 0.00235457 0.518045 0.0645883 0 1.0472 0.604156
16 1 0.0123544 1.00002 0.846638 0 -0.0101745 -0.0859336
1 1 0.593055 1.00015 0.132287 0 0.116787 -0.036378
2 1 0.343055 0.166516 0.132287 0 -0.116788 -0.0363779
3 1 0.276937 1.00002 0.275228 0 0.00265789 0.0041033
4 1 0.0269375 0.166647 0.275228 0 -0.00265801 0.00410366
5 1 0.960793 -6.19315e-07 0.418086 0 -0.000470877 -0.00121129
6 1 0.0930555 1.00015 0.132287 0 0.116787 -0.0363781
8 1 0.843055 0.166516 0.132287 0 -0.116788 -0.0363772
9 1 0.752355 0.648622 0.0645883 0 -1.0472 0.604156
10 1 0.776937 1.00002 0.275228 0 0.00265813 0.00410283
11 1 0.710793 0.166668 0.418086 0 0.000471115 -0.0012114
12 1 0.644649 1.21975e-07 0.56094 0 1.29938e-05 -0.000118852
13 1 0.394649 0.166667 0.56094 0 -1.29938e-05 -0.000119209
14 1 0.328503 -3.54738e-06 0.703793 0 -0.00078249 -0.00716436
15 1 0.0785033 0.166671 0.703793 0 0.00078249 -0.00716424
17 1 0.685015 0.500023 0.203815 0 -0.0101744 0.0859339
18 1 0.526937 0.166647 0.275228 0 -0.00265801 0.00410354
19 1 0.435015 0.666644 0.203815 0 0.0101746 0.0859338
20 1 0.460793 -6.1888e-07 0.418086 0 -0.000470757 -0.0012114
21 1 0.368867 0.499996 0.34666 0 -0.000782609 0.0071646
22 1 0.210793 0.166668 0.418086 0 0.000470877 -0.0012114
23 1 0.118867 0.666671 0.34666 0 0.000782251 0.0071646
24 1 0.144649 1.13606e-07 0.56094 0 1.28746e-05 -0.000119567
25 1 0.0527211 0.5 0.489513 0 1.29938e-05 0.000119328
26 1 0.894649 0.166667 0.56094 0 -1.27554e-05 -0.000119567
27 1 0.802721 0.666667 0.489513 0 -1.3113e-05 0.000119448
28 1 0.502355 0.518045 0.0645883 0 1.0472 0.604156
29 1 0.252355 0.648622 0.0645883 0 -1.0472 0.604156
30 1 0.185015 0.500023 0.203815 0 -0.0101744 0.0859336
31 1 0.935015 0.666644 0.203815 0 0.0101745 0.0859337
32 1 0.868867 0.499996 0.34666 0 -0.000782013 0.00716448
33 1 0.762354 0.166644 0.846638 0 0.0101742 -0.0859338
34 1 0.695015 1.01805 0.985865 0 1.0472 -0.604157
35 1 0.445015 0.148622 0.985865 0 -1.0472 -0.604156
36 1 0.828503 -3.51575e-06 0.703793 0 -0.000782728 -0.00716448
37 1 0.736576 0.499999 0.632367 0 -0.000470877 0.00121117
38 1 0.578503 0.166671 0.703793 0 0.000782132 -0.00716496
39 1 0.486576 0.666668 0.632367 0 0.0004704 0.0012114
40 1 0.512354 1.00002 0.846638 0 -0.0101744 -0.0859334
41 1 0.420432 0.50002 0.775225 0 0.00265825 -0.00410306
42 1 0.262354 0.166644 0.846638 0 0.0101748 -0.0859344
43 1 0.170432 0.666647 0.775225 0 -0.00265765 -0.00410306
44 1 0.195015 1.01805 0.985865 0 1.0472 -0.604156
45 1 0.104314 0.500151 0.918166 0 0.116788 0.0363775
46 1 0.618867 0.666671 0.34666 0 0.000782013 0.00716436
47 1 0.552721 0.5 0.489513 0 1.32322e-05 0.000118852
48 1 0.302721 0.666667 0.489513 0 -1.29938e-05 0.000119567
49 1 0.236576 0.499999 0.632367 0 -0.000470877 0.00121129
50 1 0.986576 0.666668 0.632367 0 0.000470757 0.00121129
51 1 0.920432 0.50002 0.775225 0 0.00265801 -0.0041033
52 1 0.945015 0.148622 0.985865 0 -1.0472 -0.604157
53 1 0.854314 0.666516 0.918166 0 -0.116787 0.0363779
54 1 0.670432 0.666647 0.775225 0 -0.00265789 -0.00410283
55 1 0.604314 0.500151 0.918166 0 0.116787 0.0363777
56 1 0.354314 0.666516 0.918166 0 -0.116787 0.036378
ITEM: TIMESTEP
2
ITEM: NUMBER OF ATOMS
56
ITEM: BOX BOUNDS xy xz yz pp pp pp
-4.0417743325233459e+00 1.2206987559795380e+01 -4.7683715820312500e-07
-7.5370073318481445e-03 5.5339480042457581e+00 -4.0198861360549927e+00
-3.2569408416748047e-02 1.9052529454231262e+01 2.8610229492187500e-06
ITEM: ATOMS id type xs ys zs fx fy fz
7 1 0.00334826 0.536091 0.0676112 0 0.267594 -0.0207101
16 1 0.0122131 0.999848 0.846208 0 -0.0174737 -0.14796
1 1 0.592996 1.00216 0.132105 0 0.220052 -0.011461
2 1 0.342996 0.164503 0.132105 0 -0.220052 -0.0114605
3 1 0.276944 1.00007 0.275248 0 0.00311613 0.00433552
4 1 0.0269442 0.166601 0.275248 0 -0.00311625 0.00433552
5 1 0.960791 -8.73361e-06 0.41808 0 -0.00085175 -0.00156474
6 1 0.0929956 1.00216 0.132105 0 0.220052 -0.011461
8 1 0.842996 0.164503 0.132105 0 -0.220052 -0.0114604
9 1 0.753348 0.630576 0.0676112 0 -0.267594 -0.02071
10 1 0.776944 1.00007 0.275248 0 0.00311637 0.004336
11 1 0.710791 0.166676 0.418079 0 0.00085175 -0.00156474
12 1 0.644649 3.45888e-07 0.560939 0 -0.000172377 -0.00115728
13 1 0.394649 0.166667 0.560939 0 0.000172257 -0.0011574
14 1 0.328492 -1.70315e-05 0.703757 0 -0.00127316 -0.0152627
15 1 0.0784915 0.166684 0.703757 0 0.00127327 -0.0152624
17 1 0.685157 0.499848 0.204245 0 -0.0174735 0.147961
18 1 0.526944 0.166601 0.275248 0 -0.00311613 0.00433564
19 1 0.435157 0.66682 0.204245 0 0.0174739 0.147961
20 1 0.460791 -8.73112e-06 0.41808 0 -0.00085175 -0.00156438
21 1 0.368878 0.499983 0.346696 0 -0.00127316 0.0152626
22 1 0.210791 0.166676 0.41808 0 0.000851989 -0.00156474
23 1 0.118878 0.666684 0.346696 0 0.00127304 0.0152628
24 1 0.144649 3.35466e-07 0.560939 0 -0.000172138 -0.00115752
25 1 0.0527213 0.5 0.489513 0 -0.000171781 0.0011574
26 1 0.894649 0.166667 0.560939 0 0.000172019 -0.00115776
27 1 0.802721 0.666667 0.489513 0 0.000172257 0.00115728
28 1 0.503348 0.536091 0.0676112 0 0.267594 -0.02071
29 1 0.253348 0.630576 0.0676112 0 -0.267594 -0.0207103
30 1 0.185157 0.499848 0.204245 0 -0.0174735 0.14796
31 1 0.935157 0.66682 0.204245 0 0.0174739 0.147961
32 1 0.868878 0.499983 0.346696 0 -0.00127316 0.0152625
33 1 0.762213 0.16682 0.846208 0 0.0174731 -0.14796
34 1 0.694022 1.03609 0.982842 0 0.267594 0.0207098
35 1 0.444022 0.130576 0.982842 0 -0.267595 0.02071
36 1 0.828492 -1.7004e-05 0.703757 0 -0.00127339 -0.015263
37 1 0.736578 0.499991 0.632373 0 -0.00085187 0.00156522
38 1 0.578491 0.166684 0.703757 0 0.0012728 -0.0152626
39 1 0.486578 0.666676 0.632373 0 0.000851989 0.00156474
40 1 0.512213 0.999848 0.846208 0 -0.0174738 -0.14796
41 1 0.420426 0.500066 0.775205 0 0.00311649 -0.004336
42 1 0.262213 0.16682 0.846208 0 0.0174737 -0.14796
43 1 0.170426 0.666601 0.775205 0 -0.00311589 -0.00433588
44 1 0.194022 1.03609 0.982842 0 0.267594 0.0207099
45 1 0.104374 0.502164 0.918348 0 0.220052 0.0114607
46 1 0.618878 0.666684 0.346696 0 0.0012728 0.0152621
47 1 0.552721 0.5 0.489513 0 -0.000172019 0.0011574
48 1 0.302721 0.666667 0.489513 0 0.000172019 0.00115728
49 1 0.236578 0.499991 0.632373 0 -0.000851989 0.00156522
50 1 0.986578 0.666676 0.632373 0 0.000851631 0.00156498
51 1 0.920426 0.500066 0.775205 0 0.00311649 -0.00433576
52 1 0.944022 0.130576 0.982842 0 -0.267595 0.0207102
53 1 0.854374 0.664503 0.918348 0 -0.220052 0.0114611
54 1 0.670426 0.666601 0.775205 0 -0.00311589 -0.00433588
55 1 0.604374 0.502164 0.918348 0 0.220052 0.0114607
56 1 0.354374 0.664503 0.918348 0 -0.220052 0.011461
ITEM: TIMESTEP
3
ITEM: NUMBER OF ATOMS
56
ITEM: BOX BOUNDS xy xz yz pp pp pp
-4.0417743325233459e+00 1.2206987559795380e+01 -4.7683715820312500e-07
-7.5370073318481445e-03 5.5339480042457581e+00 -4.0198861360549927e+00
-3.2569408416748047e-02 1.9052529454231262e+01 2.8610229492187500e-06
ITEM: ATOMS id type xs ys zs fx fy fz
7 1 0.00321496 0.554137 0.0672057 0 -0.0211651 -0.10206
16 1 0.0112607 0.998669 0.843311 0 0.0517563 0.00536704
1 1 0.592922 1.017 0.13188 0 0.117288 0.0296664
2 1 0.342922 0.149664 0.13188 0 -0.117288 0.0296663
3 1 0.276972 1.00028 0.275333 0 -4.51803e-05 0.0248951
4 1 0.0269721 0.166391 0.275333 0 4.54187e-05 0.0248951
5 1 0.960781 -6.61728e-05 0.418049 0 -0.00168717 0.0062983
6 1 0.0929219 1.017 0.13188 0 0.117288 0.0296663
8 1 0.842922 0.149664 0.13188 0 -0.117288 0.0296664
9 1 0.753215 0.61253 0.0672057 0 0.0211645 -0.10206
10 1 0.776972 1.00028 0.275333 0 -4.55379e-05 0.0248947
11 1 0.710781 0.166733 0.418049 0 0.00168717 0.00629842
12 1 0.644641 -1.12786e-05 0.560917 0 -0.00202155 -0.00869143
13 1 0.394641 0.166678 0.560917 0 0.00202191 -0.00869155
14 1 0.328393 -0.000102889 0.703458 0 -0.00550425 -0.0528791
15 1 0.0783933 0.16677 0.703458 0 0.00550449 -0.0528798
17 1 0.686109 0.498669 0.207142 0 0.0517569 -0.00536776
18 1 0.526972 0.166391 0.275333 0 4.54187e-05 0.0248952
19 1 0.436109 0.667998 0.207142 0 -0.0517565 -0.00536716
20 1 0.460781 -6.61703e-05 0.418049 0 -0.00168729 0.00629807
21 1 0.368977 0.499897 0.346995 0 -0.00550449 0.052879
22 1 0.210781 0.166733 0.418049 0 0.00168669 0.00629878
23 1 0.118977 0.66677 0.346995 0 0.00550461 0.0528791
24 1 0.144641 -1.1273e-05 0.560917 0 -0.00202143 -0.00869131
25 1 0.0527287 0.499989 0.489536 0 -0.00202227 0.00869179
26 1 0.894641 0.166678 0.560917 0 0.00202227 -0.00869143
27 1 0.802729 0.666678 0.489536 0 0.00202155 0.00869143
28 1 0.503215 0.554137 0.0672057 0 -0.0211649 -0.10206
29 1 0.253215 0.61253 0.0672057 0 0.0211637 -0.102059
30 1 0.186109 0.498669 0.207142 0 0.0517567 -0.00536716
31 1 0.936109 0.667998 0.207142 0 -0.0517565 -0.00536704
32 1 0.868977 0.499897 0.346995 0 -0.00550389 0.0528793
33 1 0.761261 0.167998 0.843311 0 -0.0517563 0.00536728
34 1 0.694155 1.05414 0.983247 0 -0.0211643 0.102061
35 1 0.444155 0.11253 0.983247 0 0.0211651 0.10206
36 1 0.828393 -0.000102877 0.703458 0 -0.00550389 -0.052879
37 1 0.736588 0.499934 0.632404 0 -0.00168729 -0.0062983
38 1 0.578393 0.16677 0.703458 0 0.00550497 -0.0528796
39 1 0.486588 0.666733 0.632404 0 0.00168693 -0.00629818
40 1 0.511261 0.998669 0.843311 0 0.0517565 0.00536656
41 1 0.420398 0.500276 0.77512 0 -4.54187e-05 -0.0248941
42 1 0.261261 0.167998 0.843311 0 -0.0517566 0.0053668
43 1 0.170398 0.666391 0.77512 0 4.50611e-05 -0.0248951
44 1 0.194155 1.05414 0.983247 0 -0.0211643 0.10206
45 1 0.104448 0.517003 0.918573 0 0.117288 -0.0296665
46 1 0.618977 0.66677 0.346995 0 0.00550449 0.0528793
47 1 0.552729 0.499989 0.489536 0 -0.00202227 0.00869143
48 1 0.302729 0.666678 0.489536 0 0.00202167 0.00869119
49 1 0.236588 0.499934 0.632404 0 -0.00168705 -0.00629842
50 1 0.986588 0.666733 0.632404 0 0.00168717 -0.00629842
51 1 0.920398 0.500276 0.77512 0 -4.56572e-05 -0.0248946
52 1 0.944155 0.11253 0.983247 0 0.0211654 0.10206
53 1 0.854448 0.649664 0.918572 0 -0.117289 -0.0296663
54 1 0.670398 0.666391 0.77512 0 4.49419e-05 -0.0248951
55 1 0.604448 0.517003 0.918572 0 0.117288 -0.0296662
56 1 0.354448 0.649664 0.918573 0 -0.117288 -0.0296668
ITEM: TIMESTEP
4
ITEM: NUMBER OF ATOMS
56
ITEM: BOX BOUNDS xy xz yz pp pp pp
-4.0417743325233459e+00 1.2206987559795380e+01 -4.7683715820312500e-07
-7.5370073318481445e-03 5.5339480042457581e+00 -4.0198861360549927e+00
-3.2569408416748047e-02 1.9052529454231262e+01 2.8610229492187500e-06
ITEM: ATOMS id type xs ys zs fx fy fz
7 1 0.00257364 0.554054 0.0652547 0 0.1152 0.0441861
16 1 0.0112259 1.00194 0.843205 0 0.0531317 0.0229746
1 1 0.5931 1.02567 0.132423 0 -0.0136247 0.0136458
2 1 0.3431 0.140996 0.132423 0 0.0136248 0.013646
3 1 0.277128 1.00029 0.275808 0 0.00851893 0.0234865
4 1 0.0271282 0.166379 0.275808 0 -0.00851893 0.023487
5 1 0.96082 -0.000179703 0.418165 0 -0.00169301 0.0142672
6 1 0.0931002 1.02567 0.132423 0 -0.0136251 0.0136459
8 1 0.8431 0.140996 0.132423 0 0.0136253 0.0136456
9 1 0.752574 0.612613 0.0652547 0 -0.115199 0.0441853
10 1 0.777128 1.00029 0.275808 0 0.00851953 0.0234866
11 1 0.71082 0.166847 0.418165 0 0.00169301 0.0142674
12 1 0.644587 -0.000143221 0.560751 0 -0.00440466 -0.0145863
13 1 0.394587 0.16681 0.560751 0 0.00440454 -0.0145853
14 1 0.328059 -0.000466014 0.702441 0 -3.83854e-05 -0.0131054
15 1 0.0780589 0.167133 0.702441 0 3.88622e-05 -0.0131049
17 1 0.686144 0.501942 0.207248 0 0.0531317 -0.0229745
18 1 0.527128 0.166379 0.275808 0 -0.00851917 0.0234867
19 1 0.436144 0.664725 0.207248 0 -0.0531318 -0.0229747
20 1 0.46082 -0.000179708 0.418165 0 -0.00169325 0.0142671
21 1 0.369311 0.499534 0.348012 0 -3.8743e-05 0.0131055
22 1 0.21082 0.166847 0.418165 0 0.00169337 0.0142667
23 1 0.119311 0.667133 0.348012 0 3.85046e-05 0.0131055
24 1 0.144587 -0.000143206 0.560751 0 -0.0044049 -0.014586
25 1 0.0527831 0.499857 0.489701 0 -0.00440466 0.0145851
26 1 0.894587 0.16681 0.560751 0 0.00440454 -0.0145859
27 1 0.802783 0.66681 0.489701 0 0.00440478 0.0145862
28 1 0.502574 0.554054 0.0652547 0 0.1152 0.0441856
29 1 0.252574 0.612613 0.0652547 0 -0.115199 0.0441844
30 1 0.186144 0.501942 0.207248 0 0.0531322 -0.0229746
31 1 0.936144 0.664725 0.207248 0 -0.0531321 -0.0229748
32 1 0.869311 0.499534 0.348012 0 -3.88622e-05 0.0131055
33 1 0.761226 0.164725 0.843205 0 -0.0531323 0.0229746
34 1 0.694796 1.05405 0.985198 0 0.115199 -0.0441858
35 1 0.444796 0.112613 0.985198 0 -0.1152 -0.0441858
36 1 0.828059 -0.00046598 0.702441 0 -3.91006e-05 -0.0131054
37 1 0.73655 0.49982 0.632288 0 -0.00169289 -0.0142673
38 1 0.578059 0.167133 0.702441 0 3.85046e-05 -0.0131052
39 1 0.48655 0.666847 0.632288 0 0.00169289 -0.0142674
40 1 0.511226 1.00194 0.843205 0 0.0531317 0.0229751
41 1 0.420242 0.500288 0.774645 0 0.00851941 -0.0234869
42 1 0.261226 0.164725 0.843205 0 -0.0531322 0.0229746
43 1 0.170242 0.666379 0.774645 0 -0.00851893 -0.0234861
44 1 0.194796 1.05405 0.985198 0 0.115199 -0.0441852
45 1 0.10427 0.525671 0.91803 0 -0.0136249 -0.0136456
46 1 0.619311 0.667133 0.348012 0 3.8743e-05 0.0131056
47 1 0.552783 0.499857 0.489701 0 -0.00440454 0.0145855
48 1 0.302783 0.66681 0.489701 0 0.00440478 0.0145863
49 1 0.23655 0.49982 0.632288 0 -0.00169349 -0.0142674
50 1 0.98655 0.666847 0.632288 0 0.00169337 -0.0142676
51 1 0.920242 0.500288 0.774645 0 0.00851893 -0.0234865
52 1 0.944796 0.112613 0.985198 0 -0.1152 -0.044186
53 1 0.85427 0.640996 0.91803 0 0.0136255 -0.0136459
54 1 0.670242 0.666379 0.774645 0 -0.00851893 -0.0234864
55 1 0.60427 0.525671 0.91803 0 -0.0136247 -0.0136456
56 1 0.35427 0.640996 0.91803 0 0.0136251 -0.0136459
ITEM: TIMESTEP
5
ITEM: NUMBER OF ATOMS
56
ITEM: BOX BOUNDS xy xz yz pp pp pp
-4.0417743325233459e+00 1.2206987559795380e+01 -4.7683715820312500e-07
-7.5370073318481445e-03 5.5339480042457581e+00 -4.0198861360549927e+00
-3.2569408416748047e-02 1.9052529454231262e+01 2.8610229492187500e-06
ITEM: ATOMS id type xs ys zs fx fy fz
7 1 0.0023417 0.56225 0.0645491 0 0.0135877 0.00521731
16 1 0.0113542 1.00848 0.843595 0 0.00762844 -0.0165629
1 1 0.593342 1.03192 0.133159 0 -0.0261225 0.0127451
2 1 0.343342 0.134749 0.133159 0 0.0261223 0.0127459
3 1 0.277419 1.00091 0.276693 0 0.0203427 0.00650358
4 1 0.0274192 0.165758 0.276693 0 -0.0203426 0.00650299
5 1 0.960949 -0.000395791 0.41856 0 -0.00311184 0.0128218
6 1 0.0933424 1.03192 0.133159 0 -0.026122 0.0127454
8 1 0.843342 0.134749 0.133159 0 0.0261222 0.0127457
9 1 0.752342 0.604417 0.0645491 0 -0.0135876 0.00521767
10 1 0.777419 1.00091 0.276693 0 0.0203427 0.00650346
11 1 0.710949 0.167063 0.41856 0 0.00311172 0.0128217
12 1 0.644442 -0.000569201 0.56031 0 -0.00410199 -0.00426066
13 1 0.394442 0.167236 0.56031 0 0.0041008 -0.00426245
14 1 0.32769 -0.000771421 0.70132 0 0.00745237 0.02924
15 1 0.0776905 0.167439 0.70132 0 -0.0074532 0.0292403
17 1 0.686016 0.508481 0.206858 0 0.00762808 0.0165637
18 1 0.527419 0.165758 0.276693 0 -0.0203425 0.00650287
19 1 0.436016 0.658186 0.206858 0 -0.00762784 0.0165631
20 1 0.460949 -0.00039582 0.41856 0 -0.0031116 0.0128222
21 1 0.369679 0.499229 0.349133 0 0.00745296 -0.02924
22 1 0.210949 0.167063 0.41856 0 0.0031116 0.0128216
23 1 0.119679 0.667439 0.349133 0 -0.00745261 -0.0292403
24 1 0.144442 -0.000569197 0.56031 0 -0.00410187 -0.00426149
25 1 0.0529282 0.499431 0.490143 0 -0.00410092 0.00426185
26 1 0.894442 0.167236 0.56031 0 0.00410068 -0.00426185
27 1 0.802928 0.667236 0.490143 0 0.00410163 0.00426137
28 1 0.502342 0.56225 0.0645491 0 0.0135878 0.00521755
29 1 0.252342 0.604417 0.0645491 0 -0.0135875 0.00521779
30 1 0.186016 0.508481 0.206858 0 0.00762725 0.0165629
31 1 0.936016 0.658186 0.206858 0 -0.00762773 0.0165631
32 1 0.869679 0.499229 0.349133 0 0.00745213 -0.0292403
33 1 0.761354 0.158186 0.843595 0 -0.00762784 -0.0165634
34 1 0.695028 1.06225 0.985904 0 0.0135877 -0.00521791
35 1 0.445028 0.104417 0.985904 0 -0.0135882 -0.00521791
36 1 0.82769 -0.00077142 0.70132 0 0.00745237 0.0292398
37 1 0.736421 0.499604 0.631893 0 -0.00311136 -0.0128218
38 1 0.57769 0.167439 0.70132 0 -0.00745356 0.0292407
39 1 0.486421 0.667063 0.631893 0 0.00311208 -0.0128219
40 1 0.511354 1.00848 0.843595 0 0.00762832 -0.0165627
41 1 0.419951 0.500909 0.77376 0 0.0203425 -0.0065043
42 1 0.261354 0.158186 0.843595 0 -0.00762784 -0.0165623
43 1 0.169951 0.665758 0.77376 0 -0.0203425 -0.00650418
44 1 0.195028 1.06225 0.985904 0 0.0135878 -0.00521815
45 1 0.104027 0.531918 0.917293 0 -0.0261232 -0.0127453
46 1 0.619679 0.667439 0.349133 0 -0.00745249 -0.0292404
47 1 0.552928 0.499431 0.490143 0 -0.00410092 0.00426221
48 1 0.302928 0.667236 0.490143 0 0.00410151 0.00426173
49 1 0.236421 0.499604 0.631893 0 -0.00311065 -0.0128212
50 1 0.986421 0.667063 0.631893 0 0.00311196 -0.0128213
51 1 0.919951 0.500909 0.77376 0 0.0203429 -0.00650382
52 1 0.945028 0.104417 0.985904 0 -0.0135878 -0.00521731
53 1 0.854027 0.634749 0.917293 0 0.0261226 -0.0127453
54 1 0.669951 0.665758 0.77376 0 -0.0203422 -0.00650346
55 1 0.604027 0.531918 0.917293 0 -0.0261232 -0.0127457
56 1 0.354027 0.634749 0.917293 0 0.0261229 -0.0127449
ITEM: TIMESTEP
6
ITEM: NUMBER OF ATOMS
56
ITEM: BOX BOUNDS xy xz yz pp pp pp
-4.0417743325233459e+00 1.2206987559795380e+01 -4.7683715820312500e-07
-7.5370073318481445e-03 5.5339480042457581e+00 -4.0198861360549927e+00
-3.2569408416748047e-02 1.9052529454231262e+01 2.8610229492187500e-06
ITEM: ATOMS id type xs ys zs fx fy fz
7 1 0.00236707 0.563179 0.0646263 0 -0.0131716 -0.0102296
16 1 0.0112637 1.00903 0.84332 0 -0.00197601 0.00342727
1 1 0.593418 1.03049 0.133388 0 -0.00140512 0.00935674
2 1 0.343418 0.136177 0.133388 0 0.00140536 0.00935614
3 1 0.27746 1.00211 0.276818 0 0.00886488 0.00630534
4 1 0.0274602 0.164557 0.276818 0 -0.00886524 0.00630569
5 1 0.961023 -0.000581501 0.418784 0 -0.0019511 0.00181711
6 1 0.0934175 1.03049 0.133388 0 -0.00140536 0.00935686
8 1 0.843418 0.136177 0.133388 0 0.00140536 0.00935602
9 1 0.752367 0.603488 0.0646263 0 0.0131711 -0.0102293
10 1 0.77746 1.00211 0.276818 0 0.00886512 0.00630593
11 1 0.711023 0.167249 0.418784 0 0.00195146 0.00181711
12 1 0.644415 -0.000816305 0.56023 0 -0.000542045 0.009745
13 1 0.394415 0.167483 0.56023 0 0.000542521 0.00974536
14 1 0.327848 -0.0003401 0.701799 0 0.0038358 -0.00214493
15 1 0.0778479 0.167007 0.701799 0 -0.00383508 -0.00214493
17 1 0.686106 0.509035 0.207133 0 -0.00197613 -0.00342691
18 1 0.52746 0.164557 0.276818 0 -0.00886512 0.00630569
19 1 0.436106 0.657633 0.207133 0 0.00197577 -0.00342703
20 1 0.461023 -0.000581517 0.418784 0 -0.00195086 0.00181699
21 1 0.369522 0.49966 0.348654 0 0.00383544 0.00214481
22 1 0.211023 0.167249 0.418784 0 0.00195181 0.00181735
23 1 0.119522 0.667007 0.348654 0 -0.00383568 0.00214493
24 1 0.144415 -0.000816293 0.56023 0 -0.000542164 0.00974512
25 1 0.0529544 0.499184 0.490223 0 -0.000542521 -0.00974488
26 1 0.894415 0.167483 0.56023 0 0.00054276 0.00974512
27 1 0.802954 0.667483 0.490223 0 0.000542045 -0.00974512
28 1 0.502367 0.563179 0.0646263 0 -0.0131717 -0.0102296
29 1 0.252367 0.603488 0.0646263 0 0.0131716 -0.0102297
30 1 0.186106 0.509035 0.207133 0 -0.00197601 -0.00342655
31 1 0.936106 0.657633 0.207133 0 0.00197613 -0.00342703
32 1 0.869522 0.49966 0.348654 0 0.00383532 0.00214481
33 1 0.761264 0.157633 0.84332 0 0.00197601 0.00342691
34 1 0.695003 1.06318 0.985827 0 -0.0131714 0.0102291
35 1 0.445003 0.103488 0.985827 0 0.0131718 0.0102304
36 1 0.827848 -0.0003401 0.701799 0 0.00383556 -0.00214493
37 1 0.736347 0.499419 0.631669 0 -0.00195146 -0.00181711
38 1 0.577848 0.167007 0.701799 0 -0.00383556 -0.00214541
39 1 0.486347 0.667249 0.631669 0 0.00195086 -0.00181711
40 1 0.511264 1.00903 0.84332 0 -0.00197589 0.00342679
41 1 0.41991 0.50211 0.773635 0 0.00886476 -0.00630558
42 1 0.261264 0.157633 0.84332 0 0.00197649 0.00342643
43 1 0.16991 0.664557 0.773635 0 -0.00886536 -0.00630498
44 1 0.195003 1.06318 0.985827 0 -0.0131717 0.0102301
45 1 0.103952 0.53049 0.917065 0 -0.001405 -0.00935662
46 1 0.619522 0.667007 0.348654 0 -0.00383568 0.00214517
47 1 0.552954 0.499184 0.490223 0 -0.000542164 -0.00974548
48 1 0.302954 0.667483 0.490223 0 0.000542045 -0.00974476
49 1 0.236347 0.499419 0.631669 0 -0.00195169 -0.00181782
50 1 0.986347 0.667249 0.631669 0 0.00195086 -0.00181746
51 1 0.91991 0.50211 0.773635 0 0.00886512 -0.00630605
52 1 0.945003 0.103488 0.985827 0 0.0131716 0.0102299
53 1 0.853952 0.636177 0.917065 0 0.00140524 -0.00935686
54 1 0.66991 0.664557 0.773635 0 -0.00886524 -0.00630546
55 1 0.603952 0.53049 0.917065 0 -0.001405 -0.00935638
56 1 0.353952 0.636177 0.917065 0 0.00140512 -0.00935662
ITEM: TIMESTEP
7
ITEM: NUMBER OF ATOMS
56
ITEM: BOX BOUNDS xy xz yz pp pp pp
-4.0417743325233459e+00 1.2206987559795380e+01 -4.7683715820312500e-07
-7.5370073318481445e-03 5.5339480042457581e+00 -4.0198861360549927e+00
-3.2569408416748047e-02 1.9052529454231262e+01 2.8610229492187500e-06
ITEM: ATOMS id type xs ys zs fx fy fz
7 1 0.00230791 0.562515 0.0644463 0 0.00460756 0.00163639
16 1 0.0112649 1.00903 0.843323 0 0.00116444 0.00664341
1 1 0.593494 1.03007 0.133621 0 -0.00452197 0.00122809
2 1 0.343494 0.136595 0.133621 0 0.00452137 0.00122797
3 1 0.27751 1.00297 0.276968 0 -0.00242519 0.00404918
4 1 0.0275096 0.163694 0.276968 0 0.00242507 0.00404942
5 1 0.961051 -0.000753558 0.41887 0 0.00141811 0.00255394
6 1 0.093494 1.03007 0.133621 0 -0.00452209 0.00122809
8 1 0.843494 0.136595 0.133621 0 0.00452125 0.00122833
9 1 0.752308 0.604152 0.0644463 0 -0.00460672 0.00163567
10 1 0.77751 1.00297 0.276968 0 -0.00242531 0.00404871
11 1 0.711051 0.167421 0.41887 0 -0.00141859 0.0025537
12 1 0.644471 -0.000908624 0.5604 0 -0.000427842 0.00216198
13 1 0.394471 0.167576 0.5604 0 0.000428438 0.00216317
14 1 0.32787 1.32351e-05 0.701866 0 0.00102317 -0.00347829
15 1 0.0778701 0.166654 0.701866 0 -0.00102377 -0.00347829
17 1 0.686105 0.509029 0.207129 0 0.00116432 -0.00664401
18 1 0.52751 0.163694 0.276968 0 0.00242507 0.00404942
19 1 0.436105 0.657638 0.207129 0 -0.00116432 -0.00664413
20 1 0.461051 -0.000753554 0.41887 0 0.00141799 0.00255394
21 1 0.3695 0.500013 0.348586 0 0.00102341 0.00347853
22 1 0.211051 0.167421 0.41887 0 -0.00141847 0.00255346
23 1 0.1195 0.666654 0.348586 0 -0.00102353 0.00347817
24 1 0.144471 -0.000908619 0.5604 0 -0.000428081 0.00216258
25 1 0.0528985 0.499091 0.490053 0 -0.000428319 -0.00216281
26 1 0.894471 0.167576 0.5604 0 0.0004282 0.00216269
27 1 0.802898 0.667576 0.490053 0 0.000428438 -0.00216258
28 1 0.502308 0.562515 0.0644463 0 0.00460768 0.00163686
29 1 0.252308 0.604152 0.0644463 0 -0.00460732 0.00163567
30 1 0.186105 0.509029 0.207129 0 0.00116503 -0.00664401
31 1 0.936105 0.657638 0.207129 0 -0.00116467 -0.00664377
32 1 0.8695 0.500013 0.348586 0 0.00102389 0.00347817
33 1 0.761265 0.157638 0.843323 0 -0.00116456 0.00664389
34 1 0.695062 1.06251 0.986006 0 0.00460672 -0.00163567
35 1 0.445062 0.104152 0.986006 0 -0.00460744 -0.00163651
36 1 0.82787 1.32192e-05 0.701866 0 0.00102353 -0.00347805
37 1 0.736319 0.499246 0.631583 0 0.00141799 -0.00255382
38 1 0.57787 0.166654 0.701866 0 -0.00102305 -0.00347853
39 1 0.486318 0.667421 0.631583 0 -0.00141823 -0.00255358
40 1 0.511265 1.00903 0.843323 0 0.0011642 0.00664461
41 1 0.41986 0.502973 0.773485 0 -0.00242472 -0.00404942
42 1 0.261265 0.157638 0.843323 0 -0.00116456 0.00664437
43 1 0.16986 0.663694 0.773485 0 0.00242555 -0.00404906
44 1 0.195062 1.06251 0.986006 0 0.00460732 -0.00163603
45 1 0.103876 0.530072 0.916832 0 -0.00452125 -0.00122809
46 1 0.6195 0.666654 0.348587 0 -0.00102341 0.00347805
47 1 0.552898 0.499091 0.490053 0 -0.000428438 -0.00216258
48 1 0.302898 0.667576 0.490053 0 0.000428796 -0.00216353
49 1 0.236319 0.499246 0.631583 0 0.00141799 -0.00255358
50 1 0.986318 0.667421 0.631583 0 -0.00141811 -0.00255334
51 1 0.91986 0.502973 0.773485 0 -0.00242531 -0.00404894
52 1 0.945062 0.104152 0.986006 0 -0.00460756 -0.00163651
53 1 0.853876 0.636595 0.916832 0 0.00452173 -0.00122774
54 1 0.66986 0.663694 0.773485 0 0.00242496 -0.00404882
55 1 0.603876 0.530072 0.916832 0 -0.00452089 -0.00122857
56 1 0.353876 0.636595 0.916832 0 0.00452149 -0.00122821
ITEM: TIMESTEP
8
ITEM: NUMBER OF ATOMS
56
ITEM: BOX BOUNDS xy xz yz pp pp pp
-4.0417743325233459e+00 1.2206987559795380e+01 -4.7683715820312500e-07
-7.5370073318481445e-03 5.5339480042457581e+00 -4.0198861360549927e+00
-3.2569408416748047e-02 1.9052529454231262e+01 2.8610229492187500e-06
ITEM: ATOMS id type xs ys zs fx fy fz
7 1 0.00230516 0.562659 0.064438 0 0.000148535 -0.00352788
16 1 0.0113041 1.0091 0.843443 0 -0.000225425 -0.000673056
1 1 0.593517 1.02971 0.133691 0 0.000103354 0.000732064
2 1 0.343517 0.136961 0.133691 0 -0.000102878 0.000731587
3 1 0.277544 1.003 0.277072 0 -0.00271487 0.000800252
4 1 0.0275437 0.163663 0.277072 0 0.00271583 0.000800014
5 1 0.961072 -0.000702216 0.418934 0 0.00119996 0.00214219
6 1 0.0935172 1.02971 0.133691 0 0.000103474 0.000731587
8 1 0.843517 0.136961 0.133691 0 -0.000102639 0.000731349
9 1 0.752305 0.604008 0.064438 0 -0.000149131 -0.00352728
10 1 0.777544 1.003 0.277072 0 -0.00271511 0.000800014
11 1 0.711072 0.167369 0.418934 0 -0.00119984 0.00214195
12 1 0.644496 -0.000954232 0.560474 0 -0.000212789 -0.00175214
13 1 0.394496 0.167621 0.560474 0 0.000212669 -0.00175285
14 1 0.327854 0.000149987 0.701818 0 -0.000362277 0.00122809
15 1 0.0778543 0.166517 0.701818 0 0.000362158 0.00122786
17 1 0.686066 0.5091 0.20701 0 -0.000226021 0.000673056
18 1 0.527544 0.163663 0.277072 0 0.00271559 0.000799894
19 1 0.436066 0.657568 0.20701 0 0.000225425 0.00067389
20 1 0.461072 -0.000702216 0.418934 0 0.00119996 0.00214219
21 1 0.369516 0.50015 0.348635 0 -0.000361919 -0.00122797
22 1 0.211072 0.167369 0.418934 0 -0.00120056 0.00214219
23 1 0.119516 0.666517 0.348635 0 0.000362158 -0.00122774
24 1 0.144496 -0.000954243 0.560474 0 -0.000212193 -0.00175238
25 1 0.0528741 0.499046 0.489978 0 -0.000212431 0.00175226
26 1 0.894496 0.167621 0.560474 0 0.000212669 -0.00175214
27 1 0.802874 0.667621 0.489978 0 0.000212193 0.0017525
28 1 0.502305 0.562659 0.064438 0 0.000148535 -0.00352824
29 1 0.252305 0.604008 0.064438 0 -0.000149369 -0.00352669
30 1 0.186066 0.5091 0.20701 0 -0.000226259 0.000672936
31 1 0.936066 0.657568 0.20701 0 0.000225306 0.000673532
32 1 0.869516 0.50015 0.348635 0 -0.000362277 -0.00122762
33 1 0.761304 0.157568 0.843443 0 0.000226021 -0.000673056
34 1 0.695065 1.06266 0.986015 0 0.000149369 0.00352705
35 1 0.445065 0.104008 0.986015 0 -0.000148654 0.0035274
36 1 0.827854 0.000149989 0.701818 0 -0.000362277 0.0012275