ITEM: TIMESTEP
0
ITEM: NUMBER OF ATOMS
48
ITEM: BOX BOUNDS xy xz yz pp pp pp
-3.1364330053329468e+00 8.6067802309989929e+00 2.5094206929206848e+00
-9.4973444938659668e-03 9.3236122131347656e+00 -3.1243959069252014e+00
-2.8691649436950684e-02 1.9545819282531738e+01 7.1304261684417725e-02
ITEM: ATOMS id type xs ys zs fx fy fz
1 1 0.937976 0.16703 0.0320218 0 0 0.705246
2 1 0.485248 0.0738739 0.0528103 0 0 0.679867
3 1 0.359704 0.125314 0.657023 0 0 0.00122643
4 1 0.475509 0.948847 0.927808 0 0 -0.705244
5 1 0.191283 0.157156 0.802805 0 0 0.00454521
6 1 0.928237 0.0420026 0.90702 0 0 -0.679861
7 1 0.644007 0.250315 0.78202 0 0 -0.0115089
8 1 0.790889 0.208712 0.407029 0 0 0.000762939
9 1 0.906983 0.0321465 0.677802 0 0 0.00156784
10 1 0.622596 0.240498 0.552801 0 0 -0.00075531
11 1 0.769478 0.198895 0.17781 0 0 0.0115108
12 1 0.506502 0.0837297 0.282028 0 0 -0.00156975
13 1 0.222202 0.292053 0.157025 0 0 -0.00454712
14 1 0.338169 0.115534 0.427803 0 0 -0.000610352
15 1 0.937976 0.500363 0.0320219 0 0 0.705229
16 1 0.485248 0.407207 0.0528103 0 0 0.679869
17 1 0.359704 0.458648 0.657023 0 0 0.00122833
18 1 0.475509 0.28218 0.927808 0 0 -0.70525
19 1 0.191283 0.49049 0.802805 0 0 0.00454712
20 1 0.928237 0.375336 0.90702 0 0 -0.679852
21 1 0.644007 0.583648 0.78202 0 0 -0.0115108
22 1 0.0753168 0.333676 0.532027 0 0 0.000606537
23 1 0.790889 0.542046 0.407029 0 0 0.000757217
24 1 0.906983 0.36548 0.677802 0 0 0.00157166
25 1 0.622596 0.573831 0.552801 0 0 -0.000759125
26 1 0.0537808 0.323895 0.302807 0 0 -0.00122833
27 1 0.769478 0.532228 0.17781 0 0 0.0115108
28 1 0.506502 0.417063 0.282028 0 0 -0.00156593
29 1 0.222202 0.625387 0.157025 0 0 -0.00454521
30 1 0.338169 0.448867 0.427803 0 0 -0.000610352
31 1 0.937976 0.833696 0.0320219 0 0 0.705235
32 1 0.485248 0.740541 0.0528104 0 0 0.679859
33 1 0.359704 0.791981 0.657023 0 0 0.00122833
34 1 0.475509 0.615514 0.927808 0 0 -0.705238
35 1 0.191283 0.823823 0.802805 0 0 0.00454712
36 1 0.928237 0.708669 0.90702 0 0 -0.679857
37 1 0.644007 0.916981 0.78202 0 0 -0.0115089
38 1 0.0753165 0.667009 0.532027 0 0 0.00060463
39 1 0.790889 0.875379 0.407029 0 0 0.000759125
40 1 0.906983 0.698813 0.677802 0 0 0.00156593
41 1 0.622596 0.907164 0.552801 0 0 -0.000753403
42 1 0.0537807 0.657228 0.302807 0 0 -0.00123024
43 1 0.769478 0.865562 0.17781 0 0 0.0115108
44 1 0.506502 0.750396 0.282028 0 0 -0.00156784
45 1 0.222202 0.95872 0.157026 0 0 -0.00455284
46 1 0.338169 0.782201 0.427803 0 0 -0.00060463
47 1 0.0753163 0.000342385 0.532027 0 0 0.00060463
48 1 0.0537809 0.990562 0.302807 0 0 -0.00122833
ITEM: TIMESTEP
1
ITEM: NUMBER OF ATOMS
48
ITEM: BOX BOUNDS xy xz yz pp pp pp
-3.1364330053329468e+00 8.6067802309989929e+00 2.5094206929206848e+00
-9.4973444938659668e-03 9.3236122131347656e+00 -3.1243959069252014e+00
-2.8691649436950684e-02 1.9545819282531738e+01 7.1304261684417725e-02
ITEM: ATOMS id type xs ys zs fx fy fz
1 1 0.940605 0.16699 0.0371305 0 0 0.0527611
2 1 0.487782 0.073836 0.0577351 0 0 0.0955944
3 1 0.359709 0.125314 0.657032 0 0 -0.00499153
4 1 0.47288 0.948886 0.9227 0 0 -0.0527515
5 1 0.1913 0.157156 0.802838 0 0 -0.119818
6 1 0.925703 0.0420405 0.902095 0 0 -0.0955925
7 1 0.643964 0.250316 0.781937 0 0 -0.136801
8 1 0.790892 0.208712 0.407035 0 0 -0.00230217
9 1 0.906989 0.0321464 0.677813 0 0 -0.00241089
10 1 0.622594 0.240498 0.552795 0 0 0.00230217
11 1 0.769521 0.198894 0.177893 0 0 0.136801
12 1 0.506496 0.0837298 0.282017 0 0 0.00240707
13 1 0.222185 0.292053 0.156992 0 0 0.119808
14 1 0.338167 0.115534 0.427799 0 0 -0.00222206
15 1 0.940605 0.500324 0.0371305 0 0 0.0527592
16 1 0.487782 0.407169 0.0577352 0 0 0.0955944
17 1 0.359709 0.458648 0.657032 0 0 -0.00499344
18 1 0.47288 0.28222 0.9227 0 0 -0.0527515
19 1 0.1913 0.49049 0.802838 0 0 -0.119812
20 1 0.925703 0.375374 0.902095 0 0 -0.0955963
21 1 0.643964 0.583649 0.781937 0 0 -0.136803
22 1 0.075319 0.333676 0.532031 0 0 0.00222588
23 1 0.790892 0.542045 0.407035 0 0 -0.00230217
24 1 0.906989 0.36548 0.677813 0 0 -0.00240707
25 1 0.622594 0.573831 0.552795 0 0 0.0023098
26 1 0.0537763 0.323895 0.302798 0 0 0.00499344
27 1 0.769521 0.532227 0.177893 0 0 0.136803
28 1 0.506496 0.417063 0.282017 0 0 0.00241089
29 1 0.222185 0.625387 0.156993 0 0 0.119812
30 1 0.338166 0.448867 0.427799 0 0 -0.00222588
31 1 0.940605 0.833657 0.0371305 0 0 0.0527592
32 1 0.487782 0.740503 0.0577351 0 0 0.0955944
33 1 0.359709 0.791981 0.657032 0 0 -0.00498962
34 1 0.47288 0.615553 0.9227 0 0 -0.0527592
35 1 0.1913 0.823823 0.802838 0 0 -0.119816
36 1 0.925703 0.708707 0.902095 0 0 -0.0955944
37 1 0.643964 0.916982 0.781937 0 0 -0.136806
38 1 0.0753188 0.667009 0.532031 0 0 0.00222588
39 1 0.790892 0.875379 0.407035 0 0 -0.0023098
40 1 0.906989 0.698813 0.677813 0 0 -0.00240517
41 1 0.622593 0.907164 0.552795 0 0 0.00231361
42 1 0.0537761 0.657229 0.302798 0 0 0.00498962
43 1 0.769521 0.865561 0.177893 0 0 0.136799
44 1 0.506496 0.750396 0.282017 0 0 0.00240135
45 1 0.222185 0.95872 0.156993 0 0 0.119808
46 1 0.338167 0.782201 0.427799 0 0 -0.00222206
47 1 0.0753185 0.000342352 0.532031 0 0 0.00222397
48 1 0.0537764 0.990562 0.302798 0 0 0.00498581
ITEM: TIMESTEP
2
ITEM: NUMBER OF ATOMS
48
ITEM: BOX BOUNDS xy xz yz pp pp pp
-3.1364330053329468e+00 8.6067802309989929e+00 2.5094206929206848e+00
-9.4973444938659668e-03 9.3236122131347656e+00 -3.1243959069252014e+00
-2.8691649436950684e-02 1.9545819282531738e+01 7.1304261684417725e-02
ITEM: ATOMS id type xs ys zs fx fy fz
1 1 0.941316 0.16698 0.038513 0 0 -0.0349197
2 1 0.489071 0.0738167 0.06024 0 0 -0.0040226
3 1 0.359642 0.125315 0.656901 0 0 -0.0795307
4 1 0.472169 0.948897 0.921317 0 0 0.0349007
5 1 0.189684 0.15718 0.799698 0 0 -0.00199127
6 1 0.924414 0.0420598 0.89959 0 0 0.00402069
7 1 0.64212 0.250343 0.778352 0 0 -0.00785446
8 1 0.790861 0.208713 0.406974 0 0 0.00382042
9 1 0.906956 0.0321469 0.67775 0 0 -0.0731182
10 1 0.622625 0.240497 0.552856 0 0 -0.00381851
11 1 0.771366 0.198867 0.181478 0 0 0.00785446
12 1 0.506529 0.0837293 0.28208 0 0 0.0731201
13 1 0.223801 0.292029 0.160132 0 0 0.00201035
14 1 0.338137 0.115534 0.427741 0 0 0.00676918
15 1 0.941316 0.500313 0.0385129 0 0 -0.0349121
16 1 0.489071 0.40715 0.0602401 0 0 -0.0040226
17 1 0.359642 0.458649 0.656901 0 0 -0.0795193
18 1 0.472169 0.28223 0.921317 0 0 0.0349045
19 1 0.189684 0.490514 0.799698 0 0 -0.0019989
20 1 0.924414 0.375393 0.89959 0 0 0.00402451
21 1 0.64212 0.583676 0.778352 0 0 -0.00785065
22 1 0.0753491 0.333675 0.53209 0 0 -0.0067749
23 1 0.790861 0.542046 0.406974 0 0 0.0038147
24 1 0.906957 0.36548 0.67775 0 0 -0.0731201
25 1 0.622625 0.57383 0.552856 0 0 -0.00382614
26 1 0.0538436 0.323894 0.302929 0 0 0.079525
27 1 0.771366 0.5322 0.181478 0 0 0.00784683
28 1 0.506529 0.417063 0.28208 0 0 0.0731144
29 1 0.223801 0.625363 0.160132 0 0 0.00199318
30 1 0.338136 0.448868 0.42774 0 0 0.00678062
31 1 0.941316 0.833646 0.038513 0 0 -0.0349121
32 1 0.489071 0.740483 0.0602401 0 0 -0.00402451
33 1 0.359642 0.791982 0.656901 0 0 -0.0795288
34 1 0.472169 0.615564 0.921317 0 0 0.0349064
35 1 0.189684 0.823847 0.799698 0 0 -0.00198364
36 1 0.924414 0.708726 0.89959 0 0 0.00401878
37 1 0.64212 0.91701 0.778352 0 0 -0.00784302
38 1 0.0753488 0.667009 0.53209 0 0 -0.0067749
39 1 0.790861 0.875379 0.406974 0 0 0.00382805
40 1 0.906956 0.698814 0.67775 0 0 -0.073122
41 1 0.622624 0.907164 0.552856 0 0 -0.00383568
42 1 0.0538434 0.657228 0.302929 0 0 0.0795364
43 1 0.771366 0.865533 0.181478 0 0 0.00785446
44 1 0.506529 0.750396 0.28208 0 0 0.0731297
45 1 0.223801 0.958696 0.160132 0 0 0.00199699
46 1 0.338137 0.782201 0.427741 0 0 0.00676918
47 1 0.0753485 0.000341903 0.53209 0 0 -0.00677109
48 1 0.0538436 0.990561 0.302929 0 0 0.0795364
ITEM: TIMESTEP
3
ITEM: NUMBER OF ATOMS
48
ITEM: BOX BOUNDS xy xz yz pp pp pp
-3.1364330053329468e+00 8.6067802309989929e+00 2.5094206929206848e+00
-9.4973444938659668e-03 9.3236122131347656e+00 -3.1243959069252014e+00
-2.8691649436950684e-02 1.9545819282531738e+01 7.1304261684417725e-02
ITEM: ATOMS id type xs ys zs fx fy fz
1 1 0.94102 0.166984 0.0379368 0 0 0.013628
2 1 0.489447 0.0738111 0.0609719 0 0 0.0101852
3 1 0.358392 0.125334 0.654473 0 0 0.000715256
4 1 0.472465 0.948893 0.921893 0 0 -0.0136108
5 1 0.189104 0.157189 0.79857 0 0 0.00120163
6 1 0.924037 0.0420654 0.898858 0 0 -0.0101852
7 1 0.641371 0.250354 0.776897 0 0 0.00492287
8 1 0.790909 0.208712 0.407068 0 0 0.045084
9 1 0.905818 0.0321639 0.675537 0 0 -5.72205e-05
10 1 0.622576 0.240498 0.552762 0 0 -0.0450859
11 1 0.772114 0.198855 0.182933 0 0 -0.00492287
12 1 0.507668 0.0837122 0.284293 0 0 5.53131e-05
13 1 0.224381 0.292021 0.16126 0 0 -0.0012188
14 1 0.338231 0.115533 0.427924 0 0 0.0495567
15 1 0.94102 0.500317 0.0379369 0 0 0.0136242
16 1 0.489447 0.407144 0.0609719 0 0 0.0101757
17 1 0.358392 0.458667 0.654473 0 0 0.000709534
18 1 0.472465 0.282226 0.921893 0 0 -0.0136185
19 1 0.189104 0.490523 0.79857 0 0 0.00120544
20 1 0.924038 0.375399 0.898858 0 0 -0.0101814
21 1 0.641371 0.583688 0.776897 0 0 0.00491333
22 1 0.0752548 0.333677 0.531907 0 0 -0.0495491
23 1 0.790909 0.542045 0.407068 0 0 0.0450935
24 1 0.905818 0.365497 0.675537 0 0 -5.53131e-05
25 1 0.622576 0.573831 0.552762 0 0 -0.0450897
26 1 0.0550931 0.323876 0.305357 0 0 -0.000709534
27 1 0.772114 0.532189 0.182933 0 0 -0.00491333
28 1 0.507668 0.417046 0.284293 0 0 5.53131e-05
29 1 0.224381 0.625354 0.16126 0 0 -0.00119591
30 1 0.338231 0.448867 0.427924 0 0 0.049551
31 1 0.94102 0.833651 0.037937 0 0 0.0136166
32 1 0.489447 0.740478 0.0609719 0 0 0.0101738
33 1 0.358392 0.792001 0.654473 0 0 0.000715256
34 1 0.472465 0.615559 0.921893 0 0 -0.013607
35 1 0.189104 0.823856 0.79857 0 0 0.001194
36 1 0.924037 0.708732 0.898858 0 0 -0.01017
37 1 0.641371 0.917021 0.776897 0 0 0.00490952
38 1 0.0752545 0.66701 0.531906 0 0 -0.0495567
39 1 0.790909 0.875378 0.407068 0 0 0.0450878
40 1 0.905817 0.698831 0.675537 0 0 -5.72205e-05
41 1 0.622576 0.907164 0.552762 0 0 -0.0450821
42 1 0.0550931 0.657209 0.305358 0 0 -0.000720978
43 1 0.772114 0.865522 0.182933 0 0 -0.00491905
44 1 0.507668 0.750379 0.284293 0 0 5.14984e-05
45 1 0.224381 0.958687 0.16126 0 0 -0.00119781
46 1 0.338231 0.7822 0.427924 0 0 0.0495548
47 1 0.0752543 0.000343313 0.531907 0 0 -0.0495567
48 1 0.0550932 0.990542 0.305358 0 0 -0.00071907
ITEM: TIMESTEP
4
ITEM: NUMBER OF ATOMS
48
ITEM: BOX BOUNDS xy xz yz pp pp pp
-3.1364330053329468e+00 8.6067802309989929e+00 2.5094206929206848e+00
-9.4973444938659668e-03 9.3236122131347656e+00 -3.1243959069252014e+00
-2.8691649436950684e-02 1.9545819282531738e+01 7.1304261684417725e-02
ITEM: ATOMS id type xs ys zs fx fy fz
1 1 0.941075 0.166983 0.0380437 0 0 0.00292015
2 1 0.489614 0.0738086 0.0612958 0 0 -0.00483131
3 1 0.358136 0.125338 0.653975 0 0 -0.000581741
4 1 0.47241 0.948893 0.921786 0 0 -0.00291443
5 1 0.188992 0.157191 0.798353 0 0 -0.00447655
6 1 0.923871 0.0420679 0.898534 0 0 0.00483131
7 1 0.641256 0.250356 0.776674 0 0 -0.00179672
8 1 0.791307 0.208706 0.407842 0 0 0.0018425
9 1 0.905578 0.0321675 0.675071 0 0 -0.00195122
10 1 0.622178 0.240504 0.551988 0 0 -0.00183868
11 1 0.772229 0.198854 0.183157 0 0 0.00180244
12 1 0.507907 0.0837086 0.284759 0 0 0.00196075
13 1 0.224493 0.292019 0.161477 0 0 0.00447464
14 1 0.338677 0.115526 0.428791 0 0 0.00351715
15 1 0.941075 0.500317 0.0380438 0 0 0.00292778
16 1 0.489614 0.407142 0.0612957 0 0 -0.00483131
17 1 0.358136 0.458671 0.653975 0 0 -0.000587463
18 1 0.47241 0.282227 0.921786 0 0 -0.00292397
19 1 0.188992 0.490524 0.798353 0 0 -0.00447273
20 1 0.923871 0.375401 0.898534 0 0 0.00482941
21 1 0.641256 0.583689 0.776673 0 0 -0.00179482
22 1 0.0748087 0.333683 0.53104 0 0 -0.00352287
23 1 0.791307 0.542039 0.407842 0 0 0.00183487
24 1 0.905578 0.365501 0.675071 0 0 -0.00195312
25 1 0.622178 0.573837 0.551988 0 0 -0.00183296
26 1 0.0553493 0.323872 0.305855 0 0 0.000581741
27 1 0.772229 0.532187 0.183157 0 0 0.00180054
28 1 0.507907 0.417042 0.284759 0 0 0.00195885
29 1 0.224493 0.625352 0.161477 0 0 0.00446892
30 1 0.338677 0.44886 0.428791 0 0 0.00351715
31 1 0.941075 0.83365 0.0380437 0 0 0.00292206
32 1 0.489614 0.740475 0.0612956 0 0 -0.00481987
33 1 0.358136 0.792005 0.653975 0 0 -0.000585556
34 1 0.47241 0.61556 0.921786 0 0 -0.00292778
35 1 0.188993 0.823857 0.798353 0 0 -0.00448418
36 1 0.923871 0.708735 0.898534 0 0 0.00482559
37 1 0.641256 0.917023 0.776674 0 0 -0.00180244
38 1 0.0748084 0.667017 0.531039 0 0 -0.00351715
39 1 0.791307 0.875373 0.407842 0 0 0.00182915
40 1 0.905578 0.698834 0.675071 0 0 -0.00195122
41 1 0.622178 0.90717 0.551988 0 0 -0.00183105
42 1 0.0553492 0.657205 0.305855 0 0 0.000579834
43 1 0.772229 0.86552 0.183157 0 0 0.00179672
44 1 0.507907 0.750375 0.284759 0 0 0.00195312
45 1 0.224493 0.958686 0.161477 0 0 0.00447273
46 1 0.338677 0.782193 0.428791 0 0 0.00351715
47 1 0.0748081 0.000349988 0.53104 0 0 -0.00351906
48 1 0.0553494 0.990538 0.305855 0 0 0.000583649
ITEM: TIMESTEP
5
ITEM: NUMBER OF ATOMS
48
ITEM: BOX BOUNDS xy xz yz pp pp pp
-3.1364330053329468e+00 8.6067802309989929e+00 2.5094206929206848e+00
-9.4973444938659668e-03 9.3236122131347656e+00 -3.1243959069252014e+00
-2.8691649436950684e-02 1.9545819282531738e+01 7.1304261684417725e-02
ITEM: ATOMS id type xs ys zs fx fy fz
1 1 0.941114 0.166983 0.0381208 0 0 0.00420952
2 1 0.489548 0.0738096 0.0611683 0 0 0.0015564
3 1 0.358128 0.125338 0.653959 0 0 -0.0033741
4 1 0.472371 0.948894 0.921709 0 0 -0.00421524
5 1 0.188932 0.157192 0.798235 0 0 0.000774384
6 1 0.923936 0.0420669 0.898662 0 0 -0.0015564
7 1 0.641232 0.250356 0.776626 0 0 0.00110817
8 1 0.791332 0.208706 0.407891 0 0 -0.00121307
9 1 0.905552 0.0321679 0.67502 0 0 -0.00324249
10 1 0.622153 0.240504 0.55194 0 0 0.0012188
11 1 0.772254 0.198853 0.183204 0 0 -0.0011158
12 1 0.507934 0.0837083 0.284811 0 0 0.00323677
13 1 0.224554 0.292018 0.161595 0 0 -0.000774384
14 1 0.338725 0.115526 0.428884 0 0 -0.00155258
15 1 0.941115 0.500316 0.0381211 0 0 0.00419044
16 1 0.489548 0.407143 0.0611682 0 0 0.0015583
17 1 0.358128 0.458671 0.653959 0 0 -0.0033741
18 1 0.47237 0.282227 0.921709 0 0 -0.00419807
19 1 0.188932 0.490525 0.798235 0 0 0.000770569
20 1 0.923937 0.3754 0.898662 0 0 -0.00154877
21 1 0.641232 0.58369 0.776626 0 0 0.00110435
22 1 0.0747608 0.333684 0.530947 0 0 0.0015583
23 1 0.791332 0.542039 0.40789 0 0 -0.00120926
24 1 0.905552 0.365501 0.67502 0 0 -0.00324821
25 1 0.622153 0.573837 0.55194 0 0 0.00120544
26 1 0.0553572 0.323872 0.305871 0 0 0.00337982
27 1 0.772254 0.532187 0.183204 0 0 -0.00110435
28 1 0.507934 0.417042 0.28481 0 0 0.00324821
29 1 0.224554 0.625351 0.161595 0 0 -0.000759125
30 1 0.338725 0.448859 0.428884 0 0 -0.00156593
31 1 0.941114 0.833649 0.0381209 0 0 0.0042057
32 1 0.489548 0.740476 0.0611684 0 0 0.00154686
33 1 0.358128 0.792005 0.653959 0 0 -0.00337601
34 1 0.47237 0.615561 0.921709 0 0 -0.00419044
35 1 0.188932 0.823858 0.798235 0 0 0.000772476
36 1 0.923936 0.708734 0.898662 0 0 -0.00155449
37 1 0.641232 0.917023 0.776626 0 0 0.00111198
38 1 0.0747606 0.667017 0.530947 0 0 0.0015583
39 1 0.791332 0.875372 0.40789 0 0 -0.00120735
40 1 0.905551 0.698835 0.67502 0 0 -0.0032444
41 1 0.622153 0.907171 0.55194 0 0 0.00120354
42 1 0.0553571 0.657205 0.305871 0 0 0.0033741
43 1 0.772254 0.86552 0.183204 0 0 -0.00110817
44 1 0.507934 0.750375 0.28481 0 0 0.00324059
45 1 0.224554 0.958685 0.161595 0 0 -0.000770569
46 1 0.338725 0.782192 0.428884 0 0 -0.0015564
47 1 0.0747603 0.000350703 0.530947 0 0 0.00155449
48 1 0.0553573 0.990538 0.305871 0 0 0.00337219
ITEM: TIMESTEP
6
ITEM: NUMBER OF ATOMS
48
ITEM: BOX BOUNDS xy xz yz pp pp pp
-3.1364330053329468e+00 8.6067802309989929e+00 2.5094206929206848e+00
-9.4973444938659668e-03 9.3236122131347656e+00 -3.1243959069252014e+00
-2.8691649436950684e-02 1.9545819282531738e+01 7.1304261684417725e-02
ITEM: ATOMS id type xs ys zs fx fy fz
1 1 0.941169 0.166982 0.0382264 0 0 -0.000797272
2 1 0.489535 0.0738098 0.0611419 0 0 0.000188828
3 1 0.358095 0.125339 0.653894 0 0 -0.000883102
4 1 0.472316 0.948895 0.921604 0 0 0.000795364
5 1 0.188913 0.157192 0.798199 0 0 -0.000354767
6 1 0.92395 0.0420667 0.898688 0 0 -0.000192642
7 1 0.641231 0.250356 0.776626 0 0 -0.00105667
8 1 0.791332 0.208706 0.40789 0 0 0.000324249
9 1 0.905511 0.0321685 0.674942 0 0 -0.000333786
10 1 0.622154 0.240504 0.551941 0 0 -0.000331879
11 1 0.772254 0.198853 0.183205 0 0 0.00105476
12 1 0.507974 0.0837077 0.284889 0 0 0.000320435
13 1 0.224572 0.292018 0.161631 0 0 0.000360489
14 1 0.338731 0.115526 0.428895 0 0 -0.000562668
15 1 0.941169 0.500315 0.0382265 0 0 -0.000797272
16 1 0.489535 0.407143 0.0611418 0 0 0.000202179
17 1 0.358095 0.458672 0.653894 0 0 -0.000879288
18 1 0.472316 0.282228 0.921604 0 0 0.000797272
19 1 0.188913 0.490525 0.798199 0 0 -0.000356674
20 1 0.92395 0.3754 0.898688 0 0 -0.000202179
21 1 0.641231 0.58369 0.776625 0 0 -0.00106049
22 1 0.0747547 0.333684 0.530935 0 0 0.00056839
23 1 0.791332 0.542039 0.40789 0 0 0.000333786
24 1 0.905511 0.365502 0.674942 0 0 -0.000326157
25 1 0.622154 0.573837 0.55194 0 0 -0.000335693
26 1 0.0553908 0.323871 0.305936 0 0 0.000883102
27 1 0.772254 0.532187 0.183205 0 0 0.00105667
28 1 0.507974 0.417041 0.284889 0 0 0.000324249
29 1 0.224572 0.625351 0.161631 0 0 0.000350952
30 1 0.338731 0.448859 0.428895 0 0 -0.000556946
31 1 0.941169 0.833648 0.0382265 0 0 -0.000806808
32 1 0.489535 0.740476 0.0611419 0 0 0.000188828
33 1 0.358094 0.792005 0.653894 0 0 -0.000883102
34 1 0.472316 0.615561 0.921604 0 0 0.000799179
35 1 0.188913 0.823859 0.798199 0 0 -0.000343323
36 1 0.92395 0.708733 0.898688 0 0 -0.000183105
37 1 0.641231 0.917023 0.776625 0 0 -0.00105667
38 1 0.0747545 0.667017 0.530935 0 0 0.000558853
39 1 0.791332 0.875372 0.40789 0 0 0.000333786
40 1 0.905511 0.698835 0.674942 0 0 -0.000337601
41 1 0.622153 0.907171 0.55194 0 0 -0.000329971
42 1 0.0553906 0.657204 0.305936 0 0 0.000886917
43 1 0.772254 0.86552 0.183205 0 0 0.0010643
44 1 0.507974 0.750374 0.284889 0 0 0.000326157
45 1 0.224572 0.958684 0.161631 0 0 0.000362396
46 1 0.338731 0.782192 0.428895 0 0 -0.000564575
47 1 0.0747542 0.000350795 0.530935 0 0 0.00056839
48 1 0.0553909 0.990538 0.305936 0 0 0.000883102
ITEM: TIMESTEP
7
ITEM: NUMBER OF ATOMS
48
ITEM: BOX BOUNDS xy xz yz pp pp pp
-3.1364330053329468e+00 8.6067802309989929e+00 2.5094206929206848e+00
-9.4973444938659668e-03 9.3236122131347656e+00 -3.1243959069252014e+00
-2.8691649436950684e-02 1.9545819282531738e+01 7.1304261684417725e-02
ITEM: ATOMS id type xs ys zs fx fy fz
1 1 0.941164 0.166982 0.0382167 0 0 0.000177383
2 1 0.489536 0.0738098 0.061144 0 0 0.00094223
3 1 0.35808 0.125339 0.653866 0 0 0.000106812
4 1 0.472321 0.948895 0.921613 0 0 -0.000173569
5 1 0.188907 0.157192 0.798186 0 0 -0.000120163
6 1 0.923949 0.0420667 0.898686 0 0 -0.000938416
7 1 0.641218 0.250357 0.776599 0 0 -0.000213623
8 1 0.791336 0.208706 0.407898 0 0 0.000492096
9 1 0.905503 0.0321686 0.674926 0 0 7.62939e-06
10 1 0.622149 0.240504 0.551932 0 0 -0.000490189
11 1 0.772268 0.198853 0.183231 0 0 0.000209808
12 1 0.507982 0.0837075 0.284904 0 0 1.90735e-06
13 1 0.224579 0.292018 0.161644 0 0 0.000116348
14 1 0.338724 0.115526 0.428882 0 0 0.000640869
15 1 0.941164 0.500315 0.0382167 0 0 0.000171661
16 1 0.489536 0.407143 0.0611443 0 0 0.000930786
17 1 0.35808 0.458672 0.653866 0 0 0.000101089
18 1 0.472321 0.282228 0.921613 0 0 -0.000167847
19 1 0.188907 0.490526 0.798186 0 0 -0.000114441
20 1 0.923949 0.3754 0.898686 0 0 -0.000934601
21 1 0.641217 0.58369 0.776599 0 0 -0.000200272
22 1 0.0747615 0.333684 0.530948 0 0 -0.000646591
23 1 0.791336 0.542039 0.407898 0 0 0.000490189
24 1 0.905503 0.365502 0.674926 0 0 1.90735e-06
25 1 0.622149 0.573837 0.551932 0 0 -0.000484467
26 1 0.0554056 0.323871 0.305965 0 0 -0.000110626
27 1 0.772268 0.532186 0.183232 0 0 0.000204086
28 1 0.507982 0.417041 0.284905 0 0 -3.8147e-06
29 1 0.224579 0.625351 0.161644 0 0 0.00012207
30 1 0.338724 0.448859 0.428883 0 0 0.000644684
31 1 0.941164 0.833649 0.0382165 0 0 0.000192642
32 1 0.489536 0.740476 0.0611441 0 0 0.00094223
33 1 0.35808 0.792005 0.653865 0 0 0.000108719
34 1 0.472321 0.615561 0.921614 0 0 -0.000183105
35 1 0.188907 0.823859 0.798186 0 0 -0.000120163
36 1 0.923949 0.708733 0.898686 0 0 -0.000951767
37 1 0.641218 0.917023 0.776599 0 0 -0.000204086
38 1 0.0747611 0.667017 0.530948 0 0 -0.000640869
39 1 0.791336 0.875372 0.407898 0 0 0.000490189
40 1 0.905503 0.698835 0.674925 0 0 5.72205e-06
41 1 0.622149 0.907171 0.551932 0 0 -0.000492096
42 1 0.0554054 0.657204 0.305965 0 0 -0.000106812
43 1 0.772268 0.86552 0.183232 0 0 0.00019455
44 1 0.507982 0.750374 0.284904 0 0 3.8147e-06
45 1 0.224579 0.958684 0.161644 0 0 0.000110626
46 1 0.338724 0.782192 0.428882 0 0 0.000646591
47 1 0.074761 0.000350694 0.530948 0 0 -0.000654221
48 1 0.0554056 0.990537 0.305965 0 0 -0.000104904
ITEM: TIMESTEP
8
ITEM: NUMBER OF ATOMS
48
ITEM: BOX BOUNDS xy xz yz pp pp pp
-3.1364330053329468e+00 8.6067802309989929e+00 2.5094206929206848e+00
-9.4973444938659668e-03 9.3236122131347656e+00 -3.1243959069252014e+00
-2.8691649436950684e-02 1.9545819282531738e+01 7.1304261684417725e-02
ITEM: ATOMS id type xs ys zs fx fy fz
1 1 0.941163 0.166982 0.0382162 0 0 -0.000171661
2 1 0.489548 0.0738096 0.061167 0 0 9.15527e-05
3 1 0.358074 0.125339 0.653855 0 0 5.72205e-06
4 1 0.472322 0.948895 0.921614 0 0 0.000175476
5 1 0.188902 0.157192 0.798178 0 0 -0.0001297
6 1 0.923937 0.0420669 0.898663 0 0 -8.7738e-05
7 1 0.641209 0.250357 0.776581 0 0 7.24792e-05
8 1 0.791344 0.208705 0.407913 0 0 -0.00030899
9 1 0.905499 0.0321687 0.674918 0 0 -0.000200272
10 1 0.622142 0.240504 0.551917 0 0 0.000314713
11 1 0.772277 0.198853 0.183249 0 0 -6.67572e-05
12 1 0.507986 0.0837075 0.284912 0 0 0.000207901
13 1 0.224583 0.292018 0.161653 0 0 0.00012207
14 1 0.338729 0.115526 0.428891 0 0 0.000181198
15 1 0.941163 0.500315 0.0382161 0 0 -0.000167847
16 1 0.489548 0.407143 0.0611672 0 0 9.15527e-05
17 1 0.358074 0.458672 0.653855 0 0 1.33514e-05
18 1 0.472322 0.282228 0.921614 0 0 0.000164032
19 1 0.188902 0.490526 0.798178 0 0 -0.000137329
20 1 0.923937 0.3754 0.898663 0 0 -8.7738e-05
21 1 0.641209 0.58369 0.776581 0 0 6.48499e-05
22 1 0.0747569 0.333684 0.530939 0 0 -0.000181198
23 1 0.791344 0.542039 0.407913 0 0 -0.000322342
24 1 0.905499 0.365502 0.674918 0 0 -0.000204086
25 1 0.622141 0.573837 0.551917 0 0 0.000320435
26 1 0.0554111 0.323871 0.305976 0 0 -3.8147e-06
27 1 0.772277 0.532186 0.183249 0 0 -7.05719e-05
28 1 0.507986 0.417041 0.284912 0 0 0.000202179
29 1 0.224583 0.625351 0.161652 0 0 0.000139236
30 1 0.338729 0.448859 0.428892 0 0 0.000165939
31 1 0.941164 0.833649 0.0382163 0 0 -0.000181198
32 1 0.489548 0.740476 0.0611671 0 0 8.58307e-05
33 1 0.358074 0.792005 0.653855 0 0 1.33514e-05
34 1 0.472321 0.615561 0.921614 0 0 0.000179291
35 1 0.188902 0.823859 0.798178 0 0 -0.000143051
36 1 0.923937 0.708734 0.898663 0 0 -8.96454e-05
37 1 0.641209 0.917023 0.776581 0 0 6.86646e-05
38 1 0.0747566 0.667017 0.530939 0 0 -0.000183105
39 1 0.791344 0.875372 0.407913 0 0 -0.000314713
40 1 0.905499 0.698835 0.674918 0 0 -0.000188828
41 1 0.622141 0.907171 0.551917 0 0 0.000314713
42 1 0.0554111 0.657204 0.305976 0 0 -1.33514e-05
43 1 0.772277 0.86552 0.183249 0 0 -6.86646e-05
44 1 0.507986 0.750374 0.284912 0 0 0.000196457
45 1 0.224583 0.958684 0.161652 0 0 0.000135422
46 1 0.338729 0.782192 0.428891 0 0 0.000183105
47 1 0.0747563 0.000350764 0.530939 0 0 -0.000173569
48 1 0.0554112 0.990537 0.305976 0 0 -1.33514e-05
ITEM: TIMESTEP
9
ITEM: NUMBER OF ATOMS
48
ITEM: BOX BOUNDS xy xz yz pp pp pp
-3.1364330053329468e+00 8.6067802309989929e+00 2.5094206929206848e+00
-9.4973444938659668e-03 9.3236122131347656e+00 -3.1243959069252014e+00
-2.8691649436950684e-02 1.9545819282531738e+01 7.1304261684417725e-02
ITEM: ATOMS id type xs ys zs fx fy fz
1 1 0.941161 0.166982 0.0382121 0 0 -9.53674e-06
2 1 0.48955 0.0738095 0.0611723 0 0 -3.8147e-06
3 1 0.358074 0.125339 0.653853 0 0 -1.71661e-05
4 1 0.472324 0.948895 0.921618 0 0 1.90735e-06
5 1 0.1889 0.157192 0.798174 0 0 -7.62939e-06
6 1 0.923934 0.042067 0.898658 0 0 7.62939e-06
7 1 0.641208 0.250357 0.776581 0 0 -2.47955e-05
8 1 0.791341 0.208705 0.407908 0 0 7.62939e-06
9 1 0.905496 0.0321687 0.674913 0 0 3.24249e-05
10 1 0.622144 0.240504 0.551922 0 0 -1.14441e-05
11 1 0.772277 0.198853 0.18325 0 0 1.71661e-05
12 1 0.507989 0.0837074 0.284918 0 0 -3.43323e-05
13 1 0.224585 0.292018 0.161657 0 0 1.33514e-05
14 1 0.338732 0.115526 0.428897 0 0 1.33514e-05
15 1 0.941161 0.500315 0.0382121 0 0 -9.53674e-06
16 1 0.489551 0.407143 0.0611725 0 0 -1.71661e-05
17 1 0.358074 0.458672 0.653853 0 0 -2.09808e-05
18 1 0.472324 0.282228 0.921618 0 0 1.14441e-05
19 1 0.1889 0.490526 0.798173 0 0 3.8147e-06
20 1 0.923934 0.3754 0.898658 0 0 7.62939e-06
21 1 0.641208 0.58369 0.776581 0 0 -1.33514e-05
22 1 0.074754 0.333684 0.530933 0 0 -1.71661e-05
23 1 0.791341 0.542039 0.407908 0 0 1.71661e-05
24 1 0.905496 0.365502 0.674913 0 0 4.00543e-05
25 1 0.622144 0.573837 0.551922 0 0 -1.52588e-05
26 1 0.0554118 0.323871 0.305977 0 0 1.90735e-05
27 1 0.772277 0.532186 0.183249 0 0 2.47955e-05
28 1 0.507989 0.417041 0.284918 0 0 -3.8147e-05
29 1 0.224585 0.625351 0.161657 0 0 -3.8147e-06
30 1 0.338731 0.448859 0.428897 0 0 1.90735e-05
31 1 0.941161 0.833649 0.0382119 0 0 3.8147e-06
32 1 0.48955 0.740476 0.0611722 0 0 0
33 1 0.358073 0.792005 0.653853 0 0 -2.47955e-05
34 1 0.472324 0.615561 0.921618 0 0 -7.62939e-06
35 1 0.1889 0.823859 0.798173 0 0 0
36 1 0.923934 0.708734 0.898658 0 0 1.90735e-06
37 1 0.641208 0.917023 0.776581 0 0 -2.47955e-05
38 1 0.0747537 0.667017 0.530933 0 0 -5.72205e-06
39 1 0.791341 0.875372 0.407908 0 0 7.62939e-06
40 1 0.905496 0.698835 0.674913 0 0 3.05176e-05
41 1 0.622144 0.907171 0.551922 0 0 -9.53674e-06
42 1 0.0554117 0.657204 0.305977 0 0 2.47955e-05
43 1 0.772277 0.86552 0.183249 0 0 2.09808e-05
44 1 0.507989 0.750374 0.284918 0 0 -2.86102e-05
45 1 0.224585 0.958684 0.161657 0 0 -3.8147e-06
46 1 0.338732 0.782192 0.428897 0 0 1.33514e-05
47 1 0.0747535 0.000350805 0.530933 0 0 -1.52588e-05
48 1 0.0554118 0.990537 0.305977 0 0 2.47955e-05
ITEM: TIMESTEP
10
ITEM: NUMBER OF ATOMS
48
ITEM: BOX BOUNDS xy xz yz pp pp pp
-3.1364330053329468e+00 8.6067802309989929e+00 2.5094206929206848e+00
-9.4973444938659668e-03 9.3236122131347656e+00 -3.1243959069252014e+00
-2.8691649436950684e-02 1.9545819282531738e+01 7.1304261684417725e-02
ITEM: ATOMS id type xs ys zs fx fy fz
1 1 0.941161 0.166982 0.0382118 0 0 1.90735e-05
2 1 0.489551 0.0738095 0.0611725 0 0 3.8147e-06
3 1 0.358073 0.125339 0.653853 0 0 -1.90735e-05
4 1 0.472324 0.948895 0.921618 0 0 -1.71661e-05
5 1 0.1889 0.157192 0.798173 0 0 1.33514e-05
6 1 0.923934 0.042067 0.898658 0 0 -9.53674e-06
7 1 0.641208 0.250357 0.77658 0 0 0
8 1 0.791341 0.208705 0.407908 0 0 3.8147e-06
9 1 0.905497 0.0321687 0.674913 0 0 1.90735e-06
10 1 0.622144 0.240504 0.551922 0 0 -5.72205e-06
11 1 0.772277 0.198853 0.18325 0 0 7.62939e-06
12 1 0.507989 0.0837074 0.284917 0 0 -3.8147e-06
13 1 0.224586 0.292018 0.161657 0 0 -1.71661e-05
14 1 0.338732 0.115526 0.428897 0 0 -7.62939e-06
15 1 0.941161 0.500315 0.0382117 0 0 1.52588e-05
16 1 0.489551 0.407143 0.0611724 0 0 7.62939e-06
17 1 0.358073 0.458672 0.653853 0 0 -1.71661e-05
18 1 0.472324 0.282228 0.921619 0 0 -1.90735e-05
19 1 0.1889 0.490526 0.798173 0 0 5.72205e-06
20 1 0.923934 0.3754 0.898658 0 0 -5.72205e-06
21 1 0.641208 0.58369 0.77658 0 0 -1.14441e-05
22 1 0.0747538 0.333684 0.530933 0 0 1.33514e-05
23 1 0.791341 0.542039 0.407908 0 0 7.62939e-06
24 1 0.905497 0.365502 0.674913 0 0 0
25 1 0.622144 0.573837 0.551922 0 0 -3.8147e-06
26 1 0.055412 0.323871 0.305977 0 0 1.33514e-05
27 1 0.772277 0.532186 0.18325 0 0 1.90735e-06
28 1 0.507989 0.417041 0.284917 0 0 0
29 1 0.224585 0.625351 0.161657 0 0 -1.33514e-05
30 1 0.338732 0.448859 0.428897 0 0 -3.8147e-06
31 1 0.941161 0.833649 0.0382118 0 0 9.53674e-06
32 1 0.489551 0.740476 0.0611724 0 0 3.8147e-06
33 1 0.358073 0.792005 0.653853 0 0 -1.52588e-05
34 1 0.472324 0.615561 0.921618 0 0 -1.33514e-05
35 1 0.1889 0.823859 0.798173 0 0 1.52588e-05
36 1 0.923934 0.708734 0.898658 0 0 1.90735e-06
37 1 0.641208 0.917023 0.77658 0 0 1.90735e-06
38 1 0.0747535 0.667017 0.530933 0 0 5.72205e-06
39 1 0.791341 0.875372 0.407908 0 0 5.72205e-06
40 1 0.905496 0.698835 0.674913 0 0 7.62939e-06
41 1 0.622144 0.907171 0.551922 0 0 3.8147e-06
42 1 0.0554119 0.657204 0.305977 0 0 1.52588e-05
43 1 0.772277 0.86552 0.18325 0 0 7.62939e-06
44 1 0.507989 0.750374 0.284917 0 0 -1.14441e-05
45 1 0.224586 0.958684 0.161657 0 0 -7.62939e-06
46 1 0.338732 0.782192 0.428897 0 0 -7.62939e-06
47 1 0.0747533 0.000350809 0.530933 0 0 5.72205e-06
48 1 0.0554121 0.990537 0.305977 0 0 1.14441e-05
ITEM: TIMESTEP
11
ITEM: NUMBER OF ATOMS
48
ITEM: BOX BOUNDS xy xz yz pp pp pp
-3.1364330053329468e+00 8.6067802309989929e+00 2.5094206929206848e+00
-9.4973444938659668e-03 9.3236122131347656e+00 -3.1243959069252014e+00
-2.8691649436950684e-02 1.9545819282531738e+01 7.1304261684417725e-02
ITEM: ATOMS id type xs ys zs fx fy fz
1 1 0.941161 0.166982 0.0382118 0 0 1.90735e-05
2 1 0.489551 0.0738095 0.0611725 0 0 3.8147e-06
3 1 0.358073 0.125339 0.653853 0 0 -1.90735e-05
4 1 0.472324 0.948895 0.921618 0 0 -1.71661e-05
5 1 0.1889 0.157192 0.798173 0 0 1.33514e-05
6 1 0.923934 0.042067 0.898658 0 0 -9.53674e-06
7 1 0.641208 0.250357 0.77658 0 0 0
8 1 0.791341 0.208705 0.407908 0 0 3.8147e-06
9 1 0.905497 0.0321687 0.674913 0 0 1.90735e-06
10 1 0.622144 0.240504 0.551922 0 0 -5.72205e-06
11 1 0.772277 0.198853 0.18325 0 0 7.62939e-06
12 1 0.507989 0.0837074 0.284917 0 0 -3.8147e-06
13 1 0.224586 0.292018 0.161657 0 0 -1.71661e-05
14 1 0.338732 0.115526 0.428897 0 0 -7.62939e-06
15 1 0.941161 0.500315 0.0382117 0 0 1.52588e-05
16 1 0.489551 0.407143 0.0611724 0 0 7.62939e-06
17 1 0.358073 0.458672 0.653853 0 0 -1.71661e-05
18 1 0.472324 0.282228 0.921619 0 0 -1.90735e-05
19 1 0.1889 0.490526 0.798173 0 0 5.72205e-06
20 1 0.923934 0.3754 0.898658 0 0 -5.72205e-06
21 1 0.641208 0.58369 0.77658 0 0 -1.14441e-05