ITEM: TIMESTEP
0
ITEM: NUMBER OF ATOMS
32
ITEM: BOX BOUNDS xy xz yz pp pp pp
-4.0532350540161133e-03 6.4008854031562805e+00 0.0000000000000000e+00
-9.1640949249267578e-03 5.5295952558517456e+00 0.0000000000000000e+00
-4.7960281372070312e-02 2.0773346722126007e+01 0.0000000000000000e+00
ITEM: ATOMS id type xs ys zs fx fy fz
1 1 0.999986 0.666159 0.0597509 0 0 2.86102e-05
2 1 0.499986 0.666159 0.0597509 0 0 2.86102e-05
3 1 0.249986 0.166159 0.0597519 0 0 -2.28882e-05
4 1 0.749986 0.166159 0.0597519 0 0 -2.28882e-05
5 1 0.999986 0.666172 0.309753 0 0 -3.8147e-06
6 1 0.249986 0.500515 0.184753 0 0 -6.29425e-05
7 1 0.749986 0.500515 0.184753 0 0 -6.29425e-05
8 1 0.499986 0.666172 0.309753 0 0 -3.8147e-06
9 1 0.999986 0.000512794 0.184753 0 0 -4.00543e-05
10 1 0.249986 0.166172 0.309753 0 0 -5.14984e-05
11 1 0.499986 0.000512794 0.184753 0 0 -4.00543e-05
12 1 0.749986 0.166172 0.309753 0 0 -5.14984e-05
13 1 0.999986 0.666159 0.559749 0 0 4.76837e-05
14 1 0.499986 0.666159 0.559749 0 0 4.76837e-05
15 1 0.249986 0.166157 0.55975 0 0 3.62396e-05
16 1 0.749986 0.166157 0.55975 0 0 3.62396e-05
17 1 0.249986 0.500515 0.434752 0 0 -4.76837e-05
18 1 0.749986 0.500515 0.434752 0 0 -4.76837e-05
19 1 0.999986 0.00051419 0.434752 0 0 -2.47955e-05
20 1 0.499986 0.00051419 0.434752 0 0 -2.47955e-05
21 1 0.999986 0.66615 0.809748 0 0 4.95911e-05
22 1 0.249986 0.500496 0.684748 0 0 2.09808e-05
23 1 0.499986 0.66615 0.809748 0 0 4.95911e-05
24 1 0.749986 0.500496 0.684748 0 0 2.09808e-05
25 1 0.999986 0.00049594 0.684749 0 0 0
26 1 0.249986 0.16615 0.809748 0 0 6.29425e-05
27 1 0.749986 0.16615 0.809748 0 0 6.29425e-05
28 1 0.499986 0.000495939 0.684749 0 0 0
29 1 0.249986 0.500501 0.934749 0 0 2.28882e-05
30 1 0.749986 0.500501 0.934749 0 0 2.28882e-05
31 1 0.999986 0.000501896 0.93475 0 0 -1.52588e-05
32 1 0.499986 0.000501897 0.93475 0 0 -1.52588e-05
ITEM: TIMESTEP
1
ITEM: NUMBER OF ATOMS
32
ITEM: BOX BOUNDS xy xz yz pp pp pp
-4.0532350540161133e-03 6.4008854031562805e+00 0.0000000000000000e+00
-9.1640949249267578e-03 5.5295952558517456e+00 0.0000000000000000e+00
-4.7960281372070312e-02 2.0773346722126007e+01 0.0000000000000000e+00
ITEM: ATOMS id type xs ys zs fx fy fz
1 1 0.999986 0.666159 0.0597509 0 0 2.86102e-05
2 1 0.499986 0.666159 0.0597509 0 0 2.86102e-05
3 1 0.249986 0.166159 0.0597519 0 0 -2.28882e-05
4 1 0.749986 0.166159 0.0597519 0 0 -2.28882e-05
5 1 0.999986 0.666172 0.309753 0 0 -3.8147e-06
6 1 0.249986 0.500515 0.184753 0 0 -6.29425e-05
7 1 0.749986 0.500515 0.184753 0 0 -6.29425e-05
8 1 0.499986 0.666172 0.309753 0 0 -3.8147e-06
9 1 0.999986 0.000512794 0.184753 0 0 -4.00543e-05
10 1 0.249986 0.166172 0.309753 0 0 -5.14984e-05
11 1 0.499986 0.000512794 0.184753 0 0 -4.00543e-05
12 1 0.749986 0.166172 0.309753 0 0 -5.14984e-05
13 1 0.999986 0.666159 0.559749 0 0 4.76837e-05
14 1 0.499986 0.666159 0.559749 0 0 4.76837e-05
15 1 0.249986 0.166157 0.55975 0 0 3.62396e-05
16 1 0.749986 0.166157 0.55975 0 0 3.62396e-05
17 1 0.249986 0.500515 0.434752 0 0 -4.76837e-05
18 1 0.749986 0.500515 0.434752 0 0 -4.76837e-05
19 1 0.999986 0.00051419 0.434752 0 0 -2.47955e-05
20 1 0.499986 0.00051419 0.434752 0 0 -2.47955e-05
21 1 0.999986 0.66615 0.809748 0 0 4.95911e-05
22 1 0.249986 0.500496 0.684748 0 0 2.09808e-05
23 1 0.499986 0.66615 0.809748 0 0 4.95911e-05
24 1 0.749986 0.500496 0.684748 0 0 2.09808e-05
25 1 0.999986 0.00049594 0.684749 0 0 0
26 1 0.249986 0.16615 0.809748 0 0 6.29425e-05
27 1 0.749986 0.16615 0.809748 0 0 6.29425e-05
28 1 0.499986 0.000495939 0.684749 0 0 0
29 1 0.249986 0.500501 0.934749 0 0 2.28882e-05
30 1 0.749986 0.500501 0.934749 0 0 2.28882e-05
31 1 0.999986 0.000501896 0.93475 0 0 -1.52588e-05
32 1 0.499986 0.000501897 0.93475 0 0 -1.52588e-05
