ITEM: TIMESTEP
0
ITEM: NUMBER OF ATOMS
32
ITEM: BOX BOUNDS xy xz yz pp pp pp
2.3402176666958421e-03 8.3098714170332943e+00 1.9176626346999910e+00
-1.8700970345103249e-02 2.2101578970345098e+01 0.0000000000000000e+00
8.6472273715375633e-03 5.1738187726284668e+00 0.0000000000000000e+00
ITEM: ATOMS id type xs ys zs fx fy fz
1 1 0.918218 0.336531 0.593597 0 0.00266711 -9.15516e-06
2 1 0.418217 0.336531 0.593597 0 0.00266885 -9.07518e-06
3 1 0.180667 0.295047 0.0935968 0 -0.00199496 7.56576e-06
4 1 0.680667 0.295047 0.0935968 0 -0.00199135 8.49228e-06
5 1 0.130703 0.461534 0.593597 0 0.00205027 -9.76936e-06
6 1 0.630703 0.461534 0.593597 0 0.00204519 -9.16187e-06
7 1 0.893154 0.420048 0.0935968 0 -0.00209793 9.23139e-06
8 1 0.393153 0.420048 0.0935968 0 -0.00210039 9.1333e-06
9 1 0.843191 0.586531 0.593597 0 0.00202712 -7.79127e-06
10 1 0.34319 0.586531 0.593597 0 0.00202714 -8.58758e-06
11 1 0.0556772 0.711528 0.593597 0 0.00202109 -6.21153e-06
12 1 0.555677 0.711528 0.593597 0 0.00201616 -6.29865e-06
13 1 0.818127 0.670045 0.0935969 0 -0.00255221 6.14742e-06
14 1 0.10564 0.545047 0.0935968 0 -0.0022175 8.89896e-06
15 1 0.60564 0.545047 0.0935968 0 -0.00221231 9.58836e-06
16 1 0.318126 0.670045 0.0935969 0 -0.00255231 6.66168e-06
17 1 0.768164 0.836529 0.593597 0 0.00929775 -3.9411e-06
18 1 0.268163 0.836529 0.593597 0 0.00929802 -3.77794e-06
19 1 0.98065 0.961528 0.593597 0 -0.363438 -2.34322e-06
20 1 0.48065 0.961528 0.593597 0 -0.36345 -2.76558e-06
21 1 0.0306121 0.795048 0.0935969 0 0.00486434 4.54038e-06
22 1 0.530612 0.795048 0.0935969 0 0.00486773 4.87702e-06
23 1 0.7431 0.920043 0.0935969 0 -0.664084 4.3105e-06
24 1 0.2431 0.920043 0.0935969 0 -0.664079 3.366e-06
25 1 0.993247 0.0865253 0.593597 0 0.664367 -1.9033e-06
26 1 0.493247 0.0865253 0.593597 0 0.664373 -4.21642e-07
27 1 0.255697 0.0450412 0.093597 0 0.363464 7.00121e-07
28 1 0.755697 0.0450411 0.0935969 0 0.363473 9.06335e-07
29 1 0.205732 0.211528 0.593597 0 -0.00502761 -4.24776e-06
30 1 0.705732 0.211528 0.593597 0 -0.00503094 -5.10209e-06
31 1 0.968183 0.170044 0.0935969 0 -0.00934855 3.48227e-06
32 1 0.468182 0.170044 0.093597 0 -0.00934999 2.80012e-06
ITEM: TIMESTEP
11
ITEM: NUMBER OF ATOMS
32
ITEM: BOX BOUNDS xy xz yz pp pp pp
2.3402176666958421e-03 8.3098714170332943e+00 1.9176626346999910e+00
-1.8700970345103249e-02 2.2101578970345098e+01 0.0000000000000000e+00
8.6472273715375633e-03 5.1738187726284668e+00 0.0000000000000000e+00
ITEM: ATOMS id type xs ys zs fx fy fz
1 1 0.917514 0.338878 0.593597 0 2.78907e-05 1.02769e-06
2 1 0.417513 0.338878 0.593597 0 2.80856e-05 1.15049e-06
3 1 0.179821 0.297868 0.0935971 0 1.21575e-05 -1.43919e-06
4 1 0.679821 0.297869 0.0935971 0 1.13268e-05 -1.51483e-06
5 1 0.130598 0.461884 0.593597 0 0.000127547 -2.64951e-07
6 1 0.630598 0.461884 0.593597 0 0.000128123 1.04558e-06
7 1 0.892728 0.421467 0.0935971 0 6.75213e-05 -5.51054e-07
8 1 0.392727 0.421467 0.0935971 0 6.90917e-05 -7.53726e-07
9 1 0.843618 0.585107 0.593597 0 -6.95184e-05 -1.17258e-06
10 1 0.343617 0.585107 0.593597 0 -6.98586e-05 -5.23576e-07
11 1 0.0565242 0.708706 0.593597 0 -8.28013e-06 -1.14685e-07
12 1 0.556524 0.708706 0.593597 0 -8.37451e-06 4.30373e-09
13 1 0.818832 0.667696 0.093597 0 -2.68195e-05 5.65099e-07
14 1 0.105747 0.544691 0.093597 0 -0.000129105 5.98595e-07
15 1 0.605747 0.544691 0.0935971 0 -0.00012689 7.90522e-07
16 1 0.318831 0.667696 0.0935971 0 -2.61742e-05 -2.46726e-07
17 1 0.76911 0.833376 0.593597 0 -0.000124196 1.26568e-06
18 1 0.269109 0.833376 0.593597 0 -0.000126068 -3.04337e-07
19 1 0.980973 0.960451 0.593597 0 -5.6519e-05 3.99804e-07
20 1 0.480973 0.960451 0.593597 0 -6.08815e-05 5.50255e-07
21 1 0.0320358 0.790304 0.0935971 0 5.4641e-05 1.7716e-07
22 1 0.532036 0.790304 0.0935971 0 5.68479e-05 -2.79625e-07
23 1 0.745737 0.911257 0.0935971 0 -7.74669e-06 -1.29411e-06
24 1 0.245737 0.911257 0.0935971 0 -3.43358e-06 -1.82738e-07
25 1 0.990609 0.0953176 0.593597 0 1.15415e-05 7.07161e-07
26 1 0.490608 0.0953175 0.593597 0 1.51905e-05 5.0864e-07
27 1 0.255372 0.0461236 0.093597 0 5.60996e-05 8.48395e-08
28 1 0.755372 0.0461237 0.0935971 0 5.72734e-05 -3.32882e-07
29 1 0.204309 0.216271 0.593597 0 -6.22862e-05 9.11015e-07
30 1 0.704309 0.216271 0.593597 0 -6.17621e-05 1.39554e-06
31 1 0.967236 0.173199 0.0935971 0 0.000122038 -1.23407e-06
32 1 0.467235 0.173199 0.0935971 0 0.000122284 -8.5333e-07
