ITEM: TIMESTEP
0
ITEM: NUMBER OF ATOMS
48
ITEM: BOX BOUNDS xy xz yz pp pp pp
-4.1134155392646790e+00 8.5982638597488403e+00 2.5251476168632507e+00
-1.1132121086120605e-02 9.5149352550506592e+00 -4.1256217360496521e+00
-4.7147274017333984e-03 1.9521842360496521e+01 2.6099252700805664e-01
ITEM: ATOMS id type xs ys zs fx fy fz
1 1 0.942664 0.166857 0.0318549 0 0 1.57694
2 1 0.494436 0.0743484 0.0530456 0 0 -0.034832
3 1 0.495573 0.124689 0.656895 0 0 -1.90735e-05
4 1 0.664225 0.949019 0.927975 0 0 -1.57694
5 1 0.357615 0.157245 0.802828 0 0 0.00183678
6 1 0.112453 0.041528 0.906785 0 0 0.0348358
7 1 0.805725 0.249629 0.781799 0 0 -0.0148487
8 1 0.871217 0.208292 0.407038 0 0 -0.00124741
9 1 0.0476055 0.032398 0.677762 0 0 0.00545883
10 1 0.735672 0.240917 0.552793 0 0 0.00124931
11 1 0.801164 0.199581 0.178031 0 0 0.0148468
12 1 0.559283 0.0834783 0.282068 0 0 -0.00546265
13 1 0.249274 0.291965 0.157002 0 0 -0.00183105
14 1 0.423282 0.116061 0.427856 0 0 -0.00245285
15 1 0.942664 0.50019 0.0318549 0 0 1.57695
16 1 0.494436 0.407682 0.0530456 0 0 -0.0348339
17 1 0.495573 0.458022 0.656895 0 0 -1.71661e-05
18 1 0.664225 0.282353 0.927975 0 0 -1.57694
19 1 0.357615 0.490578 0.802828 0 0 0.00183105
20 1 0.112453 0.374861 0.906785 0 0 0.0348339
21 1 0.805725 0.582962 0.781799 0 0 -0.0148468
22 1 0.183607 0.333148 0.531974 0 0 0.00245476
23 1 0.871217 0.541626 0.407038 0 0 -0.00125122
24 1 0.0476055 0.365731 0.677762 0 0 0.00545883
25 1 0.735672 0.574251 0.552793 0 0 0.00124931
26 1 0.111316 0.324521 0.302936 0 0 1.71661e-05
27 1 0.801164 0.532914 0.178031 0 0 0.0148449
28 1 0.559283 0.416812 0.282068 0 0 -0.00545883
29 1 0.249274 0.625298 0.157002 0 0 -0.00183296
30 1 0.423282 0.449395 0.427856 0 0 -0.00244713
31 1 0.942664 0.833524 0.031855 0 0 1.57694
32 1 0.494436 0.741015 0.0530456 0 0 -0.034832
33 1 0.495573 0.791356 0.656895 0 0 -1.52588e-05
34 1 0.664225 0.615686 0.927975 0 0 -1.57694
35 1 0.357615 0.823911 0.802828 0 0 0.00183105
36 1 0.112453 0.708195 0.906785 0 0 0.0348358
37 1 0.805725 0.916296 0.781799 0 0 -0.0148487
38 1 0.183607 0.666482 0.531974 0 0 0.00244713
39 1 0.871217 0.874959 0.407038 0 0 -0.00125122
40 1 0.0476055 0.699065 0.677762 0 0 0.00545883
41 1 0.735672 0.907584 0.552793 0 0 0.00125122
42 1 0.111316 0.657854 0.302936 0 0 1.33514e-05
43 1 0.801164 0.866247 0.178031 0 0 0.0148525
44 1 0.559283 0.750145 0.282068 0 0 -0.00545883
45 1 0.249274 0.958632 0.157002 0 0 -0.00183868
46 1 0.423282 0.782728 0.427856 0 0 -0.00245476
47 1 0.183607 0.999815 0.531974 0 0 0.00245094
48 1 0.111316 0.991187 0.302936 0 0 1.71661e-05
ITEM: TIMESTEP
1
ITEM: NUMBER OF ATOMS
48
ITEM: BOX BOUNDS xy xz yz pp pp pp
-4.1134155392646790e+00 8.5982638597488403e+00 2.5251476168632507e+00
-1.1132121086120605e-02 9.5149352550506592e+00 -4.1256217360496521e+00
-4.7147274017333984e-03 1.9521842360496521e+01 2.6099252700805664e-01
ITEM: ATOMS id type xs ys zs fx fy fz
1 1 0.94621 0.166713 0.0369762 0 0 0.701174
2 1 0.494357 0.0743516 0.0529325 0 0 -0.107601
3 1 0.495573 0.124689 0.656895 0 0 -0.00395966
4 1 0.660679 0.949164 0.922854 0 0 -0.701181
5 1 0.357619 0.157244 0.802834 0 0 -0.0822296
6 1 0.112531 0.0415248 0.906898 0 0 0.107603
7 1 0.805691 0.249631 0.781751 0 0 -0.0698986
8 1 0.871214 0.208292 0.407033 0 0 -0.00063324
9 1 0.0476178 0.0323975 0.67778 0 0 0.00433922
10 1 0.735675 0.240917 0.552797 0 0 0.000635147
11 1 0.801197 0.199579 0.178079 0 0 0.0699043
12 1 0.559271 0.0834788 0.28205 0 0 -0.00434494
13 1 0.24927 0.291965 0.156997 0 0 0.0822258
14 1 0.423276 0.116062 0.427848 0 0 -0.00144196
15 1 0.94621 0.500046 0.0369762 0 0 0.701172
16 1 0.494357 0.407685 0.0529325 0 0 -0.107607
17 1 0.495573 0.458022 0.656895 0 0 -0.00395775
18 1 0.660679 0.282497 0.922854 0 0 -0.70118
19 1 0.357619 0.490578 0.802834 0 0 -0.082222
20 1 0.112531 0.374858 0.906898 0 0 0.107603
21 1 0.805691 0.582964 0.781751 0 0 -0.0698967
22 1 0.183613 0.333148 0.531982 0 0 0.00144196
23 1 0.871214 0.541626 0.407033 0 0 -0.000635147
24 1 0.0476178 0.365731 0.67778 0 0 0.00434303
25 1 0.735675 0.574251 0.552797 0 0 0.000635147
26 1 0.111316 0.324521 0.302936 0 0 0.00395393
27 1 0.801197 0.532912 0.178079 0 0 0.0699043
28 1 0.559271 0.416812 0.28205 0 0 -0.00434494
29 1 0.24927 0.625299 0.156997 0 0 0.0822334
30 1 0.423276 0.449395 0.427849 0 0 -0.00144196
31 1 0.94621 0.83338 0.0369762 0 0 0.701174
32 1 0.494357 0.741018 0.0529325 0 0 -0.107603
33 1 0.495573 0.791356 0.656895 0 0 -0.00395584
34 1 0.660679 0.61583 0.922854 0 0 -0.70118
35 1 0.357619 0.823911 0.802834 0 0 -0.0822258
36 1 0.112531 0.708191 0.906898 0 0 0.107603
37 1 0.805691 0.916297 0.781751 0 0 -0.0698986
38 1 0.183613 0.666481 0.531982 0 0 0.00144196
39 1 0.871214 0.874959 0.407034 0 0 -0.000635147
40 1 0.0476178 0.699064 0.67778 0 0 0.00434685
41 1 0.735675 0.907584 0.552797 0 0 0.000635147
42 1 0.111316 0.657854 0.302936 0 0 0.00395393
43 1 0.801198 0.866246 0.178079 0 0 0.0699024
44 1 0.559271 0.750145 0.28205 0 0 -0.00434303
45 1 0.24927 0.958632 0.156996 0 0 0.0822334
46 1 0.423276 0.782728 0.427848 0 0 -0.00144196
47 1 0.183613 0.999815 0.531982 0 0 0.00144386
48 1 0.111316 0.991187 0.302936 0 0 0.00395584
ITEM: TIMESTEP
2
ITEM: NUMBER OF ATOMS
48
ITEM: BOX BOUNDS xy xz yz pp pp pp
-4.1134155392646790e+00 8.5982638597488403e+00 2.5251476168632507e+00
-1.1132121086120605e-02 9.5149352550506592e+00 -4.1256217360496521e+00
-4.7147274017333984e-03 1.9521842360496521e+01 2.6099252700805664e-01
ITEM: ATOMS id type xs ys zs fx fy fz
1 1 0.949756 0.166569 0.0420973 0 0 0.026329
2 1 0.493813 0.0743737 0.0521466 0 0 -0.12418
3 1 0.495553 0.12469 0.656866 0 0 -0.0215912
4 1 0.657132 0.949308 0.917733 0 0 -0.0263271
5 1 0.357203 0.157261 0.802233 0 0 -0.140678
6 1 0.113076 0.0415027 0.907684 0 0 0.12418
7 1 0.805338 0.249645 0.78124 0 0 -0.107782
8 1 0.871211 0.208293 0.407029 0 0 -4.19617e-05
9 1 0.0476398 0.0323966 0.677812 0 0 -0.0134583
10 1 0.735678 0.240917 0.552801 0 0 4.19617e-05
11 1 0.801551 0.199565 0.17859 0 0 0.107782
12 1 0.559249 0.0834797 0.282018 0 0 0.0134583
13 1 0.249686 0.291948 0.157597 0 0 0.140676
14 1 0.423269 0.116062 0.427838 0 0 0.000640869
15 1 0.949756 0.499902 0.0420973 0 0 0.0263271
16 1 0.493813 0.407707 0.0521466 0 0 -0.12418
17 1 0.495553 0.458023 0.656866 0 0 -0.0215931
18 1 0.657133 0.282641 0.917733 0 0 -0.026329
19 1 0.357203 0.490595 0.802233 0 0 -0.140682
20 1 0.113075 0.374836 0.907684 0 0 0.124182
21 1 0.805338 0.582978 0.78124 0 0 -0.107784
22 1 0.18362 0.333148 0.531992 0 0 -0.000640869
23 1 0.871211 0.541626 0.407029 0 0 -4.3869e-05
24 1 0.0476397 0.36573 0.677812 0 0 -0.0134602
25 1 0.735678 0.57425 0.552801 0 0 5.14984e-05
26 1 0.111336 0.32452 0.302964 0 0 0.0215969
27 1 0.801551 0.532898 0.17859 0 0 0.10778
28 1 0.559249 0.416813 0.282018 0 0 0.0134583
29 1 0.249686 0.625282 0.157597 0 0 0.140675
30 1 0.423269 0.449395 0.427838 0 0 0.000635147
31 1 0.949756 0.833235 0.0420973 0 0 0.0263214
32 1 0.493813 0.74104 0.0521466 0 0 -0.124182
33 1 0.495553 0.791356 0.656866 0 0 -0.0215931
34 1 0.657133 0.615974 0.917733 0 0 -0.0263233
35 1 0.357203 0.823928 0.802233 0 0 -0.14068
36 1 0.113076 0.708169 0.907684 0 0 0.124182
37 1 0.805338 0.916312 0.78124 0 0 -0.10778
38 1 0.18362 0.666481 0.531992 0 0 -0.000640869
39 1 0.871211 0.874959 0.407029 0 0 -4.57764e-05
40 1 0.0476398 0.699063 0.677812 0 0 -0.0134621
41 1 0.735678 0.907584 0.552801 0 0 4.19617e-05
42 1 0.111336 0.657853 0.302964 0 0 0.0215969
43 1 0.801551 0.866231 0.17859 0 0 0.10778
44 1 0.559249 0.750146 0.282018 0 0 0.0134621
45 1 0.249686 0.958615 0.157597 0 0 0.14068
46 1 0.423269 0.782729 0.427838 0 0 0.000642776
47 1 0.18362 0.999814 0.531992 0 0 -0.000637054
48 1 0.111336 0.991187 0.302964 0 0 0.021595
ITEM: TIMESTEP
3
ITEM: NUMBER OF ATOMS
48
ITEM: BOX BOUNDS xy xz yz pp pp pp
-4.1134155392646790e+00 8.5982638597488403e+00 2.5251476168632507e+00
-1.1132121086120605e-02 9.5149352550506592e+00 -4.1256217360496521e+00
-4.7147274017333984e-03 1.9521842360496521e+01 2.6099252700805664e-01
ITEM: ATOMS id type xs ys zs fx fy fz
1 1 0.950071 0.166556 0.0425517 0 0 0.0831337
2 1 0.492329 0.0744341 0.0500036 0 0 0.0157986
3 1 0.495295 0.1247 0.656493 0 0 -0.060379
4 1 0.656818 0.949321 0.917278 0 0 -0.0831394
5 1 0.355522 0.15733 0.799805 0 0 0.0134811
6 1 0.114559 0.0414423 0.909827 0 0 -0.0157967
7 1 0.80405 0.249697 0.77938 0 0 0.017168
8 1 0.87121 0.208293 0.407028 0 0 0.00756073
9 1 0.047479 0.0324032 0.677579 0 0 -0.0611687
10 1 0.735679 0.240917 0.552802 0 0 -0.00756264
11 1 0.802839 0.199512 0.18045 0 0 -0.0171719
12 1 0.55941 0.0834731 0.282251 0 0 0.0611687
13 1 0.251367 0.29188 0.160025 0 0 -0.0134773
14 1 0.423277 0.116062 0.427849 0 0 0.0105476
15 1 0.950071 0.499889 0.0425517 0 0 0.0831394
16 1 0.492329 0.407767 0.0500036 0 0 0.0157986
17 1 0.495295 0.458034 0.656493 0 0 -0.0603848
18 1 0.656818 0.282654 0.917278 0 0 -0.0831299
19 1 0.355522 0.490663 0.799805 0 0 0.0134811
20 1 0.114559 0.374776 0.909827 0 0 -0.0157986
21 1 0.80405 0.583031 0.77938 0 0 0.01717
22 1 0.183612 0.333148 0.531981 0 0 -0.0105515
23 1 0.87121 0.541626 0.407028 0 0 0.00757217
24 1 0.0474789 0.365737 0.677579 0 0 -0.0611668
25 1 0.735679 0.57425 0.552802 0 0 -0.00757217
26 1 0.111594 0.324509 0.303337 0 0 0.0603733
27 1 0.802839 0.532846 0.18045 0 0 -0.01717
28 1 0.55941 0.416807 0.282251 0 0 0.0611706
29 1 0.251367 0.625213 0.160025 0 0 -0.0134811
30 1 0.423277 0.449395 0.427849 0 0 0.0105515
31 1 0.950071 0.833222 0.0425516 0 0 0.0831451
32 1 0.492329 0.741101 0.0500036 0 0 0.0157986
33 1 0.495295 0.791367 0.656493 0 0 -0.060379
34 1 0.656818 0.615987 0.917279 0 0 -0.0831413
35 1 0.355522 0.823996 0.799805 0 0 0.013483
36 1 0.11456 0.708109 0.909827 0 0 -0.0158024
37 1 0.80405 0.916364 0.77938 0 0 0.017168
38 1 0.183612 0.666481 0.531981 0 0 -0.0105438
39 1 0.87121 0.874959 0.407028 0 0 0.00756645
40 1 0.0474789 0.69907 0.677579 0 0 -0.0611668
41 1 0.735679 0.907584 0.552802 0 0 -0.00755882
42 1 0.111594 0.657843 0.303337 0 0 0.0603771
43 1 0.802839 0.866179 0.18045 0 0 -0.0171719
44 1 0.55941 0.75014 0.282251 0 0 0.0611706
45 1 0.251367 0.958547 0.160025 0 0 -0.013483
46 1 0.423277 0.782728 0.427849 0 0 0.0105438
47 1 0.183612 0.999815 0.531981 0 0 -0.0105495
48 1 0.111594 0.991176 0.303337 0 0 0.060379
ITEM: TIMESTEP
4
ITEM: NUMBER OF ATOMS
48
ITEM: BOX BOUNDS xy xz yz pp pp pp
-4.1134155392646790e+00 8.5982638597488403e+00 2.5251476168632507e+00
-1.1132121086120605e-02 9.5149352550506592e+00 -4.1256217360496521e+00
-4.7147274017333984e-03 1.9521842360496521e+01 2.6099252700805664e-01
ITEM: ATOMS id type xs ys zs fx fy fz
1 1 0.950962 0.16652 0.0438386 0 0 -0.0444412
2 1 0.492069 0.0744447 0.0496274 0 0 0.0231018
3 1 0.494639 0.124727 0.655547 0 0 -0.0204487
4 1 0.655927 0.949357 0.915991 0 0 0.0444527
5 1 0.355184 0.157344 0.799318 0 0 -0.00751877
6 1 0.11482 0.0414317 0.910203 0 0 -0.0231056
7 1 0.803857 0.249705 0.779102 0 0 -0.00994301
8 1 0.871283 0.20829 0.407133 0 0 0.0223007
9 1 0.046843 0.0324291 0.676661 0 0 -0.0223618
10 1 0.735606 0.24092 0.552697 0 0 -0.022295
11 1 0.803031 0.199505 0.180728 0 0 0.00993919
12 1 0.560046 0.0834473 0.283169 0 0 0.022356
13 1 0.251704 0.291866 0.160513 0 0 0.00751877
14 1 0.423381 0.116057 0.427999 0 0 0.0249424
15 1 0.950962 0.499853 0.0438387 0 0 -0.0444431
16 1 0.492069 0.407778 0.0496274 0 0 0.0231037
17 1 0.494639 0.45806 0.655546 0 0 -0.020443
18 1 0.655927 0.28269 0.915992 0 0 0.0444431
19 1 0.355184 0.490677 0.799318 0 0 -0.0075264
20 1 0.11482 0.374765 0.910203 0 0 -0.0231018
21 1 0.803857 0.583038 0.779102 0 0 -0.00994301
22 1 0.183508 0.333152 0.531831 0 0 -0.0249386
23 1 0.871283 0.541623 0.407134 0 0 0.0222988
24 1 0.0468429 0.365762 0.676661 0 0 -0.0223541
25 1 0.735606 0.574253 0.552697 0 0 -0.0223045
26 1 0.112249 0.324483 0.304284 0 0 0.0204487
27 1 0.803032 0.532838 0.180728 0 0 0.00994873
28 1 0.560046 0.416781 0.283169 0 0 0.0223541
29 1 0.251704 0.6252 0.160513 0 0 0.00752831
30 1 0.423381 0.449391 0.427999 0 0 0.0249462
31 1 0.950962 0.833186 0.0438386 0 0 -0.0444489
32 1 0.492069 0.741111 0.0496274 0 0 0.0231075
33 1 0.494639 0.791394 0.655547 0 0 -0.0204449
34 1 0.655927 0.616024 0.915992 0 0 0.044445
35 1 0.355184 0.82401 0.799318 0 0 -0.00752258
36 1 0.11482 0.708098 0.910203 0 0 -0.0231037
37 1 0.803857 0.916372 0.779102 0 0 -0.00994682
38 1 0.183508 0.666486 0.531831 0 0 -0.0249424
39 1 0.871283 0.874956 0.407133 0 0 0.0223007
40 1 0.0468429 0.699096 0.676661 0 0 -0.022356
41 1 0.735606 0.907587 0.552697 0 0 -0.0222988
42 1 0.11225 0.657816 0.304284 0 0 0.0204391
43 1 0.803032 0.866171 0.180728 0 0 0.00994873
44 1 0.560046 0.750114 0.283169 0 0 0.0223503
45 1 0.251704 0.958533 0.160513 0 0 0.00751877
46 1 0.423381 0.782724 0.427999 0 0 0.0249443
47 1 0.183508 0.999819 0.531831 0 0 -0.0249462
48 1 0.11225 0.99115 0.304284 0 0 0.0204411
ITEM: TIMESTEP
5
ITEM: NUMBER OF ATOMS
48
ITEM: BOX BOUNDS xy xz yz pp pp pp
-4.1134155392646790e+00 8.5982638597488403e+00 2.5251476168632507e+00
-1.1132121086120605e-02 9.5149352550506592e+00 -4.1256217360496521e+00
-4.7147274017333984e-03 1.9521842360496521e+01 2.6099252700805664e-01
ITEM: ATOMS id type xs ys zs fx fy fz
1 1 0.950779 0.166527 0.0435752 0 0 -0.0022068
2 1 0.49227 0.0744365 0.0499183 0 0 0.0204182
3 1 0.493996 0.124753 0.654617 0 0 0.0077858
4 1 0.656109 0.949349 0.916255 0 0 0.00219154
5 1 0.354897 0.157355 0.798902 0 0 -0.00645256
6 1 0.114618 0.0414399 0.909912 0 0 -0.0204124
7 1 0.80361 0.249715 0.778745 0 0 -0.0134907
8 1 0.871648 0.208275 0.40766 0 0 0.00112343
9 1 0.0461814 0.032456 0.675706 0 0 0.00802994
10 1 0.735241 0.240935 0.55217 0 0 -0.00113297
11 1 0.803278 0.199495 0.181085 0 0 0.0134945
12 1 0.560707 0.0834204 0.284124 0 0 -0.00802231
13 1 0.251992 0.291855 0.160928 0 0 0.00645256
14 1 0.423801 0.11604 0.428606 0 0 0.00146866
15 1 0.950779 0.49986 0.0435752 0 0 -0.00220299
16 1 0.49227 0.40777 0.0499183 0 0 0.020422
17 1 0.493995 0.458086 0.654617 0 0 0.00778961
18 1 0.656109 0.282683 0.916255 0 0 0.00219917
19 1 0.354897 0.490689 0.798902 0 0 -0.00644302
20 1 0.114618 0.374773 0.909912 0 0 -0.0204258
21 1 0.80361 0.583049 0.778746 0 0 -0.0134907
22 1 0.183088 0.333169 0.531225 0 0 -0.00146866
23 1 0.871648 0.541608 0.40766 0 0 0.00111389
24 1 0.0461815 0.365789 0.675706 0 0 0.00802231
25 1 0.735241 0.574268 0.55217 0 0 -0.00112152
26 1 0.112893 0.324457 0.305213 0 0 -0.00778389
27 1 0.803278 0.532828 0.181085 0 0 0.0134945
28 1 0.560707 0.416754 0.284124 0 0 -0.00801659
29 1 0.251992 0.625188 0.160928 0 0 0.00643921
30 1 0.423801 0.449374 0.428606 0 0 0.00146294
31 1 0.950779 0.833194 0.0435751 0 0 -0.00219345
32 1 0.49227 0.741103 0.0499184 0 0 0.0204201
33 1 0.493996 0.79142 0.654617 0 0 0.00778389
34 1 0.656109 0.616016 0.916255 0 0 0.0022068
35 1 0.354897 0.824022 0.798902 0 0 -0.00644875
36 1 0.114618 0.708107 0.909912 0 0 -0.0204182
37 1 0.80361 0.916382 0.778745 0 0 -0.0134888
38 1 0.183088 0.666503 0.531225 0 0 -0.00147057
39 1 0.871648 0.874941 0.40766 0 0 0.00112534
40 1 0.0461815 0.699123 0.675706 0 0 0.00802612
41 1 0.735241 0.907602 0.55217 0 0 -0.00113678
42 1 0.112893 0.65779 0.305213 0 0 -0.00777626
43 1 0.803278 0.866161 0.181085 0 0 0.0134926
44 1 0.560707 0.750087 0.284125 0 0 -0.00802612
45 1 0.251992 0.958521 0.160928 0 0 0.00644875
46 1 0.423801 0.782707 0.428606 0 0 0.00146294
47 1 0.183088 0.999836 0.531224 0 0 -0.00146484
48 1 0.112893 0.991123 0.305213 0 0 -0.00778008
ITEM: TIMESTEP
6
ITEM: NUMBER OF ATOMS
48
ITEM: BOX BOUNDS xy xz yz pp pp pp
-4.1134155392646790e+00 8.5982638597488403e+00 2.5251476168632507e+00
-1.1132121086120605e-02 9.5149352550506592e+00 -4.1256217360496521e+00
-4.7147274017333984e-03 1.9521842360496521e+01 2.6099252700805664e-01
ITEM: ATOMS id type xs ys zs fx fy fz
1 1 0.95074 0.166529 0.0435183 0 0 0.00649834
2 1 0.49255 0.0744251 0.0503225 0 0 0.00711823
3 1 0.494061 0.12475 0.654712 0 0 -0.00540924
4 1 0.656148 0.949348 0.916312 0 0 -0.00647545
5 1 0.354796 0.157359 0.798756 0 0 0.00353622
6 1 0.114339 0.0414513 0.909508 0 0 -0.00712585
7 1 0.803419 0.249723 0.778469 0 0 0.00140762
8 1 0.871684 0.208273 0.407712 0 0 -0.00597763
9 1 0.0462493 0.0324532 0.675804 0 0 -0.00489426
10 1 0.735205 0.240936 0.552118 0 0 0.00598335
11 1 0.80347 0.199487 0.181361 0 0 -0.00140572
12 1 0.56064 0.0834231 0.284027 0 0 0.00489616
13 1 0.252093 0.29185 0.161074 0 0 -0.00353432
14 1 0.423844 0.116038 0.428668 0 0 -0.00629997
15 1 0.95074 0.499862 0.0435184 0 0 0.00648689
16 1 0.49255 0.407758 0.0503227 0 0 0.00711823
17 1 0.494061 0.458084 0.654712 0 0 -0.00541115
18 1 0.656149 0.282681 0.916312 0 0 -0.00649452
19 1 0.354796 0.490693 0.798756 0 0 0.00353622
20 1 0.114338 0.374785 0.909508 0 0 -0.00711441
21 1 0.803419 0.583056 0.778469 0 0 0.00140762
22 1 0.183045 0.333171 0.531162 0 0 0.00629997
23 1 0.871684 0.541607 0.407712 0 0 -0.00598335
24 1 0.0462493 0.365787 0.675804 0 0 -0.00489616
25 1 0.735205 0.57427 0.552118 0 0 0.00598526
26 1 0.112827 0.324459 0.305118 0 0 0.00540733
27 1 0.80347 0.53282 0.181361 0 0 -0.00141144
28 1 0.56064 0.416756 0.284027 0 0 0.00489044
29 1 0.252093 0.625184 0.161074 0 0 -0.00352097
30 1 0.423844 0.449372 0.428668 0 0 -0.00629616
31 1 0.95074 0.833195 0.0435184 0 0 0.00647545
32 1 0.49255 0.741092 0.0503227 0 0 0.00711823
33 1 0.494061 0.791417 0.654712 0 0 -0.00540733
34 1 0.656149 0.616015 0.916312 0 0 -0.00649261
35 1 0.354796 0.824026 0.798756 0 0 0.00352669
36 1 0.114339 0.708118 0.909508 0 0 -0.00711823
37 1 0.803419 0.91639 0.778469 0 0 0.00140572
38 1 0.183045 0.666504 0.531162 0 0 0.00629616
39 1 0.871684 0.87494 0.407712 0 0 -0.00599289
40 1 0.0462493 0.69912 0.675804 0 0 -0.00489807
41 1 0.735205 0.907603 0.552118 0 0 0.0059967
42 1 0.112828 0.657793 0.305118 0 0 0.00540733
43 1 0.80347 0.866153 0.181361 0 0 -0.00140762
44 1 0.56064 0.75009 0.284027 0 0 0.00489426
45 1 0.252093 0.958517 0.161074 0 0 -0.00352859
46 1 0.423844 0.782705 0.428668 0 0 -0.00629234
47 1 0.183045 0.999838 0.531162 0 0 0.00629044
48 1 0.112828 0.991126 0.305118 0 0 0.00540543
ITEM: TIMESTEP
7
ITEM: NUMBER OF ATOMS
48
ITEM: BOX BOUNDS xy xz yz pp pp pp
-4.1134155392646790e+00 8.5982638597488403e+00 2.5251476168632507e+00
-1.1132121086120605e-02 9.5149352550506592e+00 -4.1256217360496521e+00
-4.7147274017333984e-03 1.9521842360496521e+01 2.6099252700805664e-01
ITEM: ATOMS id type xs ys zs fx fy fz
1 1 0.950783 0.166527 0.0435799 0 0 -0.0020237
2 1 0.492656 0.0744208 0.0504759 0 0 -0.000226974
3 1 0.494032 0.124752 0.654669 0 0 -0.00178719
4 1 0.656106 0.94935 0.91625 0 0 0.00201225
5 1 0.354804 0.157359 0.798768 0 0 -0.000720978
6 1 0.114232 0.0414556 0.909354 0 0 0.00022316
7 1 0.803394 0.249724 0.778434 0 0 -0.000455856
8 1 0.871644 0.208275 0.407655 0 0 8.2016e-05
9 1 0.0462242 0.0324542 0.675767 0 0 -0.00142479
10 1 0.735245 0.240935 0.552175 0 0 -7.62939e-05
11 1 0.803494 0.199486 0.181396 0 0 0.000459671
12 1 0.560665 0.0834221 0.284063 0 0 0.00141716
13 1 0.252085 0.291851 0.161062 0 0 0.000722885
14 1 0.423803 0.11604 0.42861 0 0 -0.000179291
15 1 0.950783 0.49986 0.0435799 0 0 -0.00202179
16 1 0.492656 0.407754 0.0504761 0 0 -0.000226974
17 1 0.494032 0.458085 0.654669 0 0 -0.001791
18 1 0.656106 0.282683 0.91625 0 0 0.0020237
19 1 0.354804 0.490692 0.798768 0 0 -0.000720978
20 1 0.114232 0.374789 0.909354 0 0 0.000228882
21 1 0.803395 0.583057 0.778434 0 0 -0.000453949
22 1 0.183086 0.333169 0.53122 0 0 0.000181198
23 1 0.871644 0.541608 0.407655 0 0 8.7738e-05
24 1 0.0462242 0.365788 0.675767 0 0 -0.00142479
25 1 0.735245 0.574268 0.552175 0 0 -8.7738e-05
26 1 0.112857 0.324458 0.305161 0 0 0.00178909
27 1 0.803494 0.532819 0.181397 0 0 0.000450134
28 1 0.560665 0.416755 0.284063 0 0 0.00141525
29 1 0.252085 0.625184 0.161062 0 0 0.000724792
30 1 0.423803 0.449373 0.42861 0 0 -0.000173569
31 1 0.950783 0.833194 0.0435798 0 0 -0.00202179
32 1 0.492656 0.741087 0.0504761 0 0 -0.000230789
33 1 0.494032 0.791418 0.654669 0 0 -0.00178337
34 1 0.656106 0.616016 0.91625 0 0 0.00201797
35 1 0.354804 0.824026 0.798768 0 0 -0.000713348
36 1 0.114232 0.708122 0.909354 0 0 0.000232697
37 1 0.803395 0.916391 0.778434 0 0 -0.000452042
38 1 0.183086 0.666503 0.53122 0 0 0.000183105
39 1 0.871644 0.874941 0.407655 0 0 8.39233e-05
40 1 0.0462242 0.699121 0.675767 0 0 -0.00142288
41 1 0.735245 0.907601 0.552175 0 0 -8.96454e-05
42 1 0.112857 0.657791 0.305161 0 0 0.00178719
43 1 0.803494 0.866152 0.181397 0 0 0.000450134
44 1 0.560665 0.750089 0.284063 0 0 0.00143051
45 1 0.252085 0.958517 0.161062 0 0 0.000720978
46 1 0.423803 0.782707 0.42861 0 0 -0.000177383
47 1 0.183085 0.999836 0.53122 0 0 0.000179291
48 1 0.112857 0.991125 0.305161 0 0 0.00178337
ITEM: TIMESTEP
8
ITEM: NUMBER OF ATOMS
48
ITEM: BOX BOUNDS xy xz yz pp pp pp
-4.1134155392646790e+00 8.5982638597488403e+00 2.5251476168632507e+00
-1.1132121086120605e-02 9.5149352550506592e+00 -4.1256217360496521e+00
-4.7147274017333984e-03 1.9521842360496521e+01 2.6099252700805664e-01
ITEM: ATOMS id type xs ys zs fx fy fz
1 1 0.950767 0.166528 0.0435574 0 0 0.00079155
2 1 0.49266 0.0744206 0.0504811 0 0 -3.62396e-05
3 1 0.494015 0.124752 0.654644 0 0 -0.000431061
4 1 0.656121 0.949349 0.916273 0 0 -0.000787735
5 1 0.354798 0.157359 0.79876 0 0 -0.000396729
6 1 0.114229 0.0414558 0.909349 0 0 4.3869e-05
7 1 0.803389 0.249724 0.778426 0 0 -0.000299454
8 1 0.871643 0.208275 0.407653 0 0 0.000886917
9 1 0.0462104 0.0324548 0.675747 0 0 -0.000371933
10 1 0.735246 0.240935 0.552177 0 0 -0.00088501
11 1 0.803499 0.199486 0.181404 0 0 0.000299454
12 1 0.560678 0.0834215 0.284083 0 0 0.000377655
13 1 0.25209 0.291851 0.16107 0 0 0.000391006
14 1 0.4238 0.11604 0.428604 0 0 0.000869751
15 1 0.950767 0.499861 0.0435574 0 0 0.000793457
16 1 0.49266 0.407754 0.0504812 0 0 -4.3869e-05
17 1 0.494014 0.458086 0.654644 0 0 -0.000425339
18 1 0.656122 0.282682 0.916273 0 0 -0.000785828
19 1 0.354798 0.490693 0.79876 0 0 -0.000396729
20 1 0.114229 0.374789 0.909349 0 0 4.00543e-05
21 1 0.803389 0.583058 0.778426 0 0 -0.000301361
22 1 0.183089 0.333169 0.531226 0 0 -0.000871658
23 1 0.871643 0.541608 0.407653 0 0 0.000894547
24 1 0.0462103 0.365788 0.675747 0 0 -0.00037384
25 1 0.735246 0.574268 0.552177 0 0 -0.000886917
26 1 0.112874 0.324457 0.305186 0 0 0.000425339
27 1 0.8035 0.532819 0.181404 0 0 0.000297546
28 1 0.560678 0.416755 0.284083 0 0 0.00037384
29 1 0.252091 0.625184 0.16107 0 0 0.000389099
30 1 0.4238 0.449374 0.428604 0 0 0.000867844
31 1 0.950767 0.833194 0.0435573 0 0 0.000793457
32 1 0.49266 0.741087 0.0504812 0 0 -4.00543e-05
33 1 0.494015 0.791419 0.654644 0 0 -0.000434875
34 1 0.656122 0.616016 0.916273 0 0 -0.00079155
35 1 0.354798 0.824026 0.79876 0 0 -0.000396729
36 1 0.114229 0.708122 0.909349 0 0 4.19617e-05
37 1 0.803389 0.916391 0.778426 0 0 -0.000299454
38 1 0.183089 0.666503 0.531226 0 0 -0.000871658
39 1 0.871643 0.874942 0.407653 0 0 0.000892639
40 1 0.0462103 0.699121 0.675747 0 0 -0.00037384
41 1 0.735246 0.907601 0.552177 0 0 -0.000883102
42 1 0.112874 0.657791 0.305186 0 0 0.000427246
43 1 0.8035 0.866152 0.181404 0 0 0.000293732
44 1 0.560678 0.750088 0.284083 0 0 0.000368118
45 1 0.25209 0.958517 0.16107 0 0 0.000396729
46 1 0.4238 0.782707 0.428604 0 0 0.000869751
47 1 0.183089 0.999836 0.531226 0 0 -0.000869751
48 1 0.112874 0.991124 0.305186 0 0 0.000429153
ITEM: TIMESTEP
9
ITEM: NUMBER OF ATOMS
48
ITEM: BOX BOUNDS xy xz yz pp pp pp
-4.1134155392646790e+00 8.5982638597488403e+00 2.5251476168632507e+00
-1.1132121086120605e-02 9.5149352550506592e+00 -4.1256217360496521e+00
-4.7147274017333984e-03 1.9521842360496521e+01 2.6099252700805664e-01
ITEM: ATOMS id type xs ys zs fx fy fz
1 1 0.950773 0.166527 0.0435658 0 0 0.000362396
2 1 0.492661 0.0744206 0.050483 0 0 3.43323e-05
3 1 0.493997 0.124753 0.654619 0 0 7.24792e-05
4 1 0.656116 0.949349 0.916264 0 0 -0.000356674
5 1 0.354788 0.15736 0.798745 0 0 -0.000331879
6 1 0.114228 0.0414558 0.909347 0 0 -3.43323e-05
7 1 0.803381 0.249725 0.778414 0 0 -0.000417709
8 1 0.871658 0.208274 0.407675 0 0 -0.000406265
9 1 0.046196 0.0324554 0.675727 0 0 -0.000106812
10 1 0.735231 0.240935 0.552155 0 0 0.000404358
11 1 0.803508 0.199485 0.181416 0 0 0.000415802
12 1 0.560693 0.0834209 0.284104 0 0 9.34601e-05
13 1 0.252101 0.29185 0.161085 0 0 0.000335693
14 1 0.423813 0.11604 0.428624 0 0 -0.000179291
15 1 0.950773 0.499861 0.0435659 0 0 0.000350952
16 1 0.492661 0.407754 0.0504829 0 0 3.43323e-05
17 1 0.493997 0.458086 0.654619 0 0 7.05719e-05
18 1 0.656116 0.282682 0.916264 0 0 -0.000366211
19 1 0.354788 0.490693 0.798745 0 0 -0.000331879
20 1 0.114227 0.374789 0.909347 0 0 -3.24249e-05
21 1 0.803381 0.583058 0.778414 0 0 -0.000427246
22 1 0.183075 0.33317 0.531206 0 0 0.000173569
23 1 0.871658 0.541608 0.407675 0 0 -0.000423431
24 1 0.0461959 0.365789 0.675726 0 0 -9.91821e-05
25 1 0.73523 0.574269 0.552155 0 0 0.000417709
26 1 0.112891 0.324457 0.305211 0 0 -6.48499e-05
27 1 0.803508 0.532819 0.181416 0 0 0.000423431
28 1 0.560693 0.416754 0.284104 0 0 0.000106812
29 1 0.252101 0.625183 0.161085 0 0 0.000339508
30 1 0.423813 0.449373 0.428624 0 0 -0.000173569
31 1 0.950773 0.833194 0.0435658 0 0 0.000352859
32 1 0.492661 0.741087 0.0504829 0 0 3.24249e-05
33 1 0.493997 0.79142 0.654619 0 0 7.62939e-05
34 1 0.656116 0.616016 0.916264 0 0 -0.000358582
35 1 0.354788 0.824026 0.798745 0 0 -0.000335693
36 1 0.114228 0.708122 0.909347 0 0 -3.43323e-05
37 1 0.803381 0.916391 0.778414 0 0 -0.000423431
38 1 0.183076 0.666503 0.531206 0 0 0.000177383
39 1 0.871658 0.874941 0.407675 0 0 -0.000413895
40 1 0.0461959 0.699122 0.675727 0 0 -0.000104904
41 1 0.73523 0.907602 0.552155 0 0 0.000411987
42 1 0.112892 0.65779 0.305211 0 0 -7.24792e-05
43 1 0.803508 0.866152 0.181416 0 0 0.000432968
44 1 0.560693 0.750088 0.284104 0 0 0.000106812
45 1 0.252101 0.958517 0.161085 0 0 0.000335693
46 1 0.423813 0.782706 0.428624 0 0 -0.000175476
47 1 0.183075 0.999837 0.531206 0 0 0.000175476
48 1 0.112892 0.991123 0.305211 0 0 -6.67572e-05
ITEM: TIMESTEP
10
ITEM: NUMBER OF ATOMS
48
ITEM: BOX BOUNDS xy xz yz pp pp pp
-4.1134155392646790e+00 8.5982638597488403e+00 2.5251476168632507e+00
-1.1132121086120605e-02 9.5149352550506592e+00 -4.1256217360496521e+00
-4.7147274017333984e-03 1.9521842360496521e+01 2.6099252700805664e-01
ITEM: ATOMS id type xs ys zs fx fy fz
1 1 0.950778 0.166527 0.0435739 0 0 -0.000213623
2 1 0.492662 0.0744205 0.0504839 0 0 7.43866e-05
3 1 0.493995 0.124753 0.654617 0 0 -1.33514e-05
4 1 0.65611 0.949349 0.916256 0 0 0.000205994
5 1 0.354782 0.15736 0.798736 0 0 -8.58307e-05
6 1 0.114227 0.0414559 0.909346 0 0 -7.43866e-05
7 1 0.803374 0.249725 0.778404 0 0 -7.62939e-05
8 1 0.871656 0.208274 0.407671 0 0 -1.90735e-06
9 1 0.0461923 0.0324555 0.675721 0 0 1.52588e-05
10 1 0.735233 0.240935 0.552159 0 0 -3.8147e-06
11 1 0.803515 0.199485 0.181426 0 0 8.2016e-05
12 1 0.560696 0.0834208 0.284109 0 0 -7.62939e-06
13 1 0.252107 0.29185 0.161094 0 0 8.7738e-05
14 1 0.423813 0.11604 0.428624 0 0 -5.72205e-06
15 1 0.950778 0.49986 0.0435737 0 0 -0.000202179
16 1 0.492662 0.407754 0.0504838 0 0 7.62939e-05
17 1 0.493995 0.458086 0.654617 0 0 -1.90735e-05
18 1 0.65611 0.282683 0.916256 0 0 0.000211716
19 1 0.354782 0.490693 0.798736 0 0 -8.01086e-05
20 1 0.114227 0.374789 0.909346 0 0 -8.39233e-05
21 1 0.803374 0.583058 0.778404 0 0 -7.24792e-05
22 1 0.183076 0.33317 0.531206 0 0 9.53674e-06
23 1 0.871655 0.541608 0.407671 0 0 3.8147e-06
24 1 0.0461923 0.365789 0.675721 0 0 1.14441e-05
25 1 0.735233 0.574269 0.552159 0 0 0
26 1 0.112893 0.324457 0.305214 0 0 7.62939e-06
27 1 0.803515 0.532818 0.181426 0 0 7.82013e-05
28 1 0.560696 0.416754 0.284109 0 0 -9.53674e-06
29 1 0.252107 0.625183 0.161094 0 0 7.62939e-05
30 1 0.423813 0.449373 0.428624 0 0 -7.62939e-06
31 1 0.950778 0.833194 0.0435737 0 0 -0.000202179
32 1 0.492662 0.741087 0.0504838 0 0 7.62939e-05
33 1 0.493995 0.79142 0.654617 0 0 -1.71661e-05
34 1 0.65611 0.616016 0.916256 0 0 0.000211716
35 1 0.354782 0.824026 0.798736 0 0 -8.2016e-05
36 1 0.114227 0.708122 0.909347 0 0 -8.01086e-05
37 1 0.803374 0.916391 0.778404 0 0 -8.01086e-05
38 1 0.183076 0.666503 0.531206 0 0 1.90735e-06
39 1 0.871656 0.874941 0.407671 0 0 3.8147e-06
40 1 0.0461923 0.699122 0.675721 0 0 1.33514e-05
41 1 0.735233 0.907602 0.552159 0 0 0
42 1 0.112893 0.65779 0.305214 0 0 1.71661e-05
43 1 0.803515 0.866152 0.181426 0 0 7.62939e-05
44 1 0.560696 0.750087 0.284109 0 0 -1.71661e-05
45 1 0.252107 0.958517 0.161094 0 0 8.01086e-05
46 1 0.423813 0.782706 0.428624 0 0 -3.8147e-06
47 1 0.183075 0.999837 0.531206 0 0 5.72205e-06
48 1 0.112893 0.991123 0.305214 0 0 1.33514e-05
ITEM: TIMESTEP
11
ITEM: NUMBER OF ATOMS
48
ITEM: BOX BOUNDS xy xz yz pp pp pp
-4.1134155392646790e+00 8.5982638597488403e+00 2.5251476168632507e+00
-1.1132121086120605e-02 9.5149352550506592e+00 -4.1256217360496521e+00
-4.7147274017333984e-03 1.9521842360496521e+01 2.6099252700805664e-01
ITEM: ATOMS id type xs ys zs fx fy fz
1 1 0.950777 0.166527 0.0435723 0 0 1.52588e-05
2 1 0.492662 0.0744205 0.0504847 0 0 8.01086e-05
3 1 0.493995 0.124753 0.654616 0 0 -2.67029e-05
4 1 0.656111 0.949349 0.916258 0 0 3.8147e-06
5 1 0.354781 0.15736 0.798735 0 0 2.28882e-05
6 1 0.114226 0.0414559 0.909346 0 0 -8.58307e-05
7 1 0.803373 0.249725 0.778403 0 0 1.71661e-05
8 1 0.871655 0.208274 0.407671 0 0 2.86102e-05
9 1 0.0461922 0.0324555 0.675721 0 0 -7.62939e-06
10 1 0.735234 0.240935 0.552159 0 0 -2.86102e-05
11 1 0.803516 0.199485 0.181427 0 0 -2.09808e-05
12 1 0.560697 0.0834208 0.284109 0 0 1.52588e-05
13 1 0.252108 0.29185 0.161095 0 0 -2.47955e-05
14 1 0.423813 0.11604 0.428624 0 0 1.14441e-05
15 1 0.950777 0.49986 0.0435722 0 0 3.8147e-06
16 1 0.492662 0.407754 0.0504846 0 0 8.7738e-05
17 1 0.493995 0.458086 0.654616 0 0 -2.67029e-05
18 1 0.656111 0.282683 0.916258 0 0 -9.53674e-06
19 1 0.354781 0.490693 0.798735 0 0 1.71661e-05
20 1 0.114226 0.374789 0.909346 0 0 -8.01086e-05
21 1 0.803373 0.583058 0.778403 0 0 2.47955e-05
22 1 0.183076 0.33317 0.531206 0 0 -7.62939e-06
23 1 0.871655 0.541608 0.407671 0 0 3.8147e-05
24 1 0.0461922 0.365789 0.675721 0 0 -9.53674e-06
25 1 0.735234 0.574269 0.552159 0 0 -3.05176e-05