ITEM: TIMESTEP
0
ITEM: NUMBER OF ATOMS
56
ITEM: BOX BOUNDS xy xz yz pp pp pp
-4.3002691268920898e+00 1.2203788340091705e+01 0.0000000000000000e+00
-8.4733366966247559e-03 5.5348814725875854e+00 -4.2815806269645691e+00
-2.9168844223022461e-02 1.9049128890037537e+01 0.0000000000000000e+00
ITEM: ATOMS id type xs ys zs fx fy fz
1 1 0.59644 4.41887e-05 0.132366 0 -0.0047493 0.0255928
2 1 0.34644 0.166624 0.132366 0 0.00472069 0.0256119
3 1 0.283893 2.39879e-05 0.275225 0 0.00292778 -0.00403786
4 1 0.0338924 0.166644 0.275225 0 -0.00294876 -0.00403023
5 1 0.971292 1.9421e-05 0.418082 0 1.14441e-05 0.000989914
6 1 0.0964404 4.41295e-05 0.132366 0 -0.00473213 0.0255966
7 1 0.00268686 0.500074 0.0609403 0 2.56604 1.89522
8 1 0.846441 0.166623 0.132366 0 0.00472832 0.0256119
9 1 0.752688 0.666593 0.0609403 0 -2.56598 1.89518
10 1 0.783894 2.39872e-05 0.275225 0 0.00292397 -0.00403404
11 1 0.721291 0.166647 0.418082 0 -5.72205e-06 0.000984192
12 1 0.65868 2.47556e-05 0.560942 0 -8.2016e-05 -0.000343323
13 1 0.40868 0.166643 0.560942 0 7.05719e-05 -0.000347137
14 1 0.346077 2.39811e-05 0.703801 0 -0.000291824 -0.000741959
15 1 0.0960771 0.166644 0.703801 0 0.000257492 -0.000749588
16 1 0.0334857 2.63435e-05 0.846651 0 0.00225639 -0.00626755
17 1 0.690184 0.500026 0.203802 0 0.00227356 0.00628281
18 1 0.533893 0.166645 0.275225 0 -0.00296402 -0.00403023
19 1 0.440185 0.66664 0.203802 0 -0.00224686 0.00628471
20 1 0.471292 2.01694e-05 0.418082 0 -5.72205e-06 0.000988007
21 1 0.377593 0.500023 0.346651 0 -0.000263214 0.000762939
22 1 0.221292 0.166648 0.418082 0 -1.14441e-05 0.000988007
23 1 0.127593 0.666642 0.346651 0 0.000301361 0.000738144
24 1 0.15868 2.49573e-05 0.560941 0 -8.39233e-05 -0.000337601
25 1 0.0649888 0.500025 0.489511 0 -7.62939e-05 0.000331879
26 1 0.908681 0.166643 0.560941 0 7.05719e-05 -0.000331879
27 1 0.81499 0.666642 0.489511 0 8.2016e-05 0.000354767
28 1 0.502687 0.500073 0.0609404 0 2.56607 1.89523
29 1 0.252687 0.666593 0.0609403 0 -2.56601 1.8952
30 1 0.190185 0.500026 0.203802 0 0.00226974 0.0062809
31 1 0.940185 0.666641 0.203802 0 -0.00227356 0.00628471
32 1 0.877594 0.500024 0.346651 0 -0.000286102 0.000741959
33 1 0.783484 0.166641 0.846652 0 -0.00226784 -0.00630951
34 1 0.720983 7.47473e-05 0.989512 0 2.56599 -1.89516
35 1 0.470983 0.166594 0.989513 0 -2.56606 -1.89524
36 1 0.846076 2.44315e-05 0.703801 0 -0.000293732 -0.000749588
37 1 0.752376 0.50002 0.632371 0 5.72205e-06 -0.00100517
38 1 0.596077 0.166643 0.703801 0 0.000270844 -0.000741959
39 1 0.502378 0.666647 0.632371 0 -1.90735e-06 -0.000989914
40 1 0.533485 2.63314e-05 0.846651 0 0.00226593 -0.00628662
41 1 0.439777 0.500023 0.775228 0 0.00293922 0.00403976
42 1 0.283484 0.166641 0.846651 0 -0.00226593 -0.00629234
43 1 0.189777 0.666644 0.775228 0 -0.00292969 0.00402451
44 1 0.220983 7.37033e-05 0.989512 0 2.56601 -1.89519
45 1 0.12723 0.500043 0.918087 0 -0.00473213 -0.0255814
46 1 0.627592 0.666643 0.346651 0 0.000301361 0.000747681
47 1 0.564989 0.500025 0.489511 0 -7.24792e-05 0.000335693
48 1 0.314989 0.666642 0.489511 0 8.58307e-05 0.000335693
49 1 0.252378 0.500019 0.632371 0 1.90735e-05 -0.000980377
50 1 0.00237875 0.666647 0.63237 0 1.14441e-05 -0.000967026
51 1 0.939778 0.500022 0.775228 0 0.00295448 0.00402641
52 1 0.970981 0.166594 0.989513 0 -2.56604 -1.89522
53 1 0.877229 0.666624 0.918087 0 0.00472641 -0.025631
54 1 0.689777 0.666643 0.775228 0 -0.00292969 0.00403786
55 1 0.627229 0.500044 0.918087 0 -0.0047226 -0.0256062
56 1 0.377229 0.666624 0.918087 0 0.00472832 -0.0256004
ITEM: TIMESTEP
1
ITEM: NUMBER OF ATOMS
56
ITEM: BOX BOUNDS xy xz yz pp pp pp
-4.3002691268920898e+00 1.2203788340091705e+01 0.0000000000000000e+00
-8.4733366966247559e-03 5.5348814725875854e+00 -4.2815806269645691e+00
-2.9168844223022461e-02 1.9049128890037537e+01 0.0000000000000000e+00
ITEM: ATOMS id type xs ys zs fx fy fz
1 1 0.596458 1.08008e-05 0.132418 0 0.106192 0.0166378
2 1 0.346459 0.166657 0.132418 0 -0.106215 0.0166416
3 1 0.28389 4.45703e-05 0.275217 0 0.00270653 0.000621796
4 1 0.0338895 0.166624 0.275217 0 -0.00271416 0.000617981
5 1 0.971292 1.95015e-05 0.418084 0 -0.000274658 -0.0012207
6 1 0.0964587 1.08623e-05 0.132418 0 0.106195 0.0166283
7 1 0.00404297 0.518113 0.0648115 0 1.10896 0.73575
8 1 0.846459 0.166657 0.132418 0 -0.106197 0.0166435
9 1 0.754044 0.648554 0.0648115 0 -1.10894 0.735758
10 1 0.783891 4.45428e-05 0.275217 0 0.00271034 0.000621796
11 1 0.721291 0.166647 0.418084 0 0.000282288 -0.00123405
12 1 0.658679 2.4179e-05 0.560941 0 -3.24249e-05 -2.47955e-05
13 1 0.40868 0.166643 0.560941 0 2.47955e-05 -2.47955e-05
14 1 0.346076 2.19296e-05 0.7038 0 -0.000408173 -0.00412178
15 1 0.0960766 0.166646 0.7038 0 0.00038147 -0.00413704
16 1 0.0334812 4.22061e-05 0.846638 0 -0.0115242 -0.0922394
17 1 0.690189 0.500042 0.203814 0 -0.0115147 0.0922489
18 1 0.53389 0.166624 0.275217 0 -0.00273132 0.000629425
19 1 0.44019 0.666624 0.203814 0 0.0115318 0.0922585
20 1 0.471293 2.01292e-05 0.418084 0 -0.000289917 -0.0012207
21 1 0.377593 0.500021 0.346653 0 -0.000391006 0.00413322
22 1 0.221292 0.166648 0.418084 0 0.000267029 -0.00121689
23 1 0.127593 0.666645 0.346653 0 0.000419617 0.00412369
24 1 0.15868 2.43673e-05 0.560941 0 -3.43323e-05 -2.47955e-05
25 1 0.0649891 0.500024 0.489512 0 -3.24249e-05 1.52588e-05
26 1 0.908681 0.166643 0.560941 0 2.47955e-05 -5.72205e-06
27 1 0.81499 0.666642 0.489512 0 3.8147e-05 3.62396e-05
28 1 0.504043 0.518113 0.0648116 0 1.10897 0.735752
29 1 0.254043 0.648553 0.0648115 0 -1.10894 0.735754
30 1 0.19019 0.500042 0.203814 0 -0.0115204 0.0922546
31 1 0.94019 0.666625 0.203814 0 0.0115128 0.0922604
32 1 0.877594 0.500022 0.346653 0 -0.00041008 0.0041256
33 1 0.78348 0.166625 0.846639 0 0.0115242 -0.0922794
34 1 0.719627 0.0181138 0.985641 0 1.10894 -0.735739
35 1 0.469627 0.148554 0.985641 0 -1.10896 -0.735771
36 1 0.846075 2.23665e-05 0.7038 0 -0.000413895 -0.00411987
37 1 0.752376 0.50002 0.632369 0 -0.00028038 0.00120544
38 1 0.596077 0.166645 0.7038 0 0.000404358 -0.00411987
39 1 0.502377 0.666647 0.632369 0 0.000282288 0.00121689
40 1 0.53348 4.2261e-05 0.846638 0 -0.0115223 -0.0922508
41 1 0.43978 0.500044 0.775236 0 0.00271034 -0.000616074
42 1 0.28348 0.166625 0.846638 0 0.0115147 -0.0922604
43 1 0.18978 0.666623 0.775236 0 -0.00271225 -0.000629425
44 1 0.219627 0.0181129 0.985641 0 1.10895 -0.73575
45 1 0.127212 0.50001 0.918034 0 0.106207 -0.0166225
46 1 0.627593 0.666645 0.346653 0 0.000411987 0.00412941
47 1 0.564989 0.500024 0.489512 0 -2.47955e-05 1.52588e-05
48 1 0.314989 0.666643 0.489512 0 4.3869e-05 1.33514e-05
49 1 0.252377 0.500019 0.632369 0 -0.000261307 0.00122643
50 1 0.00237805 0.666647 0.632369 0 0.000291824 0.00123215
51 1 0.939781 0.500043 0.775236 0 0.00272369 -0.000619888
52 1 0.969625 0.148554 0.985641 0 -1.10895 -0.735756
53 1 0.87721 0.666657 0.918035 0 -0.106209 -0.0166531
54 1 0.68978 0.666623 0.775236 0 -0.00271606 -0.000619888
55 1 0.627211 0.50001 0.918035 0 0.106203 -0.0166378
56 1 0.377211 0.666657 0.918034 0 -0.106199 -0.0166359
ITEM: TIMESTEP
2
ITEM: NUMBER OF ATOMS
56
ITEM: BOX BOUNDS xy xz yz pp pp pp
-4.3002691268920898e+00 1.2203788340091705e+01 0.0000000000000000e+00
-8.4733366966247559e-03 5.5348814725875854e+00 -4.2815806269645691e+00
-2.9168844223022461e-02 1.9049128890037537e+01 0.0000000000000000e+00
ITEM: ATOMS id type xs ys zs fx fy fz
1 1 0.596486 0.00173822 0.132497 0 0.22261 0.0206299
2 1 0.346486 0.164929 0.132497 0 -0.222616 0.0206394
3 1 0.283891 8.85974e-05 0.27522 0 0.00112534 0.00890541
4 1 0.0338906 0.166579 0.27522 0 -0.00114441 0.00890923
5 1 0.97129 1.50336e-05 0.418078 0 -0.000705719 -0.00228882
6 1 0.0964862 0.00173834 0.132497 0 0.222609 0.0206337
7 1 0.00526117 0.536153 0.068289 0 0.265415 0.0326385
8 1 0.846487 0.164929 0.132497 0 -0.222607 0.0206413
9 1 0.755262 0.630515 0.068289 0 -0.265419 0.0326424
10 1 0.783892 8.86319e-05 0.27522 0 0.00112915 0.00890732
11 1 0.721289 0.166652 0.418078 0 0.000720978 -0.00229454
12 1 0.658679 2.36516e-05 0.560941 0 -7.82013e-05 -0.000545502
13 1 0.40868 0.166644 0.560941 0 7.05719e-05 -0.000537872
14 1 0.34607 1.52898e-05 0.70378 0 -0.00125885 -0.0127048
15 1 0.0960698 0.166652 0.70378 0 0.00124168 -0.0127106
16 1 0.0333285 -0.000145258 0.846202 0 -0.0209656 -0.171061
17 1 0.690342 0.499855 0.20425 0 -0.0209541 0.171074
18 1 0.533891 0.16658 0.27522 0 -0.00115776 0.00891495
19 1 0.440343 0.666812 0.20425 0 0.0209713 0.17108
20 1 0.471291 1.54131e-05 0.418078 0 -0.000728607 -0.00229645
21 1 0.3776 0.500015 0.346672 0 -0.00123787 0.0127125
22 1 0.22129 0.166652 0.418078 0 0.000709534 -0.00228691
23 1 0.1276 0.666651 0.346672 0 0.00126266 0.012701
24 1 0.15868 2.38088e-05 0.560941 0 -8.2016e-05 -0.000535965
25 1 0.0649891 0.500024 0.489512 0 -7.82013e-05 0.000534058
26 1 0.908681 0.166644 0.560941 0 7.24792e-05 -0.000526428
27 1 0.81499 0.666643 0.489512 0 8.2016e-05 0.000551224
28 1 0.505261 0.536152 0.0682892 0 0.265419 0.0326233
29 1 0.255261 0.630514 0.0682891 0 -0.265409 0.0326405
30 1 0.190343 0.499855 0.20425 0 -0.0209618 0.171085
31 1 0.940343 0.666812 0.20425 0 0.0209618 0.171087
32 1 0.877601 0.500016 0.346672 0 -0.00125885 0.012701
33 1 0.783327 0.166812 0.846203 0 0.0209579 -0.171103
34 1 0.718409 0.036153 0.982164 0 0.265409 -0.0326309
35 1 0.468409 0.130515 0.982164 0 -0.265413 -0.0326328
36 1 0.846069 1.56337e-05 0.70378 0 -0.00126266 -0.012701
37 1 0.752378 0.500015 0.632375 0 -0.000717163 0.00227737
38 1 0.59607 0.166652 0.70378 0 0.00124931 -0.0127029
39 1 0.502379 0.666652 0.632375 0 0.000717163 0.00229073
40 1 0.533327 -0.000145172 0.846202 0 -0.0209637 -0.171087
41 1 0.439779 0.500088 0.775233 0 0.00113869 -0.00890732
42 1 0.283327 0.166812 0.846202 0 0.0209618 -0.171093
43 1 0.189779 0.666579 0.775233 0 -0.00114059 -0.00891113
44 1 0.218409 0.0361522 0.982164 0 0.265419 -0.0326271
45 1 0.127184 0.501738 0.917956 0 0.222616 -0.0206242
46 1 0.6276 0.666651 0.346672 0 0.00126076 0.0127029
47 1 0.564989 0.500024 0.489512 0 -6.67572e-05 0.000537872
48 1 0.314989 0.666643 0.489512 0 8.2016e-05 0.00053215
49 1 0.252379 0.500015 0.632374 0 -0.000707626 0.00229263
50 1 0.00238009 0.666652 0.632374 0 0.000728607 0.00230789
51 1 0.93978 0.500087 0.775233 0 0.00115395 -0.00891304
52 1 0.968407 0.130515 0.982164 0 -0.265419 -0.0326538
53 1 0.877183 0.664929 0.917956 0 -0.22261 -0.020647
54 1 0.689779 0.666579 0.775233 0 -0.00113487 -0.00890732
55 1 0.627183 0.501738 0.917956 0 0.222614 -0.0206318
56 1 0.377184 0.664929 0.917956 0 -0.22261 -0.0206318
ITEM: TIMESTEP
3
ITEM: NUMBER OF ATOMS
56
ITEM: BOX BOUNDS xy xz yz pp pp pp
-4.3002691268920898e+00 1.2203788340091705e+01 0.0000000000000000e+00
-8.4733366966247559e-03 5.5348814725875854e+00 -4.2815806269645691e+00
-2.9168844223022461e-02 1.9049128890037537e+01 0.0000000000000000e+00
ITEM: ATOMS id type xs ys zs fx fy fz
1 1 0.596628 0.0168683 0.132904 0 0.114342 0.0362244
2 1 0.346629 0.149799 0.132904 0 -0.114326 0.0362282
3 1 0.283953 0.000165083 0.275396 0 -0.00278664 0.0422211
4 1 0.0339522 0.166502 0.275396 0 0.00279617 0.0422192
5 1 0.971275 -3.29317e-05 0.418033 0 -0.00138474 0.00345993
6 1 0.0966289 0.0168683 0.132904 0 0.11434 0.0362148
7 1 0.00548696 0.554192 0.0689336 0 -0.0589428 -0.108448
8 1 0.84663 0.149799 0.132904 0 -0.114347 0.0362206
9 1 0.755488 0.612475 0.0689337 0 0.0589523 -0.108456
10 1 0.783954 0.000165376 0.275396 0 -0.00278473 0.042223
11 1 0.721274 0.166701 0.418033 0 0.00138474 0.00345802
12 1 0.658676 1.83365e-05 0.56093 0 -0.0014267 -0.00628853
13 1 0.408676 0.166648 0.56093 0 0.00143433 -0.00629044
14 1 0.345982 -7.02699e-05 0.703529 0 -0.00802422 -0.0608883
15 1 0.0959818 0.166737 0.703529 0 0.00802994 -0.0608845
16 1 0.0321451 -0.00157022 0.842824 0 0.0525475 -0.0174446
17 1 0.691525 0.49843 0.207629 0 0.0525265 0.0174408
18 1 0.533952 0.166501 0.275396 0 0.00279617 0.0422153
19 1 0.441526 0.668237 0.207629 0 -0.0525417 0.017437
20 1 0.471275 -3.41078e-05 0.418033 0 -0.00136948 0.00345993
21 1 0.377688 0.499931 0.346923 0 -0.00804901 0.0608902
22 1 0.221274 0.1667 0.418033 0 0.00138474 0.0034523
23 1 0.127688 0.666737 0.346923 0 0.00804329 0.0608959
24 1 0.158676 1.82345e-05 0.56093 0 -0.00142288 -0.00629234
25 1 0.0649928 0.500018 0.489523 0 -0.0014267 0.00628662
26 1 0.908678 0.166649 0.56093 0 0.00143051 -0.00628471
27 1 0.814994 0.666649 0.489523 0 0.00143242 0.00628471
28 1 0.505487 0.554192 0.0689334 0 -0.0589428 -0.108442
29 1 0.255487 0.612475 0.0689337 0 0.058939 -0.108442
30 1 0.191526 0.49843 0.207629 0 0.0525265 0.0174294
31 1 0.941526 0.668237 0.207629 0 -0.0525398 0.0174294
32 1 0.877689 0.49993 0.346923 0 -0.00803566 0.060894
33 1 0.782143 0.168237 0.842824 0 -0.0525265 -0.0174274
34 1 0.718183 0.0541919 0.981519 0 -0.0589447 0.108444
35 1 0.468183 0.112475 0.981519 0 0.0589371 0.108444
36 1 0.845981 -7.01853e-05 0.703529 0 -0.00803566 -0.0608902
37 1 0.752394 0.499966 0.63242 0 -0.00138283 -0.00345612
38 1 0.595982 0.166737 0.70353 0 0.00803947 -0.0609055
39 1 0.502395 0.666701 0.63242 0 0.00137901 -0.00345612
40 1 0.532144 -0.00157 0.842824 0 0.0525436 -0.0174255
41 1 0.439717 0.500165 0.775057 0 -0.00279808 -0.0422153
42 1 0.282143 0.168237 0.842824 0 -0.0525322 -0.0174255
43 1 0.189717 0.666501 0.775057 0 0.00278854 -0.0422211
44 1 0.218183 0.0541918 0.981519 0 -0.0589409 0.108444
45 1 0.127041 0.516868 0.917549 0 0.114336 -0.0362186
46 1 0.627688 0.666737 0.346923 0 0.00803185 0.0608902
47 1 0.564993 0.500019 0.489523 0 -0.00143623 0.00628281
48 1 0.314993 0.666649 0.489523 0 0.0014267 0.00628853
49 1 0.252395 0.499967 0.63242 0 -0.00138855 -0.00345612
50 1 0.00239606 0.666701 0.63242 0 0.0013752 -0.00345612
51 1 0.939718 0.500166 0.775057 0 -0.00279808 -0.0422211
52 1 0.968181 0.112475 0.981519 0 0.0589523 0.108465
53 1 0.87704 0.649799 0.917548 0 -0.114349 -0.0362263
54 1 0.689717 0.666502 0.775057 0 0.0027771 -0.0422249
55 1 0.627041 0.516868 0.917549 0 0.114332 -0.0362244
56 1 0.377041 0.649799 0.917548 0 -0.11434 -0.036232
ITEM: TIMESTEP
4
ITEM: NUMBER OF ATOMS
56
ITEM: BOX BOUNDS xy xz yz pp pp pp
-4.3002691268920898e+00 1.2203788340091705e+01 0.0000000000000000e+00
-8.4733366966247559e-03 5.5348814725875854e+00 -4.2815806269645691e+00
-2.9168844223022461e-02 1.9049128890037537e+01 0.0000000000000000e+00
ITEM: ATOMS id type xs ys zs fx fy fz
1 1 0.596855 0.025532 0.133552 0 -0.0216331 0.0239143
2 1 0.346856 0.141136 0.133552 0 0.0216312 0.0239067
3 1 0.284201 2.18602e-05 0.276104 0 0.00671387 0.0337677
4 1 0.0342005 0.166645 0.276104 0 -0.00671196 0.0337658
5 1 0.971292 -0.000117217 0.418082 0 -0.00236893 0.018116
6 1 0.0968556 0.0255318 0.133551 0 -0.0216351 0.0239124
7 1 0.00490786 0.553668 0.0672805 0 0.0775681 0.0464401
8 1 0.846857 0.141135 0.133552 0 0.0216389 0.0239105
9 1 0.754909 0.613 0.0672804 0 -0.0775661 0.0464554
10 1 0.784202 2.22995e-05 0.276104 0 0.00671005 0.0337753
11 1 0.721291 0.166785 0.418082 0 0.00236893 0.0181179
12 1 0.658639 -6.1775e-05 0.560827 0 -0.00424957 -0.0166168
13 1 0.40864 0.166729 0.560827 0 0.00424576 -0.0166225
14 1 0.345624 -0.000529335 0.702508 0 -0.00270653 -0.0342789
15 1 0.095624 0.167196 0.702508 0 0.00270844 -0.0342731
16 1 0.0318659 0.00113316 0.842027 0 0.0608006 0.0318184
17 1 0.691804 0.501133 0.208426 0 0.0608044 -0.0318203
18 1 0.534201 0.166644 0.276104 0 -0.00671005 0.0337696
19 1 0.441805 0.665534 0.208426 0 -0.0608063 -0.0318165
20 1 0.471292 -0.000117783 0.418082 0 -0.00236893 0.0181179
21 1 0.378046 0.499471 0.347945 0 -0.00270844 0.0342731
22 1 0.221292 0.166785 0.418082 0 0.00237846 0.0181103
23 1 0.128046 0.667197 0.347945 0 0.00269699 0.0342712
24 1 0.15864 -6.17045e-05 0.560827 0 -0.00424957 -0.0166111
25 1 0.0650289 0.499938 0.489626 0 -0.00424194 0.0166264
26 1 0.908641 0.166729 0.560827 0 0.00424957 -0.0166225
27 1 0.81503 0.666729 0.489626 0 0.00424767 0.0166149
28 1 0.504908 0.553668 0.0672804 0 0.0775661 0.0464458
29 1 0.254908 0.612999 0.0672806 0 -0.0775623 0.046442
30 1 0.191805 0.501132 0.208426 0 0.0608044 -0.0318184
31 1 0.941805 0.665534 0.208426 0 -0.0608044 -0.0318203
32 1 0.878047 0.49947 0.347945 0 -0.00269508 0.0342731
33 1 0.781864 0.165534 0.842027 0 -0.0608063 0.0318241
34 1 0.718762 0.0536675 0.983172 0 0.0775681 -0.0464497
35 1 0.468762 0.112999 0.983172 0 -0.0775661 -0.0464516
36 1 0.845623 -0.000529927 0.702508 0 -0.0026989 -0.0342731
37 1 0.752376 0.499882 0.632371 0 -0.00236702 -0.018116
38 1 0.595624 0.167196 0.702508 0 0.00268936 -0.0342636
39 1 0.502378 0.666785 0.632371 0 0.0023632 -0.0181217
40 1 0.531865 0.00113319 0.842027 0 0.0607948 0.0318203
41 1 0.439469 0.500022 0.774349 0 0.0067215 -0.0337734
42 1 0.281864 0.165534 0.842027 0 -0.0608025 0.031826
43 1 0.189469 0.666645 0.774348 0 -0.00671005 -0.0337601
44 1 0.218762 0.0536677 0.983172 0 0.0775604 -0.0464401
45 1 0.126815 0.525532 0.916901 0 -0.0216255 -0.0239124
46 1 0.628046 0.667197 0.347945 0 0.00270462 0.0342789
47 1 0.565029 0.499939 0.489626 0 -0.00424004 0.0166168
48 1 0.315029 0.666729 0.489626 0 0.00424767 0.0166187
49 1 0.252378 0.499882 0.632371 0 -0.00237083 -0.0181141
50 1 0.00237894 0.666785 0.632371 0 0.0023632 -0.0181217
51 1 0.93947 0.500022 0.774348 0 0.00670815 -0.0337658
52 1 0.96876 0.113 0.983172 0 -0.07757 -0.0464516
53 1 0.876813 0.641135 0.916901 0 0.021637 -0.0239143
54 1 0.689469 0.666644 0.774349 0 -0.00671387 -0.0337734
55 1 0.626814 0.525531 0.916901 0 -0.0216312 -0.0239143
56 1 0.376814 0.641136 0.916901 0 0.0216293 -0.0239124
ITEM: TIMESTEP
5
ITEM: NUMBER OF ATOMS
56
ITEM: BOX BOUNDS xy xz yz pp pp pp
-4.3002691268920898e+00 1.2203788340091705e+01 0.0000000000000000e+00
-8.4733366966247559e-03 5.5348814725875854e+00 -4.2815806269645691e+00
-2.9168844223022461e-02 1.9049128890037537e+01 0.0000000000000000e+00
ITEM: ATOMS id type xs ys zs fx fy fz
1 1 0.597243 0.0310122 0.134661 0 -0.0325146 0.00907898
2 1 0.347244 0.135656 0.134661 0 0.0325089 0.0090847
3 1 0.284689 0.000450465 0.277499 0 0.0223713 0.00548744
4 1 0.0346889 0.166217 0.277499 0 -0.0223808 0.00548172
5 1 0.971457 -0.000381226 0.418553 0 -0.00492096 0.0260677
6 1 0.097244 0.0310118 0.13466 0 -0.0325203 0.00909233
7 1 0.00480954 0.559565 0.0669998 0 0.0151844 0.00161362
8 1 0.847245 0.135655 0.13466 0 0.0325184 0.00907707
9 1 0.754811 0.607103 0.067 0 -0.0151863 0.00160789
10 1 0.78469 0.000450714 0.277499 0 0.0223732 0.005476
11 1 0.721456 0.167049 0.418553 0 0.00491905 0.0260677
12 1 0.658471 -0.00047591 0.560346 0 -0.00607109 -0.0149231
13 1 0.408472 0.167143 0.560346 0 0.00607109 -0.0149288
14 1 0.345039 -0.00113443 0.70084 0 0.00892067 0.0211811
15 1 0.0950397 0.167801 0.70084 0 -0.00892258 0.0211773
16 1 0.0318969 0.008361 0.842115 0 0.00320053 -0.0130749
17 1 0.691773 0.50836 0.208337 0 0.00320816 0.0130844
18 1 0.534689 0.166216 0.277499 0 -0.0223713 0.00549126
19 1 0.441774 0.658306 0.208338 0 -0.0031929 0.0130844
20 1 0.471457 -0.000381281 0.418553 0 -0.00491905 0.026062
21 1 0.37863 0.498864 0.349613 0 0.00893593 -0.0211773
22 1 0.221456 0.16705 0.418553 0 0.00491333 0.0260696
23 1 0.12863 0.667803 0.349613 0 -0.00892448 -0.0211792
24 1 0.158472 -0.000475695 0.560346 0 -0.00606918 -0.014925
25 1 0.0651974 0.499525 0.490107 0 -0.00607109 0.0149136
26 1 0.908473 0.167143 0.560346 0 0.00606728 -0.0149231
27 1 0.815199 0.667143 0.490107 0 0.00607872 0.0149269
28 1 0.504809 0.559565 0.0669999 0 0.0151844 0.00160599
29 1 0.25481 0.607102 0.0670001 0 -0.0151825 0.00161934
30 1 0.191774 0.50836 0.208337 0 0.00320816 0.0130825
31 1 0.941774 0.658306 0.208337 0 -0.00320053 0.0130882
32 1 0.878631 0.498866 0.349613 0 0.00891876 -0.0211697
33 1 0.781895 0.158307 0.842115 0 -0.00321579 -0.0130939
34 1 0.718861 0.0595649 0.983453 0 0.0151806 -0.00161934
35 1 0.46886 0.107102 0.983453 0 -0.0151768 -0.00159645
36 1 0.845038 -0.00113496 0.70084 0 0.00891685 0.0211678
37 1 0.752211 0.499618 0.6319 0 -0.00491905 -0.0260677
38 1 0.59504 0.167801 0.70084 0 -0.00892067 0.0211792
39 1 0.502213 0.667048 0.6319 0 0.00491714 -0.0260601
40 1 0.531896 0.00836039 0.842116 0 0.00319481 -0.0131016
41 1 0.43898 0.50045 0.772954 0 0.0223713 -0.00548935
42 1 0.281895 0.158307 0.842115 0 -0.00321198 -0.0130901
43 1 0.18898 0.666216 0.772954 0 -0.0223732 -0.00548935
44 1 0.218861 0.0595647 0.983453 0 0.0151882 -0.00162125
45 1 0.126426 0.531012 0.915793 0 -0.0325146 -0.00908279
46 1 0.62863 0.667802 0.349613 0 -0.00892258 -0.0211735
47 1 0.565197 0.499525 0.490106 0 -0.00607491 0.0149288
48 1 0.315198 0.667143 0.490107 0 0.006073 0.0149193
49 1 0.252213 0.499618 0.6319 0 -0.00491714 -0.0260658
50 1 0.00221396 0.667049 0.6319 0 0.00492096 -0.0260639
51 1 0.938981 0.50045 0.772954 0 0.022377 -0.00548744
52 1 0.968859 0.107103 0.983453 0 -0.0151978 -0.00162506
53 1 0.876425 0.635655 0.915792 0 0.0325241 -0.00906754
54 1 0.68898 0.666215 0.772954 0 -0.0223637 -0.00548553
55 1 0.626426 0.531011 0.915792 0 -0.032505 -0.00907135
56 1 0.376426 0.635655 0.915792 0 0.0325146 -0.00906372
ITEM: TIMESTEP
6
ITEM: NUMBER OF ATOMS
56
ITEM: BOX BOUNDS xy xz yz pp pp pp
-4.3002691268920898e+00 1.2203788340091705e+01 0.0000000000000000e+00
-8.4733366966247559e-03 5.5348814725875854e+00 -4.2815806269645691e+00
-2.9168844223022461e-02 1.9049128890037537e+01 0.0000000000000000e+00
ITEM: ATOMS id type xs ys zs fx fy fz
1 1 0.59732 0.0293682 0.13488 0 -0.00242805 0.00850677
2 1 0.347321 0.1373 0.13488 0 0.00242043 0.00849915
3 1 0.28475 0.00181491 0.277672 0 0.0101471 0.00842094
4 1 0.0347494 0.164852 0.277672 0 -0.0101433 0.0084343
5 1 0.971625 -0.00069079 0.419033 0 -0.00311852 0.00371361
6 1 0.0973211 0.0293675 0.13488 0 -0.00241852 0.00849915
7 1 0.00481392 0.560803 0.0670123 0 -0.0169239 -0.0139751
8 1 0.847322 0.1373 0.13488 0 0.00242615 0.00849724
9 1 0.754815 0.605865 0.0670124 0 0.0169048 -0.0139751
10 1 0.784751 0.00181526 0.277672 0 0.0101452 0.00842094
11 1 0.721624 0.167359 0.419033 0 0.00313568 0.00372314
12 1 0.658371 -0.000862739 0.56006 0 -0.00218773 0.00883675
13 1 0.408371 0.16753 0.56006 0 0.00218964 0.00885391
14 1 0.345136 -0.00063347 0.701116 0 0.00481796 -0.00404549
15 1 0.0951364 0.1673 0.701116 0 -0.00482559 -0.00403976
16 1 0.0318188 0.0089544 0.841893 0 -0.00596046 0.00152206
17 1 0.691851 0.508954 0.20856 0 -0.00595284 -0.00152969
18 1 0.53475 0.164852 0.277672 0 -0.0101414 0.00842476
19 1 0.441852 0.657713 0.20856 0 0.00595856 -0.00153542
20 1 0.471625 -0.000690702 0.419033 0 -0.00313568 0.00372314
21 1 0.378534 0.499366 0.349337 0 0.00482941 0.00404549
22 1 0.221625 0.167359 0.419033 0 0.00312996 0.00371933
23 1 0.128534 0.667301 0.349337 0 -0.0048275 0.00403976
24 1 0.158371 -0.000862402 0.56006 0 -0.00219917 0.00884247
25 1 0.0652977 0.499138 0.490393 0 -0.00219917 -0.00884628
26 1 0.908373 0.16753 0.56006 0 0.00219345 0.00884819
27 1 0.815299 0.667531 0.490393 0 0.00218964 -0.00883865
28 1 0.504814 0.560803 0.0670122 0 -0.0169125 -0.0139694
29 1 0.254814 0.605865 0.0670127 0 0.0169144 -0.0139847
30 1 0.191852 0.508953 0.20856 0 -0.00595856 -0.00152588
31 1 0.941852 0.657713 0.20856 0 0.00595665 -0.00153351
32 1 0.878534 0.499367 0.349337 0 0.00482368 0.00403404
33 1 0.781817 0.157713 0.841892 0 0.00596809 0.00153351
34 1 0.718856 0.0608023 0.98344 0 -0.0169048 0.0139809
35 1 0.468856 0.105865 0.98344 0 0.0169086 0.0139713
36 1 0.845135 -0.000634229 0.701116 0 0.0048275 -0.00404167
37 1 0.752043 0.499309 0.63142 0 -0.00313377 -0.00372124
38 1 0.595136 0.1673 0.701116 0 -0.00482559 -0.00403976
39 1 0.502045 0.667357 0.63142 0 0.00313568 -0.00372124
40 1 0.531818 0.00895342 0.841892 0 -0.00595474 0.00154114
41 1 0.43892 0.501815 0.772781 0 0.0101433 -0.00841522
42 1 0.281817 0.157713 0.841892 0 0.00596428 0.0015316
43 1 0.18892 0.664852 0.772781 0 -0.0101471 -0.00842285
44 1 0.218856 0.0608026 0.98344 0 -0.0169125 0.0139923
45 1 0.126349 0.529368 0.915573 0 -0.00242615 -0.00850296
46 1 0.628533 0.667301 0.349337 0 -0.0048275 0.00404167
47 1 0.565298 0.499138 0.490393 0 -0.00219536 -0.00885201
48 1 0.315298 0.66753 0.490393 0 0.00219345 -0.0088501
49 1 0.252045 0.499308 0.63142 0 -0.00312233 -0.00372505
50 1 0.00204581 0.667358 0.63142 0 0.00312614 -0.00371361
51 1 0.938921 0.501815 0.772781 0 0.010149 -0.00842857
52 1 0.968854 0.105864 0.98344 0 0.016922 0.0139904
53 1 0.876348 0.637299 0.915573 0 0.0024147 -0.0085125
54 1 0.68892 0.664851 0.772781 0 -0.0101452 -0.00842094
55 1 0.626349 0.529368 0.915573 0 -0.00243378 -0.00850677
56 1 0.376349 0.637299 0.915573 0 0.00242615 -0.0085144
ITEM: TIMESTEP
7
ITEM: NUMBER OF ATOMS
56
ITEM: BOX BOUNDS xy xz yz pp pp pp
-4.3002691268920898e+00 1.2203788340091705e+01 0.0000000000000000e+00
-8.4733366966247559e-03 5.5348814725875854e+00 -4.2815806269645691e+00
-2.9168844223022461e-02 1.9049128890037537e+01 0.0000000000000000e+00
ITEM: ATOMS id type xs ys zs fx fy fz
1 1 0.597397 0.0287819 0.135099 0 -0.00522804 0.00306511
2 1 0.347398 0.137885 0.135099 0 0.00523758 0.00307274
3 1 0.284822 0.00283166 0.277876 0 -0.00286293 0.00590324
4 1 0.0348212 0.163835 0.277876 0 0.00286484 0.00589943
5 1 0.971693 -0.00097469 0.419228 0 0.000963211 0.000274658
6 1 0.0973975 0.0287817 0.135098 0 -0.0052433 0.00307274
7 1 0.00472233 0.560022 0.0667508 0 0.00399971 0.00551414
8 1 0.847398 0.137886 0.135098 0 0.00522804 0.00307274
9 1 0.754724 0.606645 0.066751 0 -0.00398636 0.00550461
10 1 0.784823 0.00283192 0.277876 0 -0.00286293 0.00590706
11 1 0.721692 0.167644 0.419228 0 -0.000974655 0.000265121
12 1 0.658403 -0.00110608 0.560152 0 -0.00124168 0.00575256
13 1 0.408404 0.167773 0.560153 0 0.00123024 0.00575066
14 1 0.345135 -0.000188948 0.701111 0 0.00112152 -0.00424004
15 1 0.0951347 0.166855 0.701111 0 -0.00111771 -0.00424767
16 1 0.0318086 0.00872033 0.841864 0 0.000337601 0.00661087
17 1 0.691862 0.50872 0.208589 0 0.000333786 -0.00660896
18 1 0.534821 0.163835 0.277876 0 0.00286102 0.00590706
19 1 0.441863 0.657947 0.208589 0 -0.000335693 -0.00660515
20 1 0.471694 -0.000975684 0.419228 0 0.000976562 0.000270844
21 1 0.378535 0.499812 0.349342 0 0.0011158 0.00423813
22 1 0.221693 0.167643 0.419228 0 -0.000974655 0.000274658
23 1 0.128535 0.666856 0.349342 0 -0.00111961 0.00423813
24 1 0.158404 -0.00110645 0.560153 0 -0.00122261 0.00575066
25 1 0.0652651 0.498894 0.4903 0 -0.00123215 -0.00574112
26 1 0.908405 0.167774 0.560153 0 0.00123024 0.00574875
27 1 0.815267 0.667774 0.490301 0 0.00122452 -0.00575066
28 1 0.504722 0.560022 0.0667508 0 0.00398636 0.00551033
29 1 0.254722 0.606645 0.0667511 0 -0.00399208 0.00552368
30 1 0.191863 0.50872 0.208589 0 0.000337601 -0.00660896
31 1 0.941863 0.657947 0.208589 0 -0.000331879 -0.00661087
32 1 0.878536 0.499811 0.349342 0 0.00112343 0.00424767
33 1 0.781807 0.157947 0.841863 0 -0.000333786 0.00660133
34 1 0.718948 0.0600224 0.983702 0 0.00397873 -0.00551224
35 1 0.468948 0.106645 0.983702 0 -0.00398827 -0.00551414
36 1 0.845133 -0.000189143 0.701111 0 0.00112724 -0.00424194
37 1 0.751975 0.499024 0.631224 0 0.000974655 -0.000270844
38 1 0.595135 0.166855 0.701111 0 -0.00111961 -0.00424767
39 1 0.501977 0.667642 0.631225 0 -0.00097084 -0.000276566
40 1 0.531807 0.00871962 0.841863 0 0.000335693 0.00660896
41 1 0.438848 0.502831 0.772577 0 -0.00285912 -0.00591087
42 1 0.281807 0.157947 0.841863 0 -0.000337601 0.00661087
43 1 0.188848 0.663835 0.772577 0 0.00286293 -0.00589943
44 1 0.218948 0.0600223 0.983702 0 0.00399971 -0.00551987
45 1 0.126273 0.528782 0.915355 0 -0.00523376 -0.00307083
46 1 0.628535 0.666856 0.349342 0 -0.00110817 0.00424194
47 1 0.565265 0.498894 0.4903 0 -0.00122643 -0.00575256
48 1 0.315265 0.667774 0.4903 0 0.00123596 -0.00574112
49 1 0.251976 0.499024 0.631224 0 0.000965118 -0.000270844
50 1 0.0019774 0.667642 0.631225 0 -0.000974655 -0.00028038
51 1 0.938849 0.502832 0.772576 0 -0.00287056 -0.00590897
52 1 0.968946 0.106645 0.983702 0 -0.00400543 -0.00551414
53 1 0.876271 0.637885 0.915354 0 0.00524139 -0.0030632
54 1 0.688848 0.663834 0.772577 0 0.00285912 -0.00589752
55 1 0.626272 0.528782 0.915355 0 -0.00523567 -0.00307465
56 1 0.376272 0.637885 0.915354 0 0.00523758 -0.00305748
ITEM: TIMESTEP
8
ITEM: NUMBER OF ATOMS
56
ITEM: BOX BOUNDS xy xz yz pp pp pp
-4.3002691268920898e+00 1.2203788340091705e+01 0.0000000000000000e+00
-8.4733366966247559e-03 5.5348814725875854e+00 -4.2815806269645691e+00
-2.9168844223022461e-02 1.9049128890037537e+01 0.0000000000000000e+00
ITEM: ATOMS id type xs ys zs fx fy fz
1 1 0.597431 0.0283659 0.135195 0 -0.00028038 0.000833511
2 1 0.347431 0.138302 0.135195 0 0.000286102 0.000835419
3 1 0.28487 0.00288787 0.278015 0 -0.00387192 0.00161743
4 1 0.0348699 0.163779 0.278015 0 0.00387764 0.00160408
5 1 0.971709 -0.000981248 0.419274 0 0.00149345 0.00221062
6 1 0.0974312 0.028365 0.135194 0 -0.00028038 0.000833511
7 1 0.00473418 0.560079 0.0667847 0 5.72205e-06 -0.00175667
8 1 0.847432 0.138302 0.135194 0 0.000274658 0.000839233
9 1 0.754735 0.606588 0.0667846 0 -1.14441e-05 -0.00175095
10 1 0.784871 0.0028881 0.278015 0 -0.00387192 0.0016098
11 1 0.721708 0.16765 0.419274 0 -0.00149155 0.00220871
12 1 0.658443 -0.00122697 0.560265 0 -0.000669479 -0.000576019
13 1 0.408444 0.167894 0.560266 0 0.000673294 -0.000589371
14 1 0.34511 -3.20401e-05 0.701041 0 -0.000579834 0.00159836
15 1 0.0951103 0.166698 0.701041 0 0.000583649 0.00158882
16 1 0.031844 0.00868946 0.841964 0 -0.000133514 -0.00130653
17 1 0.691826 0.508689 0.208489 0 -0.000131607 0.00130463
18 1 0.53487 0.163779 0.278016 0 0.00387573 0.00160599
19 1 0.441827 0.657978 0.208489 0 0.000127792 0.00130844
20 1 0.47171 -0.000981727 0.419274 0 0.00149536 0.00221443
21 1 0.37856 0.499968 0.349412 0 -0.000585556 -0.00159454
22 1 0.221709 0.167649 0.419274 0 -0.00149536 0.0022068
23 1 0.12856 0.666699 0.349411 0 0.000577927 -0.0015831
24 1 0.158443 -0.00122644 0.560265 0 -0.000673294 -0.000583649
25 1 0.0652256 0.498773 0.490187 0 -0.000656128 0.000581741
26 1 0.908445 0.167894 0.560266 0 0.000665665 -0.000585556
27 1 0.815227 0.667894 0.490188 0 0.000669479 0.000572205
28 1 0.504734 0.560079 0.0667846 0 1.52588e-05 -0.00175095
29 1 0.254734 0.606588 0.066785 0 -7.62939e-06 -0.00175476
30 1 0.191827 0.508689 0.208489 0 -0.000133514 0.00130081