LAMMPS (4 May 2022)
units 			metal
dimension		3
boundary		p    p    p				# Periodic boundary condition
atom_style		atomic					# Only the default values, coarse-grain liquids, solids, metals
box         	tilt large				# LAMMPS normally requires that no tilt factor can skew the box more than half the distance of the parallel box length, but tilt large allow.

neighbor 0.0 bin
neigh_modify    every 10 delay 0 check no		# Check no, rebuild anyway

read_data   	copper.lmp
Reading data file ...
  triclinic box = (0 0 0) to (117 117 117) with tilt (0 0 0)
  2 by 2 by 2 MPI processor grid
  reading atoms ...
  133374 atoms
  read_data CPU = 0.137 seconds
mass            1 63.54600000

pair_style 		nvnmd model.pb
# pair_style 		deepmd model.pb
# pair_style 	deepmd copper1.pb copper2.pb copper3.pb copper4.pb 100 model-devi.out
pair_coeff		* *				# Coefficient of petential function

variable        Ttarget equal 300.0			# Target tempture for annealing and MD

# compute		thermo_pe    all pe			# System potential energy
# compute 		thermo_temp  all temp
compute			mypress all  pressure thermo_temp
compute			myCNA   all cna/atom 3.10215312	# Common neighbor analysis

timestep		0.005  	# unit==psec==10^-12sec
thermo			100  	# 100==0.5psec			# Output frequency
thermo_style    custom step temp fmax fnorm c_thermo_temp c_thermo_pe press c_thermo_press[*] lx ly lz vol	# Box lengths in x,y,z

# no annealing?
# how to annealing though?

delete_atoms 	overlap 1.0 all all
System init for delete_atoms ...
Generated 0 of 0 mixed pair_coeff terms from geometric mixing rule
Neighbor list info ...
  update every 10 steps, delay 0 steps, check no
  max neighbors/atom: 2000, page size: 100000
  master list distance cutoff = 8
  ghost atom cutoff = 8
  binsize = 4, bins = 30 30 30
  3 neighbor lists, perpetual/occasional/extra = 1 2 0
  (1) command delete_atoms, occasional, copy from (2)
      attributes: full, newton on
      pair build: copy
      stencil: none
      bin: none
  (2) pair nvnmd, perpetual
      attributes: full, newton on
      pair build: full/bin/atomonly
      stencil: full/bin/3d
      bin: standard
  (3) compute cna/atom, occasional, copy from (2)
      attributes: full, newton on
      pair build: copy
      stencil: none
      bin: none
Deleted 590 atoms, new total = 132784

# dump          1 all custom 100 dump.relax id type xs ys zs fx fy fz c_atom_order[*]	# dump command, fx fy fz: forces on atoms
velocity        all create ${Ttarget} 9999 dist gaussian mom yes rot yes
velocity        all create 300 9999 dist gaussian mom yes rot yes
fix             5 all npt temp ${Ttarget} ${Ttarget} $(100.0*dt) iso 0.0 0.0 $(1000.0*dt)      # Tdamp = temperature damping parameter (time units)
fix             5 all npt temp 300 ${Ttarget} $(100.0*dt) iso 0.0 0.0 $(1000.0*dt)      
fix             5 all npt temp 300 300 $(100.0*dt) iso 0.0 0.0 $(1000.0*dt)      
fix             5 all npt temp 300 300 0.5 iso 0.0 0.0 $(1000.0*dt)      
fix             5 all npt temp 300 300 0.5 iso 0.0 0.0 5      
run             10000                                                                   # Pdamp = pressure damping parameter (time units)
Generated 0 of 0 mixed pair_coeff terms from geometric mixing rule
Neighbor list info ...
  update every 10 steps, delay 0 steps, check no
  max neighbors/atom: 2000, page size: 100000
  master list distance cutoff = 8
  ghost atom cutoff = 8
  binsize = 4, bins = 30 30 30
  2 neighbor lists, perpetual/occasional/extra = 1 1 0
  (1) pair nvnmd, perpetual
      attributes: full, newton on
      pair build: full/bin/atomonly
      stencil: full/bin/3d
      bin: standard
  (2) compute cna/atom, occasional, copy from (1)
      attributes: full, newton on
      pair build: copy
      stencil: none
      bin: none
Per MPI rank memory allocation (min/avg/max) = 18.72 | 18.72 | 18.72 Mbytes
   Step          Temp           Fmax          Fnorm      c_thermo_temp   c_thermo_pe       Press      c_thermo_press[1] c_thermo_press[2] c_thermo_press[3] c_thermo_press[4] c_thermo_press[5] c_thermo_press[6]       Lx             Ly             Lz           Volume    
         0   300            54.35018       1566.7472      300           -12720.404      69182.926      69099.545      69273.175      69176.059      129.89308     -339.91525      312.25193      117            117            117            1601613      
       100   1025.7259      7.5794353      475.09814      1025.7259     -31496.483      39407.845      39527.445      39196.546      39499.543      227.0707       448.67681     -475.87628      118.76548      118.76548      118.76548      1675215.4    
       200   850.74361      6.3101997      421.93551      850.74361     -33911.554      4934.8146      5013.8828      4562.0498      5228.5111      43.452665     -266.24415     -155.09947      119.49147      119.49147      119.49147      1706124.6    
       300   736.21591      4.4163818      388.03343      736.21591     -36163.631     -4197.5833     -4069.4461     -4250.8074     -4272.4964      293.62473     -160.82051      26.285243      119.49732      119.49732      119.49732      1706375      
       400   653.45865      4.2052116      366.49412      653.45865     -38369.894     -3920.2679     -4341.7721     -3398.0685     -4020.9632      206.87804     -139.78779      84.778743      119.19953      119.19953      119.19953      1693649.8    
       500   578.08786      3.6794224      349.52877      578.08786     -40175.955     -3084.6622     -2743.3098     -3287.8593     -3222.8176      254.97974     -108.49516      216.95411      118.9279       118.9279       118.9279       1682097.8    
       600   515.46473      3.5898552      330.25251      515.46473     -41696.097     -2313.3684     -2062.4072     -2254.8795     -2622.8186      286.78681      29.796598     -83.368244      118.70767      118.70767      118.70767      1672770.6    
       700   463.19289      3.404604       315.66202      463.19289     -42955.912     -1839.1957     -1941.7907     -1589.3725     -1986.4239      174.49925      165.07579     -36.136517      118.51756      118.51756      118.51756      1664746.6    
       800   420.65798      2.9589634      299.28872      420.65798     -44005.577     -1296.0122     -1416.8586     -1346.3866     -1124.7915      121.98038      117.30565     -19.688786      118.36944      118.36944      118.36944      1658512.6    
       900   383.11371      2.6804295      287.25416      383.11371     -44817.875     -1038.3789     -1151.516      -1184.2839     -779.33675      454.15033      148.71282      451.36582      118.24757      118.24757      118.24757      1653395.2    
      1000   352.31839      2.5532722      276.50175      352.31839     -45465.518     -609.37886     -875.40936     -285.45832     -667.26891      297.29467      91.797267      206.62652      118.15138      118.15138      118.15138      1649363.6    
      1100   327.96904      2.6591091      267.29002      327.96904     -45976.659     -531.54423     -743.76792     -203.42629     -647.43848      148.64696      253.57593      17.811539      118.08067      118.08067      118.08067      1646404.1    
      1200   309.71743      2.1473007      260.25479      309.71743     -46365.618     -224.5128      -227.45547     -130.16301     -315.91991      199.7469       279.77485      168.02276      118.02133      118.02133      118.02133      1643923.2    
      1300   296.77768      2.2008514      255.36174      296.77768     -46627.872     -126.50688     -130.80532     -99.043494     -149.67182      110.72044      411.0699       51.346541      117.98331      117.98331      117.98331      1642335.1    
      1400   291.52885      2.9620171      253.17142      291.52885     -46783.731     -14.214886      14.764597     -123.84242      66.433163      129.95062      341.72443      73.675314      117.9606       117.9606       117.9606       1641386.9    
      1500   293.60317      2.1351986      253.7868       293.60317     -46791.241      80.568414      104.23135      133.23904      4.2348531      111.42671      314.96462     -137.14765      117.95731      117.95731      117.95731      1641249.6    
      1600   300.57566      2.4014091      256.9453       300.57566     -46682.271      100.929        316.91124      137.24189     -151.36613      119.66291      260.41314     -115.02274      117.97211      117.97211      117.97211      1641867.3    
      1700   306.78614      2.2938175      258.99006      306.78614     -46594.673     -62.049267      123.47184     -32.258186     -277.36146      115.0921       444.05772      73.636469      117.98608      117.98608      117.98608      1642450.7    
      1800   306.29757      2.4117756      260.06808      306.29757     -46595.583     -129.16738     -50.596231     -45.739613     -291.16629     -143.63628      317.56938     -172.74254      117.9887       117.9887       117.9887       1642560.1    
      1900   300.57206      2.1434364      257.56517      300.57206     -46699.186     -33.636217      232.5689      -161.01978     -172.45777     -63.744522      228.88624     -15.619989      117.97114      117.97114      117.97114      1641826.8    
      2000   295.88987      2.5145149      255.22813      295.88987     -46825.3        16.989302      279.21427     -100.85146     -127.39491      173.36858      322.3028      -54.036748      117.95589      117.95589      117.95589      1641189.9    
      2100   294.35154      2.2745304      254.47843      294.35154     -46859.027      0.4651487      325.4434       135.11599     -459.16394     -3.7169056      376.45543     -220.33737      117.94936      117.94936      117.94936      1640917.6    
      2200   298.18345      2.5946712      256.06252      298.18345     -46811.36       83.789726      421.25018      40.916732     -210.79774     -77.27137       393.08581     -219.72504      117.95459      117.95459      117.95459      1641136      
      2300   302.49697      2.1085148      258.53992      302.49697     -46716.004      27.815224      387.83205      151.93597     -456.32234      123.48536      457.32236     -16.70125       117.96775      117.96775      117.96775      1641685.2    
      2400   305.35735      2.3204746      259.08184      305.35735     -46697.263     -31.109605      237.74315      78.395523     -409.46748      214.21405      337.45598     -197.67088      117.97249      117.97249      117.97249      1641883.3    
      2500   302.11154      2.1719761      258.5736       302.11154     -46734.005     -43.644881      403.16002      14.988553     -549.08322      18.832632      407.94512     -170.69473      117.96755      117.96755      117.96755      1641676.8    
      2600   298.48789      2.2411785      256.61324      298.48789     -46839.26      -6.7212294      272.98523      207.00989     -500.15881      99.602017      334.93436     -235.3261       117.95442      117.95442      117.95442      1641128.8    
      2700   295.63713      2.418951       255.46824      295.63713     -46892.809     -35.420645      390.19532      45.976461     -542.43372      149.957        458.51107     -348.3785       117.94682      117.94682      117.94682      1640811.6    
      2800   296.50826      2.4656296      256.43463      296.50826     -46870.304      90.440398      388.82147      142.32267     -259.82295      29.33144       283.68233     -203.43456      117.94642      117.94642      117.94642      1640794.8    
      2900   300.39317      2.3324337      257.64875      300.39317     -46802.61      -0.23833758     237.82996      193.15393     -431.6989       36.900297      169.61893     -62.136728      117.95715      117.95715      117.95715      1641242.9    
      3000   303.71873      2.6763268      258.86622      303.71873     -46754.434      2.7953329      386.06808      50.043821     -427.7259       159.48944      477.9966      -195.26432      117.9629       117.9629       117.9629       1641482.5    
      3100   303.7272       2.350729       258.57592      303.7272      -46776.682     -61.277691      322.37897      57.455966     -563.66801      138.99113      310.07977     -241.50625      117.96375      117.96375      117.96375      1641518.1    
      3200   300.02218      2.4443913      257.09442      300.02218     -46843.642     -4.4501122      250.98655      143.54385     -407.88073     -34.529407      307.43534     -295.93089      117.95262      117.95262      117.95262      1641053.5    
      3300   296.77165      2.6078815      256.01836      296.77165     -46912.182     -13.952963      365.22239      98.224511     -505.30579      213.73815      456.45707     -265.13177      117.94422      117.94422      117.94422      1640702.9    
      3400   296.88112      2.3245583      255.561        296.88112     -46933.628     -11.44646       468.18469     -30.021791     -472.50227     -96.013524      482.79675     -358.61086      117.94097      117.94097      117.94097      1640567.3    
      3500   299.05226      2.1622028      256.9002       299.05226     -46880.062      32.603981      277.00773      132.85945     -312.05524     -61.110695      277.54495     -199.329        117.94763      117.94763      117.94763      1640845.5    
      3600   302.71476      2.2400303      258.19127      302.71476     -46825.401      6.7897688      384.58067      3.606931      -367.8183       76.47997       289.14179     -307.59956      117.95468      117.95468      117.95468      1641139.6    
      3700   303.39935      2.4974461      259.01892      303.39935     -46799.693     -47.362936      276.15976      37.478117     -455.72669      103.99592      302.86275     -222.57274      117.95849      117.95849      117.95849      1641298.6    
      3800   300.67845      2.2401619      258.14196      300.67845     -46831.225     -10.524241      203.47171      149.27868     -384.32311      148.27111      362.35319     -216.04571      117.95354      117.95354      117.95354      1641092.1    
      3900   298.59244      2.4274216      256.16631      298.59244     -46921.342     -0.6095532      235.34427      109.91106     -347.084        53.189889      338.03486     -268.13014      117.94304      117.94304      117.94304      1640653.8    
      4000   296.26935      2.1750011      255.40014      296.26935     -46944.332      4.1723437      345.49241      39.797708     -372.77309     -66.798395      274.37472     -109.87889      117.93929      117.93929      117.93929      1640497.3    
      4100   297.86695      2.4739838      256.61052      297.86695     -46925.469      29.233377      285.96082      65.868593     -264.12928      122.55859      333.65468     -146.01957      117.93965      117.93965      117.93965      1640512.4    
      4200   300.80819      2.4445324      257.85936      300.80819     -46865.746      26.933878      350.54025     -0.2962191     -269.4424       66.276284      448.54383     -243.63953      117.94885      117.94885      117.94885      1640896.5    
      4300   303.62359      2.3849125      258.35697      303.62359     -46842.112     -13.610249      328.69236     -74.330281     -295.19283      54.689176      276.17085     -264.83064      117.95377      117.95377      117.95377      1641101.6    
      4400   302.74517      2.2771473      258.11525      302.74517     -46858.07      -72.116646      162.07239     -9.5483149     -368.87401      210.92586      383.48451     -313.62845      117.95226      117.95226      117.95226      1641038.5    
      4500   299.83117      2.1742783      257.02713      299.83117     -46917.204      1.558465       145.84887      321.60937     -462.78284      217.45105      244.64015     -253.83433      117.9436       117.9436       117.9436       1640677.2    
      4600   296.22328      2.6058445      256.30049      296.22328     -46944.807      24.282638      390.65264      46.87036      -364.67509      144.92446      184.80237     -160.52146      117.93803      117.93803      117.93803      1640444.6    
      4700   297.17824      2.2797108      256.16864      297.17824     -46960.371      48.570104      330.69822      150.35015     -335.33806      192.46997      347.40446     -318.96021      117.93545      117.93545      117.93545      1640337.2    
      4800   299.72174      2.3605576      257.1612       299.72174     -46917.075      21.138596      155.58448      334.14821     -426.31691      68.779908      276.80075     -290.71833      117.94188      117.94188      117.94188      1640605.2    
      4900   302.64891      2.2377205      258.20852      302.64891     -46873.987      26.591789      315.59152      150.00479     -385.82095      66.923288      223.46472     -269.53832      117.94801      117.94801      117.94801      1640861.4    
      5000   303.0921       2.38727        258.89621      303.0921      -46865.632     -60.440902      274.3315      -197.09933     -258.55488      57.971212      184.1984      -230.55023      117.95133      117.95133      117.95133      1641000      
      5100   301.26569      2.3061581      257.65515      301.26569     -46914.478     -26.484741      110.29489      51.090103     -240.83922      146.7585       334.90343     -380.18681      117.94388      117.94388      117.94388      1640689.1    
      5200   297.85128      2.2297955      256.61488      297.85128     -46960.422     -36.978208      124.35195      22.84232      -258.12889      16.388907      252.59119     -273.654        117.93787      117.93787      117.93787      1640437.9    
      5300   297.43726      2.0746384      256.25147      297.43726     -46994.782     -23.49406       228.61094      40.197149     -339.29027      108.01184      569.39964     -253.82372      117.93385      117.93385      117.93385      1640270.1    
      5400   297.91746      2.4402161      257.25281      297.91746     -46950.379      98.249695      441.22946      144.58686     -291.06724      22.523288      400.8744      -355.68822      117.93524      117.93524      117.93524      1640328.4    
      5500   301.039        2.3695068      257.92945      301.039       -46903.446     -0.68089402     184.5514       101.97909     -288.57317      106.41533      394.5497      -234.44637      117.94432      117.94432      117.94432      1640707.3    
      5600   302.24334      2.3588676      259.06535      302.24334     -46869.666     -37.240908      131.10787      75.260196     -318.09079      170.37912      500.49386     -435.73405      117.94853      117.94853      117.94853      1640882.8    
      5700   302.44242      2.25807        258.00275      302.44242     -46914.029     -58.63617       223.21626     -59.489093     -339.63568     -52.714299      327.90546     -331.87892      117.94418      117.94418      117.94418      1640701.5    
      5800   298.96002      2.3777142      256.89436      298.96002     -46954.188     -37.837437      142.30947     -77.354886     -178.4669       173.28715      353.25297     -227.90297      117.93951      117.93951      117.93951      1640506.6    
      5900   297.36884      2.3991222      256.61445      297.36884     -46998.628      41.831667      379.5186      -65.38121      -188.64239      129.10967      377.0173      -247.83788      117.93105      117.93105      117.93105      1640153.4    
      6000   298.20778      2.2992859      256.26726      298.20778     -46999.045     -69.27052       16.009512      141.52523     -365.3463       56.044807      490.02329     -252.9435       117.93542      117.93542      117.93542      1640336      
      6100   300.10866      2.3360233      257.93737      300.10866     -46947.65       82.878133      309.88868      232.58912     -293.84341      132.81928      346.41337     -246.68488      117.93719      117.93719      117.93719      1640409.6    
      6200   302.82202      2.1674366      258.15835      302.82202     -46918.284     -91.201148      115.95961     -81.40074      -308.16232      134.62366      346.7989      -248.81669      117.94499      117.94499      117.94499      1640735      
      6300   302.62307      2.3646317      258.12117      302.62307     -46915.331     -7.3047928      102.26614      90.409651     -214.59017      274.39378      308.08597     -402.21504      117.9437       117.9437       117.9437       1640681.5    
      6400   300.75228      2.2897816      257.18197      300.75228     -46959.966     -13.16934       206.50108     -119.60721     -126.40188      195.08838      396.00323     -271.19254      117.93918      117.93918      117.93918      1640492.6    
      6500   297.73445      2.5386715      256.84375      297.73445     -46992.22       93.901179      103.02759      130.1784       48.497545      170.31898      308.71989     -270.47745      117.93031      117.93031      117.93031      1640122.8    
      6600   297.49481      2.2771549      256.51087      297.49481     -47009.729     -20.677391      135.46851     -189.29507     -8.2056084      88.826308      410.37966     -326.41272      117.93184      117.93184      117.93184      1640186.3    
      6700   298.59023      2.2732658      257.47317      298.59023     -46970.862      72.019343      89.271557      165.18567     -38.399202      324.54817      561.03866     -345.76123      117.93263      117.93263      117.93263      1640219.3    
      6800   300.78673      2.2870369      258.3515       300.78673     -46926.9        45.734006      14.029257      175.94003     -52.767273      134.48509      462.4231      -536.9344       117.94006      117.94006      117.94006      1640529.6    
      6900   302.05423      2.2063179      258.46453      302.05423     -46916.614     -23.397397      82.078628      89.608911     -241.87973      215.02353      272.55586     -356.96496      117.94193      117.94193      117.94193      1640607.4    
      7000   301.9652       2.5088711      257.7326       301.9652      -46961.231     -66.866675     -109.09619      172.28306     -263.78688      226.82987      265.5704      -274.87995      117.93994      117.93994      117.93994      1640524.2    
      7100   299.38407      2.1936855      256.61609      299.38407     -47003.896      12.295922     -104.15442      65.691588      75.350602      152.95488      224.8283      -379.70566      117.93199      117.93199      117.93199      1640192.7    
      7200   297.89246      2.2142925      256.0363       297.89246     -47030.576     -31.210626     -5.1786955      190.6917      -279.14489      187.27991      339.939       -223.16831      117.93         117.93         117.93         1640109.7    
      7300   298.00755      2.2802238      256.98629      298.00755     -47007.388      91.201617      185.79714      86.181452      1.6262631      237.78881      245.34898     -474.41216      117.92882      117.92882      117.92882      1640060.5    
      7400   300.92901      2.4992371      257.71239      300.92901     -46979.909     -61.884026      124.91889     -1.8534887     -308.71748      342.31497      451.81505     -324.74206      117.93709      117.93709      117.93709      1640405.7    
      7500   302.97775      2.1486683      258.08958      302.97775     -46954.332     -25.353903      73.122712     -58.462683     -90.721738      339.37351      408.87807     -430.45218      117.93994      117.93994      117.93994      1640524.4    
      7600   301.57251      2.469429       258.23506      301.57251     -46942.109     -14.309122      99.159466     -70.185458     -71.901375      149.22619      400.58185     -413.00751      117.93926      117.93926      117.93926      1640496.1    
      7700   299.86051      2.1098309      257.18458      299.86051     -46986.223     -1.2458228      98.438248      33.877428     -136.05314      116.00504      355.16981     -327.30777      117.9346       117.9346       117.9346       1640301.6    
      7800   298.63413      2.3361816      256.44007      298.63413     -47036.888     -11.625964      76.630794      47.708402     -159.21709      202.35335      442.22309     -349.82909      117.92802      117.92802      117.92802      1640027      
      7900   297.07293      2.5001373      256.73089      297.07293     -47019.595      68.903681      68.821038      159.7925      -21.902492      265.07776      372.37107     -189.99489      117.92751      117.92751      117.92751      1640005.8    
      8000   299.36901      2.3923683      256.86484      299.36901     -47002.048     -3.8815597      81.913566     -0.88829606    -92.669949      234.51219      345.53751     -354.72551      117.93189      117.93189      117.93189      1640188.4    
      8100   301.48286      2.1539459      258.05612      301.48286     -46967.134     -40.401908      45.432417     -78.511465     -88.126677      291.23506      502.78065     -482.36909      117.9375       117.9375       117.9375       1640422.7    
      8200   301.90073      2.4487495      258.29483      301.90073     -46953.639      33.648502      40.415612      228.78582     -168.25593      318.28312      319.56177     -504.20617      117.93762      117.93762      117.93762      1640427.5    
      8300   301.16915      2.2768726      257.44547      301.16915     -46991.284     -32.533817     -149.96788      197.99713     -145.6307       182.50795      278.01172     -395.53562      117.93552      117.93552      117.93552      1640339.9    
      8400   298.31002      2.1653061      257.07334      298.31002     -47017.826      84.357338      117.83859     -11.354294      146.58772      267.78765      498.18773     -298.26399      117.92779      117.92779      117.92779      1640017.7    
      8500   297.86341      2.4465942      256.2798       297.86341     -47046.075     -33.772192      117.61024     -71.21356      -147.71326      551.77248      441.37922     -469.95733      117.92819      117.92819      117.92819      1640034.4    
      8600   298.44097      2.2695942      256.91903      298.44097     -47019.121      87.215642      248.73743      62.272155     -49.36266       346.89828      211.42595     -463.77851      117.92675      117.92675      117.92675      1639974.1    
      8700   301.15968      2.2169895      257.81681      301.15968     -46993.708     -59.255173      203.18041     -13.711581     -367.23434      351.91873      357.14531     -410.95661      117.93546      117.93546      117.93546      1640337.7    
      8800   302.72152      2.268774       258.27527      302.72152     -46976.41       28.527599      39.210309      98.286554     -51.914068      222.41772      272.17476     -278.95942      117.93617      117.93617      117.93617      1640367.3    
      8900   301.78392      2.335844       257.82319      301.78392     -46982.806     -24.187905      44.076098      111.20365     -227.84346      211.94117      354.10433     -168.26132      117.93687      117.93687      117.93687      1640396.2    
      9000   299.379        2.4181004      257.5142       299.379       -47010.407      32.919882      102.0161       67.297712     -70.554165      223.7024       412.30159     -409.82418      117.92972      117.92972      117.92972      1640098.1    
      9100   298.51886      2.1771717      256.21068      298.51886     -47052.184     -32.157252      50.754682      7.0495284     -154.27597      363.0205       272.36775     -410.73652      117.928        117.928        117.928        1640026.4    
      9200   298.42563      2.3390369      256.63566      298.42563     -47047.164      41.959291      170.40554      135.25172     -179.77939      313.47802      497.49297     -339.88494      117.92552      117.92552      117.92552      1639922.7    
      9300   300.25424      2.6362762      257.43516      300.25424     -47020.766     -66.852557      70.945854      50.660718     -322.16424      304.89715      350.75698     -433.19494      117.93102      117.93102      117.93102      1640152.1    
      9400   302.28311      2.632616       257.81481      302.28311     -46994.994     -67.073273     -112.30664      226.17413     -315.08731      221.81691      390.0713      -366.54319      117.93544      117.93544      117.93544      1640336.5    
      9500   302.02801      2.1719456      258.04178      302.02801     -46980.196     -34.435363      27.781687      129.1185      -260.20628      257.68072      402.34201     -408.19392      117.93565      117.93565      117.93565      1640345.3    
      9600   300.37144      2.8098316      257.62105      300.37144     -47001.329      67.891838      135.98938      261.90758     -194.22144      276.46296      282.51289     -318.0952       117.9316       117.9316       117.9316       1640176.4    
      9700   298.56623      2.1781502      257.54665      298.56623     -47036.368      9.3200927     -93.146222      167.14488     -46.038384      130.2383       452.98301     -460.23234      117.92834      117.92834      117.92834      1640040.6    
      9800   298.71854      2.4537544      256.56309      298.71854     -47065.924     -29.607479      12.64755       154.9278      -256.39779      238.07573      240.79        -392.80231      117.92617      117.92617      117.92617      1639949.8    
      9900   299.26741      2.4427509      256.72487      299.26741     -47041.664      24.511654      9.9516847      408.82173     -345.23845      249.36489      328.92362     -442.76341      117.92607      117.92607      117.92607      1639945.5    
     10000   300.30801      2.4172745      257.68453      300.30801     -46995.416     -64.628214      87.26966       10.071272     -291.22558      263.73577      352.69183     -405.23725      117.93459      117.93459      117.93459      1640301.1    
Loop time of 541.567 on 8 procs for 10000 steps with 132784 atoms

Performance: 7.977 ns/day, 3.009 hours/ns, 18.465 timesteps/s
91.3% CPU use with 8 MPI tasks x no OpenMP threads

MPI task timing breakdown:
Section |  min time  |  avg time  |  max time  |%varavg| %total
---------------------------------------------------------------
Pair    | 449.9      | 464.82     | 478.99     |  44.3 | 85.83
Neigh   | 51.619     | 53.929     | 54.891     |  13.1 |  9.96
Comm    | 3.6226     | 17.724     | 31.608     | 217.6 |  3.27
Output  | 0.019348   | 0.019532   | 0.020179   |   0.2 |  0.00
Modify  | 4.5779     | 4.6592     | 4.7198     |   2.3 |  0.86
Other   |            | 0.416      |            |       |  0.08

Nlocal:          16598 ave       16617 max       16586 min
Histogram: 3 1 0 0 1 0 1 0 1 1
Nghost:        17532.1 ave       17554 max       17517 min
Histogram: 2 1 1 1 0 1 0 0 1 1
Neighs:              0 ave           0 max           0 min
Histogram: 8 0 0 0 0 0 0 0 0 0
FullNghs:  2.87565e+06 ave 2.88332e+06 max 2.86805e+06 min
Histogram: 1 1 0 2 1 0 0 1 1 1

Total # of neighbors = 23005184
Ave neighs/atom = 173.25268
Neighbor list builds = 1000
Dangerous builds not checked
unfix           5

min_style       cg
min_modify      dmax 0.01 norm max
fix             1 all box/relax iso 0.0
minimize        1.000000e-13 1.000000e+3 5000 5000
WARNING: Using 'neigh_modify every 1 delay 0 check yes' setting during minimization (../min.cpp:187)
Generated 0 of 0 mixed pair_coeff terms from geometric mixing rule
Per MPI rank memory allocation (min/avg/max) = 23.59 | 23.64 | 23.97 Mbytes
   Step          Temp           Fmax          Fnorm      c_thermo_temp   c_thermo_pe       Press      c_thermo_press[1] c_thermo_press[2] c_thermo_press[3] c_thermo_press[4] c_thermo_press[5] c_thermo_press[6]       Lx             Ly             Lz           Volume    
     10000   300.30801      2.4172745      257.68453      300.30801     -46995.416     -64.628214      87.26966       10.071272     -291.22558      263.73577      352.69183     -405.23725      117.93459      117.93459      117.93459      1640301.1    
     10009   300.30801      2.4391727      260.32921      300.30801     -47000.196      3111.3235      3265.1719      3187.0991      2881.6995      266.00092      354.96524     -410.06093      117.83434      117.83434      117.83434      1636121.9    
Loop time of 1.27824 on 8 procs for 9 steps with 132784 atoms

95.8% CPU use with 8 MPI tasks x no OpenMP threads

Minimization stats:
  Stopping criterion = force tolerance
  Energy initial, next-to-last, final = 
     -46995.4155510664  -47000.0524010658  -47000.1962060928
  Force two-norm initial, final = 10510.361 820.0528
  Force max component initial, final = 10507.201 777.63442
  Final line search alpha, max atom move = 5.1762767e-08 4.0252509e-05
  Iterations, force evaluations = 9 10

MPI task timing breakdown:
Section |  min time  |  avg time  |  max time  |%varavg| %total
---------------------------------------------------------------
Pair    | 0.45743    | 0.70171    | 0.74852    |  11.1 | 54.90
Neigh   | 0.50015    | 0.54114    | 0.80134    |  13.4 | 42.33
Comm    | 0.007709   | 0.023953   | 0.038491   |   6.3 |  1.87
Output  | 0          | 0          | 0          |   0.0 |  0.00
Modify  | 0          | 0          | 0          |   0.0 |  0.00
Other   |            | 0.01144    |            |       |  0.89

Nlocal:          16598 ave       16617 max       16586 min
Histogram: 3 1 0 0 1 0 1 0 1 1
Nghost:          17546 ave       17563 max       17529 min
Histogram: 1 0 1 3 0 0 0 1 0 2
Neighs:              0 ave           0 max           0 min
Histogram: 8 0 0 0 0 0 0 0 0 0
FullNghs:   2.8819e+06 ave 2.88975e+06 max 2.87443e+06 min
Histogram: 1 1 0 2 1 0 0 1 1 1

Total # of neighbors = 23055206
Ave neighs/atom = 173.6294
Neighbor list builds = 10
Dangerous builds not checked
unfix           1
fix             1 all box/relax aniso 0.0
minimize        1.000000e-13 2.000000e+2 5000 5000
WARNING: Using 'neigh_modify every 1 delay 0 check yes' setting during minimization (../min.cpp:187)
Generated 0 of 0 mixed pair_coeff terms from geometric mixing rule
Per MPI rank memory allocation (min/avg/max) = 23.59 | 23.64 | 23.97 Mbytes
   Step          Temp           Fmax          Fnorm      c_thermo_temp   c_thermo_pe       Press      c_thermo_press[1] c_thermo_press[2] c_thermo_press[3] c_thermo_press[4] c_thermo_press[5] c_thermo_press[6]       Lx             Ly             Lz           Volume    
     10009   300.30801      2.4391727      260.32921      300.30801     -47000.196      3111.3235      3265.1719      3187.0991      2881.6995      266.00092      354.96524     -410.06093      117.83434      117.83434      117.83434      1636121.9    
     10010   300.30801      2.4404926      260.48632      300.30801     -47000.301      3301.7374      3416.0346      3361.052       3128.1255      265.60256      353.92607     -408.84349      117.83256      117.83005      117.82256      1635873.8    
Loop time of 0.167456 on 8 procs for 1 steps with 132784 atoms

94.5% CPU use with 8 MPI tasks x no OpenMP threads

Minimization stats:
  Stopping criterion = force tolerance
  Energy initial, next-to-last, final = 
     -47000.1962060928  -47000.1962060928  -47000.3014999628
  Force two-norm initial, final = 609.33916 376.78261
  Force max component initial, final = 512.41485 261.27828
  Final line search alpha, max atom move = 1.9515438e-07 5.09896e-05
  Iterations, force evaluations = 1 1

MPI task timing breakdown:
Section |  min time  |  avg time  |  max time  |%varavg| %total
---------------------------------------------------------------
Pair    | 0.084874   | 0.10762    | 0.11306    |   2.7 | 64.27
Neigh   | 0.049717   | 0.054058   | 0.079749   |   4.2 | 32.28
Comm    | 0.00099632 | 0.0039765  | 0.0066544  |   2.8 |  2.37
Output  | 0          | 0          | 0          |   0.0 |  0.00
Modify  | 0          | 0          | 0          |   0.0 |  0.00
Other   |            | 0.001802   |            |       |  1.08

Nlocal:          16598 ave       16617 max       16586 min
Histogram: 3 1 0 0 1 0 1 0 1 1
Nghost:        17547.8 ave       17565 max       17532 min
Histogram: 1 1 1 2 0 0 0 0 1 2
Neighs:              0 ave           0 max           0 min
Histogram: 8 0 0 0 0 0 0 0 0 0
FullNghs:  2.88229e+06 ave 2.89009e+06 max 2.87484e+06 min
Histogram: 1 1 0 2 1 0 0 1 1 1

Total # of neighbors = 23058324
Ave neighs/atom = 173.65288
Neighbor list builds = 1
Dangerous builds not checked
unfix           1
fix             1 all box/relax tri 0.0
minimize        1.000000e-13 1.000000e+2 5000 5000
WARNING: Using 'neigh_modify every 1 delay 0 check yes' setting during minimization (../min.cpp:187)
Generated 0 of 0 mixed pair_coeff terms from geometric mixing rule
Per MPI rank memory allocation (min/avg/max) = 23.59 | 23.64 | 23.97 Mbytes
   Step          Temp           Fmax          Fnorm      c_thermo_temp   c_thermo_pe       Press      c_thermo_press[1] c_thermo_press[2] c_thermo_press[3] c_thermo_press[4] c_thermo_press[5] c_thermo_press[6]       Lx             Ly             Lz           Volume    
     10010   300.30801      2.4404926      260.48632      300.30801     -47000.301      3301.7374      3416.0346      3361.052       3128.1255      265.60256      353.92607     -408.84349      117.83256      117.83005      117.82256      1635873.8    
     10016   300.30801      2.4430408      260.53165      300.30801     -47000.886      3364.3995      3340.8022      3366.6719      3385.7245      76.426093      73.0924       -86.915347      117.84395      117.83238      117.80279      1635789.9    
Loop time of 0.794653 on 8 procs for 6 steps with 132784 atoms

95.5% CPU use with 8 MPI tasks x no OpenMP threads

Minimization stats:
  Stopping criterion = force tolerance
  Energy initial, next-to-last, final = 
     -47000.3014999628    -47000.79712677  -47000.8858730793
  Force two-norm initial, final = 722.84939 295.85042
  Force max component initial, final = 420.71655 92.007558
  Final line search alpha, max atom move = 6.8405186e-07 6.2937941e-05
  Iterations, force evaluations = 6 6

MPI task timing breakdown:
Section |  min time  |  avg time  |  max time  |%varavg| %total
---------------------------------------------------------------
Pair    | 0.30376    | 0.4468     | 0.4754     |   8.1 | 56.23
Neigh   | 0.30031    | 0.32493    | 0.47829    |  10.2 | 40.89
Comm    | 0.0047596  | 0.015245   | 0.024545   |   5.0 |  1.92
Output  | 0          | 0          | 0          |   0.0 |  0.00
Modify  | 0          | 0          | 0          |   0.0 |  0.00
Other   |            | 0.007675   |            |       |  0.97

Nlocal:          16598 ave       16617 max       16586 min
Histogram: 3 1 0 0 1 0 1 0 1 1
Nghost:        17547.9 ave       17565 max       17532 min
Histogram: 1 0 2 2 0 0 0 0 2 1
Neighs:              0 ave           0 max           0 min
Histogram: 8 0 0 0 0 0 0 0 0 0
FullNghs:   2.8824e+06 ave 2.89025e+06 max  2.8749e+06 min
Histogram: 1 1 0 2 1 0 0 1 1 1

Total # of neighbors = 23059214
Ave neighs/atom = 173.65958
Neighbor list builds = 6
Dangerous builds not checked
unfix           1

timestep        0.0005
min_style       quickmin
min_modify      dmax 0.01 norm max
fix             2 all viscous 0.2
minimize        0.0 100 5000 5000
WARNING: Using 'neigh_modify every 1 delay 0 check yes' setting during minimization (../min.cpp:187)
Generated 0 of 0 mixed pair_coeff terms from geometric mixing rule
Per MPI rank memory allocation (min/avg/max) = 20.22 | 20.27 | 20.6 Mbytes
   Step          Temp           Fmax          Fnorm      c_thermo_temp   c_thermo_pe       Press      c_thermo_press[1] c_thermo_press[2] c_thermo_press[3] c_thermo_press[4] c_thermo_press[5] c_thermo_press[6]       Lx             Ly             Lz           Volume    
     10016   0              2.4430408      260.53165      0             -47000.886     -1.2245208     -1.133234      -4.0952106      1.5548822      64.157906      81.180766     -90.096071      117.84395      117.83238      117.80279      1635789.9    
     10017   0.075058001    2.4059468      256.57586      0.075058001   -47000.886     -0.38332776    -0.28858248    -3.2530477      2.3916469      64.1597        81.179217     -90.098357      117.84395      117.83238      117.80279      1635789.9    
Loop time of 0.0896039 on 8 procs for 1 steps with 132784 atoms

90.4% CPU use with 8 MPI tasks x no OpenMP threads

Minimization stats:
  Stopping criterion = force tolerance
  Energy initial, next-to-last, final = 
     -47000.8858730793  -47000.8858730793  -47000.8858730793
  Force two-norm initial, final = 260.53165 256.57586
  Force max component initial, final = 2.4430408 2.4059468
  Final line search alpha, max atom move = 0 0
  Iterations, force evaluations = 1 1

MPI task timing breakdown:
Section |  min time  |  avg time  |  max time  |%varavg| %total
---------------------------------------------------------------
Pair    | 0.082534   | 0.085252   | 0.088239   |   0.6 | 95.14
Neigh   | 0          | 0          | 0          |   0.0 |  0.00
Comm    | 0.00054833 | 0.0035276  | 0.0062298  |   3.0 |  3.94
Output  | 0          | 0          | 0          |   0.0 |  0.00
Modify  | 0.00014741 | 0.00015497 | 0.00015863 |   0.0 |  0.17
Other   |            | 0.0006697  |            |       |  0.75

Nlocal:          16598 ave       16617 max       16586 min
Histogram: 3 1 0 0 1 0 1 0 1 1
Nghost:        17547.9 ave       17565 max       17532 min
Histogram: 1 0 2 2 0 0 0 0 2 1
Neighs:              0 ave           0 max           0 min
Histogram: 8 0 0 0 0 0 0 0 0 0
FullNghs:   2.8824e+06 ave 2.89025e+06 max  2.8749e+06 min
Histogram: 1 1 0 2 1 0 0 1 1 1

Total # of neighbors = 23059214
Ave neighs/atom = 173.65958
Neighbor list builds = 0
Dangerous builds not checked
unfix           2

min_style       cg
min_modify      dmax 0.01 norm max
fix             1 all box/relax tri 0.0
minimize        1.000000e-13 5.000000e+1 1000 10000
WARNING: Using 'neigh_modify every 1 delay 0 check yes' setting during minimization (../min.cpp:187)
Generated 0 of 0 mixed pair_coeff terms from geometric mixing rule
Per MPI rank memory allocation (min/avg/max) = 23.59 | 23.64 | 23.97 Mbytes
   Step          Temp           Fmax          Fnorm      c_thermo_temp   c_thermo_pe       Press      c_thermo_press[1] c_thermo_press[2] c_thermo_press[3] c_thermo_press[4] c_thermo_press[5] c_thermo_press[6]       Lx             Ly             Lz           Volume    
     10017   0.075058001    2.4430408      260.53165      0.075058001   -47000.886     -0.38332776    -0.28858248    -3.2530477      2.3916469      64.1597        81.179217     -90.098357      117.84395      117.83238      117.80279      1635789.9    
     10018   0.075058001    2.4432774      260.53294      0.075058001   -47000.983      4.5691474      3.1478156      2.8536749      7.7059517      29.226103      34.189321     -37.232425      117.84381      117.83185      117.80299      1635783.3    
Loop time of 0.179461 on 8 procs for 1 steps with 132784 atoms

93.6% CPU use with 8 MPI tasks x no OpenMP threads

Minimization stats:
  Stopping criterion = force tolerance
  Energy initial, next-to-last, final = 
     -47000.8858730793  -47000.8858730793  -47000.9834756851
  Force two-norm initial, final = 295.85463 267.37946
  Force max component initial, final = 92.009383 38.020551
  Final line search alpha, max atom move = 1.0868457e-06 4.1322471e-05
  Iterations, force evaluations = 1 1

MPI task timing breakdown:
Section |  min time  |  avg time  |  max time  |%varavg| %total
---------------------------------------------------------------
Pair    | 0.095755   | 0.11898    | 0.12496    |   2.6 | 66.30
Neigh   | 0.050178   | 0.054653   | 0.080833   |   4.2 | 30.45
Comm    | 0.0010358  | 0.0040109  | 0.0066453  |   2.8 |  2.23
Output  | 0          | 0          | 0          |   0.0 |  0.00
Modify  | 0          | 0          | 0          |   0.0 |  0.00
Other   |            | 0.001815   |            |       |  1.01

Nlocal:          16598 ave       16617 max       16586 min
Histogram: 3 1 0 0 1 0 1 0 1 1
Nghost:        17548.4 ave       17565 max       17533 min
Histogram: 1 1 1 2 0 0 0 0 2 1
Neighs:              0 ave           0 max           0 min
Histogram: 8 0 0 0 0 0 0 0 0 0
FullNghs:  2.88242e+06 ave 2.89027e+06 max 2.87488e+06 min
Histogram: 1 1 0 2 1 0 0 1 1 1

Total # of neighbors = 23059354
Ave neighs/atom = 173.66064
Neighbor list builds = 1
Dangerous builds not checked
unfix           1

timestep        0.0005
min_style       quickmin
min_modify      dmax 0.01 norm max
fix             2 all viscous 0.2
minimize        0.0 2.0e+1 10000 10000
WARNING: Using 'neigh_modify every 1 delay 0 check yes' setting during minimization (../min.cpp:187)
Generated 0 of 0 mixed pair_coeff terms from geometric mixing rule
Per MPI rank memory allocation (min/avg/max) = 20.22 | 20.27 | 20.6 Mbytes
   Step          Temp           Fmax          Fnorm      c_thermo_temp   c_thermo_pe       Press      c_thermo_press[1] c_thermo_press[2] c_thermo_press[3] c_thermo_press[4] c_thermo_press[5] c_thermo_press[6]       Lx             Ly             Lz           Volume    
     10018   0              2.4432774      260.53294      0             -47000.983      3.7279509      2.3031606      2.0115086      6.8691836      29.224309      34.19087      -37.230139      117.84381      117.83185      117.80299      1635783.3    
     10019   0.075058741    2.4061798      256.57712      0.075058741   -47000.983      4.5691557      3.1478104      2.8536887      7.705968       29.22591       34.189054     -37.232123      117.84381      117.83185      117.80299      1635783.3    
Loop time of 0.08978 on 8 procs for 1 steps with 132784 atoms

89.9% CPU use with 8 MPI tasks x no OpenMP threads

Minimization stats:
  Stopping criterion = force tolerance
  Energy initial, next-to-last, final = 
     -47000.9834756851  -47000.9834756851  -47000.9834756851
  Force two-norm initial, final = 260.53294 256.57712
  Force max component initial, final = 2.4432774 2.4061798
  Final line search alpha, max atom move = 0 0
  Iterations, force evaluations = 1 1

MPI task timing breakdown:
Section |  min time  |  avg time  |  max time  |%varavg| %total
---------------------------------------------------------------
Pair    | 0.082658   | 0.085345   | 0.088394   |   0.6 | 95.06
Neigh   | 0          | 0          | 0          |   0.0 |  0.00
Comm    | 0.000572   | 0.0036012  | 0.0062726  |   3.0 |  4.01
Output  | 0          | 0          | 0          |   0.0 |  0.00
Modify  | 0.00016043 | 0.00016366 | 0.0001667  |   0.0 |  0.18
Other   |            | 0.00067    |            |       |  0.75

Nlocal:          16598 ave       16617 max       16586 min
Histogram: 3 1 0 0 1 0 1 0 1 1
Nghost:        17548.4 ave       17565 max       17533 min
Histogram: 1 1 1 2 0 0 0 0 2 1
Neighs:              0 ave           0 max           0 min
Histogram: 8 0 0 0 0 0 0 0 0 0
FullNghs:  2.88242e+06 ave 2.89027e+06 max 2.87488e+06 min
Histogram: 1 1 0 2 1 0 0 1 1 1

Total # of neighbors = 23059354
Ave neighs/atom = 173.66064
Neighbor list builds = 0
Dangerous builds not checked
unfix           2

min_style       cg
min_modify      dmax 0.01 norm max
fix             1 all box/relax tri 0.0
minimize        1.000000e-13 1.000000e+1 10000 10000
WARNING: Using 'neigh_modify every 1 delay 0 check yes' setting during minimization (../min.cpp:187)
Generated 0 of 0 mixed pair_coeff terms from geometric mixing rule
Per MPI rank memory allocation (min/avg/max) = 23.59 | 23.64 | 23.97 Mbytes
   Step          Temp           Fmax          Fnorm      c_thermo_temp   c_thermo_pe       Press      c_thermo_press[1] c_thermo_press[2] c_thermo_press[3] c_thermo_press[4] c_thermo_press[5] c_thermo_press[6]       Lx             Ly             Lz           Volume    
     10019   0.075058741    2.4432774      260.53294      0.075058741   -47000.983      4.5691557      3.1478104      2.8536887      7.705968       29.22591       34.189054     -37.232123      117.84381      117.83185      117.80299      1635783.3    
     10075   0.075058741    2.4219608      259.61525      0.075058741   -47027.21       67.726389      26.834127      86.495473      89.849568      2.1073395     -0.84817867     2.4032202      117.84291      117.82457      117.79645      1635578.9    
Loop time of 20.4519 on 8 procs for 56 steps with 132784 atoms

96.2% CPU use with 8 MPI tasks x no OpenMP threads

Minimization stats:
  Stopping criterion = quadratic factors are zero
  Energy initial, next-to-last, final = 
     -47000.9834756851  -47027.2096438408  -47027.2096438408
  Force two-norm initial, final = 267.37942 289.86184
  Force max component initial, final = 38.020378 90.873474
  Final line search alpha, max atom move = 2.6236323e-13 2.3841858e-11
  Iterations, force evaluations = 56 164

MPI task timing breakdown:
Section |  min time  |  avg time  |  max time  |%varavg| %total
---------------------------------------------------------------
Pair    | 8.2206     | 11.048     | 11.802     |  35.5 | 54.02
Neigh   | 8.1756     | 8.8858     | 11.951     |  41.3 | 43.45
Comm    | 0.11728    | 0.35946    | 0.58887    |  25.1 |  1.76
Output  | 0          | 0          | 0          |   0.0 |  0.00
Modify  | 0          | 0          | 0          |   0.0 |  0.00
Other   |            | 0.159      |            |       |  0.78

Nlocal:          16598 ave       16617 max       16585 min
Histogram: 3 1 0 0 1 0 0 1 1 1
Nghost:        17549.4 ave       17566 max       17534 min
Histogram: 1 0 2 2 0 0 0 0 2 1
Neighs:              0 ave           0 max           0 min
Histogram: 8 0 0 0 0 0 0 0 0 0
FullNghs:  2.88271e+06 ave 2.89057e+06 max 2.87519e+06 min
Histogram: 1 1 0 2 1 0 0 1 1 1

Total # of neighbors = 23061698
Ave neighs/atom = 173.67829
Neighbor list builds = 164
Dangerous builds not checked
unfix           1

min_style       quickmin
min_modify      dmax 0.01 norm max
fix             2 all viscous 0.1
minimize        0.0 1.0e-0 20000 20000
WARNING: Using 'neigh_modify every 1 delay 0 check yes' setting during minimization (../min.cpp:187)
Generated 0 of 0 mixed pair_coeff terms from geometric mixing rule
Per MPI rank memory allocation (min/avg/max) = 20.22 | 20.27 | 20.6 Mbytes
   Step          Temp           Fmax          Fnorm      c_thermo_temp   c_thermo_pe       Press      c_thermo_press[1] c_thermo_press[2] c_thermo_press[3] c_thermo_press[4] c_thermo_press[5] c_thermo_press[6]       Lx             Ly             Lz           Volume    
     10075   0              2.4219608      259.61525      0             -47027.21       66.885079      25.989371      85.653187      89.012679      2.1057385     -0.84636288     2.405205       117.84291      117.82457      117.79645      1635578.9    
     10100   36.208429      1.5258605      188.8436       36.208429     -47703.003     -1944.5774     -1991.6372     -1925.1329     -1916.9621      1.0401182      4.3294777     -2.1095426      117.84291      117.82457      117.79645      1635578.9    
     10117   78.845927      0.93226005     127.74753      78.845927     -48673.985     -4948.8314     -5004.4293     -4928.3182     -4913.7468     -0.24164416     9.0429138     -9.1596197      117.84291      117.82457      117.79645      1635578.9    
Loop time of 5.36907 on 8 procs for 42 steps with 132784 atoms

96.2% CPU use with 8 MPI tasks x no OpenMP threads

Minimization stats:
  Stopping criterion = force tolerance
  Energy initial, next-to-last, final = 
     -47027.2096438408  -48612.6922342777  -48673.9850680828
  Force two-norm initial, final = 259.61525 127.74753
  Force max component initial, final = 2.4219608 0.93226005
  Final line search alpha, max atom move = 0 0
  Iterations, force evaluations = 42 42

MPI task timing breakdown:
Section |  min time  |  avg time  |  max time  |%varavg| %total
---------------------------------------------------------------
Pair    | 1.8878     | 3.0373     | 3.2365     |  25.0 | 56.57
Neigh   | 2.0419     | 2.225      | 3.3136     |  27.6 | 41.44
Comm    | 0.02825    | 0.086007   | 0.145      |  13.1 |  1.60
Output  | 0.00019191 | 0.00019718 | 0.00023297 |   0.0 |  0.00
Modify  | 0.0034084  | 0.0035585  | 0.0036885  |   0.1 |  0.07
Other   |            | 0.01708    |            |       |  0.32

Nlocal:          16598 ave       16617 max       16577 min
Histogram: 1 1 0 1 2 0 0 0 1 2
Nghost:        17548.6 ave       17563 max       17532 min
Histogram: 1 0 1 1 1 0 2 0 0 2
Neighs:              0 ave           0 max           0 min
Histogram: 8 0 0 0 0 0 0 0 0 0
FullNghs:  2.88196e+06 ave 2.88907e+06 max  2.8753e+06 min
Histogram: 2 0 1 1 0 1 0 1 0 2

Total # of neighbors = 23055654
Ave neighs/atom = 173.63277
Neighbor list builds = 41
Dangerous builds not checked
unfix           2

min_style       cg
min_modify      dmax 0.01 norm max
fix             1 all box/relax tri 0.0
minimize        1.000000e-13 5.000000e-1 20000 20000
WARNING: Using 'neigh_modify every 1 delay 0 check yes' setting during minimization (../min.cpp:187)
Generated 0 of 0 mixed pair_coeff terms from geometric mixing rule
Per MPI rank memory allocation (min/avg/max) = 23.59 | 23.64 | 23.97 Mbytes
   Step          Temp           Fmax          Fnorm      c_thermo_temp   c_thermo_pe       Press      c_thermo_press[1] c_thermo_press[2] c_thermo_press[3] c_thermo_press[4] c_thermo_press[5] c_thermo_press[6]       Lx             Ly             Lz           Volume    
     10117   78.845927      1.4005337      191.85171      78.845927     -48673.985     -4948.8314     -5004.4293     -4928.3182     -4913.7468     -0.24164416     9.0429138     -9.1596197      117.84291      117.82457      117.79645      1635578.9    
     10156   78.845927      1.4311829      195.35883      78.845927     -48689.479      870.60926      842.31542      865.19787      904.3145       14.152982     -20.629183      12.432531      117.6587       117.64651      117.61559      1628050.8    
Loop time of 26.3882 on 8 procs for 39 steps with 132784 atoms

96.2% CPU use with 8 MPI tasks x no OpenMP threads

Minimization stats:
  Stopping criterion = quadratic factors are zero
  Energy initial, next-to-last, final = 
     -48673.9850680828  -48689.4794213772  -48689.4794213772
  Force two-norm initial, final = 10315.024 206.00865
  Force max component initial, final = 6014.3108 49.707945
  Final line search alpha, max atom move = 4.7963878e-13 2.3841858e-11
  Iterations, force evaluations = 39 209

MPI task timing breakdown:
Section |  min time  |  avg time  |  max time  |%varavg| %total
---------------------------------------------------------------
Pair    | 13.108     | 14.412     | 15.391     |  23.6 | 54.62
Neigh   | 10.418     | 11.327     | 12.759     |  27.4 | 42.93
Comm    | 0.14307    | 0.45514    | 0.74472    |  29.1 |  1.72
Output  | 0          | 0          | 0          |   0.0 |  0.00
Modify  | 0          | 0          | 0          |   0.0 |  0.00
Other   |            | 0.1932     |            |       |  0.73

Nlocal:          16598 ave       16617 max       16577 min
Histogram: 1 1 0 1 2 0 0 0 1 2
Nghost:        17583.5 ave       17600 max       17567 min
Histogram: 1 0 2 0 1 1 1 0 1 1
Neighs:              0 ave           0 max           0 min
Histogram: 8 0 0 0 0 0 0 0 0 0
FullNghs:  2.89301e+06 ave 2.90001e+06 max 2.88652e+06 min
Histogram: 2 0 1 1 0 1 0 1 0 2

Total # of neighbors = 23144054
Ave neighs/atom = 174.29851
Neighbor list builds = 209
Dangerous builds not checked
unfix           1

min_style       quickmin
min_modify      dmax 0.01 norm max
fix             2 all viscous 0.2
minimize        0.0 4.0e-1 20000 20000
WARNING: Using 'neigh_modify every 1 delay 0 check yes' setting during minimization (../min.cpp:187)
Generated 0 of 0 mixed pair_coeff terms from geometric mixing rule
Per MPI rank memory allocation (min/avg/max) = 20.22 | 20.27 | 20.6 Mbytes
   Step          Temp           Fmax          Fnorm      c_thermo_temp   c_thermo_pe       Press      c_thermo_press[1] c_thermo_press[2] c_thermo_press[3] c_thermo_press[4] c_thermo_press[5] c_thermo_press[6]       Lx             Ly             Lz           Volume    
     10156   0              1.4311829      195.35883      0             -48689.479     -17.236487     -48.841477     -23.640568      20.772583      13.611182     -18.491908      14.946212      117.6587       117.64651      117.61559      1628050.8    
     10200   36.473877      0.47684339     66.20402       36.473877     -49649.867     -3051.7064     -3090.5253     -3057.885      -3006.7089      15.175506     -10.551408      5.7346399      117.6587       117.64651      117.61559      1628050.8    
     10233   23.593351      0.35097857     48.618362      23.593351     -50400.941     -5864.4762     -5912.0584     -5869.8141     -5811.5561      19.989282     -2.5368433     -2.9011582      117.6587       117.64651      117.61559      1628050.8    
Loop time of 9.66632 on 8 procs for 77 steps with 132784 atoms

96.2% CPU use with 8 MPI tasks x no OpenMP threads

Minimization stats:
  Stopping criterion = force tolerance
  Energy initial, next-to-last, final = 
     -48689.4794213772  -50379.8651564121  -50400.9410358667
  Force two-norm initial, final = 195.35883 48.618362
  Force max component initial, final = 1.4311829 0.35097857
  Final line search alpha, max atom move = 0 0
  Iterations, force evaluations = 77 77

MPI task timing breakdown:
Section |  min time  |  avg time  |  max time  |%varavg| %total
---------------------------------------------------------------
Pair    | 4.0481     | 5.349      | 5.7052     |  24.2 | 55.34
Neigh   | 3.7881     | 4.1217     | 5.4648     |  27.4 | 42.64
Comm    | 0.0537     | 0.15827    | 0.26186    |  17.1 |  1.64
Output  | 0.00018386 | 0.00018506 | 0.00019102 |   0.0 |  0.00
Modify  | 0.0062099  | 0.0063535  | 0.0064811  |   0.1 |  0.07
Other   |            | 0.03086    |            |       |  0.32

Nlocal:          16598 ave       16621 max       16580 min
Histogram: 2 0 1 2 0 0 0 1 1 1
Nghost:        17584.2 ave       17597 max       17555 min
Histogram: 1 0 0 0 0 2 1 0 1 3
Neighs:              0 ave           0 max           0 min
Histogram: 8 0 0 0 0 0 0 0 0 0
FullNghs:  2.89005e+06 ave 2.89657e+06 max 2.88417e+06 min
Histogram: 2 0 1 1 0 1 1 0 0 2

Total # of neighbors = 23120410
Ave neighs/atom = 174.12045
Neighbor list builds = 76
Dangerous builds not checked
unfix           2

min_style       cg
min_modify      dmax 0.01 norm max
fix             1 all box/relax tri 0.0
minimize        1.000000e-13 2.000000e-1 20000 20000
WARNING: Using 'neigh_modify every 1 delay 0 check yes' setting during minimization (../min.cpp:187)
Generated 0 of 0 mixed pair_coeff terms from geometric mixing rule
Per MPI rank memory allocation (min/avg/max) = 23.59 | 23.64 | 23.97 Mbytes
   Step          Temp           Fmax          Fnorm      c_thermo_temp   c_thermo_pe       Press      c_thermo_press[1] c_thermo_press[2] c_thermo_press[3] c_thermo_press[4] c_thermo_press[5] c_thermo_press[6]       Lx             Ly             Lz           Volume    
     10233   23.593351      0.85505676     118.72654      23.593351     -50400.941     -5864.4762     -5912.0584     -5869.8141     -5811.5561      19.989282     -2.5368433     -2.9011582      117.6587       117.64651      117.61559      1628050.8    
     10253   23.593351      0.868927       120.78918      23.593351     -50414.251     -147.76687     -170.22056     -149.82443     -123.25562      13.227068     -3.3946403     -2.3646377      117.48244      117.47256      117.44478      1620851.2    
Loop time of 11.8693 on 8 procs for 20 steps with 132784 atoms

96.3% CPU use with 8 MPI tasks x no OpenMP threads

Minimization stats:
  Stopping criterion = quadratic factors are zero
  Energy initial, next-to-last, final = 
     -50400.9410358667  -50414.2508945465  -50414.2508945465
  Force two-norm initial, final = 10790.128 738.51593
  Force max component initial, final = 6278.6361 443.97081
  Final line search alpha, max atom move = 4.2961127e-13 1.9073486e-10
  Iterations, force evaluations = 20 91

MPI task timing breakdown:
Section |  min time  |  avg time  |  max time  |%varavg| %total
---------------------------------------------------------------
Pair    | 4.0962     | 6.6549     | 7.0956     |  37.6 | 56.07
Neigh   | 4.5361     | 4.9332     | 7.3449     |  41.1 | 41.56
Comm    | 0.059857   | 0.19562    | 0.33804    |  21.3 |  1.65
Output  | 0          | 0          | 0          |   0.0 |  0.00
Modify  | 0          | 0          | 0          |   0.0 |  0.00
Other   |            | 0.0855     |            |       |  0.72

Nlocal:          16598 ave       16621 max       16580 min
Histogram: 2 0 1 2 0 0 0 1 1 1
Nghost:        17615.9 ave       17635 max       17584 min
Histogram: 1 0 0 0 2 1 0 1 1 2
Neighs:              0 ave           0 max           0 min
Histogram: 8 0 0 0 0 0 0 0 0 0
FullNghs:  2.90011e+06 ave 2.90632e+06 max 2.89415e+06 min
Histogram: 2 0 0 2 0 1 0 1 0 2

Total # of neighbors = 23200856
Ave neighs/atom = 174.72629
Neighbor list builds = 91
Dangerous builds not checked
unfix           1

timestep        0.0005
min_style       quickmin
min_modify      dmax 0.01 norm max
fix             2 all viscous 0.2
minimize        0.0 1.0e-1 40000 40000
WARNING: Using 'neigh_modify every 1 delay 0 check yes' setting during minimization (../min.cpp:187)
Generated 0 of 0 mixed pair_coeff terms from geometric mixing rule
Per MPI rank memory allocation (min/avg/max) = 20.22 | 20.27 | 20.6 Mbytes
   Step          Temp           Fmax          Fnorm      c_thermo_temp   c_thermo_pe       Press      c_thermo_press[1] c_thermo_press[2] c_thermo_press[3] c_thermo_press[4] c_thermo_press[5] c_thermo_press[6]       Lx             Ly             Lz           Volume    
     10253   0              0.868927       120.78918      0             -50414.251     -414.62024     -438.19817     -416.57788     -389.08467      13.104625     -2.6477331     -1.4423839      117.48244      117.47256      117.44478      1620851.2    
     10300   15.82088       0.31619412     42.329249      15.82088      -50845.726     -1756.9161     -1784.0501     -1758.7097     -1727.9885      16.757844      2.9055282     -9.9215533      117.48244      117.47256      117.44478      1620851.2    
     10400   3.0774741      0.28743724     34.553968      3.0774741     -51602.661     -4453.8577     -4486.1645     -4453.1424     -4422.2663      30.26975       18.699537     -32.264428      117.48244      117.47256      117.44478      1620851.2    
     10500   1.8470906      0.22767361     21.940441      1.8470906     -51930.793     -5498.2905     -5529.8109     -5493.2222     -5471.8384      41.476701      28.988093     -50.695065      117.48244      117.47256      117.44478      1620851.2    
     10600   0.97676854     0.215723       16.35109       0.97676854    -52114.222     -6045.7958     -6074.5338     -6038.0758     -6024.7777      50.164263      37.307647     -65.490468      117.48244      117.47256      117.44478      1620851.2    
     10700   0.63876182     0.1906383      12.350902      0.63876182    -52232.603     -6381.1934     -6408.4033     -6370.2463     -6364.9305      57.362188      42.931132     -77.813911      117.48244      117.47256      117.44478      1620851.2    
     10800   0.44757218     0.2356792      9.781035       0.44757218    -52314.652     -6597.8042     -6623.9661     -6583.2222     -6586.2243      62.969521      47.442233     -88.380714      117.48244      117.47256      117.44478      1620851.2    
     10900   0.31301952     0.27136165     8.2302709      0.31301952    -52373.486     -6744.6752     -6770.1981     -6726.9174     -6736.9101      69.151086      50.713263     -97.172552      117.48244      117.47256      117.44478      1620851.2    
     11000   0.22765248     0.23885982     7.1065441      0.22765248    -52416.393     -6842.7203     -6868.0422     -6821.8818     -6838.237       72.747253      53.363821     -105.55087      117.48244      117.47256      117.44478      1620851.2    
     11100   0.17395055     0.22939537     6.2083396      0.17395055    -52449.244     -6915.644      -6940.2487     -6891.3086     -6915.3746      76.333338      55.520636     -112.01403      117.48244      117.47256      117.44478      1620851.2    
     11200   0.13611755     0.20763123     5.5185039      0.13611755    -52474.496     -6967.1665     -6991.6692     -6939.4011     -6970.4292      79.806893      57.882514     -118.568        117.48244      117.47256      117.44478      1620851.2    
     11300   0.10998071     0.1852118      4.9456317      0.10998071    -52495.177     -7008.6322     -7032.4567     -6978.2019     -7015.238       83.609825      59.760342     -124.4041       117.48244      117.47256      117.44478      1620851.2    
     11400   0.093325422    0.11274948     4.4148394      0.093325422   -52511.068     -7036.3932     -7060.3169     -7002.8478     -7046.0148      86.601645      61.677793     -129.77454      117.48244      117.47256      117.44478      1620851.2    
     11500   0.074699422    0.10834377     4.1294924      0.074699422   -52524.689     -7059.2938     -7082.8813     -7023.4978     -7071.5024      89.432392      63.463574     -134.63787      117.48244      117.47256      117.44478      1620851.2    
     11600   0.063453214    0.10181867     3.7981649      0.063453214   -52536.154     -7077.08       -7100.3248     -7039.0361     -7091.879       92.292792      65.629329     -138.88542      117.48244      117.47256      117.44478      1620851.2    
     11700   0.052354842    0.095739263    3.5840867      0.052354842   -52546.102     -7094.0616     -7116.7756     -7053.9701     -7111.4392      94.50059       67.073798     -142.67116      117.48244      117.47256      117.44478      1620851.2    
     11800   0.046489072    0.088017075    3.2996687      0.046489072   -52554.473     -7107.6532     -7130.1884     -7065.6378     -7127.1335      96.649566      68.490735     -146.21404      117.48244      117.47256      117.44478      1620851.2    
     11900   0.041512291    0.080364984    3.0562841      0.041512291   -52561.418     -7116.6625     -7139.1294     -7072.8125     -7138.0455      98.422023      70.19276      -149.29454      117.48244      117.47256      117.44478      1620851.2    
     11974   0.037492599    0.074957544    2.9270785      0.037492599   -52566.132     -7123.6196     -7145.8162     -7078.8435     -7146.1991      99.958104      71.277331     -151.64901      117.48244      117.47256      117.44478      1620851.2    
Loop time of 222.661 on 8 procs for 1721 steps with 132784 atoms

96.3% CPU use with 8 MPI tasks x no OpenMP threads

Minimization stats:
  Stopping criterion = force tolerance
  Energy initial, next-to-last, final = 
     -50414.2508945465  -52566.0714510679   -52566.131757021
  Force two-norm initial, final = 120.78918 2.9270785
  Force max component initial, final = 0.868927 0.074957544
  Final line search alpha, max atom move = 0 0
  Iterations, force evaluations = 1721 1721

MPI task timing breakdown:
Section |  min time  |  avg time  |  max time  |%varavg| %total
---------------------------------------------------------------
Pair    | 94.893     | 125.1      | 133.18     | 104.2 | 56.19
Neigh   | 86.79      | 93.071     | 120.79     | 110.5 | 41.80
Comm    | 1.1856     | 3.6559     | 6.1054     |  85.3 |  1.64
Output  | 0.0032686  | 0.00334    | 0.0038218  |   0.3 |  0.00
Modify  | 0.13756    | 0.14083    | 0.1431     |   0.5 |  0.06
Other   |            | 0.6863     |            |       |  0.31

Nlocal:          16598 ave       16623 max       16570 min
Histogram: 1 1 0 0 1 2 0 1 1 1
Nghost:        17610.1 ave       17635 max       17566 min
Histogram: 1 0 0 2 0 0 0 2 1 2
Neighs:              0 ave           0 max           0 min
Histogram: 8 0 0 0 0 0 0 0 0 0
FullNghs:   2.8902e+06 ave 2.89579e+06 max  2.8822e+06 min
Histogram: 1 1 0 0 0 1 2 0 2 1

Total # of neighbors = 23121572
Ave neighs/atom = 174.1292
Neighbor list builds = 1720
Dangerous builds not checked
unfix           2

min_style       cg
min_modify      dmax 0.01 norm max
fix             1 all box/relax tri 0.0
minimize        1.000000e-13 1.000000e-1 40000 40000
WARNING: Using 'neigh_modify every 1 delay 0 check yes' setting during minimization (../min.cpp:187)
Generated 0 of 0 mixed pair_coeff terms from geometric mixing rule
Per MPI rank memory allocation (min/avg/max) = 23.59 | 23.64 | 23.97 Mbytes
   Step          Temp           Fmax          Fnorm      c_thermo_temp   c_thermo_pe       Press      c_thermo_press[1] c_thermo_press[2] c_thermo_press[3] c_thermo_press[4] c_thermo_press[5] c_thermo_press[6]       Lx             Ly             Lz           Volume    
     11974   0.037492599    0.14693069     5.6994652      0.037492599   -52566.132     -7123.6196     -7145.8162     -7078.8435     -7146.1991      99.958104      71.277331     -151.64901      117.48244      117.47256      117.44478      1620851.2    
     11996   0.037492599    0.14649582     5.9239624      0.037492599   -52595.658     -103.75491     -113.22429     -88.604585     -109.43586      60.770749      41.532764     -93.24951       117.2682       117.26294      117.2309       1612067.2    
Loop time of 19.654 on 8 procs for 22 steps with 132784 atoms

96.3% CPU use with 8 MPI tasks x no OpenMP threads

Minimization stats:
  Stopping criterion = quadratic factors are zero
  Energy initial, next-to-last, final = 
      -52566.131757021  -52595.6576395035  -52595.6576395035
  Force two-norm initial, final = 12484.715 218.68316
  Force max component initial, final = 7229.9194 114.56654
  Final line search alpha, max atom move = 8.3241958e-13 9.5367432e-11
  Iterations, force evaluations = 22 152

MPI task timing breakdown:
Section |  min time  |  avg time  |  max time  |%varavg| %total
---------------------------------------------------------------
Pair    | 7.0981     | 10.995     | 11.714     |  44.6 | 55.94
Neigh   | 7.5924     | 8.2148     | 12.017     |  50.2 | 41.80
Comm    | 0.096656   | 0.31108    | 0.53501    |  26.0 |  1.58
Output  | 0          | 0          | 0          |   0.0 |  0.00
Modify  | 0          | 0          | 0          |   0.0 |  0.00
Other   |            | 0.133      |            |       |  0.68

Nlocal:          16598 ave       16623 max       16570 min
Histogram: 1 1 0 0 1 2 0 1 1 1
Nghost:        17654.4 ave       17682 max       17617 min
Histogram: 1 0 1 1 0 0 1 2 1 1
Neighs:              0 ave           0 max           0 min
Histogram: 8 0 0 0 0 0 0 0 0 0
FullNghs:  2.90011e+06 ave 2.90524e+06 max 2.89201e+06 min
Histogram: 1 0 1 0 0 0 3 0 2 1

Total # of neighbors = 23200878
Ave neighs/atom = 174.72646
Neighbor list builds = 152
Dangerous builds not checked
unfix           1

min_style       quickmin
min_modify      dmax 0.01 norm max
fix             2 all viscous 0.2
minimize        0.0 5.0e-2 40000 40000
WARNING: Using 'neigh_modify every 1 delay 0 check yes' setting during minimization (../min.cpp:187)
Generated 0 of 0 mixed pair_coeff terms from geometric mixing rule
Per MPI rank memory allocation (min/avg/max) = 20.22 | 20.27 | 20.6 Mbytes
   Step          Temp           Fmax          Fnorm      c_thermo_temp   c_thermo_pe       Press      c_thermo_press[1] c_thermo_press[2] c_thermo_press[3] c_thermo_press[4] c_thermo_press[5] c_thermo_press[6]       Lx             Ly             Lz           Volume    
     11996   0              0.14649582     5.9239624      0             -52595.658     -104.18129     -113.65599     -89.029135     -109.85874      60.767077      41.533902     -93.248621      117.2682       117.26294      117.2309       1612067.2    
     12000   0.00059317698  0.13776549     5.5712087      0.00059317698 -52595.682     -104.30502     -113.79        -89.140884     -109.98418      60.788842      41.527156     -93.250945      117.2682       117.26294      117.2309       1612067.2    
     12100   0.039203861    0.072093027    2.6909586      0.039203861   -52600.512     -123.38339     -133.7067      -105.39105     -131.05242      62.994225      43.849029     -97.784885      117.2682       117.26294      117.2309       1612067.2    
     12200   0.029775958    0.066557937    2.7219612      0.029775958   -52605.276     -136.99017     -147.68001     -116.80528     -146.48523      65.00961       45.559343     -102.22462      117.2682       117.26294      117.2309       1612067.2    
     12300   0.02806892     0.063256386    2.5012649      0.02806892    -52609.768     -148.70799     -159.72943     -126.57803     -159.81651      66.622238      47.251058     -105.91508      117.2682       117.26294      117.2309       1612067.2    
     12400   0.024870892    0.062033226    2.3830585      0.024870892   -52613.516     -158.62109     -169.96        -134.74346     -171.15981      68.064175      49.320712     -109.28539      117.2682       117.26294      117.2309       1612067.2    
     12500   0.022093252    0.060587816    2.2887947      0.022093252   -52616.817     -166.50685     -178.52369     -140.57666     -180.42021      69.635107      50.744582     -112.49874      117.2682       117.26294      117.2309       1612067.2    
     12600   0.019915334    0.058374386    2.189675       0.019915334   -52620.156     -174.50511     -186.74988     -146.44779     -190.31766      70.994019      52.285439     -115.12856      117.2682       117.26294      117.2309       1612067.2    
     12700   0.01783869     0.057605985    2.1083913      0.01783869    -52622.867     -180.41414     -193.17268     -150.77593     -197.29381      72.150899      53.752145     -117.66835      117.2682       117.26294      117.2309       1612067.2    
     12800   0.016357735    0.05512478     2.0171127      0.016357735   -52625.242     -184.18108     -197.62303     -152.90859     -202.01162      73.098654      54.857632     -120.13968      117.2682       117.26294      117.2309       1612067.2    
     12900   0.014633096    0.056393019    1.9595598      0.014633096   -52627.631     -189.29386     -203.13546     -156.53092     -208.21518      73.958105      55.998282     -122.71791      117.2682       117.26294      117.2309       1612067.2    
     13000   0.013157957    0.057163878    1.9035811      0.013157957   -52629.732     -192.76392     -206.99027     -158.96176     -212.33971      74.441894      57.127809     -124.63339      117.2682       117.26294      117.2309       1612067.2    
     13100   0.01266847     0.056252644    1.802416       0.01266847    -52631.735     -197.03676     -211.53708     -161.94213     -217.63107      74.989694      58.163422     -126.91121      117.2682       117.26294      117.2309       1612067.2    
     13200   0.011938053    0.05563663     1.7241943      0.011938053   -52633.6       -200.53422     -215.14596     -164.12506     -222.33165      75.772193      59.035528     -128.94476      117.2682       117.26294      117.2309       1612067.2    
     13300   0.010268141    0.057440848    1.7238182      0.010268141   -52635.524     -203.99104     -218.55735     -166.2774      -227.13837      76.632165      60.122673     -130.76373      117.2682       117.26294      117.2309       1612067.2    
     13400   0.0094585826   0.057349349    1.6763953      0.0094585826  -52637.019     -206.48345     -221.32668     -167.61544     -230.50823      77.11583       60.955779     -132.5237       117.2682       117.26294      117.2309       1612067.2    
     13500   0.0089233097   0.056784345    1.616795       0.0089233097  -52638.854     -210.99533     -226.07929     -171.42335     -235.48333      78.000827      62.051028     -134.08473      117.2682       117.26294      117.2309       1612067.2    
     13600   0.008657381    0.055300661    1.5441593      0.008657381   -52640.285     -213.23014     -228.39001     -172.93076     -238.36967      78.600962      62.926826     -135.89421      117.2682       117.26294      117.2309       1612067.2    
     13700   0.0081508106   0.053898599    1.495667       0.0081508106  -52641.603     -216.01403     -231.45159     -174.9463      -241.6442       79.027257      63.585878     -137.50975      117.2682       117.26294      117.2309       1612067.2    
     13800   0.0075998665   0.052984268    1.456047       0.0075998665  -52642.909     -217.24401     -233.10287     -175.07625     -243.55291      79.725984      64.298114     -139.21476      117.2682       117.26294      117.2309       1612067.2    
     13900   0.0071131835   0.051959974    1.4171412      0.0071131835  -52644.106     -219.35525     -235.75675     -176.20713     -246.10188      80.263868      65.232487     -140.52318      117.2682       117.26294      117.2309       1612067.2    
     14000   0.006532753    0.050120972    1.3951851      0.006532753   -52645.232     -220.47195     -237.19385     -176.62451     -247.59748      80.570743      65.971272     -141.76874      117.2682       117.26294      117.2309       1612067.2    
     14100   0.0063676076   0.047785984    1.339773       0.0063676076  -52646.273     -222.62819     -239.77324     -177.98722     -250.1241       81.185673      66.808751     -143.31692      117.2682       117.26294      117.2309       1612067.2    
     14200   0.0060209867   0.046401568    1.3051696      0.0060209867  -52647.417     -224.93124     -242.26856     -179.35392     -253.17124      81.659367      67.922156     -144.53999      117.2682       117.26294      117.2309       1612067.2    
     14300   0.0057229258   0.045089403    1.2723185      0.0057229258  -52648.533     -227.14565     -244.81984     -181.0936      -255.52351      82.061205      68.68904      -145.85576      117.2682       117.26294      117.2309       1612067.2    
     14400   0.0053523398   0.044115093    1.2496165      0.0053523398  -52649.384     -228.5368      -246.12266     -181.89164     -257.59611      82.518397      69.520954     -146.80393      117.2682       117.26294      117.2309       1612067.2    
     14500   0.0050503782   0.04361996     1.2207343      0.0050503782  -52650.303     -229.8277      -247.74015     -182.45445     -259.28851      82.772126      70.314218     -147.98066      117.2682       117.26294      117.2309       1612067.2    
     14600   0.0048759018   0.043261216    1.1860125      0.0048759018  -52650.931     -230.15479     -248.44625     -181.9583      -260.05983      83.097277      71.045845     -149.01649      117.2682       117.26294      117.2309       1612067.2    
     14700   0.0045205272   0.043467455    1.173654       0.0045205272  -52651.549     -230.64799     -249.19908     -181.89484     -260.85004      83.537143      71.803332     -149.90463      117.2682       117.26294      117.2309       1612067.2    
     14800   0.0040914843   0.045010456    1.1731679      0.0040914843  -52652.144     -231.02846     -250.03831     -181.49158     -261.55548      83.905793      72.171845     -150.73422      117.2682       117.26294      117.2309       1612067.2    
     14900   0.0038468145   0.046113065    1.1566327      0.0038468145  -52652.943     -232.99412     -252.47902     -182.73744     -263.76591      84.040324      72.93236      -151.60485      117.2682       117.26294      117.2309       1612067.2    
     15000   0.0035206094   0.046366749    1.1519074      0.0035206094  -52653.556     -233.15457     -252.52134     -182.45627     -264.4861       84.076818      73.412182     -152.39549      117.2682       117.26294      117.2309       1612067.2    
     15100   0.0034531548   0.046762052    1.1210891      0.0034531548  -52654.191     -234.31033     -254.11037     -183.15829     -265.66233      84.357247      74.060121     -153.08473      117.2682       117.26294      117.2309       1612067.2    
     15200   0.0032826491   0.04760764     1.1014433      0.0032826491  -52654.921     -235.86708     -255.62952     -184.36057     -267.61116      84.51676       74.568723     -153.92005      117.2682       117.26294      117.2309       1612067.2    
     15300   0.0032763421   0.047622619    1.0668526      0.0032763421  -52655.491     -235.95528     -256.1572      -183.91404     -267.79461      84.868309      75.256434     -154.68981      117.2682       117.26294      117.2309       1612067.2    
[...]
    261600   300.20216      2.4833164      253.73152      300.20216     -46613.089     -6638.162      -993.56206      880.15243     -19801.077      1505.6191     -27.782686      155.79803      112.1924       112.18736      131.09134      1649990.3    
    261700   300.03976      2.2401638      253.89655      300.03976     -46605.418     -6567.4646     -810.28432      728.53989     -19620.649      1413.0506     -89.749169     -80.300923      112.1759       112.17085      131.12081      1649875.6    
    261800   299.99719      2.142683       254.35422      299.99719     -46596.266     -6430.9096     -779.57104      962.03081     -19475.189      1264.9686      33.155331     -184.42461      112.15727      112.15223      131.15028      1649698.4    
    261900   300.91148      2.0098858      253.61751      300.91148     -46603.369     -6605.1918     -975.49256      634.80039     -19474.883      1446.7464      25.164181     -56.422895      112.1506       112.14556      131.17976      1649873      
    262000   300.157        2.5723         254.28935      300.157       -46593.293     -6295.1627     -622.61762      991.61518     -19254.486      1413.4207     -106.4616       8.8612459      112.12668      112.12164      131.20923      1649539.8    
    262100   299.6431       2.5837669      253.82243      299.6431      -46604.308     -6740.2254     -1169.898       492.89473     -19543.673      1368.524      -252.37429     -84.374616      112.13338      112.12834      131.2387       1650107.5    
    262200   299.77159      2.5243397      254.40247      299.77159     -46613.816     -6023.8183     -355.05648      1051.101      -18767.499      1313.1194     -134.24459     -114.15377      112.08674      112.0817       131.26817      1649105.2    
    262300   299.51673      2.2764015      254.13686      299.51673     -46615.113     -6594.2887     -1117.6149      537.127       -19202.378      1444.1286     -61.73478      -87.630019      112.10001      112.09497      131.29764      1649866      
    262400   299.73997      2.2424755      254.28456      299.73997     -46621.792     -6003.9556     -432.72617      1069.9118     -18649.052      1381.9692      5.3091382     -240.13628      112.05733      112.05229      131.32711      1648980      
    262500   299.14763      2.314537       254.04914      299.14763     -46632.899     -6350.7818     -806.19538      428.1115      -18674.262      1185.0787     -205.41656     -241.7119       112.06014      112.0551       131.35658      1649432.9    
    262600   298.79616      2.7178726      254.17697      298.79616     -46632.561     -6084.2286     -717.51429      948.27921     -18483.451      1067.9527     -313.02338     -144.69434      112.03547      112.03043      131.38606      1649076.6    
    262700   300.23642      2.1118431      253.73272      300.23642     -46637.208     -6228.9996     -728.61709      681.14861     -18639.53       1208.9429     -218.85027     -196.7153       112.02967      112.02463      131.41553      1649275.7    
    262800   299.53554      2.3353157      254.84947      299.53554     -46600.362     -6236.4646     -914.33648      716.16391     -18511.221      1056.6773     -119.85686     -113.28585      112.02144      112.0164       131.445        1649403.1    
    262900   300.82785      2.2300034      254.36516      300.82785     -46621.111     -5882.626      -347.6507       920.63702     -18220.864      1131.896      -225.0775      -203.4075       111.98952      111.98449      131.47447      1648833.1    
    263000   301.35041      2.297966       253.71511      301.35041     -46637.895     -6468.7144     -963.57914      326.44724     -18769.011      1041.3757     -104.9738      -230.69041      112.00195      111.99691      131.50394      1649568.6    
    263100   300.3833       2.37607        254.64046      300.3833      -46632.835     -5812.7813     -321.88458      973.28194     -18089.741      1094.8925     -168.93315     -126.88714      111.96023      111.95519      131.53341      1648709.4    
    263200   299.20502      2.1711082      254.7868       299.20502     -46626.122     -6338.5552     -842.61681      369.01571     -18542.064      988.54968     -79.30763      -33.79705       111.97098      111.96594      131.56288      1649395.5    
    263300   299.49321      2.4315948      255.06961      299.49321     -46635.003     -5921.6703     -310.85236      790.41162     -18244.57       963.59976     -249.72891     -66.547094      111.93982      111.93479      131.59235      1648846.9    
    263400   299.13553      2.1900272      254.32301      299.13553     -46630.829     -6310.2014     -868.63641      437.63637     -18499.604      1055.1136     -75.854556     -211.13133      111.94377      111.93873      131.62183      1649332.5    
    263500   299.27477      2.1795235      254.22978      299.27477     -46642.306     -6048.8134     -623.24482      826.15316     -18349.349      899.43322     -59.44225      -272.78549      111.91804      111.913        131.6513       1648943.5    
    263600   299.20116      2.2583313      253.69482      299.20116     -46660.751     -6182.1126     -472.62708      549.86143     -18623.572      944.16487     -6.9791878     -115.12562      111.90964      111.90461      131.68077      1649065.3    
    263700   299.58476      2.1109333      253.8375       299.58476     -46657.478     -6249.2001     -619.00259      428.27818     -18556.876      827.19572     -26.203848     -192.27355      111.90059      111.89556      131.71024      1649167.5    
    263800   299.94978      2.2383423      254.4564       299.94978     -46635.855     -6013.3315     -301.31286      598.869       -18337.551      917.21053     -7.1403753     -50.963649      111.8796       111.87457      131.73971      1648917.8    
    263900   299.81704      2.0850544      254.40311      299.81704     -46621.809     -6382.5281     -656.55233      110.98618     -18602.018      710.57991     -51.321756     -17.698184      111.88729      111.88226      131.76918      1649513.4    
    264000   300.75569      2.2180233      254.26064      300.75569     -46640.862     -5885.4725     -267.13988      799.3903      -18188.668      815.66465     -215.67249     -156.76476      111.85008      111.84506      131.79865      1648785.2    
    264100   299.95637      2.2101803      254.33359      299.95637     -46635.863     -6452.5994     -891.44265      260.06394     -18726.419      741.59549     -172.77706      54.829536      111.86442      111.85939      131.82813      1649576.8    
    264200   300.35959      2.1102047      254.6142       300.35959     -46645.591     -5889.1237     -27.110482      601.57896     -18241.84       764.96239     -27.352609     -191.36397      111.824        111.81897      131.8576       1648753.2    
    264300   300.24925      2.6888981      253.98049      300.24925     -46645.481     -6483.206      -609.16895      128.70464     -18969.154      731.87485     -164.10604     -131.66721      111.83809      111.83307      131.88707      1649537.5    
    264400   300.11775      2.1277847      254.14099      300.11775     -46639.349     -6003.4037     -43.213048      524.39526     -18491.393      785.52276     -29.984739     -40.254896      111.80456      111.79953      131.91654      1648916.8    
    264500   300.31671      2.2931824      254.18606      300.31671     -46640.807     -6219.9712     -397.93435      174.5684      -18436.548      708.88151     -94.022126     -261.96285      111.80071      111.79569      131.94601      1649171.8    
    264600   299.3062       2.7148075      253.93916      299.3062      -46639.84      -6154.1783     -160.30781      306.79449     -18609.022      855.37453     -156.44174     -229.30993      111.78425      111.77923      131.97548      1649054.3    
    264700   299.03897      2.1220684      253.69122      299.03897     -46659.507     -6021.6907     -30.05394       368.59483     -18403.613      941.18518     -88.006731     -229.38982      111.7646       111.75958      132.00495      1648842.9    
    264800   299.82069      2.3312607      253.47405      299.82069     -46657.118     -6279.1506     -490.7405       59.13607      -18405.847      784.42939     -239.15104     -236.83665      111.76381      111.75879      132.03443      1649187.6    
    264900   301.20644      2.0696564      254.40794      301.20644     -46656.489     -5921.5011      90.787357      158.48338     -18013.774      852.77351     -155.33699     -282.86293      111.73578      111.73076      132.0639       1648728.4    
    265000   300.13207      2.7184906      254.51209      300.13207     -46636.171     -6311.8262     -545.68771     -88.728702     -18301.062      795.33284     -83.512158     -249.91358      111.74498      111.73996      132.09337      1649367.9    
    265100   299.96059      2.281271       254.42621      299.96059     -46652.99      -5892.7451     -207.2016       525.69448     -17996.728      738.55552     -83.366779     -97.580128      111.70958      111.70456      132.12284      1648690.8    
    265200   299.53011      2.2625465      254.22684      299.53011     -46654.924     -6274.5732     -392.77122      184.32261     -18615.271      815.33125      58.656567     -152.23774      111.71284      111.70782      132.15231      1649154.8    
    265300   300.34185      2.2715149      254.19917      300.34185     -46663.657     -6027.9275     -149.18946      235.0193      -18169.612      766.56837      192.42772     -56.83581       111.68831      111.68329      132.18178      1648798.4    
    265400   300.09946      2.5165176      254.10721      300.09946     -46658.803     -6082.2018     -375.29592      253.98531     -18125.295      827.36903     -22.006468     -40.759559      111.67857      111.67355      132.21125      1648878.2    
    265500   299.271        2.4300175      254.30014      299.271       -46659.033     -6110.3696     -345.89841      233.23059     -18218.441      774.06026     -29.078539      17.815188      111.66687      111.66185      132.24073      1648900.2    
    265600   299.57074      2.3862534      253.84204      299.57074     -46679.106     -5899.9404     -43.68892       354.5879      -18010.72       710.04624     -114.62883     -88.796648      111.6421       111.63708      132.2702       1648536      
    265700   299.61166      2.8830605      254.07577      299.61166     -46674.727     -6094.1828     -359.7466       21.949523     -17944.751      684.56208      8.8485379     -114.38191      111.63995      111.63493      132.29967      1648839.9    
    265800   299.8014       2.0978546      255.27452      299.8014      -46638.898     -5762.5291      120.53452      519.33908     -17927.461      812.14182      102.29725     -101.87347      111.61969      111.61467      132.32914      1648608.7    
    265900   301.07912      2.2868671      254.42857      301.07912     -46647.268     -6314.1431     -690.08551      8.7830864     -18261.127      895.86302     -70.607606      47.071994      111.62878      111.62377      132.35861      1649244.6    
    266000   301.10626      2.1601906      254.50164      301.10626     -46662.802     -5764.1019      83.917263      635.23284     -18011.456      806.63218     -66.355683      70.990058      111.5905       111.58548      132.38808      1648480.4    
    266100   299.0502       2.3354588      254.5463       299.0502      -46641.942     -6378.7951     -562.65947     -33.782486     -18539.943      826.69042      27.641438     -28.822202      111.6071       111.60209      132.41755      1649338.2    
    266200   300.1467       2.2261543      254.38174      300.1467      -46662.994     -5930.1341     -146.24498      706.60103     -18350.758      637.06753      109.17355     -66.987091      111.57174      111.56673      132.44702      1648660.1    
    266300   299.52693      2.416605       254.17356      299.52693     -46657.688     -6292.9385     -678.10096      292.9899      -18493.704      657.95113      26.746805     -31.711829      111.57616      111.57115      132.4765       1649157.6    
    266400   299.41909      2.3294373      254.22454      299.41909     -46667.217     -6010.4184     -217.94197      325.52194     -18138.835      681.54557      140.67462     -67.678813      111.54972      111.54471      132.50597      1648742.9    
    266500   299.46269      2.3184795      253.67865      299.46269     -46685.977     -6035.9592     -415.2628       467.96191     -18160.577      570.54224      69.587193     -18.427266      111.53547      111.53046      132.53544      1648688.3    
    266600   298.79609      2.2790279      254.54349      298.79609     -46674.274     -6038.3644     -565.29402      534.58344     -18084.383      625.17115      177.40077      16.469855      111.52581      111.5208       132.56491      1648769.1    
    266700   300.46933      2.3395443      254.19027      300.46933     -46665.245     -6018.0456     -344.78392      478.83035     -18188.183      721.58292      182.87384     -73.66832       111.51323      111.50822      132.59438      1648763.6    
    266800   300.39109      2.3454666      254.86408      300.39109     -46647.141     -6062.2362     -384.70102      318.01663     -18120.024      617.585        147.1258      -33.12928       111.50612      111.50111      132.62385      1648919.7    
    266900   299.65103      2.3270054      255.00454      299.65103     -46646.328     -5996.9127     -87.176785      240.27455     -18143.836      652.51325      54.675319     -36.261391      111.49047      111.48546      132.65332      1648823.3    
    267000   300.1506       2.3148212      254.13545      300.1506      -46669.6       -6079.119      -385.27369      471.00716     -18323.091      817.45063      100.81463      12.763551      111.47791      111.4729       132.6828       1648818      
    267100   299.212        2.3370876      254.80992      299.212       -46654.287     -5975.2905     -152.83451      429.19973     -18202.237      588.04488      27.82095       49.932588      111.46299      111.45799      132.71227      1648743.1    
    267200   299.6828       2.6743546      254.62395      299.6828      -46659.074     -6104.1519     -578.34931      439.36338     -18173.47       576.26122      216.39986     -68.185895      111.45514      111.45013      132.74174      1648876.7    
    267300   300.59835      2.3838844      254.46159      300.59835     -46668.265     -5987.7908     -321.2635       395.92483     -18038.034      491.73612      167.24492     -166.60786      111.43788      111.43288      132.77121      1648732.2    
    267400   300.55251      2.1807518      254.50732      300.55251     -46663.69      -6138.1156     -633.0544       389.47304     -18170.765      447.32556      116.30045     -201.39346      111.43239      111.42738      132.80068      1648935.5    
    267500   299.77216      2.1604214      254.42647      299.77216     -46658.964     -5932.7046     -381.57432      740.58041     -18157.12       433.63663      157.17265     -104.30787      111.41006      111.40506      132.83015      1648640.6    
    267600   299.46632      2.1976604      253.81717      299.46632     -46666.4       -6275.3095     -693.78251      299.5158      -18431.662      406.18001      270.21643     -113.15346      111.41382      111.40882      132.85962      1649117.8    
    267700   299.17208      2.6551056      254.68087      299.17208     -46661.351     -5810.1221     -209.95163      785.04381     -18005.459      511.49368      166.72609     -117.98081      111.37967      111.37467      132.8891       1648472.6    
    267800   299.34527      2.3692703      254.60933      299.34527     -46652.749     -6172.4386     -574.99865      294.34481     -18236.662      453.53336      284.48105     -236.74489      111.38686      111.38186      132.91857      1649051      
    267900   301.03132      2.3741112      254.68972      301.03132     -46651.694     -6112.6384     -330.33946      352.27381     -18359.849      474.16429      484.61985     -308.75682      111.37258      111.36758      132.94804      1648993.6    
    268000   301.35685      2.4816761      254.68476      301.35685     -46655.121     -5970.7212     -229.00362      440.04879     -18123.209      391.81804      372.80689     -254.75873      111.35125      111.34625      132.97751      1648727.6    
    268100   300.90926      2.1739979      253.97953      300.90926     -46670.592     -6163.24       -629.95662      503.0674      -18362.831      529.64612      311.41145     -219.71335      111.34733      111.34233      133.00698      1648976.8    
    268200   300.52395      2.4003487      254.31992      300.52395     -46672.289     -6065.2374     -318.39828      422.70186     -18300.016      503.63796      352.24603     -125.81805      111.32875      111.32375      133.03645      1648791.9    
    268300   299.9181       2.3192101      254.22772      299.9181      -46670.673     -6223.674      -580.70662      365.44115     -18455.757      366.55536      280.06527     -92.075939      111.32431      111.31931      133.06592      1649025.4    
    268400   299.88007      2.1639709      253.9619       299.88007     -46677.156     -6015.1333     -109.16172      606.98946     -18543.228      521.12205      293.11177     -257.01617      111.30109      111.29609      133.0954       1648702.8    
    268500   300.62005      2.4476471      253.50982      300.62005     -46695.514     -6478.0576     -729.31294      74.336176     -18779.196      544.37124      222.52775     -216.54479      111.30793      111.30293      133.12487      1649270.5    
    268600   299.27787      2.2735443      254.23839      299.27787     -46680.885     -5896.9229      132.76337      599.23727     -18422.769      538.58902      379.08487     -215.61288      111.27047      111.26548      133.15434      1648525.6    
    268700   298.93839      2.2326145      253.71805      298.93839     -46674.384     -6416.0581     -798.98217      99.483371     -18548.676      484.4838       144.64054     -209.33113      111.28211      111.27711      133.18381      1649235.3    
    268791   300.64411      2.252903       254.15626      300.64411     -46677.455     -6144.1542     -247.25823      263.9323      -18449.137      604.6886       302.95913     -204.80423      111.25871      111.25372      133.21063      1648873.9    
Loop time of 2903.43 on 8 procs for 52000 steps with 132784 atoms

Performance: 7.737 ns/day, 3.102 hours/ns, 17.910 timesteps/s
92.0% CPU use with 8 MPI tasks x no OpenMP threads

MPI task timing breakdown:
Section |  min time  |  avg time  |  max time  |%varavg| %total
---------------------------------------------------------------
Pair    | 2155.5     | 2361.7     | 2559.5     | 271.8 | 81.34
Neigh   | 274.26     | 282.07     | 287.56     |  24.8 |  9.72
Comm    | 20.431     | 218.67     | 418.41     | 883.0 |  7.53
Output  | 0.73571    | 0.73657    | 0.73919    |   0.1 |  0.03
Modify  | 37.934     | 38.157     | 39.006     |   5.3 |  1.31
Other   |            | 2.13       |            |       |  0.07

Nlocal:          16598 ave       16659 max       16527 min
Histogram: 1 0 1 0 1 2 0 1 1 1
Nghost:        17528.6 ave       17595 max       17465 min
Histogram: 1 1 1 0 0 2 1 1 0 1
Neighs:              0 ave           0 max           0 min
Histogram: 8 0 0 0 0 0 0 0 0 0
FullNghs:  2.84217e+06 ave 2.85663e+06 max  2.8237e+06 min
Histogram: 1 0 0 1 3 0 0 0 1 2

Total # of neighbors = 22737362
Ave neighs/atom = 171.23571
Neighbor list builds = 5200
Dangerous builds not checked
unfix 			strainstress
unfix           10
unfix			11

write_restart	restart.npt.21
System init for write_restart ...
Generated 0 of 0 mixed pair_coeff terms from geometric mixing rule
Total wall time: 6:18:38
