ITEM: TIMESTEP
0
ITEM: NUMBER OF ATOMS
32
ITEM: BOX BOUNDS xy xz yz pp pp pp
-4.7826766967773438e-03 9.5190058946609497e+00 3.1196742057800293e+00
-3.7661075592041016e-02 2.2120539069175720e+01 0.0000000000000000e+00
-1.1393904685974121e-02 5.1938598752021790e+00 0.0000000000000000e+00
ITEM: ATOMS id type xs ys zs fx fy fz
1 1 0.855272 0.336542 0.593597 0 0.000871658 5.72205e-06
2 1 0.355272 0.336542 0.593597 0 0.000867844 5.72205e-06
3 1 0.125493 0.295033 0.0935973 0 -0.000873566 -5.72205e-06
4 1 0.625493 0.295033 0.0935973 0 -0.000875473 -1.90735e-06
5 1 0.04438 0.461543 0.593597 0 0.000997543 0
6 1 0.54438 0.461543 0.593597 0 0.00100136 5.72205e-06
7 1 0.814598 0.420037 0.0935973 0 -0.000936508 -7.62939e-06
8 1 0.314599 0.420037 0.0935973 0 -0.000936508 -3.8147e-06
9 1 0.733487 0.586543 0.593597 0 0.000869751 0
10 1 0.233488 0.586543 0.593597 0 0.000867844 0
11 1 0.922598 0.711539 0.593597 0 0.000953674 7.62939e-06
12 1 0.422598 0.711539 0.593597 0 0.000951767 3.8147e-06
13 1 0.692812 0.670042 0.0935972 0 -0.0011158 -3.8147e-06
14 1 0.00370414 0.545043 0.0935972 0 -0.00110245 0
15 1 0.503704 0.545043 0.0935972 0 -0.00109863 0
16 1 0.192812 0.670042 0.0935972 0 -0.00111961 -7.62939e-06
17 1 0.611708 0.836533 0.593597 0 0.0015049 1.90735e-06
18 1 0.111709 0.836533 0.593597 0 0.0015049 0
19 1 0.800817 0.961533 0.593597 0 0.000118256 0
20 1 0.300817 0.961533 0.593597 0 0.00012207 0
21 1 0.881924 0.795035 0.0935971 0 -0.00079155 -1.90735e-06
22 1 0.381924 0.795035 0.0935971 0 -0.00079155 0
23 1 0.571033 0.920032 0.0935971 0 -0.00297737 0
24 1 0.0710335 0.920032 0.0935971 0 -0.00297737 0
25 1 0.977058 0.0865377 0.593597 0 0.00292397 0
26 1 0.477058 0.0865377 0.593597 0 0.00292397 0
27 1 0.247278 0.045031 0.093597 0 3.8147e-05 0
28 1 0.747278 0.045031 0.093597 0 3.24249e-05 0
29 1 0.166165 0.211541 0.593597 0 0.000785828 0
30 1 0.666165 0.211541 0.593597 0 0.000795364 1.90735e-06
31 1 0.936385 0.170031 0.093597 0 -0.00126839 0
32 1 0.436386 0.170031 0.093597 0 -0.00126648 0
ITEM: TIMESTEP
1
ITEM: NUMBER OF ATOMS
32
ITEM: BOX BOUNDS xy xz yz pp pp pp
-4.7826766967773438e-03 9.5190058946609497e+00 3.1196742057800293e+00
-3.7661075592041016e-02 2.2120539069175720e+01 0.0000000000000000e+00
-1.1393904685974121e-02 5.1938598752021790e+00 0.0000000000000000e+00
ITEM: ATOMS id type xs ys zs fx fy fz
1 1 0.855261 0.336564 0.593598 0 0.000366211 -1.14441e-05
2 1 0.355262 0.336564 0.593598 0 0.000370026 -1.14441e-05
3 1 0.125503 0.295011 0.0935967 0 -0.000507355 1.33514e-05
4 1 0.625503 0.295011 0.0935971 0 -0.000507355 3.8147e-06
5 1 0.0443681 0.461567 0.593597 0 0.000247955 -9.53674e-06
6 1 0.544368 0.461567 0.593598 0 0.000246048 -1.90735e-06
7 1 0.814609 0.420014 0.0935965 0 -0.000432968 1.33514e-05
8 1 0.31461 0.420014 0.0935969 0 -0.000431061 5.72205e-06
9 1 0.733477 0.586565 0.593597 0 0.000391006 -1.90735e-06
10 1 0.233477 0.586565 0.593597 0 0.000391006 -3.8147e-06
11 1 0.922586 0.711563 0.593598 0 0.000558853 -1.14441e-05
12 1 0.422586 0.711562 0.593597 0 0.000558853 -3.8147e-06
13 1 0.692825 0.670015 0.0935968 0 -0.000341415 3.8147e-06
14 1 0.00371732 0.545016 0.0935972 0 -0.000429153 -1.90735e-06
15 1 0.503717 0.545016 0.0935972 0 -0.000434875 3.8147e-06
16 1 0.192826 0.670015 0.0935964 0 -0.000339508 1.14441e-05
17 1 0.61169 0.83657 0.593597 0 -0.000553131 -5.72205e-06
18 1 0.111691 0.83657 0.593597 0 -0.000553131 1.90735e-06
19 1 0.800816 0.961535 0.593597 0 0.00182152 0
20 1 0.300816 0.961536 0.593597 0 0.00181961 1.90735e-06
21 1 0.881934 0.795015 0.0935969 0 -0.00141144 7.62939e-06
22 1 0.381934 0.795015 0.0935971 0 -0.00140953 1.90735e-06
23 1 0.571069 0.919959 0.0935971 0 0.000761032 -1.90735e-06
24 1 0.0710691 0.919959 0.0935971 0 0.000764847 -1.90735e-06
25 1 0.977023 0.0866094 0.593597 0 -0.000629425 0
26 1 0.477023 0.0866094 0.593597 0 -0.000629425 0
27 1 0.247277 0.045032 0.093597 0 -0.00173569 0
28 1 0.747277 0.0450318 0.093597 0 -0.00173187 0
29 1 0.166155 0.21156 0.593597 0 0.00130653 -3.8147e-06
30 1 0.666155 0.21156 0.593597 0 0.00130463 -5.72205e-06
31 1 0.9364 0.17 0.093597 0 0.000583649 5.72205e-06
32 1 0.436401 0.17 0.093597 0 0.000585556 1.90735e-06
ITEM: TIMESTEP
2
ITEM: NUMBER OF ATOMS
32
ITEM: BOX BOUNDS xy xz yz pp pp pp
-4.7826766967773438e-03 9.5190058946609497e+00 3.1196742057800293e+00
-3.7661075592041016e-02 2.2120539069175720e+01 0.0000000000000000e+00
-1.1393904685974121e-02 5.1938598752021790e+00 0.0000000000000000e+00
ITEM: ATOMS id type xs ys zs fx fy fz
1 1 0.855255 0.336578 0.593597 0 0.00031662 9.53674e-06
2 1 0.355255 0.336578 0.593597 0 0.000320435 7.62939e-06
3 1 0.125511 0.294995 0.0935975 0 0.000343323 -9.53674e-06
4 1 0.625511 0.294995 0.0935973 0 0.00034523 -7.62939e-06
5 1 0.0443619 0.46158 0.593596 0 -4.76837e-05 5.72205e-06
6 1 0.544362 0.46158 0.593598 0 -5.53131e-05 -3.8147e-06
7 1 0.814617 0.419999 0.0935973 0 -9.34601e-05 -5.72205e-06
8 1 0.314617 0.419999 0.0935972 0 -9.34601e-05 -1.90735e-06
9 1 0.73347 0.586579 0.593597 0 4.19617e-05 3.8147e-06
10 1 0.23347 0.586579 0.593597 0 4.57764e-05 5.72205e-06
11 1 0.922578 0.711581 0.593597 0 -0.000368118 0
12 1 0.422578 0.711581 0.593597 0 -0.000366211 1.90735e-06
13 1 0.692833 0.669999 0.093597 0 -0.000350952 0
14 1 0.00372555 0.544999 0.093597 0 3.8147e-06 -5.72205e-06
15 1 0.503726 0.544999 0.0935975 0 5.72205e-06 -3.8147e-06
16 1 0.192833 0.669999 0.093597 0 -0.000358582 0
17 1 0.611689 0.836572 0.593597 0 0.000154495 7.62939e-06
18 1 0.11169 0.836572 0.593597 0 0.000154495 0
19 1 0.800799 0.96157 0.593597 0 3.43323e-05 -3.8147e-06
20 1 0.300799 0.96157 0.593597 0 3.8147e-05 -3.8147e-06
21 1 0.881949 0.794983 0.0935974 0 -5.72205e-05 -3.8147e-06
22 1 0.381949 0.794983 0.0935972 0 -6.29425e-05 -5.72205e-06
23 1 0.571074 0.919948 0.0935969 0 0.000177383 -1.90735e-06
24 1 0.071074 0.919949 0.0935969 0 0.000169754 5.72205e-06
25 1 0.977017 0.0866217 0.593597 0 -6.86646e-05 3.8147e-06
26 1 0.477017 0.0866217 0.593597 0 -6.48499e-05 1.90735e-06
27 1 0.247293 0.0450003 0.093597 0 1.90735e-05 3.8147e-06
28 1 0.747293 0.0450001 0.093597 0 1.14441e-05 -1.90735e-06
29 1 0.166141 0.211591 0.593597 0 8.2016e-05 1.14441e-05
30 1 0.66614 0.211591 0.593597 0 7.43866e-05 7.62939e-06
31 1 0.9364 0.17 0.0935974 0 -0.000175476 -1.14441e-05
32 1 0.436401 0.170001 0.0935972 0 -0.000175476 -5.72205e-06
ITEM: TIMESTEP
3
ITEM: NUMBER OF ATOMS
32
ITEM: BOX BOUNDS xy xz yz pp pp pp
-4.7826766967773438e-03 9.5190058946609497e+00 3.1196742057800293e+00
-3.7661075592041016e-02 2.2120539069175720e+01 0.0000000000000000e+00
-1.1393904685974121e-02 5.1938598752021790e+00 0.0000000000000000e+00
ITEM: ATOMS id type xs ys zs fx fy fz
1 1 0.855252 0.336584 0.593598 0 1.52588e-05 -1.14441e-05
2 1 0.355252 0.336584 0.593597 0 7.62939e-06 1.90735e-06
3 1 0.125509 0.295 0.0935969 0 -1.71661e-05 7.62939e-06
4 1 0.625509 0.295 0.0935968 0 -1.90735e-05 5.72205e-06
5 1 0.0443621 0.461579 0.593597 0 7.82013e-05 1.90735e-06
6 1 0.544362 0.461579 0.593597 0 8.2016e-05 -1.90735e-06
7 1 0.814618 0.419997 0.0935969 0 0.000179291 0
8 1 0.314619 0.419997 0.0935971 0 0.000181198 -1.90735e-06
9 1 0.733469 0.58658 0.593597 0 -0.000207901 0
10 1 0.23347 0.58658 0.593597 0 -0.000211716 -1.90735e-06
11 1 0.92258 0.711575 0.593597 0 -1.90735e-06 0
12 1 0.42258 0.711575 0.593597 0 3.8147e-06 -7.62939e-06
13 1 0.692836 0.669993 0.093597 0 -5.91278e-05 5.72205e-06
14 1 0.0037258 0.544998 0.0935966 0 -0.000127792 7.62939e-06
15 1 0.503726 0.544998 0.0935972 0 -0.000127792 -3.8147e-06
16 1 0.192837 0.669993 0.0935971 0 -4.95911e-05 0
17 1 0.611688 0.836575 0.593597 0 -3.8147e-05 -3.8147e-06
18 1 0.111688 0.836575 0.593597 0 -4.3869e-05 3.8147e-06
19 1 0.800798 0.961572 0.593597 0 -3.05176e-05 3.8147e-06
20 1 0.300798 0.961572 0.593597 0 -3.43323e-05 1.90735e-06
21 1 0.88195 0.79498 0.0935972 0 -7.43866e-05 0
22 1 0.38195 0.79498 0.0935968 0 -7.43866e-05 5.72205e-06
23 1 0.571072 0.919951 0.0935968 0 1.14441e-05 -1.90735e-06
24 1 0.0710727 0.919951 0.0935974 0 1.52588e-05 -5.72205e-06
25 1 0.977017 0.0866209 0.593597 0 2.09808e-05 -1.90735e-06
26 1 0.477018 0.0866209 0.593597 0 2.09808e-05 -3.8147e-06
27 1 0.247293 0.0449995 0.0935973 0 4.76837e-05 0
28 1 0.747293 0.0449992 0.0935969 0 5.34058e-05 1.90735e-06
29 1 0.166139 0.211593 0.593598 0 0.000108719 -9.53674e-06
30 1 0.666139 0.211593 0.593597 0 0.000106812 -3.8147e-06
31 1 0.936402 0.169997 0.0935966 0 9.53674e-05 5.72205e-06
32 1 0.436402 0.169998 0.0935967 0 8.96454e-05 5.72205e-06
ITEM: TIMESTEP
4
ITEM: NUMBER OF ATOMS
32
ITEM: BOX BOUNDS xy xz yz pp pp pp
-4.7826766967773438e-03 9.5190058946609497e+00 3.1196742057800293e+00
-3.7661075592041016e-02 2.2120539069175720e+01 0.0000000000000000e+00
-1.1393904685974121e-02 5.1938598752021790e+00 0.0000000000000000e+00
ITEM: ATOMS id type xs ys zs fx fy fz
1 1 0.85525 0.336586 0.593597 0 1.71661e-05 3.8147e-06
2 1 0.355251 0.336586 0.593598 0 2.09808e-05 -1.14441e-05
3 1 0.125508 0.295002 0.0935974 0 2.67029e-05 0
4 1 0.625508 0.295002 0.0935971 0 2.09808e-05 3.8147e-06
5 1 0.0443613 0.461581 0.593597 0 -7.05719e-05 1.90735e-06
6 1 0.544361 0.461581 0.593597 0 -6.29425e-05 -5.72205e-06
7 1 0.814616 0.42 0.0935967 0 -1.90735e-06 3.8147e-06
8 1 0.314617 0.42 0.0935968 0 -1.33514e-05 3.8147e-06
9 1 0.733471 0.586576 0.593597 0 -3.62396e-05 -1.90735e-06
10 1 0.233472 0.586576 0.593597 0 -2.67029e-05 0
11 1 0.922581 0.711573 0.593597 0 -1.33514e-05 3.8147e-06
12 1 0.422581 0.711573 0.593597 0 -1.71661e-05 7.62939e-06
13 1 0.692838 0.669989 0.0935975 0 -7.62939e-06 -7.62939e-06
14 1 0.00372736 0.544995 0.0935972 0 4.00543e-05 -5.72205e-06
15 1 0.503727 0.544995 0.0935967 0 3.43323e-05 5.72205e-06
16 1 0.192838 0.669989 0.0935971 0 -9.53674e-06 -1.90735e-06
17 1 0.611688 0.836575 0.593597 0 -8.58307e-05 -1.90735e-06
18 1 0.111688 0.836575 0.593598 0 -7.82013e-05 -5.72205e-06
19 1 0.800798 0.961572 0.593597 0 9.53674e-06 -3.8147e-06
20 1 0.300798 0.961572 0.593597 0 7.62939e-06 1.90735e-06
21 1 0.881952 0.794978 0.0935971 0 -1.90735e-05 3.8147e-06
22 1 0.381952 0.794978 0.0935972 0 -9.53674e-06 0
23 1 0.571072 0.919952 0.0935966 0 -8.58307e-05 7.62939e-06
24 1 0.0710721 0.919952 0.0935969 0 -8.2016e-05 1.90735e-06
25 1 0.977017 0.0866211 0.593597 0 8.2016e-05 -1.90735e-06
26 1 0.477018 0.0866212 0.593597 0 7.43866e-05 1.90735e-06
27 1 0.247293 0.0450003 0.0935974 0 4.76837e-05 -5.72205e-06
28 1 0.747293 0.0450002 0.093597 0 4.95911e-05 1.90735e-06
29 1 0.166138 0.211597 0.593597 0 1.90735e-06 0
30 1 0.666138 0.211597 0.593597 0 -1.90735e-06 -1.90735e-06
31 1 0.936401 0.169999 0.0935969 0 9.53674e-05 0
32 1 0.436402 0.169999 0.0935972 0 9.34601e-05 1.90735e-06
ITEM: TIMESTEP
5
ITEM: NUMBER OF ATOMS
32
ITEM: BOX BOUNDS xy xz yz pp pp pp
-4.7826766967773438e-03 9.5190058946609497e+00 3.1196742057800293e+00
-3.7661075592041016e-02 2.2120539069175720e+01 0.0000000000000000e+00
-1.1393904685974121e-02 5.1938598752021790e+00 0.0000000000000000e+00
ITEM: ATOMS id type xs ys zs fx fy fz
1 1 0.85525 0.336587 0.593597 0 -4.76837e-05 7.62939e-06
2 1 0.35525 0.336587 0.593596 0 -4.3869e-05 1.14441e-05
3 1 0.125507 0.295003 0.0935975 0 4.19617e-05 -9.53674e-06
4 1 0.625508 0.295003 0.0935977 0 6.48499e-05 -1.14441e-05
5 1 0.0443621 0.461579 0.593597 0 0 0
6 1 0.544362 0.46158 0.593596 0 0 1.14441e-05
7 1 0.814616 0.420001 0.0935972 0 -1.71661e-05 -5.72205e-06
8 1 0.314617 0.420001 0.0935973 0 -1.90735e-06 -5.72205e-06
9 1 0.733473 0.586574 0.593597 0 2.86102e-05 -3.8147e-06
10 1 0.233473 0.586574 0.593597 0 1.71661e-05 -1.90735e-06
11 1 0.922582 0.711572 0.593598 0 -6.67572e-05 -1.14441e-05
12 1 0.422582 0.711572 0.593597 0 -6.48499e-05 -7.62939e-06
13 1 0.692838 0.669988 0.0935967 0 9.53674e-06 1.14441e-05
14 1 0.00372721 0.544995 0.0935967 0 -9.53674e-06 3.8147e-06
15 1 0.503727 0.544995 0.0935973 0 -1.90735e-06 -5.72205e-06
16 1 0.192839 0.669988 0.0935968 0 1.14441e-05 3.8147e-06
17 1 0.611689 0.836572 0.593597 0 2.28882e-05 7.62939e-06
18 1 0.11169 0.836572 0.593597 0 1.71661e-05 5.72205e-06
19 1 0.800798 0.961572 0.593597 0 -1.71661e-05 9.53674e-06
20 1 0.300798 0.961572 0.593597 0 -1.90735e-06 -3.8147e-06
21 1 0.881952 0.794977 0.0935975 0 -3.05176e-05 -1.90735e-06
22 1 0.381952 0.794977 0.0935974 0 -4.19617e-05 -3.8147e-06
23 1 0.571073 0.91995 0.0935975 0 1.52588e-05 -5.72205e-06
24 1 0.0710731 0.91995 0.0935971 0 3.8147e-06 -1.90735e-06
25 1 0.977016 0.0866236 0.593597 0 -1.90735e-06 1.90735e-06
26 1 0.477017 0.0866235 0.593597 0 5.72205e-06 3.8147e-06
27 1 0.247292 0.045002 0.0935967 0 3.8147e-06 3.8147e-06
28 1 0.747292 0.0450019 0.0935973 0 3.8147e-06 -3.8147e-06
29 1 0.166137 0.211598 0.593597 0 3.8147e-05 7.62939e-06
30 1 0.666137 0.211598 0.593597 0 4.95911e-05 7.62939e-06
31 1 0.9364 0.170002 0.093597 0 0 -1.90735e-06
32 1 0.4364 0.170002 0.0935975 0 1.33514e-05 -1.14441e-05
ITEM: TIMESTEP
6
ITEM: NUMBER OF ATOMS
32
ITEM: BOX BOUNDS xy xz yz pp pp pp
-4.7826766967773438e-03 9.5190058946609497e+00 3.1196742057800293e+00
-3.7661075592041016e-02 2.2120539069175720e+01 0.0000000000000000e+00
-1.1393904685974121e-02 5.1938598752021790e+00 0.0000000000000000e+00
ITEM: ATOMS id type xs ys zs fx fy fz
1 1 0.85525 0.336587 0.593597 0 -4.76837e-05 7.62939e-06
2 1 0.35525 0.336587 0.593596 0 -4.3869e-05 1.14441e-05
3 1 0.125507 0.295003 0.0935975 0 4.19617e-05 -9.53674e-06
4 1 0.625508 0.295003 0.0935977 0 6.48499e-05 -1.14441e-05
5 1 0.0443621 0.461579 0.593597 0 0 0
6 1 0.544362 0.46158 0.593596 0 0 1.14441e-05
7 1 0.814616 0.420001 0.0935972 0 -1.71661e-05 -5.72205e-06
8 1 0.314617 0.420001 0.0935973 0 -1.90735e-06 -5.72205e-06
9 1 0.733473 0.586574 0.593597 0 2.86102e-05 -3.8147e-06
10 1 0.233473 0.586574 0.593597 0 1.71661e-05 -1.90735e-06
11 1 0.922582 0.711572 0.593598 0 -6.67572e-05 -1.14441e-05
12 1 0.422582 0.711572 0.593597 0 -6.48499e-05 -7.62939e-06
13 1 0.692838 0.669988 0.0935967 0 9.53674e-06 1.14441e-05
14 1 0.00372721 0.544995 0.0935967 0 -9.53674e-06 3.8147e-06
15 1 0.503727 0.544995 0.0935973 0 -1.90735e-06 -5.72205e-06
16 1 0.192839 0.669988 0.0935968 0 1.14441e-05 3.8147e-06
17 1 0.611689 0.836572 0.593597 0 2.28882e-05 7.62939e-06
18 1 0.11169 0.836572 0.593597 0 1.71661e-05 5.72205e-06
19 1 0.800798 0.961572 0.593597 0 -1.71661e-05 9.53674e-06
20 1 0.300798 0.961572 0.593597 0 -1.90735e-06 -3.8147e-06
21 1 0.881952 0.794977 0.0935975 0 -3.05176e-05 -1.90735e-06
22 1 0.381952 0.794977 0.0935974 0 -4.19617e-05 -3.8147e-06
23 1 0.571073 0.91995 0.0935975 0 1.52588e-05 -5.72205e-06
24 1 0.0710731 0.91995 0.0935971 0 3.8147e-06 -1.90735e-06
25 1 0.977016 0.0866236 0.593597 0 -1.90735e-06 1.90735e-06
26 1 0.477017 0.0866235 0.593597 0 5.72205e-06 3.8147e-06
27 1 0.247292 0.045002 0.0935967 0 3.8147e-06 3.8147e-06
28 1 0.747292 0.0450019 0.0935973 0 3.8147e-06 -3.8147e-06
29 1 0.166137 0.211598 0.593597 0 3.8147e-05 7.62939e-06
30 1 0.666137 0.211598 0.593597 0 4.95911e-05 7.62939e-06
31 1 0.9364 0.170002 0.093597 0 0 -1.90735e-06
32 1 0.4364 0.170002 0.0935975 0 1.33514e-05 -1.14441e-05
