LAMMPS (4 May 2022)
units 			metal
dimension		3
boundary		p    p    p				# Periodic boundary condition
atom_style		atomic					# Only the default values, coarse-grain liquids, solids, metals
box         	tilt large				# LAMMPS normally requires that no tilt factor can skew the box more than half the distance of the parallel box length, but tilt large allow.

neighbor 0.0 bin
neigh_modify    every 10 delay 0 check no		# Check no, rebuild anyway

read_data   	copper.lmp
Reading data file ...
  triclinic box = (0 0 0) to (117 117 117) with tilt (0 0 0)
  2 by 2 by 2 MPI processor grid
  reading atoms ...
  133340 atoms
  read_data CPU = 0.152 seconds
mass            1 63.54600000

pair_style 		mdpu model.pb
# pair_style 		deepmd model.pb
# pair_style 	deepmd copper1.pb copper2.pb copper3.pb copper4.pb 100 model-devi.out
pair_coeff		* *				# Coefficient of petential function

variable        Ttarget equal 300.0			# Target tempture for annealing and MD

# compute		thermo_pe    all pe			# System potential energy
# compute 		thermo_temp  all temp
compute			mypress all  pressure thermo_temp
compute			myCNA   all cna/atom 3.10215312	# Common neighbor analysis

timestep		0.005  	# unit==psec==10^-12sec
thermo			100  	# 100==0.5psec			# Output frequency
thermo_style    custom step temp fmax fnorm c_thermo_temp c_thermo_pe press c_thermo_press[*] lx ly lz vol	# Box lengths in x,y,z

# no annealing?
# how to annealing though?

delete_atoms 	overlap 1.0 all all
System init for delete_atoms ...
Generated 0 of 0 mixed pair_coeff terms from geometric mixing rule
Neighbor list info ...
  update every 10 steps, delay 0 steps, check no
  max neighbors/atom: 2000, page size: 100000
  master list distance cutoff = 8
  ghost atom cutoff = 8
  binsize = 4, bins = 30 30 30
  3 neighbor lists, perpetual/occasional/extra = 1 2 0
  (1) command delete_atoms, occasional, copy from (2)
      attributes: full, newton on
      pair build: copy
      stencil: none
      bin: none
  (2) pair mdpu, perpetual
      attributes: full, newton on
      pair build: full/bin/atomonly
      stencil: full/bin/3d
      bin: standard
  (3) compute cna/atom, occasional, copy from (2)
      attributes: full, newton on
      pair build: copy
      stencil: none
      bin: none
Deleted 567 atoms, new total = 132773

# dump          1 all custom 100 dump.relax id type xs ys zs fx fy fz c_atom_order[*]	# dump command, fx fy fz: forces on atoms
velocity        all create ${Ttarget} 9999 dist gaussian mom yes rot yes
velocity        all create 300 9999 dist gaussian mom yes rot yes
fix             5 all npt temp ${Ttarget} ${Ttarget} $(100.0*dt) iso 0.0 0.0 $(1000.0*dt)      # Tdamp = temperature damping parameter (time units)
fix             5 all npt temp 300 ${Ttarget} $(100.0*dt) iso 0.0 0.0 $(1000.0*dt)      
fix             5 all npt temp 300 300 $(100.0*dt) iso 0.0 0.0 $(1000.0*dt)      
fix             5 all npt temp 300 300 0.5 iso 0.0 0.0 $(1000.0*dt)      
fix             5 all npt temp 300 300 0.5 iso 0.0 0.0 5      
run             10000                                                                   # Pdamp = pressure damping parameter (time units)
Generated 0 of 0 mixed pair_coeff terms from geometric mixing rule
Neighbor list info ...
  update every 10 steps, delay 0 steps, check no
  max neighbors/atom: 2000, page size: 100000
  master list distance cutoff = 8
  ghost atom cutoff = 8
  binsize = 4, bins = 30 30 30
  2 neighbor lists, perpetual/occasional/extra = 1 1 0
  (1) pair mdpu, perpetual
      attributes: full, newton on
      pair build: full/bin/atomonly
      stencil: full/bin/3d
      bin: standard
  (2) compute cna/atom, occasional, copy from (1)
      attributes: full, newton on
      pair build: copy
      stencil: none
      bin: none
Per MPI rank memory allocation (min/avg/max) = 18.72 | 18.72 | 18.72 Mbytes
   Step          Temp           Fmax          Fnorm      c_thermo_temp   c_thermo_pe       Press      c_thermo_press[1] c_thermo_press[2] c_thermo_press[3] c_thermo_press[4] c_thermo_press[5] c_thermo_press[6]       Lx             Ly             Lz           Volume    
         0   300            35.828648      1553.6035      300           -13603.528      68294.77       68792.972      66988.959      69102.377     -564.61086      884.70192     -552.51828      117            117            117            1601613      
       100   1012.4444      6.0121403      471.23946      1012.4444     -31932.978      38052.194      38417.862      37664.678      38074.043      197.61992      328.84192     -171.59632      118.74591      118.74591      118.74591      1674387.5    
       200   840.89525      4.8741932      418.55426      840.89525     -34249.702      4462.6577      4633.8738      4660.6312      4093.468      -136.60532      114.89151     -502.92747      119.45796      119.45796      119.45796      1704689.7    
       300   729.74265      4.7354527      385.12929      729.74265     -36467.64      -4014.3282     -3739.9831     -4549.5682     -3753.4333      136.95107      377.63341     -661.7954       119.45053      119.45053      119.45053      1704371.4    
       400   646.48762      4.1636543      366.54987      646.48762     -38604.233     -3712.9808     -3760.6454     -3553.4263     -3824.8706     -125.39471      129.56022     -13.212554      119.15632      119.15632      119.15632      1691808.6    
       500   578.32778      3.7070942      346.73267      578.32778     -40481.29      -3068.9608     -2879.6152     -3367.4442     -2959.823      -289.22907      504.55368     -168.99909      118.88953      118.88953      118.88953      1680470.3    
       600   514.62179      3.369648       329.3373       514.62179     -41937.699     -2384.1029     -2276.4545     -2835.0419     -2040.8122     -180.29204      335.75429      19.632219      118.6767       118.6767       118.6767       1671461.7    
       700   461.48073      2.8304157      314.67134      461.48073     -43157.14      -1771.2483     -1779.5446     -1983.0913     -1551.1089     -67.062379      115.62808     -52.952324      118.48527      118.48527      118.48527      1663386.2    
       800   417.67357      2.6058273      299.01939      417.67357     -44159.614     -1203.272      -1154.6053     -1137.329      -1317.8818     -192.9859       5.7668065      53.739571      118.34261      118.34261      118.34261      1657385.1    
       900   380.3133       2.8483467      287.49478      380.3133      -44950.458     -845.89667     -560.1783      -789.63379     -1187.8779     -431.16286      15.32746      -59.828213      118.22286      118.22286      118.22286      1652358.8    
      1000   350.63587      2.7115917      276.16524      350.63587     -45598.809     -665.00201     -509.47836     -542.9653      -942.56238     -109.69746     -57.030688      22.063651      118.13313      118.13313      118.13313      1648599.4    
      1100   327.4576       2.5616703      266.44402      327.4576      -46116.263     -494.80587     -292.81392     -395.6494      -795.95427     -204.5285      -11.595653      27.155959      118.05981      118.05981      118.05981      1645531.7    
      1200   309.15904      2.626791       259.99204      309.15904     -46496.333     -230.28656     -6.8374605     -382.89081     -301.13143     -291.62158      93.982962      58.874632      118.00478      118.00478      118.00478      1643231.5    
      1300   297.18254      2.2164822      255.27418      297.18254     -46769.13      -95.12658       149.96995     -82.129161     -353.22053     -305.86055      289.69955      93.583704      117.96413      117.96413      117.96413      1641534.2    
      1400   291.13336      2.5707569      253.12649      291.13336     -46907.705     -54.279525      144.99987      131.4373      -439.27575     -353.61572     -3.8968171      68.167235      117.94453      117.94453      117.94453      1640715.8    
      1500   293.35523      2.206461       253.95259      293.35523     -46912.761      45.235753      162.84832      336.28498     -363.42604     -281.58405      78.73997       44.887316      117.94083      117.94083      117.94083      1640561.5    
      1600   300.75516      2.2007351      256.78312      300.75516     -46810.431      62.131709      300.63155      246.61542     -360.85184     -190.97665      137.61004      25.781465      117.95495      117.95495      117.95495      1641150.8    
      1700   306.47735      2.4383354      259.63096      306.47735     -46717.015      47.2692        368.1243       23.389105     -249.70581     -500.04043      11.833349      105.76472      117.96913      117.96913      117.96913      1641743      
      1800   306.53991      2.5514374      259.19298      306.53991     -46734.905     -106.27368      247.32522     -157.47079     -408.67546     -296.11865      141.61838      104.71277      117.97044      117.97044      117.97044      1641797.7    
      1900   300.95933      2.4014549      257.45573      300.95933     -46845.035     -71.388417      196.11123     -197.57259     -212.7039      -320.75558     -1.2409272     -34.002944      117.95384      117.95384      117.95384      1641104.6    
      2000   294.95242      2.8280754      255.18138      294.95242     -46945.02      -19.213327      215.30304     -55.327218     -217.6158      -281.42783      120.72288      91.817646      117.94069      117.94069      117.94069      1640555.8    
      2100   294.70711      2.6330395      254.36063      294.70711     -46995.453      55.094719      236.62245     -74.432279      3.0939833     -434.7383      -30.824761     -118.94372      117.932        117.932        117.932        1640193      
      2200   297.52084      2.1445713      256.36765      297.52084     -46926.436      66.087383      329.66592     -18.861423     -112.54235     -323.91483     -124.59244     -206.91213      117.93862      117.93862      117.93862      1640469.4    
      2300   303.14931      2.3229427      258.55907      303.14931     -46853.421     -18.965836      162.06569     -84.282289     -134.68091     -347.55449     -15.839933     -84.20732       117.95172      117.95172      117.95172      1641016      
      2400   305.34529      2.3613625      259.49252      305.34529     -46824.888     -62.694937      58.620499     -104.10575     -142.59956     -403.03573      48.972193      46.219874      117.95689      117.95689      117.95689      1641231.9    
      2500   303.15756      2.4969883      257.98083      303.15756     -46886.09      -135.19495     -192.81002      39.390953     -252.16578     -341.22333     -17.453925     -178.0514       117.95139      117.95139      117.95139      1641002.2    
      2600   297.85924      2.2074814      256.63631      297.85924     -46965.43      -4.7243186      88.963126      103.12324     -206.25932     -613.88572     -167.04281     -187.20239      117.93709      117.93709      117.93709      1640405.3    
      2700   295.78036      2.2912598      255.45719      295.78036     -47033.011     -10.912691      351.48411     -187.88239     -196.33978     -464.99105     -152.44294     -12.763122      117.92904      117.92904      117.92904      1640069.7    
      2800   296.0616       2.5326099      256.30107      296.0616      -46999.351      125.50844      521.31789     -70.550501     -74.24208      -311.84803     -81.307199     -323.78559      117.92794      117.92794      117.92794      1640023.7    
      2900   300.62373      2.1675625      257.98171      300.62373     -46938.406     -48.594701      303.57132     -168.44271     -280.91271     -397.80702      65.898629     -288.39412      117.94111      117.94111      117.94111      1640573.1    
      3000   303.91733      2.187994       259.30545      303.91733     -46885.97       30.276637      187.89027     -15.833425     -81.226934     -279.73589     -122.60566     -211.70455      117.94633      117.94633      117.94633      1640791.1    
      3100   304.41854      2.0520744      258.30865      304.41854     -46915.806     -105.25223     -70.844545     -57.780367     -187.13177     -453.63356     -215.73088     -78.719198      117.94758      117.94758      117.94758      1640843.4    
      3200   299.75315      2.2634811      257.40124      299.75315     -46970.361     -20.853635      207.27467     -101.72485     -168.11072     -338.70067     -83.919256     -127.64215      117.93706      117.93706      117.93706      1640404.3    
      3300   296.48513      2.2688656      256.26888      296.48513     -47040.22       0.65316771     349.88815     -42.786175     -305.14248     -269.01183     -107.98831     -146.54762      117.92681      117.92681      117.92681      1639976.5    
      3400   296.84942      2.0605488      255.69613      296.84942     -47063.22      -1.1291551      257.20264     -121.13913     -139.45097     -327.32366     -170.8427      -108.24074      117.92353      117.92353      117.92353      1639839.6    
      3500   298.5447       2.1824017      257.28315      298.5447      -46995.589      44.961476      202.17643     -101.5572       34.2652       -320.03262     -90.396141     -152.1331       117.93061      117.93061      117.93061      1640135.3    
      3600   303.04478      2.3379784      258.40827      303.04478     -46953.894     -26.271775     -15.251723     -8.6220152     -54.941586     -311.00703     -49.301261     -111.95735      117.93762      117.93762      117.93762      1640427.6    
      3700   303.81689      2.5098896      258.8618       303.81689     -46933.443     -59.170544      172.18023     -122.48783     -227.20403     -95.672826     -52.078924     -216.60197      117.94184      117.94184      117.94184      1640603.6    
      3800   300.56329      2.2218075      258.31954      300.56329     -46961.654      52.011274      262.9384       69.895495     -176.80008     -242.74743     -85.215451     -150.72543      117.93384      117.93384      117.93384      1640269.7    
      3900   298.97423      2.0943661      256.07029      298.97423     -47060.833     -63.430369      82.71434      -61.511138     -211.49431     -340.4889      -65.132602     -86.646999      117.92717      117.92717      117.92717      1639991.8    
      4000   296.31594      2.2110844      256.3053       296.31594     -47078.163      78.337288      261.37746     -90.372324      64.006724     -336.93097      4.5329193     -201.41687      117.91993      117.91993      117.91993      1639689.8    
      4100   298.26293      2.4750862      256.20061      298.26293     -47065.615      21.159832      85.384476      126.60985     -148.51483     -357.68349     -210.72176     -143.02099      117.92196      117.92196      117.92196      1639774.1    
      4200   301.42265      2.2857952      257.63522      301.42265     -47011.074     -5.3121144      160.03362      170.71248     -346.68244     -265.7217      -251.58629     -338.33448      117.93143      117.93143      117.93143      1640169.2    
      4300   302.97395      2.6619282      258.68248      302.97395     -46969.035      5.9846287      192.02161      137.2408      -311.30852     -264.82658     -260.2575      -198.23321      117.93524      117.93524      117.93524      1640328.2    
      4400   302.0458       2.5778904      258.91667      302.0458      -46985.724     -2.4290403      258.06152      66.715654     -332.06429     -257.82459      71.426102     -279.54664      117.93404      117.93404      117.93404      1640278.4    
      4500   299.69048      2.1889954      256.91171      299.69048     -47051.241     -67.216361      264.71853     -41.636596     -424.73101     -211.29297     -200.15287     -337.25616      117.92793      117.92793      117.92793      1640023.5    
      4600   296.55958      2.0780296      256.39543      296.55958     -47083.132      76.877938      443.12698      113.7181      -326.21127     -227.99971     -134.85306     -359.99176      117.91896      117.91896      117.91896      1639649      
      4700   297.3628       2.4407673      256.39617      297.3628      -47095.988     -13.983314      239.50231      33.520249     -314.9725       36.429064      33.867372     -208.6519       117.9198       117.9198       117.9198       1639684      
      4800   299.84711      2.3418369      257.125        299.84711     -47052.962      13.07764       374.07872     -105.29452     -229.55128     -31.116436     -205.42416     -304.89836      117.925        117.925        117.925        1639901.1    
      4900   302.51233      2.3240261      257.94682      302.51233     -47009.618     -51.919045      321.05619     -75.887234     -400.92609     -91.322313     -83.0234       -255.52283      117.93178      117.93178      117.93178      1640184.1    
      5000   302.84343      2.2237339      258.05208      302.84343     -47002.83      -8.3015934      461.27013     -21.017045     -465.15787     -44.469576      53.589709     -176.88671      117.93264      117.93264      117.93264      1640220      
      5100   300.94343      2.2112904      257.94615      300.94343     -47047.459     -58.277465      305.20923     -22.436419     -457.6052      -108.23786     -50.661694     -272.20359      117.92766      117.92766      117.92766      1640012.2    
      5200   297.74947      2.2328739      256.54051      297.74947     -47090.27      -17.254398      370.60796     -217.12203     -205.24913     -205.44893     -95.139981     -207.37023      117.9203       117.9203       117.9203       1639705.1    
      5300   296.75954      2.1357975      256.12849      296.75954     -47107.32       74.781002      279.45523     -0.37465596    -54.737572     -127.70302     -33.837143     -84.625537      117.9158       117.9158       117.9158       1639517.3    
      5400   298.1945       2.1658878      256.87324      298.1945      -47075.77       57.098373      79.02532       75.790489      16.479312     -255.16188     -69.534947     -317.80861      117.92075      117.92075      117.92075      1639723.8    
      5500   301.78764      2.3533421      257.89705      301.78764     -47041.971      1.8897481      167.409        100.78992     -262.52967     -222.32663      11.244785     -171.40752      117.92686      117.92686      117.92686      1639978.5    
      5600   302.46526      2.1375523      258.95387      302.46526     -47006.41       35.499448      406.18492      31.677112     -331.36369     -59.622347     -92.358326     -190.92112      117.9302       117.9302       117.9302       1640117.9    
      5700   301.09799      2.4509315      258.62324      301.09799     -47025.211     -13.534751      231.67134     -145.36845     -126.90715     -21.514761     -128.60786     -249.34972      117.92912      117.92912      117.92912      1640072.8    
      5800   298.98124      2.4474239      256.85352      298.98124     -47084.336     -7.0909365      296.04624     -209.52353     -107.79552     -84.12536      -29.840137     -156.9985       117.92158      117.92158      117.92158      1639758.3    
      5900   297.4551       2.3299408      256.60001      297.4551      -47119.951     -8.4026821      261.79946     -161.17937     -125.82814     -192.23335     -158.52488     -281.14546      117.91671      117.91671      117.91671      1639555.2    
      6000   298.4635       2.6014786      256.56797      298.4635      -47118.921      45.80623       325.9165       88.423903     -276.92171     -121.68805     -188.68837     -206.9994       117.91553      117.91553      117.91553      1639505.9    
      6100   300.70488      2.9836407      257.29386      300.70488     -47075.4       -40.738288      344.09538     -151.20577     -315.10448     -127.91825      67.810174     -156.84366      117.92358      117.92358      117.92358      1639841.8    
      6200   302.2071       2.4221134      258.63231      302.2071      -47031.635     -19.417169      267.32721     -34.526506     -291.05221     -195.78529     -44.883101     -197.22672      117.92815      117.92815      117.92815      1640032.4    
      6300   302.59096      2.3073978      258.32861      302.59096     -47043.069     -15.96735       343.83791     -237.11818     -154.62177     -98.40272      -61.241015     -245.94756      117.92762      117.92762      117.92762      1640010.2    
      6400   300.75284      2.204483       257.69774      300.75284     -47086.652     -76.522176      341.31638     -221.18069     -349.70221     -66.893249      14.376906     -276.05104      117.92375      117.92375      117.92375      1639848.8    
      6500   297.94476      2.1633492      256.47944      297.94476     -47118.095      55.117194      253.21184      152.51234     -240.37259     -182.5527      -96.963109     -205.1595       117.91568      117.91568      117.91568      1639512.1    
      6600   297.13085      2.2276268      256.80874      297.13085     -47121.615      19.864047      238.66239     -111.8991      -67.171151     -219.46511      53.399629     -276.51674      117.91546      117.91546      117.91546      1639503      
      6700   298.55708      2.1645908      257.93296      298.55708     -47088.044      74.47219       279.6536       36.998396     -93.235423     -180.21339     -125.07755     -245.46583      117.91839      117.91839      117.91839      1639625.1    
      6800   301.24857      2.2043285      258.09148      301.24857     -47056.722      2.196962       168.92117      24.321533     -186.65182     -162.01537      21.569723     -218.09133      117.9247       117.9247       117.9247       1639888.4    
      6900   301.58257      2.065073       258.89139      301.58257     -47033.288     -0.81191497     384.32077     -135.77734     -250.97917     -142.16483     -16.477584     -175.31422      117.9266       117.9266       117.9266       1639967.7    
      7000   300.93429      2.341608       257.97802      300.93429     -47066.764     -18.721966      242.83749     -78.068651     -220.93474     -234.36053     -164.24956     -178.15597      117.92424      117.92424      117.92424      1639869.4    
      7100   299.56301      2.3163128      256.41727      299.56301     -47121.297     -60.144409      340.4397      -218.92876     -301.94416     -134.54279     -108.75505     -3.1275562      117.91748      117.91748      117.91748      1639587.4    
      7200   298.80851      2.2292328      255.96411      298.80851     -47152.606     -46.329488      248.73941     -95.08464      -292.64324     -170.80948      33.5992       -196.96976      117.91516      117.91516      117.91516      1639490.6    
      7300   298.72751      2.2702675      256.2907       298.72751     -47123.786      10.887846      324.33251     -102.10971     -189.55925     -158.45271     -159.76455      25.577818      117.91494      117.91494      117.91494      1639481.6    
      7400   300.0499       2.3895836      257.72375      300.0499      -47072.811      14.053487      308.58069      46.271924     -312.69216      50.195174     -122.61324     -10.755597      117.92244      117.92244      117.92244      1639794.3    
      7500   302.84269      2.4128399      258.2356       302.84269     -47067.629      11.012745      237.41615     -96.003625     -108.37429     -124.47546     -139.96399      80.086685      117.92295      117.92295      117.92295      1639815.7    
      7600   302.08135      2.1975822      257.91576      302.08135     -47069.741     -85.172445      141.93963      19.666545     -417.12351     -199.65443     -131.34573     -203.04934      117.92569      117.92569      117.92569      1639929.8    
      7700   300.19598      2.4436836      256.76611      300.19598     -47108.505      30.389769      215.50779      30.745571     -155.08405     -120.4688      -16.609235     -72.399081      117.91816      117.91816      117.91816      1639615.7    
      7800   297.77961      2.3339481      256.99725      297.77961     -47130.185     -13.561945      238.67277     -86.513948     -192.84466     -176.21235     -100.62757     -205.37862      117.91478      117.91478      117.91478      1639474.9    
      7900   298.05761      2.0144157      256.46492      298.05761     -47138.921      34.057114      230.09571      67.097965     -195.02234      92.332161     -235.73642      82.123699      117.91304      117.91304      117.91304      1639402.3    
      8000   299.94116      2.2172413      257.3425       299.94116     -47114.101     -54.000364      269.35044     -248.87247     -182.47906     -104.93621     -258.63789     -46.208153      117.91873      117.91873      117.91873      1639639.5    
      8100   301.99836      2.3779335      258.12655      301.99836     -47084.008      5.9992769      279.35975     -114.74093     -146.62099     -72.761669     -156.99169     -115.39976      117.92175      117.92175      117.92175      1639765.4    
      8200   301.71507      2.1381931      258.31644      301.71507     -47062.495     -24.202313      442.54785     -341.87328     -173.28152     -6.0405293      65.52074      -75.36772       117.92496      117.92496      117.92496      1639899.2    
      8300   301.73371      2.3913689      257.34245      301.73371     -47111.645     -50.726414      331.50164     -237.70614     -245.97474     -158.60369     -116.89438      19.162532      117.91954      117.91954      117.91954      1639673.3    
      8400   298.85764      2.1912861      256.5684       298.85764     -47133.202     -15.582074      194.43972     -39.642272     -201.54367      80.490223     -2.2628209      56.328664      117.91543      117.91543      117.91543      1639501.7    
      8500   298.73891      2.2246208      255.90944      298.73891     -47163.873     -3.5390819      210.09361     -117.86003     -102.85083     -150.2488      -41.326498     -222.87124      117.91145      117.91145      117.91145      1639335.8    
      8600   298.83953      2.4242668      256.78204      298.83953     -47134.608     -20.765973      203.33998     -301.85341      36.215515     -10.528086      17.543112     -98.304436      117.91564      117.91564      117.91564      1639510.8    
      8700   300.84819      2.1198463      257.70836      300.84819     -47100.164      13.900886      355.14646     -225.40773     -88.036073     -44.629794     -42.668228     -60.11035       117.91846      117.91846      117.91846      1639628.1    
      8800   301.08676      2.4598579      258.94372      301.08676     -47061.999      34.224776      251.95452     -28.57604      -120.70415     -39.366201     -20.197231     -186.29569      117.92356      117.92356      117.92356      1639841      
      8900   301.42886      2.2191677      258.56924      301.42886     -47089.337     -2.6789592      190.48299     -21.775461     -176.74441     -92.279248     -63.005485     -61.221359      117.92158      117.92158      117.92158      1639758.5    
      9000   299.12783      2.4902039      257.84444      299.12783     -47116.596      54.370337      416.80647     -56.055536     -197.63992      9.4618498     -125.09319     -128.34398      117.91519      117.91519      117.91519      1639492      
      9100   297.81929      2.4258976      256.67469      297.81929     -47147.847     -83.664204      155.85487     -297.91762     -108.92986      78.597655     -82.584088     -12.423871      117.91452      117.91452      117.91452      1639463.8    
      9200   298.58925      2.1060944      256.58098      298.58925     -47153.844      87.2338        475.14491     -62.007684     -151.43582     -22.498554     -45.491107      23.954058      117.91012      117.91012      117.91012      1639280.6    
      9300   299.82829      2.2768211      257.41301      299.82829     -47117.83      -52.141095      247.75344     -214.08126     -190.09547     -156.91204     -8.4465702     -116.08463      117.918        117.918        117.918        1639609      
      9400   300.32395      2.5579605      258.59036      300.32395     -47068.371      80.256823      311.56054      97.945569     -168.73564     -174.88323     -147.97748     -96.518247      117.91978      117.91978      117.91978      1639683.5    
      9500   301.27939      2.0779667      258.70821      301.27939     -47079.207      9.3946269      366.01429     -64.284772     -273.54564     -105.01419     -62.919615     -308.03446      117.92132      117.92132      117.92132      1639747.4    
      9600   300.63369      2.5347366      257.81125      300.63369     -47118.912      4.3760918      299.261       -121.03254     -165.10018     -132.02436      0.97505675    -175.2149       117.91786      117.91786      117.91786      1639603.4    
      9700   299.44987      2.3147163      256.68033      299.44987     -47160.78      -30.476316      76.648731     -101.93106     -66.146618     -191.68256     -20.145494     -95.422089      117.91291      117.91291      117.91291      1639396.6    
      9800   298.22134      2.1377487      256.65359      298.22134     -47160.897     -0.13815679     344.83456     -175.92393     -169.32511     -116.31304     -141.69645     -322.51723      117.91202      117.91202      117.91202      1639359.8    
      9900   299.48569      2.3260345      257.06083      299.48569     -47144.457      87.771214      366.61184     -76.700033     -26.598167     -37.174565     -61.223007     -136.50915      117.91094      117.91094      117.91094      1639314.5    
     10000   300.32847      2.3934078      257.79992      300.32847     -47099.096     -72.58849       261.69715     -500.52082      21.058195      14.033652     -137.44793     -52.948369      117.92088      117.92088      117.92088      1639729      
Loop time of 622.255 on 8 procs for 10000 steps with 132773 atoms

Performance: 6.942 ns/day, 3.457 hours/ns, 16.071 timesteps/s
90.4% CPU use with 8 MPI tasks x no OpenMP threads

MPI task timing breakdown:
Section |  min time  |  avg time  |  max time  |%varavg| %total
---------------------------------------------------------------
Pair    | 523.94     | 541.91     | 560.19     |  50.2 | 87.09
Neigh   | 53.09      | 54.335     | 55.539     |   9.6 |  8.73
Comm    | 3.7033     | 20.709     | 37.458     | 242.3 |  3.33
Output  | 0.019161   | 0.019382   | 0.020651   |   0.3 |  0.00
Modify  | 4.8027     | 4.8386     | 4.8588     |   0.8 |  0.78
Other   |            | 0.4431     |            |       |  0.07

Nlocal:        16596.6 ave       16632 max       16568 min
Histogram: 1 0 1 1 2 2 0 0 0 1
Nghost:        17523.5 ave       17569 max       17465 min
Histogram: 1 0 1 0 1 0 3 1 0 1
Neighs:              0 ave           0 max           0 min
Histogram: 8 0 0 0 0 0 0 0 0 0
FullNghs:  2.87609e+06 ave 2.88643e+06 max 2.86636e+06 min
Histogram: 1 0 2 0 2 0 0 2 0 1

Total # of neighbors = 23008744
Ave neighs/atom = 173.29385
Neighbor list builds = 1000
Dangerous builds not checked
unfix           5

min_style       cg
min_modify      dmax 0.01 norm max
fix             1 all box/relax iso 0.0
minimize        1.000000e-13 1.000000e+3 5000 5000
WARNING: Using 'neigh_modify every 1 delay 0 check yes' setting during minimization (../min.cpp:187)
Generated 0 of 0 mixed pair_coeff terms from geometric mixing rule
Per MPI rank memory allocation (min/avg/max) = 23.59 | 23.64 | 23.98 Mbytes
   Step          Temp           Fmax          Fnorm      c_thermo_temp   c_thermo_pe       Press      c_thermo_press[1] c_thermo_press[2] c_thermo_press[3] c_thermo_press[4] c_thermo_press[5] c_thermo_press[6]       Lx             Ly             Lz           Volume    
     10000   300.32847      2.3934078      257.79992      300.32847     -47099.096     -72.58849       261.69715     -500.52082      21.058195      14.033652     -137.44793     -52.948369      117.92088      117.92088      117.92088      1639729      
     10009   300.32847      2.4166908      260.60281      300.32847     -47103.938      3296.4177      3633.9837      2863.2662      3392.0031      13.268706     -139.15497     -53.173298      117.81475      117.81475      117.81475      1635305.7    
Loop time of 1.23652 on 8 procs for 9 steps with 132773 atoms

95.0% CPU use with 8 MPI tasks x no OpenMP threads

Minimization stats:
  Stopping criterion = force tolerance
  Energy initial, next-to-last, final = 
     -47099.0959991217   -47103.871633172  -47103.9382644892
  Force two-norm initial, final = 10534.576 337.84773
  Force max component initial, final = 10531.421 215.00528
  Final line search alpha, max atom move = 7.2857966e-08 1.5664847e-05
  Iterations, force evaluations = 9 9

MPI task timing breakdown:
Section |  min time  |  avg time  |  max time  |%varavg| %total
---------------------------------------------------------------
Pair    | 0.6301     | 0.71194    | 0.77471    |   6.1 | 57.58
Neigh   | 0.44515    | 0.48693    | 0.57126    |   6.1 | 39.38
Comm    | 0.0061515  | 0.027054   | 0.050268   |   9.4 |  2.19
Output  | 0          | 0          | 0          |   0.0 |  0.00
Modify  | 0          | 0          | 0          |   0.0 |  0.00
Other   |            | 0.0106     |            |       |  0.86

Nlocal:        16596.6 ave       16632 max       16568 min
Histogram: 1 0 1 1 2 2 0 0 0 1
Nghost:        17541.2 ave       17588 max       17485 min
Histogram: 1 1 0 0 1 0 2 2 0 1
Neighs:              0 ave           0 max           0 min
Histogram: 8 0 0 0 0 0 0 0 0 0
FullNghs:  2.88285e+06 ave 2.89311e+06 max 2.87319e+06 min
Histogram: 1 0 2 0 2 0 0 2 0 1

Total # of neighbors = 23062790
Ave neighs/atom = 173.7009
Neighbor list builds = 9
Dangerous builds not checked
unfix           1
fix             1 all box/relax aniso 0.0
minimize        1.000000e-13 2.000000e+2 5000 5000
WARNING: Using 'neigh_modify every 1 delay 0 check yes' setting during minimization (../min.cpp:187)
Generated 0 of 0 mixed pair_coeff terms from geometric mixing rule
Per MPI rank memory allocation (min/avg/max) = 23.59 | 23.64 | 23.98 Mbytes
   Step          Temp           Fmax          Fnorm      c_thermo_temp   c_thermo_pe       Press      c_thermo_press[1] c_thermo_press[2] c_thermo_press[3] c_thermo_press[4] c_thermo_press[5] c_thermo_press[6]       Lx             Ly             Lz           Volume    
     10009   300.32847      2.4166908      260.60281      300.32847     -47103.938      3296.4177      3633.9837      2863.2662      3392.0031      13.268706     -139.15497     -53.173298      117.81475      117.81475      117.81475      1635305.7    
     10012   300.32847      2.4136677      260.6578       300.32847     -47104.145      3366.7725      3471.9432      3225.1635      3403.2109     -2.8539449     -147.83621     -40.501128      117.83913      117.7794       117.81911      1635214.1    
Loop time of 0.466126 on 8 procs for 3 steps with 132773 atoms

94.2% CPU use with 8 MPI tasks x no OpenMP threads

Minimization stats:
  Stopping criterion = force tolerance
  Energy initial, next-to-last, final = 
     -47103.9382644892  -47104.0865619183  -47104.1445100307
  Force two-norm initial, final = 658.27482 332.44855
  Force max component initial, final = 528.01074 158.86239
  Final line search alpha, max atom move = 3.778878e-07 6.003216e-05
  Iterations, force evaluations = 3 3

MPI task timing breakdown:
Section |  min time  |  avg time  |  max time  |%varavg| %total
---------------------------------------------------------------
Pair    | 0.23282    | 0.28797    | 0.31143    |   4.4 | 61.78
Neigh   | 0.14831    | 0.16292    | 0.21212    |   5.2 | 34.95
Comm    | 0.0022257  | 0.011067   | 0.016953   |   4.2 |  2.37
Output  | 0          | 0          | 0          |   0.0 |  0.00
Modify  | 0          | 0          | 0          |   0.0 |  0.00
Other   |            | 0.00417    |            |       |  0.89

Nlocal:        16596.6 ave       16632 max       16568 min
Histogram: 1 0 1 1 2 2 0 0 0 1
Nghost:        17541.5 ave       17587 max       17487 min
Histogram: 1 0 1 0 1 0 2 2 0 1
Neighs:              0 ave           0 max           0 min
Histogram: 8 0 0 0 0 0 0 0 0 0
FullNghs:  2.88299e+06 ave  2.8933e+06 max 2.87335e+06 min
Histogram: 1 0 2 0 2 0 0 2 0 1

Total # of neighbors = 23063942
Ave neighs/atom = 173.70958
Neighbor list builds = 3
Dangerous builds not checked
unfix           1
fix             1 all box/relax tri 0.0
minimize        1.000000e-13 1.000000e+2 5000 5000
WARNING: Using 'neigh_modify every 1 delay 0 check yes' setting during minimization (../min.cpp:187)
Generated 0 of 0 mixed pair_coeff terms from geometric mixing rule
Per MPI rank memory allocation (min/avg/max) = 23.59 | 23.64 | 23.98 Mbytes
   Step          Temp           Fmax          Fnorm      c_thermo_temp   c_thermo_pe       Press      c_thermo_press[1] c_thermo_press[2] c_thermo_press[3] c_thermo_press[4] c_thermo_press[5] c_thermo_press[6]       Lx             Ly             Lz           Volume    
     10012   300.32847      2.4136677      260.6578       300.32847     -47104.145      3366.7725      3471.9432      3225.1635      3403.2109     -2.8539449     -147.83621     -40.501128      117.83913      117.7794       117.81911      1635214.1    
     10018   300.32847      2.4133167      260.65736      300.32847     -47104.172      3366.6142      3446.7443      3257.315       3395.7834     -4.6629278     -132.4423      -33.864957      117.84211      117.77571      117.81982      1635214      
Loop time of 10.3223 on 8 procs for 6 steps with 132773 atoms

95.2% CPU use with 8 MPI tasks x no OpenMP threads

Minimization stats:
  Stopping criterion = quadratic factors are zero
  Energy initial, next-to-last, final = 
     -47104.1445100307  -47104.1723862886  -47104.1723862886
  Force two-norm initial, final = 369.1094 339.82006
  Force max component initial, final = 158.81473 139.74363
  Final line search alpha, max atom move = 1.7061141e-13 2.3841858e-11
  Iterations, force evaluations = 6 78

MPI task timing breakdown:
Section |  min time  |  avg time  |  max time  |%varavg| %total
---------------------------------------------------------------
Pair    | 5.2032     | 5.8179     | 6.3049     |  14.9 | 56.36
Neigh   | 3.8912     | 4.2477     | 4.9264     |  16.8 | 41.15
Comm    | 0.055485   | 0.18554    | 0.31979    |  20.8 |  1.80
Output  | 0          | 0          | 0          |   0.0 |  0.00
Modify  | 0          | 0          | 0          |   0.0 |  0.00
Other   |            | 0.07115    |            |       |  0.69

Nlocal:        16596.6 ave       16632 max       16568 min
Histogram: 1 0 1 1 2 2 0 0 0 1
Nghost:        17541.5 ave       17587 max       17487 min
Histogram: 1 0 1 0 1 0 2 2 0 1
Neighs:              0 ave           0 max           0 min
Histogram: 8 0 0 0 0 0 0 0 0 0
FullNghs:  2.88299e+06 ave 2.89328e+06 max 2.87336e+06 min
Histogram: 1 0 2 0 2 0 0 2 0 1

Total # of neighbors = 23063950
Ave neighs/atom = 173.70964
Neighbor list builds = 78
Dangerous builds not checked
unfix           1

timestep        0.0005
min_style       quickmin
min_modify      dmax 0.01 norm max
fix             2 all viscous 0.2
minimize        0.0 100 5000 5000
WARNING: Using 'neigh_modify every 1 delay 0 check yes' setting during minimization (../min.cpp:187)
Generated 0 of 0 mixed pair_coeff terms from geometric mixing rule
Per MPI rank memory allocation (min/avg/max) = 20.22 | 20.27 | 20.6 Mbytes
   Step          Temp           Fmax          Fnorm      c_thermo_temp   c_thermo_pe       Press      c_thermo_press[1] c_thermo_press[2] c_thermo_press[3] c_thermo_press[4] c_thermo_press[5] c_thermo_press[6]       Lx             Ly             Lz           Volume    
     10018   0              2.4133167      260.65736      0             -47104.172     -0.14553381     100.28134     -123.45466      22.736718     -9.8151943     -136.89784     -31.245618      117.84211      117.77571      117.81982      1635214      
     10019   0.075136673    2.376674       256.69966      0.075136673   -47104.172      0.69676772     101.12333     -122.61414      23.581107     -9.8124644     -136.89821     -31.24554       117.84211      117.77571      117.81982      1635214      
Loop time of 0.122194 on 8 procs for 1 steps with 132773 atoms

85.3% CPU use with 8 MPI tasks x no OpenMP threads

Minimization stats:
  Stopping criterion = force tolerance
  Energy initial, next-to-last, final = 
     -47104.1723862886  -47104.1723862886  -47104.1723862886
  Force two-norm initial, final = 260.65736 256.69966
  Force max component initial, final = 2.4133167 2.376674
  Final line search alpha, max atom move = 0 0
  Iterations, force evaluations = 1 1

MPI task timing breakdown:
Section |  min time  |  avg time  |  max time  |%varavg| %total
---------------------------------------------------------------
Pair    | 0.11495    | 0.11788    | 0.12083    |   0.6 | 96.47
Neigh   | 0          | 0          | 0          |   0.0 |  0.00
Comm    | 0.0004979  | 0.0034533  | 0.0063938  |   3.3 |  2.83
Output  | 0          | 0          | 0          |   0.0 |  0.00
Modify  | 0.00016404 | 0.00017424 | 0.00018605 |   0.0 |  0.14
Other   |            | 0.0006868  |            |       |  0.56

Nlocal:        16596.6 ave       16632 max       16568 min
Histogram: 1 0 1 1 2 2 0 0 0 1
Nghost:        17541.5 ave       17587 max       17487 min
Histogram: 1 0 1 0 1 0 2 2 0 1
Neighs:              0 ave           0 max           0 min
Histogram: 8 0 0 0 0 0 0 0 0 0
FullNghs:  2.88299e+06 ave 2.89328e+06 max 2.87336e+06 min
Histogram: 1 0 2 0 2 0 0 2 0 1

Total # of neighbors = 23063950
Ave neighs/atom = 173.70964
Neighbor list builds = 0
Dangerous builds not checked
unfix           2

min_style       cg
min_modify      dmax 0.01 norm max
fix             1 all box/relax tri 0.0
minimize        1.000000e-13 5.000000e+1 1000 10000
WARNING: Using 'neigh_modify every 1 delay 0 check yes' setting during minimization (../min.cpp:187)
Generated 0 of 0 mixed pair_coeff terms from geometric mixing rule
Per MPI rank memory allocation (min/avg/max) = 23.59 | 23.64 | 23.98 Mbytes
   Step          Temp           Fmax          Fnorm      c_thermo_temp   c_thermo_pe       Press      c_thermo_press[1] c_thermo_press[2] c_thermo_press[3] c_thermo_press[4] c_thermo_press[5] c_thermo_press[6]       Lx             Ly             Lz           Volume    
     10019   0.075136673    2.4133167      260.65736      0.075136673   -47104.172      0.69676772     101.12333     -122.61414      23.581107     -9.8124644     -136.89821     -31.24554       117.84211      117.77571      117.81982      1635214      
     10020   0.075136673    2.4133167      260.65736      0.075136673   -47104.172      0.69676772     101.12333     -122.61414      23.581107     -9.8124644     -136.89821     -31.24554       117.84211      117.77571      117.81982      1635214      
Loop time of 3.1764 on 8 procs for 1 steps with 132773 atoms

94.9% CPU use with 8 MPI tasks x no OpenMP threads

Minimization stats:
  Stopping criterion = quadratic factors are zero
  Energy initial, next-to-last, final = 
     -47104.1723862886  -47104.1723862886  -47104.1723862886
  Force two-norm initial, final = 339.82075 339.82075
  Force max component initial, final = 139.74717 139.74717
  Final line search alpha, max atom move = 1.7060709e-13 2.3841858e-11
  Iterations, force evaluations = 1 24

MPI task timing breakdown:
Section |  min time  |  avg time  |  max time  |%varavg| %total
---------------------------------------------------------------
Pair    | 1.5888     | 1.7875     | 1.8806     |   6.5 | 56.28
Neigh   | 1.2264     | 1.3036     | 1.502      |   7.9 | 41.04
Comm    | 0.016441   | 0.061534   | 0.11459    |  13.2 |  1.94
Output  | 0          | 0          | 0          |   0.0 |  0.00
Modify  | 0          | 0          | 0          |   0.0 |  0.00
Other   |            | 0.0237     |            |       |  0.75

Nlocal:        16596.6 ave       16632 max       16568 min
Histogram: 1 0 1 1 2 2 0 0 0 1
Nghost:        17541.5 ave       17587 max       17487 min
Histogram: 1 0 1 0 1 0 2 2 0 1
Neighs:              0 ave           0 max           0 min
Histogram: 8 0 0 0 0 0 0 0 0 0
FullNghs:  2.88299e+06 ave 2.89328e+06 max 2.87336e+06 min
Histogram: 1 0 2 0 2 0 0 2 0 1

Total # of neighbors = 23063950
Ave neighs/atom = 173.70964
Neighbor list builds = 24
Dangerous builds not checked
unfix           1

timestep        0.0005
min_style       quickmin
min_modify      dmax 0.01 norm max
fix             2 all viscous 0.2
minimize        0.0 2.0e+1 10000 10000
WARNING: Using 'neigh_modify every 1 delay 0 check yes' setting during minimization (../min.cpp:187)
Generated 0 of 0 mixed pair_coeff terms from geometric mixing rule
Per MPI rank memory allocation (min/avg/max) = 20.22 | 20.27 | 20.6 Mbytes
   Step          Temp           Fmax          Fnorm      c_thermo_temp   c_thermo_pe       Press      c_thermo_press[1] c_thermo_press[2] c_thermo_press[3] c_thermo_press[4] c_thermo_press[5] c_thermo_press[6]       Lx             Ly             Lz           Volume    
     10020   0              2.4133167      260.65736      0             -47104.172     -0.14553381     100.28134     -123.45466      22.736718     -9.8151943     -136.89784     -31.245618      117.84211      117.77571      117.81982      1635214      
     10021   0.075136673    2.376674       256.69966      0.075136673   -47104.172      0.69676772     101.12333     -122.61414      23.581107     -9.8124644     -136.89821     -31.24554       117.84211      117.77571      117.81982      1635214      
Loop time of 0.115318 on 8 procs for 1 steps with 132773 atoms

88.6% CPU use with 8 MPI tasks x no OpenMP threads

Minimization stats:
  Stopping criterion = force tolerance
  Energy initial, next-to-last, final = 
     -47104.1723862886  -47104.1723862886  -47104.1723862886
  Force two-norm initial, final = 260.65736 256.69966
  Force max component initial, final = 2.4133167 2.376674
  Final line search alpha, max atom move = 0 0
  Iterations, force evaluations = 1 1

MPI task timing breakdown:
Section |  min time  |  avg time  |  max time  |%varavg| %total
---------------------------------------------------------------
Pair    | 0.10853    | 0.11122    | 0.11398    |   0.5 | 96.45
Neigh   | 0          | 0          | 0          |   0.0 |  0.00
Comm    | 0.00049638 | 0.0032498  | 0.005939   |   3.2 |  2.82
Output  | 0          | 0          | 0          |   0.0 |  0.00
Modify  | 0.000157   | 0.00016606 | 0.00017017 |   0.0 |  0.14
Other   |            | 0.0006781  |            |       |  0.59

Nlocal:        16596.6 ave       16632 max       16568 min
Histogram: 1 0 1 1 2 2 0 0 0 1
Nghost:        17541.5 ave       17587 max       17487 min
Histogram: 1 0 1 0 1 0 2 2 0 1
Neighs:              0 ave           0 max           0 min
Histogram: 8 0 0 0 0 0 0 0 0 0
FullNghs:  2.88299e+06 ave 2.89328e+06 max 2.87336e+06 min
Histogram: 1 0 2 0 2 0 0 2 0 1

Total # of neighbors = 23063950
Ave neighs/atom = 173.70964
Neighbor list builds = 0
Dangerous builds not checked
unfix           2

min_style       cg
min_modify      dmax 0.01 norm max
fix             1 all box/relax tri 0.0
minimize        1.000000e-13 1.000000e+1 10000 10000
WARNING: Using 'neigh_modify every 1 delay 0 check yes' setting during minimization (../min.cpp:187)
Generated 0 of 0 mixed pair_coeff terms from geometric mixing rule
Per MPI rank memory allocation (min/avg/max) = 23.59 | 23.64 | 23.98 Mbytes
   Step          Temp           Fmax          Fnorm      c_thermo_temp   c_thermo_pe       Press      c_thermo_press[1] c_thermo_press[2] c_thermo_press[3] c_thermo_press[4] c_thermo_press[5] c_thermo_press[6]       Lx             Ly             Lz           Volume    
     10021   0.075136673    2.4133167      260.65736      0.075136673   -47104.172      0.69676772     101.12333     -122.61414      23.581107     -9.8124644     -136.89821     -31.24554       117.84211      117.77571      117.81982      1635214      
     10022   0.075136673    2.4133167      260.65736      0.075136673   -47104.172      0.69676772     101.12333     -122.61414      23.581107     -9.8124644     -136.89821     -31.24554       117.84211      117.77571      117.81982      1635214      
Loop time of 3.17127 on 8 procs for 1 steps with 132773 atoms

94.8% CPU use with 8 MPI tasks x no OpenMP threads

Minimization stats:
  Stopping criterion = quadratic factors are zero
  Energy initial, next-to-last, final = 
     -47104.1723862886  -47104.1723862886  -47104.1723862886
  Force two-norm initial, final = 339.82075 339.82075
  Force max component initial, final = 139.74717 139.74717
  Final line search alpha, max atom move = 1.7060709e-13 2.3841858e-11
  Iterations, force evaluations = 1 24

MPI task timing breakdown:
Section |  min time  |  avg time  |  max time  |%varavg| %total
---------------------------------------------------------------
Pair    | 1.6207     | 1.789      | 1.8856     |   5.9 | 56.41
Neigh   | 1.2276     | 1.3011     | 1.5015     |   7.4 | 41.03
Comm    | 0.016902   | 0.059277   | 0.10301    |  11.7 |  1.87
Output  | 0          | 0          | 0          |   0.0 |  0.00
Modify  | 0          | 0          | 0          |   0.0 |  0.00
Other   |            | 0.02183    |            |       |  0.69

Nlocal:        16596.6 ave       16632 max       16568 min
Histogram: 1 0 1 1 2 2 0 0 0 1
Nghost:        17541.5 ave       17587 max       17487 min
Histogram: 1 0 1 0 1 0 2 2 0 1
Neighs:              0 ave           0 max           0 min
Histogram: 8 0 0 0 0 0 0 0 0 0
FullNghs:  2.88299e+06 ave 2.89328e+06 max 2.87336e+06 min
Histogram: 1 0 2 0 2 0 0 2 0 1

Total # of neighbors = 23063950
Ave neighs/atom = 173.70964
Neighbor list builds = 24
Dangerous builds not checked
unfix           1

min_style       quickmin
min_modify      dmax 0.01 norm max
fix             2 all viscous 0.1
minimize        0.0 1.0e-0 20000 20000
WARNING: Using 'neigh_modify every 1 delay 0 check yes' setting during minimization (../min.cpp:187)
Generated 0 of 0 mixed pair_coeff terms from geometric mixing rule
Per MPI rank memory allocation (min/avg/max) = 20.22 | 20.27 | 20.6 Mbytes
   Step          Temp           Fmax          Fnorm      c_thermo_temp   c_thermo_pe       Press      c_thermo_press[1] c_thermo_press[2] c_thermo_press[3] c_thermo_press[4] c_thermo_press[5] c_thermo_press[6]       Lx             Ly             Lz           Volume    
     10022   0              2.4133167      260.65736      0             -47104.172     -0.14553381     100.28134     -123.45466      22.736718     -9.8151943     -136.89784     -31.245618      117.84211      117.77571      117.81982      1635214      
     10067   86.596782      0.89832031     117.39349      86.596782     -48948.435     -5638.8039     -5540.2109     -5751.5911     -5624.6097     -7.0791946     -141.57934     -51.364338      117.84211      117.77571      117.81982      1635214      
Loop time of 5.96312 on 8 procs for 45 steps with 132773 atoms

94.9% CPU use with 8 MPI tasks x no OpenMP threads

Minimization stats:
  Stopping criterion = force tolerance
  Energy initial, next-to-last, final = 
     -47104.1723862886  -48886.5518308878  -48948.4349458218
  Force two-norm initial, final = 260.65736 117.39349
  Force max component initial, final = 2.4133167 0.89832031
  Final line search alpha, max atom move = 0 0
  Iterations, force evaluations = 45 45

MPI task timing breakdown:
Section |  min time  |  avg time  |  max time  |%varavg| %total
---------------------------------------------------------------
Pair    | 2.9972     | 3.4363     | 3.6198     |  11.5 | 57.63
Neigh   | 2.2235     | 2.3912     | 2.7551     |  11.6 | 40.10
Comm    | 0.036223   | 0.11292    | 0.18797    |  14.8 |  1.89
Output  | 0          | 0          | 0          |   0.0 |  0.00
Modify  | 0.0037107  | 0.0038259  | 0.0039527  |   0.1 |  0.06
Other   |            | 0.01879    |            |       |  0.32

Nlocal:        16596.6 ave       16632 max       16561 min
Histogram: 1 0 0 1 2 2 1 0 0 1
Nghost:        17539.1 ave       17588 max       17484 min
Histogram: 1 0 1 1 0 0 3 1 0 1
Neighs:              0 ave           0 max           0 min
Histogram: 8 0 0 0 0 0 0 0 0 0
FullNghs:  2.88206e+06 ave   2.892e+06 max 2.87126e+06 min
Histogram: 1 0 1 1 1 1 0 1 1 1

Total # of neighbors = 23056518
Ave neighs/atom = 173.65366
Neighbor list builds = 44
Dangerous builds not checked
unfix           2

min_style       cg
min_modify      dmax 0.01 norm max
fix             1 all box/relax tri 0.0
minimize        1.000000e-13 5.000000e-1 20000 20000
WARNING: Using 'neigh_modify every 1 delay 0 check yes' setting during minimization (../min.cpp:187)
Generated 0 of 0 mixed pair_coeff terms from geometric mixing rule
Per MPI rank memory allocation (min/avg/max) = 23.59 | 23.64 | 23.98 Mbytes
   Step          Temp           Fmax          Fnorm      c_thermo_temp   c_thermo_pe       Press      c_thermo_press[1] c_thermo_press[2] c_thermo_press[3] c_thermo_press[4] c_thermo_press[5] c_thermo_press[6]       Lx             Ly             Lz           Volume    
     10067   86.596782      1.4112854      184.57176      86.596782     -48948.435     -5638.8039     -5540.2109     -5751.5911     -5624.6097     -7.0791946     -141.57934     -51.364338      117.84211      117.77571      117.81982      1635214      
     10089   86.596782      1.4415188      188.51642      86.596782     -48966.654      1060.6747      1050.9516      1072.3457      1058.7267     -6.6115441     -29.326536     -0.55411451     117.64687      117.55346      117.61344      1626570      
Loop time of 14.5155 on 8 procs for 22 steps with 132773 atoms

95.3% CPU use with 8 MPI tasks x no OpenMP threads

Minimization stats:
  Stopping criterion = linesearch alpha is zero
  Energy initial, next-to-last, final = 
     -48948.4349458218  -48966.6538686752  -48966.6538686752
  Force two-norm initial, final = 11687.671 243.0739
  Force max component initial, final = 6860.1955 98.854687
  Final line search alpha, max atom move = 1.2059043e-13 1.1920929e-11
  Iterations, force evaluations = 22 105

MPI task timing breakdown:
Section |  min time  |  avg time  |  max time  |%varavg| %total
---------------------------------------------------------------
Pair    | 6.9116     | 8.472      | 9.1052     |  23.8 | 58.37
Neigh   | 5.2435     | 5.7214     | 7.1149     |  25.3 | 39.42
Comm    | 0.068874   | 0.22382    | 0.38873    |  22.0 |  1.54
Output  | 0          | 0          | 0          |   0.0 |  0.00
Modify  | 0          | 0          | 0          |   0.0 |  0.00
Other   |            | 0.09827    |            |       |  0.68

Nlocal:        16596.6 ave       16632 max       16561 min
Histogram: 1 0 0 1 2 2 1 0 0 1
Nghost:        17581.2 ave       17624 max       17522 min
Histogram: 1 0 1 0 1 0 1 2 1 1
Neighs:              0 ave           0 max           0 min
Histogram: 8 0 0 0 0 0 0 0 0 0
FullNghs:  2.89493e+06 ave 2.90492e+06 max 2.88408e+06 min
Histogram: 1 0 1 1 1 1 0 1 1 1

Total # of neighbors = 23159438
Ave neighs/atom = 174.42882
Neighbor list builds = 105
Dangerous builds not checked
unfix           1

min_style       quickmin
min_modify      dmax 0.01 norm max
fix             2 all viscous 0.2
minimize        0.0 4.0e-1 20000 20000
WARNING: Using 'neigh_modify every 1 delay 0 check yes' setting during minimization (../min.cpp:187)
Generated 0 of 0 mixed pair_coeff terms from geometric mixing rule
Per MPI rank memory allocation (min/avg/max) = 20.22 | 20.27 | 20.6 Mbytes
   Step          Temp           Fmax          Fnorm      c_thermo_temp   c_thermo_pe       Press      c_thermo_press[1] c_thermo_press[2] c_thermo_press[3] c_thermo_press[4] c_thermo_press[5] c_thermo_press[6]       Lx             Ly             Lz           Volume    
     10089   0              1.4415188      188.51642      0             -48966.654      84.743393      75.579969      97.188424      81.461787     -9.3738672     -29.681258     -0.91455396     117.64687      117.55346      117.61344      1626570      
     10100   4.0521468      1.1991931      156.41478      4.0521468     -49037.362     -124.13047     -133.42515     -111.5331      -127.43318     -9.0823169     -29.868939     -1.5892224      117.64687      117.55346      117.61344      1626570      
     10166   22.320872      0.3844296      47.606919      22.320872     -50576.886     -5415.5393     -5422.4236     -5397.7801     -5426.4141     -8.9841114     -36.506975     -26.233985      117.64687      117.55346      117.61344      1626570      
Loop time of 10.3157 on 8 procs for 77 steps with 132773 atoms

95.0% CPU use with 8 MPI tasks x no OpenMP threads

Minimization stats:
  Stopping criterion = force tolerance
  Energy initial, next-to-last, final = 
     -48966.6538686752  -50557.0084570646  -50576.8857283592
  Force two-norm initial, final = 188.51642 47.606919
  Force max component initial, final = 1.4415188 0.3844296
  Final line search alpha, max atom move = 0 0
  Iterations, force evaluations = 77 77

MPI task timing breakdown:
Section |  min time  |  avg time  |  max time  |%varavg| %total
---------------------------------------------------------------
Pair    | 5.5553     | 5.9432     | 6.4599     |  12.5 | 57.61
Neigh   | 3.7614     | 4.1435     | 4.5961     |  13.1 | 40.17
Comm    | 0.054091   | 0.18827    | 0.32024    |  20.9 |  1.83
Output  | 0.00018502 | 0.00018602 | 0.00019117 |   0.0 |  0.00
Modify  | 0.0062244  | 0.0064794  | 0.0066937  |   0.2 |  0.06
Other   |            | 0.03409    |            |       |  0.33

Nlocal:        16596.6 ave       16636 max       16562 min
Histogram: 1 0 1 0 3 2 0 0 0 1
Nghost:        17581.5 ave       17626 max       17534 min
Histogram: 2 0 1 0 0 1 2 0 1 1
Neighs:              0 ave           0 max           0 min
Histogram: 8 0 0 0 0 0 0 0 0 0
FullNghs:  2.89194e+06 ave  2.9022e+06 max 2.88143e+06 min
Histogram: 1 0 1 1 1 0 2 1 0 1

Total # of neighbors = 23135544
Ave neighs/atom = 174.24886
Neighbor list builds = 76
Dangerous builds not checked
unfix           2

min_style       cg
min_modify      dmax 0.01 norm max
fix             1 all box/relax tri 0.0
minimize        1.000000e-13 2.000000e-1 20000 20000
WARNING: Using 'neigh_modify every 1 delay 0 check yes' setting during minimization (../min.cpp:187)
Generated 0 of 0 mixed pair_coeff terms from geometric mixing rule
Per MPI rank memory allocation (min/avg/max) = 23.59 | 23.64 | 23.98 Mbytes
   Step          Temp           Fmax          Fnorm      c_thermo_temp   c_thermo_pe       Press      c_thermo_press[1] c_thermo_press[2] c_thermo_press[3] c_thermo_press[4] c_thermo_press[5] c_thermo_press[6]       Lx             Ly             Lz           Volume    
     10166   22.320872      0.94453239     115.79602      22.320872     -50576.886     -5415.5393     -5422.4236     -5397.7801     -5426.4141     -8.9841114     -36.506975     -26.233985      117.64687      117.55346      117.61344      1626570      
     10185   22.320872      0.95987701     117.74852      22.320872     -50588.938      175.15719      163.03361      199.60391      162.83403     -0.63120921     1.5338834      0.53474611     117.47813      117.38353      117.44437      1619557.5    
Loop time of 8.65086 on 8 procs for 19 steps with 132773 atoms

95.2% CPU use with 8 MPI tasks x no OpenMP threads

Minimization stats:
  Stopping criterion = quadratic factors are zero
  Energy initial, next-to-last, final = 
     -50576.8857283592  -50588.9375629425  -50588.9375629425
  Force two-norm initial, final = 9965.9462 182.3707
  Force max component initial, final = 5764.6559 91.15403
  Final line search alpha, max atom move = 2.0924458e-12 1.9073486e-10
  Iterations, force evaluations = 19 64

MPI task timing breakdown:
Section |  min time  |  avg time  |  max time  |%varavg| %total
---------------------------------------------------------------
Pair    | 4.2144     | 4.9435     | 5.3538     |  14.8 | 57.14
Neigh   | 3.1941     | 3.4836     | 4.0932     |  14.2 | 40.27
Comm    | 0.042615   | 0.16326    | 0.28208    |  19.5 |  1.89
Output  | 0          | 0          | 0          |   0.0 |  0.00
Modify  | 0          | 0          | 0          |   0.0 |  0.00
Other   |            | 0.06049    |            |       |  0.70

Nlocal:        16596.6 ave       16636 max       16562 min
Histogram: 1 0 1 0 3 2 0 0 0 1
Nghost:        17614.4 ave       17655 max       17562 min
Histogram: 2 0 0 1 0 0 2 0 2 1
Neighs:              0 ave           0 max           0 min
Histogram: 8 0 0 0 0 0 0 0 0 0
FullNghs:  2.90186e+06 ave 2.91202e+06 max 2.89123e+06 min
Histogram: 1 0 1 1 1 0 2 1 0 1

Total # of neighbors = 23214864
Ave neighs/atom = 174.84627
Neighbor list builds = 64
Dangerous builds not checked
unfix           1

timestep        0.0005
min_style       quickmin
min_modify      dmax 0.01 norm max
fix             2 all viscous 0.2
minimize        0.0 1.0e-1 40000 40000
WARNING: Using 'neigh_modify every 1 delay 0 check yes' setting during minimization (../min.cpp:187)
Generated 0 of 0 mixed pair_coeff terms from geometric mixing rule
Per MPI rank memory allocation (min/avg/max) = 20.22 | 20.27 | 20.6 Mbytes
   Step          Temp           Fmax          Fnorm      c_thermo_temp   c_thermo_pe       Press      c_thermo_press[1] c_thermo_press[2] c_thermo_press[3] c_thermo_press[4] c_thermo_press[5] c_thermo_press[6]       Lx             Ly             Lz           Volume    
     10185   0              0.95987701     117.74852      0             -50588.938     -77.484507     -89.578906     -52.828479     -90.046137     -0.96847464     1.0432724      0.47334059     117.47813      117.38353      117.44437      1619557.5    
     10200   2.7596234      0.74522548     91.259925      2.7596234     -50640.522     -227.04049     -239.16091     -201.90151     -240.05905     -0.78537489     0.72371176    -0.47830004     117.47813      117.38353      117.44437      1619557.5    
     10300   4.4995992      0.30487691     38.505889      4.4995992     -51571.807     -3417.6732     -3430.9038     -3385.9205     -3436.1952     -1.2176553     -1.6437698     -18.335197      117.47813      117.38353      117.44437      1619557.5    
     10400   2.9985298      0.1881967      20.264079      2.9985298     -51966.074     -4703.2709     -4719.3738     -4663.9365     -4726.5024     -1.4963471      1.2199428     -22.225696      117.47813      117.38353      117.44437      1619557.5    
     10500   1.4597846      0.20274883     15.582607      1.4597846     -52175.683     -5355.2679     -5372.5519     -5310.2214     -5383.0302     -2.1689904      5.2491762     -23.345765      117.47813      117.38353      117.44437      1619557.5    
     10600   0.74517442     0.23998882     13.050289      0.74517442    -52306.089     -5740.6492     -5759.7719     -5691.3509     -5770.8248     -1.7585828      7.2200668     -23.347328      117.47813      117.38353      117.44437      1619557.5    
     10700   0.46960052     0.23474623     10.57691       0.46960052    -52394.325     -5985.6881     -6006.6144     -5932.742      -6017.7079     -2.9416567      9.3966461     -23.335974      117.47813      117.38353      117.44437      1619557.5    
     10800   0.33645464     0.25613192     8.6333668      0.33645464    -52456.493     -6146.2702     -6168.5206     -6090.7509     -6179.5392     -4.8561014      9.8793171     -24.024051      117.47813      117.38353      117.44437      1619557.5    
     10900   0.24658535     0.29006891     7.3293714      0.24658535    -52502.689     -6259.9544     -6282.5926     -6203.3505     -6293.92       -5.6983711      11.367987     -24.293812      117.47813      117.38353      117.44437      1619557.5    
     11000   0.18529986     0.29252058     6.3917686      0.18529986    -52537.45      -6342.3758     -6365.9667     -6284.1198     -6377.0409     -6.0822694      12.491394     -24.160885      117.47813      117.38353      117.44437      1619557.5    
     11100   0.14416166     0.28711367     5.6522764      0.14416166    -52564.225     -6403.0988     -6426.7538     -6343.1785     -6439.3642     -6.2980648      12.860722     -23.867337      117.47813      117.38353      117.44437      1619557.5    
     11200   0.11510445     0.27070426     5.0599427      0.11510445    -52584.965     -6445.0167     -6468.5966     -6384.4776     -6481.9759     -5.891578       13.803426     -24.125845      117.47813      117.38353      117.44437      1619557.5    
     11300   0.094063389    0.23928247     4.5744166      0.094063389   -52602.317     -6479.3854     -6502.8672     -6418.5638     -6516.7251     -5.920965       14.362702     -24.684922      117.47813      117.38353      117.44437      1619557.5    
     11400   0.078035176    0.21342369     4.17567        0.078035176   -52616.188     -6507.3669     -6530.023      -6445.9514     -6546.1264     -6.1713513      14.650947     -24.716834      117.47813      117.38353      117.44437      1619557.5    
     11500   0.065760109    0.185448       3.839009       0.065760109   -52628.318     -6532.1148     -6554.655      -6470.0321     -6571.6572     -6.5383959      15.226854     -24.587709      117.47813      117.38353      117.44437      1619557.5    
     11600   0.056614498    0.16721407     3.5361848      0.056614498   -52639.093     -6552.0901     -6574.2389     -6488.5872     -6593.4442     -6.5916413      14.98102      -24.429531      117.47813      117.38353      117.44437      1619557.5    
     11671   0.050230347    0.097449994    3.3807994      0.050230347   -52645.622     -6565.3281     -6587.2256     -6500.6835     -6608.0754     -7.2397385      15.497961     -24.149404      117.47813      117.38353      117.44437      1619557.5    
Loop time of 200.861 on 8 procs for 1486 steps with 132773 atoms

95.1% CPU use with 8 MPI tasks x no OpenMP threads

Minimization stats:
  Stopping criterion = force tolerance
  Energy initial, next-to-last, final = 
     -50588.9375629425  -52645.5208106041   -52645.621584177
  Force two-norm initial, final = 117.74852 3.3807994
  Force max component initial, final = 0.95987701 0.097449994
  Final line search alpha, max atom move = 0 0
  Iterations, force evaluations = 1486 1486

MPI task timing breakdown:
Section |  min time  |  avg time  |  max time  |%varavg| %total
---------------------------------------------------------------
Pair    | 108.17     | 115.4      | 120.1      |  30.5 | 57.45
Neigh   | 78.901     | 80.855     | 85.484     |  20.7 | 40.25
Comm    | 1.0961     | 3.8365     | 6.4361     |  88.7 |  1.91
Output  | 0.0028245  | 0.0028401  | 0.0029357  |   0.1 |  0.00
Modify  | 0.12001    | 0.12407    | 0.12821    |   0.7 |  0.06
Other   |            | 0.6414     |            |       |  0.32

Nlocal:        16596.6 ave       16632 max       16579 min
Histogram: 2 3 0 1 0 0 0 1 0 1
Nghost:        17614.9 ave       17657 max       17572 min
Histogram: 2 0 0 0 1 3 0 0 1 1
Neighs:              0 ave           0 max           0 min
Histogram: 8 0 0 0 0 0 0 0 0 0
FullNghs:  2.89157e+06 ave 2.89912e+06 max 2.88449e+06 min
Histogram: 1 2 0 0 2 0 1 0 0 2

Total # of neighbors = 23132528
Ave neighs/atom = 174.22615
Neighbor list builds = 1485
Dangerous builds not checked
unfix           2

min_style       cg
min_modify      dmax 0.01 norm max
fix             1 all box/relax tri 0.0
minimize        1.000000e-13 1.000000e-1 40000 40000
WARNING: Using 'neigh_modify every 1 delay 0 check yes' setting during minimization (../min.cpp:187)
Generated 0 of 0 mixed pair_coeff terms from geometric mixing rule
Per MPI rank memory allocation (min/avg/max) = 23.59 | 23.64 | 23.98 Mbytes
   Step          Temp           Fmax          Fnorm      c_thermo_temp   c_thermo_pe       Press      c_thermo_press[1] c_thermo_press[2] c_thermo_press[3] c_thermo_press[4] c_thermo_press[5] c_thermo_press[6]       Lx             Ly             Lz           Volume    
     11671   0.050230347    0.13555717     6.5886623      0.050230347   -52645.622     -6565.3281     -6587.2256     -6500.6835     -6608.0754     -7.2397385      15.497961     -24.149404      117.47813      117.38353      117.44437      1619557.5    
     11692   0.050230347    0.13945198     6.7963613      0.050230347   -52671.03      -1.5677671     -1.0141117     -6.8405665      3.1513769      0.65589099     3.7796248     -5.3547966      117.27767      117.19303      117.2419       1611387.5    
Loop time of 12.0703 on 8 procs for 21 steps with 132773 atoms

95.3% CPU use with 8 MPI tasks x no OpenMP threads

Minimization stats:
  Stopping criterion = linesearch alpha is zero
  Energy initial, next-to-last, final = 
      -52645.621584177   -52671.029669404   -52671.029669404
  Force two-norm initial, final = 11496.169 12.456529
  Force max component initial, final = 6680.3363 7.4592375
  Final line search alpha, max atom move = 5.1140579e-11 3.8146973e-10
  Iterations, force evaluations = 21 88

MPI task timing breakdown:
Section |  min time  |  avg time  |  max time  |%varavg| %total
---------------------------------------------------------------
Pair    | 6.078      | 6.9701     | 7.5451     |  17.7 | 57.75
Neigh   | 4.3762     | 4.7968     | 5.7673     |  20.2 | 39.74
Comm    | 0.05857    | 0.21241    | 0.3767     |  22.8 |  1.76
Output  | 0          | 0          | 0          |   0.0 |  0.00
Modify  | 0          | 0          | 0          |   0.0 |  0.00
Other   |            | 0.09096    |            |       |  0.75

Nlocal:        16596.6 ave       16632 max       16579 min
Histogram: 2 3 0 1 0 0 0 1 0 1
Nghost:          17650 ave       17685 max       17609 min
Histogram: 1 1 0 0 2 1 1 0 0 2
Neighs:              0 ave           0 max           0 min
Histogram: 8 0 0 0 0 0 0 0 0 0
FullNghs:  2.90094e+06 ave 2.90842e+06 max 2.89381e+06 min
Histogram: 1 1 1 0 2 0 1 0 0 2

Total # of neighbors = 23207486
Ave neighs/atom = 174.7907
Neighbor list builds = 88
Dangerous builds not checked
unfix           1

min_style       quickmin
min_modify      dmax 0.01 norm max
fix             2 all viscous 0.2
minimize        0.0 5.0e-2 40000 40000
WARNING: Using 'neigh_modify every 1 delay 0 check yes' setting during minimization (../min.cpp:187)
Generated 0 of 0 mixed pair_coeff terms from geometric mixing rule
Per MPI rank memory allocation (min/avg/max) = 20.22 | 20.27 | 20.6 Mbytes
   Step          Temp           Fmax          Fnorm      c_thermo_temp   c_thermo_pe       Press      c_thermo_press[1] c_thermo_press[2] c_thermo_press[3] c_thermo_press[4] c_thermo_press[5] c_thermo_press[6]       Lx             Ly             Lz           Volume    
     11692   0              0.13945198     6.7963613      0             -52671.03      -2.1391884     -1.5936897     -7.4045629      2.5806873      0.66585921     3.783876      -5.3483377      117.27767      117.19303      117.2419       1611387.5    
     11700   0.0029394112   0.1233693      6.0077149      0.0029394112  -52671.072     -2.2839043     -1.7000769     -7.5632698      2.4116339      0.64642439     3.7975815     -5.3354522      117.27767      117.19303      117.2419       1611387.5    
     11800   0.044930062    0.070420321    3.2847708      0.044930062   -52677.644     -24.727756     -24.501181     -26.161788     -23.5203       -0.36661369     4.5109578     -6.3714357      117.27767      117.19303      117.2419       1611387.5    
     11900   0.041028186    0.075861834    2.9870074      0.041028186   -52684.272     -45.758305     -45.224529     -44.666151     -47.384234     -0.82972566     4.8185382     -6.5655869      117.27767      117.19303      117.2419       1611387.5    
     12000   0.034937824    0.068500021    2.8424157      0.034937824   -52690.012     -60.896199     -59.850878     -58.105664     -64.732056     -2.0028888      5.4977526     -6.7228579      117.27767      117.19303      117.2419       1611387.5    
     12100   0.030774675    0.066239873    2.6881853      0.030774675   -52694.852     -73.562717     -72.156117     -69.088989     -79.443045     -2.8295223      6.161538      -7.1249209      117.27767      117.19303      117.2419       1611387.5    
     12200   0.027598347    0.065981134    2.5345239      0.027598347   -52699.569     -84.832184     -82.586689     -78.669604     -93.240258     -4.0671247      6.6701971     -7.2737077      117.27767      117.19303      117.2419       1611387.5    
     12300   0.024895357    0.067363126    2.3996112      0.024895357   -52703.535     -93.860209     -91.274881     -85.755782     -104.54997     -4.8461257      7.3325999     -7.0516785      117.27767      117.19303      117.2419       1611387.5    
     12400   0.021871144    0.067077266    2.311008       0.021871144   -52707.203     -102.23033     -99.051471     -92.642895     -114.99661     -5.6008961      8.0842889     -7.5383702      117.27767      117.19303      117.2419       1611387.5    
     12500   0.019798094    0.067431242    2.204755       0.019798094   -52710.673     -110.66426     -107.10465     -99.494053     -125.39408     -5.8266469      8.7428106     -7.7426585      117.27767      117.19303      117.2419       1611387.5    
     12600   0.017925746    0.067466478    2.1209304      0.017925746   -52713.911     -117.6374      -113.27692     -105.20795     -134.42734     -6.4475734      9.2599866     -7.9602012      117.27767      117.19303      117.2419       1611387.5    
     12700   0.016677315    0.066653954    2.0121613      0.016677315   -52716.785     -123.6429      -118.63386     -109.78078     -142.51407     -6.9811825      10.056651     -8.1109578      117.27767      117.19303      117.2419       1611387.5    
     12800   0.014846431    0.066568577    1.9611929      0.014846431   -52719.469     -129.92213     -124.08673     -114.74679     -150.93287     -7.5883405      10.715405     -8.0213364      117.27767      117.19303      117.2419       1611387.5    
     12900   0.014118899    0.064721262    1.8603717      0.014118899   -52721.825     -135.06624     -128.31481     -119.09655     -157.78734     -8.1001866      11.605336     -8.3414638      117.27767      117.19303      117.2419       1611387.5    
     13000   0.013408628    0.062456173    1.7667847      0.013408628   -52724.11      -138.8893      -131.43743     -121.64895     -163.58153     -9.0131127      12.261868     -8.3247793      117.27767      117.19303      117.2419       1611387.5    
     13100   0.012763848    0.059278526    1.6798078      0.012763848   -52726.22      -143.53504     -135.32789     -125.02831     -170.24891     -9.5629632      12.661927     -8.479133       117.27767      117.19303      117.2419       1611387.5    
     13200   0.010809903    0.060227801    1.694128       0.010809903   -52727.799     -145.56988     -136.69213     -125.565       -174.45251     -10.299362      13.519475     -8.6088379      117.27767      117.19303      117.2419       1611387.5    
     13300   0.010352945    0.05749327     1.6142848      0.010352945   -52729.525     -149.23624     -139.51915     -128.09643     -180.09315     -10.686988      14.108961     -8.6414375      117.27767      117.19303      117.2419       1611387.5    
     13400   0.0091207225   0.056848061    1.6068598      0.0091207225  -52731.247     -152.6466      -142.09684     -130.49086     -185.35211     -11.259326      15.076305     -8.6918761      117.27767      117.19303      117.2419       1611387.5    
     13500   0.0083802338   0.054967664    1.5721374      0.0083802338  -52732.812     -156.1228      -144.88739     -132.85426     -190.62677     -11.821144      15.835885     -8.772728       117.27767      117.19303      117.2419       1611387.5    
     13600   0.0077813509   0.053296375    1.5290205      0.0077813509  -52734.261     -159.21631     -147.41712     -134.95748     -195.27433     -11.948296      16.662572     -8.6563944      117.27767      117.19303      117.2419       1611387.5    
     13700   0.0075259245   0.050458724    1.4687727      0.0075259245  -52735.428     -160.24047     -147.93326     -134.99946     -197.78869     -12.571389      17.260222     -8.7178981      117.27767      117.19303      117.2419       1611387.5    
     13800   0.007033421    0.048710964    1.4322313      0.007033421   -52736.562     -161.46406     -148.7182      -134.95502     -200.71896     -13.673171      17.746781     -8.7885561      117.27767      117.19303      117.2419       1611387.5    
     13900   0.0070192111   0.045215814    1.3585728      0.0070192111  -52737.79      -163.27072     -149.73482     -135.72718     -204.35018     -14.190946      18.239837     -8.6052126      117.27767      117.19303      117.2419       1611387.5    
     14000   0.0066187324   0.043074242    1.3203609      0.0066187324  -52738.995     -165.5952      -151.33701     -137.28989     -208.15869     -14.921218      18.567801     -8.4509063      117.27767      117.19303      117.2419       1611387.5    
     14100   0.0062161663   0.041428211    1.2915397      0.0062161663  -52739.818     -166.26177     -151.46957     -136.80341     -210.51233     -15.425751      18.797373     -8.3808378      117.27767      117.19303      117.2419       1611387.5    
     14108   0.0061855169   0.041216885    1.2865642      0.0061855169  -52739.894     -166.35481     -151.44618     -136.92815     -210.69009     -15.459122      18.894261     -8.3655292      117.27767      117.19303      117.2419       1611387.5    
Loop time of 327.886 on 8 procs for 2416 steps with 132773 atoms

95.1% CPU use with 8 MPI tasks x no OpenMP threads

Minimization stats:
  Stopping criterion = force tolerance
  Energy initial, next-to-last, final = 
      -52671.029669404  -52739.8823306561  -52739.8943703175
  Force two-norm initial, final = 6.7963613 1.2865642
  Force max component initial, final = 0.13945198 0.041216885
  Final line search alpha, max atom move = 0 0
  Iterations, force evaluations = 2416 2416

MPI task timing breakdown:
Section |  min time  |  avg time  |  max time  |%varavg| %total
---------------------------------------------------------------
Pair    | 178.65     | 188.82     | 195.55     |  38.3 | 57.59
Neigh   | 127.84     | 131.51     | 137.23     |  23.0 | 40.11
Comm    | 1.8225     | 6.3022     | 10.754     | 115.6 |  1.92
Output  | 0.0047637  | 0.0048054  | 0.005068   |   0.1 |  0.00
Modify  | 0.19587    | 0.20272    | 0.20776    |   0.8 |  0.06
Other   |            | 1.05       |            |       |  0.32

Nlocal:        16596.6 ave       16637 max       16572 min
Histogram: 1 1 2 2 0 0 1 0 0 1
Nghost:        17646.1 ave       17686 max       17601 min
Histogram: 2 0 0 0 1 1 1 1 0 2
Neighs:              0 ave           0 max           0 min
Histogram: 8 0 0 0 0 0 0 0 0 0
FullNghs:  2.90033e+06 ave 2.90869e+06 max 2.89243e+06 min
Histogram: 1 1 1 0 2 0 0 1 1 1

Total # of neighbors = 23202610
Ave neighs/atom = 174.75398
Neighbor list builds = 2415
Dangerous builds not checked
unfix           2

min_style       cg
min_modify      dmax 0.01 norm max
fix             1 all box/relax tri 0.0
minimize        1.000000e-13 2.000000e-2 40000 40000
WARNING: Using 'neigh_modify every 1 delay 0 check yes' setting during minimization (../min.cpp:187)
Generated 0 of 0 mixed pair_coeff terms from geometric mixing rule
Per MPI rank memory allocation (min/avg/max) = 23.59 | 23.64 | 23.98 Mbytes
   Step          Temp           Fmax          Fnorm      c_thermo_temp   c_thermo_pe       Press      c_thermo_press[1] c_thermo_press[2] c_thermo_press[3] c_thermo_press[4] c_thermo_press[5] c_thermo_press[6]       Lx             Ly             Lz           Volume    
     14108   0.0061855169   0.077606201    2.4121862      0.0061855169  -52739.894     -166.35481     -151.44618     -136.92815     -210.69009     -15.459122      18.894261     -8.3655292      117.27767      117.19303      117.2419       1611387.5    
     14109   0.0061855169   0.077606201    2.4121862      0.0061855169  -52739.894     -166.35481     -151.44618     -136.92815     -210.69009     -15.459122      18.894261     -8.3655292      117.27767      117.19303      117.2419       1611387.5    
Loop time of 5.48219 on 8 procs for 1 steps with 132773 atoms

95.1% CPU use with 8 MPI tasks x no OpenMP threads

Minimization stats:
  Stopping criterion = quadratic factors are zero
[...]
    259000   299.15035      2.2074299      254.99677      299.15035     -46684.458     -6019.8303      930.03749     -679.13564     -18310.393     -382.02603      67.198313      738.59275      112.17157      112.09058      131.13106      1648760.2    
    259100   299.35979      2.4571877      254.44728      299.35979     -46712.39      -6020.0352      618.30765     -600.52898     -18077.884     -448.00961      125.12167      898.19887      112.1592       112.07822      131.16054      1648767.2    
    259200   300.1349       2.1401119      254.34817      300.1349      -46732.776     -6030.6868      771.27253     -834.50118     -18028.832     -385.03742      146.83452      848.6921       112.1413       112.06033      131.19001      1648611.2    
    259300   299.39218      2.5292358      254.89128      299.39218     -46722.77      -5875.4151      970.5973      -704.49374     -17892.349     -481.35843      134.49691      819.35782      112.12333      112.04237      131.21949      1648453.2    
    259400   300.11185      2.0480862      253.8177       300.11185     -46735.428     -6167.72        673.08221     -1035.6279     -18140.614     -469.09779      64.649465      769.23494      112.11976      112.03881      131.24896      1648718.6    
    259500   299.32561      2.1462975      254.5968       299.32561     -46726.09      -5861.0182      1036.9166     -750.74853     -17869.223     -420.99242     -9.8950606      997.28812      112.09677      112.01583      131.27844      1648412.5    
    259600   299.56642      2.298521       254.31605      299.56642     -46737.154     -6065.9189      654.74846     -844.10086     -18008.404     -398.31855      88.756215      907.99562      112.09185      112.01092      131.30791      1648638.1    
    259700   300.69928      2.2582607      253.4665       300.69928     -46757.597     -5919.8371      899.55368     -803.90988     -17855.155     -286.17283     -50.991563      824.02155      112.0708       111.98989      131.33739      1648388.8    
    259800   299.96866      2.2811069      254.44523      299.96866     -46738.843     -5943.8278      667.84835     -546.17297     -17953.159     -408.42999      100.81879      903.70208      112.06197      111.98106      131.36686      1648498.8    
    259900   301.51944      2.0994987      253.78073      301.51944     -46748.971     -6168.7589      540.73089     -919.18313     -18127.824     -594.32307      54.830385      930.57132      112.0579       111.977        131.39634      1648749.1    
    260000   301.65065      2.2682152      254.10103      301.65065     -46735.093     -5871.5057      775.6463      -648.04708     -17742.116     -394.34048      120.53938      908.12223      112.03407      111.95318      131.42581      1648417.6    
    260100   300.37987      2.3920746      254.20034      300.37987     -46724.582     -6146.8052      700.29749     -1109.0651     -18031.648     -334.49033     -6.6333857      904.38366      112.03629      111.9554       131.45529      1648852.6    
    260200   299.70649      2.2528267      254.54399      299.70649     -46732.585     -5754.6276      1040.6077     -560.98437     -17743.506     -507.34026     -44.338465      848.50254      112.00184      111.92098      131.48476      1648208.4    
    260300   299.62233      2.2464733      254.402        299.62233     -46734.301     -6161.4827      596.62468     -951.13362     -18129.939     -332.51738     -60.496168      1087.8399      112.00675      111.92589      131.51424      1648722.4    
    260400   299.72527      2.6330929      254.30404      299.72527     -46736.501     -5830.0046      928.71514     -467.72224     -17951.007     -276.05876     -172.94948      992.94432      111.98156      111.90072      131.54371      1648350.2    
    260500   298.80655      2.2539825      254.30507      298.80655     -46732.377     -6057.0899      675.58499     -730.47646     -18116.378     -481.38403     -254.85024      846.06538      111.97743      111.89659      131.57319      1648598      
    260600   298.92816      2.9428558      253.80931      298.92816     -46752.063     -6038.3954      839.55489     -813.69327     -18141.048     -268.89394     -181.10259      913.67407      111.96079      111.87996      131.60266      1648477      
    260700   300.13751      2.3127327      254.06217      300.13751     -46763.923     -5979.4639      934.96764     -595.3653      -18277.994     -385.18134     -225.59656      925.2899       111.9457       111.86488      131.63214      1648402      
    260800   299.75612      2.2582073      254.53759      299.75612     -46717.526     -6298.7368      587.57112     -1170.0485     -18313.733     -406.2196      -355.97445      903.81374      111.95426      111.87344      131.66161      1649023.4    
    260900   300.73119      2.2519531      254.8301       300.73119     -46725.963     -5777.8902      1144.7046     -455.93172     -18022.444     -362.41989     -221.52659      989.01224      111.91796      111.83716      131.69109      1648323      
    261000   300.73989      2.3064232      253.99227      300.73989     -46737.525     -6453.9834      227.15988     -1115.0027     -18474.107     -410.5145      -250.20371      934.9205       111.93619      111.85538      131.72056      1649229      
    261100   300.66673      2.1428261      254.25438      300.66673     -46748.148     -5827.9981      1064.0759     -493.66808     -18054.402     -222.84154     -231.46981      872.47366      111.89151      111.81074      131.75004      1648281.6    
    261200   299.21709      2.2382812      254.13597      299.21709     -46729.097     -6277.9747      705.98405     -959.7593      -18580.149     -363.38667     -270.28188      774.07179      111.90244      111.82165      131.77951      1648972.3    
    261300   299.79403      2.2219009      254.10639      299.79403     -46731.929     -6131.7286      891.87646     -782.88103     -18504.181     -369.35026     -185.83264      931.75117      111.88153      111.80076      131.80899      1648724.9    
    261400   299.97045      2.3618469      254.8386       299.97045     -46701.67      -6064.914       981.48308     -855.84264     -18320.382     -306.04544     -244.17522      795.53594      111.87148      111.79072      131.83846      1648797.4    
    261500   301.35893      2.4274235      254.72352      301.35893     -46705.642     -6177.5822      644.29654     -804.88864     -18372.154     -311.00219     -351.75633      839.90076      111.86471      111.78396      131.86794      1648966.4    
    261600   300.7761       2.2929192      254.56303      300.7761      -46715.948     -5882.8808      1221.8111     -634.39017     -18236.063     -390.95451     -270.55451      725.56068      111.83667      111.75594      131.89741      1648508.2    
    261700   300.1483       2.5389214      254.21897      300.1483      -46720.151     -6568.3832      419.64812     -1177.4693     -18947.328     -521.81688     -322.4616       585.92517      111.85288      111.77213      131.92689      1649354.6    
    261800   300.42557      2.511694       254.50845      300.42557     -46736.831     -5718.9898      1191.4822     -348.58857     -17999.863     -368.23621     -385.7879       769.99547      111.79978      111.71908      131.95636      1648157.2    
    261900   298.8615       2.1753635      254.08088      298.8615      -46723.408     -6504.6368      485.67523     -1076.9154     -18922.67      -263.35001     -439.71851      704.73502      111.82422      111.74349      131.98584      1649246      
    262000   299.81961      2.1906338      254.26032      299.81961     -46736.82      -5893.3678      954.99412     -499.45827     -18135.639     -351.04328     -435.25609      828.5889       111.78294      111.70224      132.01531      1648396.6    
    262100   300.45282      2.074028       253.85045      300.45282     -46742.916     -6147.6288      760.39072     -822.60058     -18380.677     -297.73557     -344.05512      649.36334      111.78211      111.70141      132.04479      1648740.1    
    262200   299.87648      2.0582066      253.88641      299.87648     -46741.079     -6242.3513      729.51043     -964.70611     -18491.858     -267.38071     -338.20309      864.08128      111.77079      111.69011      132.07426      1648774.4    
    262300   299.14776      2.2367153      254.32134      299.14776     -46739.576     -5972.6506      788.47438     -418.32995     -18288.096     -262.33605     -483.77472      863.90635      111.74682      111.66616      132.10374      1648435.1    
    262400   298.97196      2.1717625      253.98252      298.97196     -46736.646     -6456.7515      475.49013     -1086.1645     -18759.58      -353.73386     -457.1407       849.09838      111.75877      111.6781       132.13321      1649155.5    
    262500   300.10054      2.2496166      254.79656      300.10054     -46731.083     -5851.2652      1290.0995     -502.81364     -18341.081     -190.98558     -502.65711      808.43762      111.71994      111.6393       132.16269      1648377.5    
    262600   300.73299      2.3013058      254.63189      300.73299     -46717.332     -6510.9286      573.30743     -1293.2324     -18812.861     -77.023059     -599.03802      664.36695      111.741        111.66034      132.19216      1649366.6    
    262700   301.66587      2.3910007      254.74891      301.66587     -46737.779     -5807.3601      1182.2232     -444.69642     -18159.607     -222.73619     -472.19444      636.54224      111.69292      111.61229      132.22164      1648314.9    
    262800   299.9329       2.5808315      254.88575      299.9329      -46724.892     -6232.0539      812.46109     -1150.2993     -18358.323     -159.82585     -419.26508      675.97231      111.70178      111.62114      132.25111      1648943.9    
    262900   300.17054      2.4370518      254.53468      300.17054     -46734.076     -6148.4174      812.65458     -758.04073     -18499.866     -134.26571     -548.00423      780.79975      111.68057      111.59995      132.28059      1648685.3    
    263000   299.46216      2.511055       254.68445      299.46216     -46733.649     -6059.5037      886.48047     -764.04117     -18300.95      -202.27065     -399.2296       825.33553      111.6635       111.58289      132.31006      1648548.5    
    263100   299.39356      2.1013985      254.20132      299.39356     -46740.195     -6172.6881      923.0227      -1076.6627     -18364.424     -60.400579     -496.39029      677.63664      111.65661      111.576        132.33954      1648712.1    
    263200   299.62703      2.5563469      254.08565      299.62703     -46740.374     -6057.2842      922.26949     -824.45449     -18269.667     -255.83035     -374.78147      767.16029      111.63768      111.55709      132.36901      1648520.4    
    263300   300.54342      2.3545036      253.92192      300.54342     -46737.259     -6269.4709      779.78231     -1053.0717     -18535.123     -307.51602     -549.46879      508.32182      111.63729      111.5567       132.39849      1648875.9    
    263400   301.55301      2.4029293      254.30447      301.55301     -46728.207     -6019.6364      1054.9762     -664.3952      -18449.49      -338.5464      -521.60385      649.96217      111.61442      111.53384      132.42796      1648567.3    
    263500   301.21568      2.2845745      254.28422      301.21568     -46728.096     -6329.9952      590.27092     -963.88748     -18616.369     -366.32359     -357.29077      653.52993      111.61788      111.5373       132.45744      1649036.4    
    263600   299.93685      2.3296852      254.74468      299.93685     -46725.926     -5964.8534      933.18776     -396.73867     -18431.009     -443.89226     -364.32583      640.51348      111.58752      111.50696      132.48691      1648506.1    
    263700   300.21914      2.4388695      254.22998      300.21914     -46735.943     -6261.6525      585.52669     -872.84508     -18497.639     -428.28897     -333.62287      720.36088      111.58897      111.50841      132.51639      1648915.7    
    263800   300.31192      2.3212185      254.61308      300.31192     -46741.652     -6037.6365      884.18829     -495.95324     -18501.145     -391.4634      -497.52517      640.53623      111.56308      111.48254      132.54586      1648517.3    
    263900   299.69914      2.168745       253.83884      299.69914     -46740.32      -6307.327       433.36919     -894.94789     -18460.402     -570.259       -520.67486      602.24882      111.5623       111.48177      132.57534      1648861.1    
    264000   298.82718      1.9587173      254.495        298.82718     -46734.212     -5867.5197      973.44913     -459.47836     -18116.53      -678.57635     -534.27343      717.68377      111.53154      111.45102      132.60481      1648318.1    
    264100   299.80185      2.2855625      253.19594      299.80185     -46763.375     -6333.758       544.66076     -917.31582     -18628.619     -504.57881     -539.03453      577.23173      111.53482      111.4543       132.63429      1648781.6    
    264200   299.50524      2.2629318      254.21114      299.50524     -46741.704     -5993.9379      659.70788     -374.22343     -18267.298     -531.33443     -493.26832      784.69333      111.51226      111.43175      132.66376      1648480.7    
    264300   299.52997      2.191946       254.48176      299.52997     -46711.063     -6117.6091      672.99848     -743.43979     -18282.386     -662.18998     -553.48452      681.49128      111.50952      111.42902      132.69324      1648766.1    
    264400   300.43386      2.4160519      254.74997      300.43386     -46717.154     -6025.8319      678.3022      -629.66697     -18126.131     -691.74775     -561.66354      690.04876      111.49364      111.41315      132.72271      1648662.8    
    264500   301.28176      2.6553154      254.48365      301.28176     -46743.345     -5995.2319      688.48831     -450.26673     -18223.917     -580.4319      -643.10852      614.36096      111.47491      111.39444      132.75219      1648474.9    
    264600   299.44133      2.1963329      254.58768      299.44133     -46723.582     -6142.1504      565.45036     -652.06185     -18339.84      -611.05225     -535.81938      610.75942      111.47073      111.39025      132.78166      1648717.1    
    264700   300.50948      2.124485       254.17493      300.50948     -46740.044     -5926.0184      910.97629     -392.62959     -18296.402     -612.99025     -625.25468      598.95024      111.44572      111.36526      132.81114      1648343.2    
    264800   299.5683       2.1041069      254.0919       299.5683      -46720.425     -6260.5191      537.72887     -1092.9366     -18226.349     -516.63701     -407.32166      703.49277      111.45095      111.37049      132.84061      1648863.7    
    264900   299.23228      2.1497498      254.75179      299.23228     -46714.05      -5841.0712      861.10139     -312.57346     -18071.742     -531.28339     -653.83066      620.21439      111.41953      111.33909      132.87009      1648299.7    
    265000   298.73474      2.2596054      254.17356      298.73474     -46724.538     -6232.9751      514.24791     -926.31393     -18286.859     -528.69919     -380.69224      474.29254      111.42462      111.34418      132.89956      1648816.2    
    265100   298.87234      2.4674015      254.6666       298.87234     -46731.458     -5723.87        950.48241     -390.037       -17732.055     -455.26472     -402.28593      602.56015      111.3891       111.30868      132.92904      1648130.5    
    265200   299.83647      2.2677231      253.95451      299.83647     -46730.958     -6206.7531      315.37027     -628.08909     -18307.54      -453.46224     -327.67282      628.88055      111.39719      111.31677      132.95851      1648735.6    
    265300   301.00638      2.5706406      254.47127      301.00638     -46715.878     -5959.2351      744.64511     -459.26159     -18163.089     -722.05336     -498.80447      565.72981      111.37718      111.29677      132.98799      1648508.6    
    265400   300.94361      2.140934       253.95701      300.94361     -46713.221     -6188.5396      454.49696     -858.51048     -18161.605     -509.74278     -301.21284      535.19274      111.37572      111.29531      133.01746      1648830.6    
    265500   300.91092      2.4667664      254.01099      300.91092     -46724.589     -6042.4725      743.03061     -591.51645     -18278.932     -766.49174     -224.63102      680.51253      111.35354      111.27316      133.04694      1648539.4    
    265600   299.78606      2.0966911      253.97361      299.78606     -46716.673     -5987.9512      447.40422     -535.33711     -17875.921     -649.35744     -364.86834      590.32941      111.3408       111.26042      133.07641      1648527.3    
    265700   300.60795      2.264595       253.97006      300.60795     -46735.359     -5886.6073      749.26295     -454.77718     -17954.308     -463.16083     -417.10659      661.20793      111.3205       111.24013      133.10589      1648291.1    
    265800   299.1191       2.1775837      254.7447       299.1191      -46716.889     -6014.5485      310.02694     -640.93737     -17712.735     -635.80755     -274.86111      340.84826      111.31756      111.2372       133.13536      1648569.2    
    265900   299.68862      2.4831123      254.45689      299.68862     -46737.342     -5689.6656      850.72179     -266.67207     -17653.047     -776.87803     -339.14457      421.13213      111.28707      111.20672      133.16484      1648030.8    
    266000   299.72796      2.2115345      253.71085      299.72796     -46746.276     -6079.7631      323.00241     -745.87683     -17816.415     -573.03231     -416.60569      521.37558      111.29203      111.21168      133.19431      1648542.5    
    266100   300.72424      2.292902       253.88387      300.72424     -46757.339     -5787.5882      830.84415     -372.06228     -17821.547     -492.41849     -218.98488      423.62418      111.26493      111.18461      133.22379      1648104.6    
    266111   300.33464      2.7792568      254.10977      300.33464     -46750.291     -5754.1345      816.16695     -426.40176     -17652.169     -463.13104     -225.48224      477.33629      111.26272      111.1824       133.22703      1648079.2    
Loop time of 3264.69 on 8 procs for 52000 steps with 132773 atoms

Performance: 6.881 ns/day, 3.488 hours/ns, 15.928 timesteps/s
90.9% CPU use with 8 MPI tasks x no OpenMP threads

MPI task timing breakdown:
Section |  min time  |  avg time  |  max time  |%varavg| %total
---------------------------------------------------------------
Pair    | 2465.2     | 2693.1     | 2920.7     | 289.5 | 82.49
Neigh   | 280.14     | 284.32     | 287.25     |  14.7 |  8.71
Comm    | 21.015     | 244.67     | 470.46     | 948.4 |  7.49
Output  | 0.74056    | 0.74296    | 0.74828    |   0.2 |  0.02
Modify  | 39.381     | 39.586     | 39.756     |   1.8 |  1.21
Other   |            | 2.26       |            |       |  0.07

Nlocal:        16596.6 ave       16641 max       16509 min
Histogram: 1 0 0 1 0 1 0 1 2 2
Nghost:        17545.8 ave       17587 max       17515 min
Histogram: 2 1 0 1 1 0 1 1 0 1
Neighs:              0 ave           0 max           0 min
Histogram: 8 0 0 0 0 0 0 0 0 0
FullNghs:  2.84247e+06 ave 2.85639e+06 max 2.81296e+06 min
Histogram: 1 0 0 0 2 0 0 1 0 4

Total # of neighbors = 22739792
Ave neighs/atom = 171.26819
Neighbor list builds = 5200
Dangerous builds not checked
unfix 			strainstress
unfix           10
unfix			11

write_restart	restart.npt.21
System init for write_restart ...
Generated 0 of 0 mixed pair_coeff terms from geometric mixing rule
Total wall time: 6:46:23
