ITEM: TIMESTEP
0
ITEM: NUMBER OF ATOMS
56
ITEM: BOX BOUNDS xy xz yz pp pp pp
-4.6646599999999999e-01 1.2185099858299999e+01 0.0000000000000000e+00
0.0000000000000000e+00 5.5264081124000004e+00 -4.6646599999999999e-01
0.0000000000000000e+00 1.9019960074800000e+01 0.0000000000000000e+00
ITEM: ATOMS id type xs ys zs fx fy fz
1 1 0.555183 8.90091e-07 0.132369 -0.000796202 0.000278969 -4.13235e-05
2 1 0.305183 0.166666 0.132369 -0.000770824 -0.000271108 -4.20806e-05
3 1 0.198025 9.12308e-06 0.275226 -0.00012771 7.83023e-05 -2.07559e-05
4 1 0.948024 0.166658 0.275226 -0.000113601 -7.44639e-05 -2.10121e-05
5 1 0.84084 9.05422e-06 0.418084 3.46483e-05 3.71886e-05 -5.53216e-05
6 1 0.0551821 8.90153e-07 0.132369 -0.000755183 0.00027636 -4.01926e-05
7 1 0.983748 0.500044 0.0609391 -0.00136275 0.000188316 2.45462e-05
8 1 0.805182 0.166666 0.132369 -0.000728579 -0.000274216 -4.08708e-05
9 1 0.733748 0.666623 0.0609392 -0.00132937 -0.00019337 2.27189e-05
10 1 0.698024 9.12314e-06 0.275227 -8.10562e-05 7.82858e-05 -2.3686e-05
11 1 0.590842 0.166658 0.418084 -2.60491e-05 -3.74101e-05 -5.38096e-05
12 1 0.483661 9.61873e-06 0.560938 -0.000122589 8.43553e-05 0.000103021
13 1 0.23366 0.166657 0.560938 -0.000101682 -7.68239e-05 9.84112e-05
14 1 0.126467 9.05696e-06 0.703794 0.000129037 9.00386e-05 0.000182633
15 1 0.876467 0.166658 0.703794 0.000142374 -7.99314e-05 0.000183177
16 1 0.769294 8.34659e-06 0.846658 0.000301362 0.000101815 -0.00018372
17 1 0.626612 0.500009 0.203795 -0.000305134 9.64828e-05 0.000182719
18 1 0.448026 0.166658 0.275226 -0.000141089 -6.77579e-05 -2.0458e-05
19 1 0.376611 0.666659 0.203795 -0.000272168 -0.000102815 0.000179799
20 1 0.340841 9.05416e-06 0.418084 8.08821e-06 4.35834e-05 -5.49406e-05
21 1 0.269438 0.500009 0.346658 -0.000129944 8.42598e-05 -0.000185358
22 1 0.0908402 0.166658 0.418084 2.07485e-05 -3.76357e-05 -5.65667e-05
23 1 0.019437 0.666658 0.346658 -0.000114654 -8.9473e-05 -0.000182451
24 1 0.983659 9.61879e-06 0.560938 -8.52471e-05 8.197e-05 9.46995e-05
25 1 0.912245 0.50001 0.489515 0.000101809 7.88746e-05 -9.79258e-05
26 1 0.733659 0.166657 0.560938 -5.56705e-05 -7.73109e-05 9.03289e-05
27 1 0.662244 0.666658 0.489515 0.000133149 -8.22968e-05 -9.93957e-05
28 1 0.48375 0.500044 0.0609391 -0.00138821 0.000182685 2.43961e-05
29 1 0.233749 0.666623 0.0609391 -0.00137504 -0.000193312 2.47035e-05
30 1 0.12661 0.500009 0.203795 -0.000258467 9.64778e-05 0.000180062
31 1 0.87661 0.666659 0.203795 -0.000245498 -9.63104e-05 0.000179529
32 1 0.769437 0.500009 0.346658 -9.02657e-05 8.7367e-05 -0.000183608
33 1 0.519296 0.166659 0.846658 0.000236906 -9.78712e-05 -0.000173384
34 1 0.412157 4.36878e-05 0.989514 0.00136072 0.000194338 -2.47232e-05
35 1 0.162156 0.166623 0.989514 0.0013758 -0.000187015 -2.53904e-05
36 1 0.626469 9.05689e-06 0.703794 8.1421e-05 8.96811e-05 0.000185203
37 1 0.555066 0.500009 0.632368 -5.17109e-05 3.8173e-05 6.25507e-05
38 1 0.376468 0.166658 0.703794 0.000115918 -8.60303e-05 0.000184908
39 1 0.305065 0.666658 0.632368 -2.3422e-05 -4.2638e-05 5.80474e-05
40 1 0.269295 8.34652e-06 0.846658 0.000257103 0.00010127 -0.000178504
41 1 0.197881 0.500009 0.775226 0.000114963 7.345e-05 2.17847e-05
42 1 0.0192942 0.166659 0.846658 0.000273967 -9.52663e-05 -0.000180042
43 1 0.94788 0.666658 0.775226 0.000127799 -7.96853e-05 2.03189e-05
44 1 0.912156 4.36878e-05 0.989514 0.00138824 0.00018795 -2.46725e-05
45 1 0.840722 0.500001 0.918084 0.000791183 0.000273854 3.41148e-05
46 1 0.519438 0.666658 0.346658 -0.000154725 -9.24759e-05 -0.00018398
47 1 0.412246 0.50001 0.489515 7.49259e-05 7.23347e-05 -9.76676e-05
48 1 0.162246 0.666658 0.489515 8.66172e-05 -8.31067e-05 -9.606e-05
49 1 0.0550641 0.500009 0.632369 -5.80819e-06 3.78042e-05 5.37818e-05
50 1 0.805064 0.666658 0.632369 1.337e-05 -4.4689e-05 4.94021e-05
51 1 0.697879 0.500009 0.775226 0.000160774 7.31133e-05 1.98038e-05
52 1 0.662158 0.166623 0.989514 0.00132912 -0.000186592 -2.37664e-05
53 1 0.590724 0.666666 0.918084 0.000726196 -0.000278236 4.59551e-05
54 1 0.447881 0.666658 0.775226 0.000101916 -7.32287e-05 2.05562e-05
55 1 0.340723 0.500001 0.918084 0.000753803 0.000271728 4.50928e-05
56 1 0.0907223 0.666666 0.918084 0.000770812 -0.000278091 3.91652e-05
ITEM: TIMESTEP
11
ITEM: NUMBER OF ATOMS
56
ITEM: BOX BOUNDS xy xz yz pp pp pp
-4.6109375629721566e-01 1.2180109679385309e+01 0.0000000000000000e+00
2.2632367036119808e-03 5.5241448756963898e+00 -4.6608393521190772e-01
7.7892676159646880e-03 1.9012170807184027e+01 0.0000000000000000e+00
ITEM: ATOMS id type xs ys zs fx fy fz
1 1 0.555141 3.40896e-05 0.132367 -0.000122721 0.00017043 0.000110263
2 1 0.305142 0.166634 0.132367 -0.000170428 -0.000193901 0.00010724
3 1 0.198018 1.85524e-05 0.275226 -0.000293092 3.14411e-05 -3.0396e-05
4 1 0.948018 0.166649 0.275226 -0.000271267 -4.2524e-05 -2.9382e-05
5 1 0.840841 1.35297e-05 0.418082 -5.2241e-05 9.82535e-05 3.00968e-05
6 1 0.0551416 3.37433e-05 0.132367 -0.000147591 0.000180758 0.000105693
7 1 0.983676 0.500066 0.06094 0.00018894 -0.000283249 9.42629e-05
8 1 0.805143 0.166633 0.132367 -0.000195803 -0.000182849 0.000100547
9 1 0.733677 0.6666 0.0609399 0.00013124 0.000289397 9.73558e-05
10 1 0.698019 1.8437e-05 0.275226 -0.000331784 3.5014e-05 -2.51954e-05
11 1 0.59084 0.166653 0.418082 -2.51399e-06 -9.28047e-05 2.88586e-05
12 1 0.483654 1.97109e-05 0.560942 8.87609e-05 -3.40079e-05 -2.88003e-05
13 1 0.233655 0.166648 0.560941 5.15992e-05 1.4883e-05 -1.48592e-05
14 1 0.126475 1.98651e-05 0.703801 6.97284e-05 -4.33106e-05 -0.000158669
15 1 0.876475 0.166648 0.703801 6.29431e-05 1.45585e-05 -0.000166966
16 1 0.76931 2.057e-05 0.846652 0.000472941 0.000116356 0.000244715
17 1 0.626596 0.50002 0.203801 -0.00047532 0.000129393 -0.000235263
18 1 0.448018 0.16665 0.275226 -0.000281091 -6.25227e-05 -3.05158e-05
19 1 0.376597 0.666647 0.203801 -0.000536164 -0.000111536 -0.000233297
20 1 0.340842 1.43162e-05 0.418082 -6.25419e-05 7.67043e-05 3.47692e-05
21 1 0.269431 0.500019 0.346652 -8.21212e-05 -2.86593e-05 0.000165297
22 1 0.0908413 0.166653 0.418082 -4.22392e-05 -9.06652e-05 3.24985e-05
23 1 0.0194306 0.666647 0.346652 -5.9216e-05 4.1159e-05 0.00015692
24 1 0.983655 1.93697e-05 0.560941 6.83361e-05 -2.25243e-05 -1.41683e-05
25 1 0.91225 0.500019 0.489511 -3.55546e-05 -1.96928e-05 1.54739e-05
26 1 0.733656 0.166648 0.560941 1.38958e-05 1.50893e-05 2.67173e-08
27 1 0.662251 0.666648 0.489511 -0.000100233 2.3805e-05 2.24461e-05
28 1 0.483676 0.500066 0.06094 0.000180571 -0.000263381 9.53769e-05
29 1 0.233676 0.6666 0.06094 0.000172675 0.0002918 9.33802e-05
30 1 0.126597 0.50002 0.203801 -0.000518663 0.000128014 -0.000231976
31 1 0.876597 0.666647 0.203801 -0.000524927 -0.000131416 -0.000231358
32 1 0.769431 0.50002 0.346652 -0.000110028 -4.0097e-05 0.000157298
33 1 0.519308 0.166647 0.846652 0.000547357 -0.000120488 0.00021762
34 1 0.41223 6.67293e-05 0.989513 -0.000196309 -0.000292764 -8.80501e-05
35 1 0.16223 0.166601 0.989513 -0.000172759 0.000279251 -9.60657e-05
36 1 0.626474 1.97866e-05 0.703801 0.000111534 -4.14457e-05 -0.000166413
37 1 0.555063 0.500014 0.632371 9.00962e-05 9.31437e-05 -5.29946e-05
38 1 0.376475 0.166648 0.703801 4.81082e-05 3.38839e-05 -0.000155764
39 1 0.305064 0.666653 0.63237 2.9484e-05 -8.36747e-05 -3.8555e-05
40 1 0.269309 2.05325e-05 0.846652 0.000507298 0.000117167 0.00023405
41 1 0.197887 0.500018 0.775227 0.000289711 4.51342e-05 3.29366e-05
42 1 0.0193086 0.166647 0.846652 0.000529881 -0.000131478 0.000231748
43 1 0.947886 0.666649 0.775227 0.000316179 -2.85212e-05 2.8147e-05
44 1 0.91223 6.60683e-05 0.989513 -0.000181122 -0.000273897 -9.76788e-05
45 1 0.840764 0.500034 0.918085 0.000127544 0.000184593 -9.61052e-05
46 1 0.51943 0.666647 0.346652 -3.32593e-05 4.98494e-05 0.000168097
47 1 0.41225 0.500018 0.489511 -4.68599e-05 3.10701e-06 2.00654e-05
48 1 0.16225 0.666648 0.489511 -5.26704e-05 2.47054e-05 1.71612e-05
49 1 0.0550638 0.500014 0.63237 4.94835e-05 9.26061e-05 -3.81519e-05
50 1 0.805064 0.666653 0.63237 1.13246e-05 -7.33056e-05 -2.54167e-05
51 1 0.697888 0.500018 0.775227 0.000251272 4.57901e-05 3.89544e-05
52 1 0.662229 0.166601 0.989513 -0.000131532 0.000278449 -9.66146e-05
53 1 0.590763 0.666633 0.918086 0.000205956 -0.000180443 -0.000122508
54 1 0.447886 0.666649 0.775227 0.000303165 -4.79688e-05 3.87903e-05
55 1 0.340764 0.500033 0.918086 0.000144123 0.000191832 -0.000105599
56 1 0.0907636 0.666633 0.918086 0.000166268 -0.00017947 -0.000109113
ITEM: TIMESTEP
37
ITEM: NUMBER OF ATOMS
56
ITEM: BOX BOUNDS xy xz yz pp pp pp
-4.4619325120556830e-01 1.2164890780009740e+01 0.0000000000000000e+00
-2.7252047277429550e-03 5.5291333171277435e+00 -4.6640232949584864e-01
1.2980693629365426e-03 1.9018662005437069e+01 0.0000000000000000e+00
ITEM: ATOMS id type xs ys zs fx fy fz
1 1 0.555141 3.29173e-05 0.132367 -0.000122572 -0.00168307 0.000107284
2 1 0.305142 0.166635 0.132367 -0.000170087 0.00166176 0.000103936
3 1 0.198018 1.7229e-05 0.275226 -0.000290642 -0.0018186 -3.03006e-05
4 1 0.948018 0.16665 0.275226 -0.000269419 0.00180782 -2.87573e-05
5 1 0.840841 1.22783e-05 0.418082 -5.25692e-05 -0.00175487 3.02774e-05
6 1 0.0551415 3.25819e-05 0.132367 -0.000147688 -0.00167397 0.000103435
7 1 0.983676 0.500065 0.06094 0.000185962 -0.00212748 8.93888e-05
8 1 0.805142 0.166635 0.132367 -0.000196901 0.00167165 9.70764e-05
9 1 0.733677 0.666602 0.06094 0.000128284 0.0021329 9.43155e-05
10 1 0.698019 1.7118e-05 0.275226 -0.000330585 -0.00181366 -2.53735e-05
11 1 0.59084 0.166655 0.418083 -2.21197e-06 0.00175981 2.89917e-05
12 1 0.483654 1.83162e-05 0.560942 8.72675e-05 -0.00188283 -2.82322e-05
13 1 0.233655 0.166649 0.560941 5.15201e-05 0.00186408 -1.53385e-05
14 1 0.126475 1.84602e-05 0.703801 7.12989e-05 -0.00189157 -0.000154558
15 1 0.876475 0.16665 0.703801 6.30842e-05 0.00186304 -0.000164171
16 1 0.76931 1.9339e-05 0.846652 0.000466472 -0.00173514 0.000236211
17 1 0.626595 0.500019 0.203801 -0.000469017 -0.00172274 -0.000230347
18 1 0.448018 0.166651 0.275226 -0.000278431 0.00178811 -3.1617e-05
19 1 0.376597 0.666648 0.203801 -0.000529346 0.00173904 -0.000228352
20 1 0.340842 1.30405e-05 0.418082 -6.28978e-05 -0.00177638 3.40167e-05
21 1 0.269431 0.500018 0.346652 -8.36262e-05 -0.00187655 0.000161588
22 1 0.0908413 0.166655 0.418082 -4.36655e-05 0.00176238 3.30247e-05
23 1 0.0194305 0.666649 0.346652 -6.04904e-05 0.0018893 0.000153166
24 1 0.983655 1.79874e-05 0.560941 6.84584e-05 -0.00187149 -1.46081e-05
25 1 0.91225 0.500018 0.489511 -3.61721e-05 -0.00187007 1.49221e-05
26 1 0.733656 0.166649 0.560941 1.40325e-05 0.00186462 -3.87954e-07
27 1 0.662251 0.666649 0.489511 -9.88439e-05 0.00187336 2.25139e-05
28 1 0.483676 0.500064 0.06094 0.000177454 -0.00210831 9.0876e-05
29 1 0.233676 0.666602 0.06094 0.000169059 0.00213537 9.0335e-05
30 1 0.126596 0.500019 0.203801 -0.000512128 -0.00172298 -0.000226575
31 1 0.876596 0.666648 0.203801 -0.000517924 0.00171899 -0.000226296
32 1 0.769431 0.500018 0.346652 -0.000110032 -0.0018883 0.000154091
33 1 0.519308 0.166648 0.846652 0.000538871 0.00172945 0.000215695
34 1 0.41223 6.5052e-05 0.989513 -0.000191788 -0.00213613 -8.48843e-05
35 1 0.162229 0.166602 0.989513 -0.000169052 0.00212395 -9.20607e-05
36 1 0.626474 1.83838e-05 0.703801 0.000113001 -0.00188942 -0.000162901
37 1 0.555063 0.500013 0.632371 8.9449e-05 -0.00176013 -5.47931e-05
38 1 0.376475 0.166649 0.703801 4.96485e-05 0.00188225 -0.000152944
39 1 0.305064 0.666654 0.63237 3.02049e-05 0.00176919 -3.71762e-05
40 1 0.269309 1.93028e-05 0.846652 0.000501638 -0.00173402 0.00022733
41 1 0.197887 0.500017 0.775227 0.000287866 -0.00180411 3.20073e-05
42 1 0.0193089 0.166648 0.846652 0.000523854 0.0017192 0.000224382
43 1 0.947887 0.66665 0.775227 0.000314568 0.00182086 2.88335e-05
44 1 0.91223 6.44115e-05 0.989513 -0.000177396 -0.00211744 -9.35614e-05
45 1 0.840764 0.500032 0.918085 0.000129388 -0.00166954 -8.97713e-05
46 1 0.51943 0.666648 0.346652 -3.59508e-05 0.00189827 0.00016348
47 1 0.41225 0.500017 0.489511 -4.64726e-05 -0.00184761 2.34309e-05
48 1 0.16225 0.666649 0.489511 -5.25508e-05 0.00187519 1.66126e-05
49 1 0.0550639 0.500013 0.63237 5.0507e-05 -0.00176078 -3.71085e-05
50 1 0.805064 0.666654 0.63237 1.16899e-05 0.00177932 -2.41477e-05
51 1 0.697888 0.500017 0.775227 0.00024903 -0.0018027 3.69696e-05
52 1 0.662229 0.166603 0.989513 -0.000129453 0.00212298 -8.93878e-05
53 1 0.590763 0.666634 0.918086 0.000202658 0.00167396 -0.000121192
54 1 0.447887 0.666651 0.775227 0.000301365 0.00180223 4.05341e-05
55 1 0.340764 0.500032 0.918086 0.000145288 -0.00166377 -0.000103209
56 1 0.0907637 0.666634 0.918086 0.000165967 0.00167474 -0.000106588
ITEM: TIMESTEP
71
ITEM: NUMBER OF ATOMS
56
ITEM: BOX BOUNDS xy xz yz pp pp pp
-4.0754606576829544e-01 1.2163911692441133e+01 1.5526132515564727e-08
-3.0061665652343075e-03 5.5294143007778995e+00 -4.2873424715332287e-01
7.7232233150646462e-04 1.9019187752468508e+01 2.1812666742635317e-08
ITEM: ATOMS id type xs ys zs fx fy fz
1 1 0.555141 3.09294e-05 0.132367 -0.000125429 -0.000962493 0.000106467
2 1 0.305142 0.166637 0.132367 -0.000171111 0.000941768 0.000103721
3 1 0.198018 1.50434e-05 0.275226 -0.000289415 -0.00109182 -2.49845e-05
4 1 0.948018 0.166653 0.275226 -0.000269514 0.00108183 -2.36436e-05
5 1 0.840841 1.01858e-05 0.418082 -5.38281e-05 -0.0010309 2.90865e-05
6 1 0.0551414 3.06084e-05 0.132367 -0.000150364 -0.000953819 0.000102503
7 1 0.983676 0.500062 0.06094 0.00017996 -0.00139579 8.55436e-05
8 1 0.805142 0.166637 0.132367 -0.000196727 0.000951074 9.74658e-05
9 1 0.733677 0.666605 0.06094 0.000125804 0.00140173 8.94822e-05
10 1 0.698019 1.49384e-05 0.275226 -0.000325794 -0.00108785 -1.9711e-05
11 1 0.59084 0.166657 0.418083 -5.95206e-06 0.00103561 2.7975e-05
12 1 0.483654 1.60347e-05 0.560942 8.59378e-05 -0.00115523 -3.05445e-05
13 1 0.233655 0.166652 0.560941 5.09806e-05 0.00113742 -1.70269e-05
14 1 0.126475 1.61665e-05 0.703801 7.45141e-05 -0.00116293 -0.000152243
15 1 0.876475 0.166652 0.703801 6.69704e-05 0.0011363 -0.000162384
16 1 0.76931 1.72772e-05 0.846652 0.00046173 -0.00101029 0.000227161
17 1 0.626595 0.500017 0.203801 -0.000464238 -0.000998178 -0.000216994
18 1 0.448018 0.166653 0.275226 -0.000278157 0.00106323 -2.4502e-05
19 1 0.376596 0.66665 0.203801 -0.000523546 0.00101357 -0.00021493
20 1 0.340841 1.09165e-05 0.418082 -6.36285e-05 -0.00105153 3.43514e-05
21 1 0.269431 0.500016 0.346652 -8.61478e-05 -0.00114919 0.000158359
22 1 0.0908413 0.166657 0.418082 -4.33475e-05 0.00103842 3.24212e-05
23 1 0.0194305 0.666651 0.346652 -6.34886e-05 0.00116082 0.000150454
24 1 0.983655 1.5722e-05 0.560941 6.67768e-05 -0.00114565 -1.39243e-05
25 1 0.91225 0.500016 0.489511 -3.61768e-05 -0.00114259 1.49636e-05
26 1 0.733656 0.166652 0.560941 1.43289e-05 0.00113828 -2.51341e-07
27 1 0.662251 0.666651 0.489511 -9.67389e-05 0.00114616 2.29081e-05
28 1 0.483676 0.500061 0.0609401 0.000171104 -0.00137748 8.61011e-05
29 1 0.233676 0.666605 0.06094 0.000164177 0.0014037 8.60491e-05
30 1 0.126596 0.500017 0.203801 -0.000506222 -0.00099838 -0.00021327
31 1 0.876596 0.66665 0.203801 -0.000511604 0.000994807 -0.000212619
32 1 0.769431 0.500016 0.346652 -0.00011211 -0.0011607 0.000150834
33 1 0.519309 0.16665 0.846652 0.000533379 0.0010053 0.000200231
34 1 0.41223 6.23935e-05 0.989513 -0.000185593 -0.00140493 -7.90429e-05
35 1 0.162229 0.166605 0.989513 -0.000164563 0.0013923 -8.63221e-05
36 1 0.626474 1.60929e-05 0.703801 0.000115158 -0.00116109 -0.000157917
37 1 0.555063 0.50001 0.632371 8.82911e-05 -0.00103681 -5.23095e-05
38 1 0.376475 0.166651 0.703801 5.41687e-05 0.00115395 -0.00014933
39 1 0.305064 0.666656 0.63237 3.21071e-05 0.00104496 -3.76971e-05
40 1 0.269309 1.72431e-05 0.846652 0.000495798 -0.0010086 0.000212944
41 1 0.197887 0.500015 0.775227 0.000286661 -0.00107913 2.67663e-05
42 1 0.0193092 0.16665 0.846652 0.000517498 0.000994887 0.000214673
43 1 0.947887 0.666652 0.775227 0.000312544 0.00109402 2.27952e-05
44 1 0.91223 6.17797e-05 0.989513 -0.000172397 -0.00138695 -8.9075e-05
45 1 0.840764 0.50003 0.918085 0.000129684 -0.00094977 -9.12639e-05
46 1 0.51943 0.666651 0.346652 -4.0287e-05 0.00116965 0.00016075
47 1 0.41225 0.500015 0.489511 -4.61134e-05 -0.00112142 2.25533e-05
48 1 0.16225 0.666651 0.489511 -5.11754e-05 0.001148 1.73233e-05
49 1 0.0550639 0.500011 0.63237 5.00688e-05 -0.00103621 -3.62727e-05
50 1 0.805064 0.666656 0.63237 1.5281e-05 0.00105476 -2.45237e-05
51 1 0.697888 0.500015 0.775227 0.000248129 -0.00107748 3.07552e-05
52 1 0.662228 0.166605 0.989513 -0.000125386 0.00139197 -8.88514e-05
53 1 0.590763 0.666636 0.918086 0.000205103 0.000953664 -0.000117205
54 1 0.447887 0.666653 0.775227 0.000299148 0.00107664 3.35356e-05
55 1 0.340764 0.50003 0.918085 0.000146595 -0.00094292 -0.000103786
56 1 0.0907638 0.666636 0.918085 0.000167238 0.000954945 -0.000107589
