Generated by pymatgen.io.lammps.data.LammpsData

900  atoms

  4  atom types

0.000000 26.502210  xlo xhi
0.000000 26.502210  ylo yhi
0.000000 25.478800  zlo zhi

Masses

1   6.941000
2  72.640000
3  30.973762
4  32.065000

Atoms

1    1  1.926101  7.203380  9.604692
2    1  1.926101  7.203380 22.344092
3    1  1.926101 16.037388  9.604692
4    1  1.926101 16.037388 22.344092
5    1  1.926101 24.871503  9.604692
6    1  1.926101 24.871503 22.344092
7    1 10.760189  7.203380  9.604692
8    1 10.760189  7.203380 22.344092
9    1 10.760189 16.037388  9.604692
10   1 10.760189 16.037388 22.344092
11   1 10.760189 24.871503  9.604692
12   1 10.760189 24.871503 22.344092
13   1 19.594303  7.203380  9.604692
14   1 19.594303  7.203380 22.344092
15   1 19.594303 16.037388  9.604692
16   1 19.594303 16.037388 22.344092
17   1 19.594303 24.871503  9.604692
18   1 19.594303 24.871503 22.344092
19   1  1.964370  2.293793 11.714311
20   1  1.964370  2.293793 24.453711
21   1  1.964370 11.127907 11.714311
22   1  1.964370 11.127907 24.453711
23   1  1.964370 19.961889 11.714311
24   1  1.964370 19.961889 24.453711
25   1 10.798405  2.293793 11.714311
26   1 10.798405  2.293793 24.453711
27   1 10.798405 11.127907 11.714311
28   1 10.798405 11.127907 24.453711
29   1 10.798405 19.961889 11.714311
30   1 10.798405 19.961889 24.453711
31   1 19.632493  2.293793 11.714311
32   1 19.632493  2.293793 24.453711
33   1 19.632493 11.127907 11.714311
34   1 19.632493 11.127907 24.453711
35   1 19.632493 19.961889 11.714311
36   1 19.632493 19.961889 24.453711
37   1  2.018594  6.691517  3.205895
38   1  2.018594  6.691517 15.945295
39   1  2.018594 15.525604  3.205895
40   1  2.018594 15.525604 15.945295
41   1  2.018594 24.359692  3.205895
42   1  2.018594 24.359692 15.945295
43   1 10.852708  6.691517  3.205895
44   1 10.852708  6.691517 15.945295
45   1 10.852708 15.525604  3.205895
46   1 10.852708 15.525604 15.945295
47   1 10.852708 24.359692  3.205895
48   1 10.852708 24.359692 15.945295
49   1 19.686690  6.691517  3.205895
50   1 19.686690  6.691517 15.945295
51   1 19.686690 15.525604  3.205895
52   1 19.686690 15.525604 15.945295
53   1 19.686690 24.359692  3.205895
54   1 19.686690 24.359692 15.945295
55   1  2.028002  1.985811  4.687360
56   1  2.028002  1.985811 17.426811
57   1  2.028002 10.819898  4.687360
58   1  2.028002 10.819898 17.426811
59   1  2.028002 19.653906  4.687360
60   1  2.028002 19.653906 17.426811
61   1 10.862090  1.985811  4.687360
62   1 10.862090  1.985811 17.426811
63   1 10.862090 10.819898  4.687360
64   1 10.862090 10.819898 17.426811
65   1 10.862090 19.653906  4.687360
66   1 10.862090 19.653906 17.426811
67   1 19.696098  1.985811  4.687360
68   1 19.696098  1.985811 17.426811
69   1 19.696098 10.819898  4.687360
70   1 19.696098 10.819898 17.426811
71   1 19.696098 19.653906  4.687360
72   1 19.696098 19.653906 17.426811
73   1  2.124894  1.861436  8.282929
74   1  2.124894  1.861436 21.022303
75   1  2.124894 10.695497  8.282929
76   1  2.124894 10.695497 21.022303
77   1  2.124894 19.529611  8.282929
78   1  2.124894 19.529611 21.022303
79   1 10.959008  1.861436  8.282929
80   1 10.959008  1.861436 21.022303
81   1 10.959008 10.695497  8.282929
82   1 10.959008 10.695497 21.022303
83   1 10.959008 19.529611  8.282929
84   1 10.959008 19.529611 21.022303
85   1 19.792990  1.861436  8.282929
86   1 19.792990  1.861436 21.022303
87   1 19.792990 10.695497  8.282929
88   1 19.792990 10.695497 21.022303
89   1 19.792990 19.529611  8.282929
90   1 19.792990 19.529611 21.022303
91   1  2.151343  6.372695  6.185310
92   1  2.151343  6.372695 18.924710
93   1  2.151343 15.206809  6.185310
94   1  2.151343 15.206809 18.924710
95   1  2.151343 24.040791  6.185310
96   1  2.151343 24.040791 18.924710
97   1 10.985405  6.372695  6.185310
98   1 10.985405  6.372695 18.924710
99   1 10.985405 15.206809  6.185310
100  1 10.985405 15.206809 18.924710
101  1 10.985405 24.040791  6.185310
102  1 10.985405 24.040791 18.924710
103  1 19.819492  6.372695  6.185310
104  1 19.819492  6.372695 18.924710
105  1 19.819492 15.206809  6.185310
106  1 19.819492 15.206809 18.924710
107  1 19.819492 24.040791  6.185310
108  1 19.819492 24.040791 18.924710
109  1  2.169020  6.700183  0.084793
110  1  2.169020  6.700183 12.824193
111  1  2.169020 15.534191  0.084793
112  1  2.169020 15.534191 12.824193
113  1  2.169020 24.368305  0.084793
114  1  2.169020 24.368305 12.824193
115  1 11.003108  6.700183  0.084793
116  1 11.003108  6.700183 12.824193
117  1 11.003108 15.534191  0.084793
118  1 11.003108 15.534191 12.824193
119  1 11.003108 24.368305  0.084793
120  1 11.003108 24.368305 12.824193
121  1 19.837196  6.700183  0.084793
122  1 19.837196  6.700183 12.824193
123  1 19.837196 15.534191  0.084793
124  1 19.837196 15.534191 12.824193
125  1 19.837196 24.368305  0.084793
126  1 19.837196 24.368305 12.824193
127  1  2.289817  2.574080  1.990506
128  1  2.289817  2.574080 14.729906
129  1  2.289817 11.408194  1.990506
130  1  2.289817 11.408194 14.729906
131  1  2.289817 20.242202  1.990506
132  1  2.289817 20.242202 14.729906
133  1 11.123905  2.574080  1.990506
134  1 11.123905  2.574080 14.729906
135  1 11.123905 11.408194  1.990506
136  1 11.123905 11.408194 14.729906
137  1 11.123905 20.242202  1.990506
138  1 11.123905 20.242202 14.729906
139  1 19.957887  2.574080  1.990506
140  1 19.957887  2.574080 14.729906
141  1 19.957887 11.408194  1.990506
142  1 19.957887 11.408194 14.729906
143  1 19.957887 20.242202  1.990506
144  1 19.957887 20.242202 14.729906
145  1  4.088681  4.556578  9.555748
146  1  4.088681  4.556578 22.295097
147  1  4.088681 13.390613  9.555748
148  1  4.088681 13.390613 22.295097
149  1  4.088681 22.224700  9.555748
150  1  4.088681 22.224700 22.295097
151  1 12.922690  4.556578  9.555748
152  1 12.922690  4.556578 22.295097
153  1 12.922690 13.390613  9.555748
154  1 12.922690 13.390613 22.295097
155  1 12.922690 22.224700  9.555748
156  1 12.922690 22.224700 22.295097
157  1 21.756804  4.556578  9.555748
158  1 21.756804  4.556578 22.295097
159  1 21.756804 13.390613  9.555748
160  1 21.756804 13.390613 22.295097
161  1 21.756804 22.224700  9.555748
162  1 21.756804 22.224700 22.295097
163  1  4.380948  8.798972  0.639900
164  1  4.380948  8.798972 13.379300
165  1  4.380948 17.633007  0.639900
166  1  4.380948 17.633007 13.379300
167  1  4.380948 26.467095  0.639900
168  1  4.380948 26.467095 13.379300
169  1 13.215009  8.798972  0.639900
170  1 13.215009  8.798972 13.379300
171  1 13.215009 17.633007  0.639900
172  1 13.215009 17.633007 13.379300
173  1 13.215009 26.467095  0.639900
174  1 13.215009 26.467095 13.379300
175  1 22.049097  8.798972  0.639900
176  1 22.049097  8.798972 13.379300
177  1 22.049097 17.633007  0.639900
178  1 22.049097 17.633007 13.379300
179  1 22.049097 26.467095  0.639900
180  1 22.049097 26.467095 13.379300
181  1  4.525385  8.509277  6.997447
182  1  4.525385  8.509277 19.736796
183  1  4.525385 17.343311  6.997447
184  1  4.525385 17.343311 19.736796
185  1  4.525385 26.177399  6.997447
186  1  4.525385 26.177399 19.736796
187  1 13.359499  8.509277  6.997447
188  1 13.359499  8.509277 19.736796
189  1 13.359499 17.343311  6.997447
190  1 13.359499 17.343311 19.736796
191  1 13.359499 26.177399  6.997447
192  1 13.359499 26.177399 19.736796
193  1 22.193507  8.509277  6.997447
194  1 22.193507  8.509277 19.736796
195  1 22.193507 17.343311  6.997447
196  1 22.193507 17.343311 19.736796
197  1 22.193507 26.177399  6.997447
198  1 22.193507 26.177399 19.736796
199  1  6.461027  2.280833 10.908595
200  1  6.461027  2.280833 23.647995
201  1  6.461027 11.114894 10.908595
202  1  6.461027 11.114894 23.647995
203  1  6.461027 19.949009 10.908595
204  1  6.461027 19.949009 23.647995
205  1 15.295088  2.280833 10.908595
206  1 15.295088  2.280833 23.647995
207  1 15.295088 11.114894 10.908595
208  1 15.295088 11.114894 23.647995
209  1 15.295088 19.949009 10.908595
210  1 15.295088 19.949009 23.647995
211  1 24.129202  2.280833 10.908595
212  1 24.129202  2.280833 23.647995
213  1 24.129202 11.114894 10.908595
214  1 24.129202 11.114894 23.647995
215  1 24.129202 19.949009 10.908595
216  1 24.129202 19.949009 23.647995
217  1  6.536982  2.354138  1.665549
218  1  6.536982  2.354138 14.405000
219  1  6.536982 11.188199  1.665549
220  1  6.536982 11.188199 14.405000
221  1  6.536982 20.022287  1.665549
222  1  6.536982 20.022287 14.405000
223  1 15.371096  2.354138  1.665549
224  1 15.371096  2.354138 14.405000
225  1 15.371096 11.188199  1.665549
226  1 15.371096 11.188199 14.405000
227  1 15.371096 20.022287  1.665549
228  1 15.371096 20.022287 14.405000
229  1 24.205104  2.354138  1.665549
230  1 24.205104  2.354138 14.405000
231  1 24.205104 11.188199  1.665549
232  1 24.205104 11.188199 14.405000
233  1 24.205104 20.022287  1.665549
234  1 24.205104 20.022287 14.405000
235  1  6.582009  6.609015  3.621633
236  1  6.582009  6.609015 16.361008
237  1  6.582009 15.443103  3.621633
238  1  6.582009 15.443103 16.361008
239  1  6.582009 24.277111  3.621633
240  1  6.582009 24.277111 16.361008
241  1 15.416097  6.609015  3.621633
242  1 15.416097  6.609015 16.361008
243  1 15.416097 15.443103  3.621633
244  1 15.416097 15.443103 16.361008
245  1 15.416097 24.277111  3.621633
246  1 15.416097 24.277111 16.361008
247  1 24.250211  6.609015  3.621633
248  1 24.250211  6.609015 16.361008
249  1 24.250211 15.443103  3.621633
250  1 24.250211 15.443103 16.361008
251  1 24.250211 24.277111  3.621633
252  1 24.250211 24.277111 16.361008
253  1  6.605623  6.695412  0.114171
254  1  6.605623  6.695412 12.853596
255  1  6.605623 15.529500  0.114171
256  1  6.605623 15.529500 12.853596
257  1  6.605623 24.363588  0.114171
258  1  6.605623 24.363588 12.853596
259  1 15.439711  6.695412  0.114171
260  1 15.439711  6.695412 12.853596
261  1 15.439711 15.529500  0.114171
262  1 15.439711 15.529500 12.853596
263  1 15.439711 24.363588  0.114171
264  1 15.439711 24.363588 12.853596
265  1 24.273798  6.695412  0.114171
266  1 24.273798  6.695412 12.853596
267  1 24.273798 15.529500  0.114171
268  1 24.273798 15.529500 12.853596
269  1 24.273798 24.363588  0.114171
270  1 24.273798 24.363588 12.853596
271  1  6.668115  1.917938  4.497085
272  1  6.668115  1.917938 17.236510
273  1  6.668115 10.752000  4.497085
274  1  6.668115 10.752000 17.236510
275  1  6.668115 19.586087  4.497085
276  1  6.668115 19.586087 17.236510
277  1 15.502203  1.917938  4.497085
278  1 15.502203  1.917938 17.236510
279  1 15.502203 10.752000  4.497085
280  1 15.502203 10.752000 17.236510
281  1 15.502203 19.586087  4.497085
282  1 15.502203 19.586087 17.236510
283  1 24.336211  1.917938  4.497085
284  1 24.336211  1.917938 17.236510
285  1 24.336211 10.752000  4.497085
286  1 24.336211 10.752000 17.236510
287  1 24.336211 19.586087  4.497085
288  1 24.336211 19.586087 17.236510
289  1  6.734000  6.415390  8.811130
290  1  6.734000  6.415390 21.550504
291  1  6.734000 15.249504  8.811130
292  1  6.734000 15.249504 21.550504
293  1  6.734000 24.083512  8.811130
294  1  6.734000 24.083512 21.550504
295  1 15.568087  6.415390  8.811130
296  1 15.568087  6.415390 21.550504
297  1 15.568087 15.249504  8.811130
298  1 15.568087 15.249504 21.550504
299  1 15.568087 24.083512  8.811130
300  1 15.568087 24.083512 21.550504
301  1 24.402095  6.415390  8.811130
302  1 24.402095  6.415390 21.550504
303  1 24.402095 15.249504  8.811130
304  1 24.402095 15.249504 21.550504
305  1 24.402095 24.083512  8.811130
306  1 24.402095 24.083512 21.550504
307  1  6.929983  1.894802  7.973438
308  1  6.929983  1.894802 20.712812
309  1  6.929983 10.728890  7.973438
310  1  6.929983 10.728890 20.712812
311  1  6.929983 19.562898  7.973438
312  1  6.929983 19.562898 20.712812
313  1 15.764098  1.894802  7.973438
314  1 15.764098  1.894802 20.712812
315  1 15.764098 10.728890  7.973438
316  1 15.764098 10.728890 20.712812
317  1 15.764098 19.562898  7.973438
318  1 15.764098 19.562898 20.712812
319  1 24.598106  1.894802  7.973438
320  1 24.598106  1.894802 20.712812
321  1 24.598106 10.728890  7.973438
322  1 24.598106 10.728890 20.712812
323  1 24.598106 19.562898  7.973438
324  1 24.598106 19.562898 20.712812
325  1  8.522528  4.555279  5.426551
326  1  8.522528  4.555279 18.165900
327  1  8.522528 13.389288  5.426551
328  1  8.522528 13.389288 18.165900
329  1  8.522528 22.223402  5.426551
330  1  8.522528 22.223402 18.165900
331  1 17.356589  4.555279  5.426551
332  1 17.356589  4.555279 18.165900
333  1 17.356589 13.389288  5.426551
334  1 17.356589 13.389288 18.165900
335  1 17.356589 22.223402  5.426551
336  1 17.356589 22.223402 18.165900
337  1 26.190703  4.555279  5.426551
338  1 26.190703  4.555279 18.165900
339  1 26.190703 13.389288  5.426551
340  1 26.190703 13.389288 18.165900
341  1 26.190703 22.223402  5.426551
342  1 26.190703 22.223402 18.165900
343  1  8.731233  4.584644 12.125590
344  1  8.731233  4.584644 24.864990
345  1  8.731233 13.418705 12.125590
346  1  8.731233 13.418705 24.864990
347  1  8.731233 22.252793 12.125590
348  1  8.731233 22.252793 24.864990
349  1 17.565294  4.584644 12.125590
350  1 17.565294  4.584644 24.864990
351  1 17.565294 13.418705 12.125590
352  1 17.565294 13.418705 24.864990
353  1 17.565294 22.252793 12.125590
354  1 17.565294 22.252793 24.864990
355  1 26.399408  4.584644 12.125590
356  1 26.399408  4.584644 24.864990
357  1 26.399408 13.418705 12.125590
358  1 26.399408 13.418705 24.864990
359  1 26.399408 22.252793 12.125590
360  1 26.399408 22.252793 24.864990
361  2  4.492151  8.751825 10.375400
362  2  4.492151  8.751825 23.114800
363  2  4.492151 17.585912 10.375400
364  2  4.492151 17.585912 23.114800
365  2  4.492151 26.420000 10.375400
366  2  4.492151 26.420000 23.114800
367  2 13.326212  8.751825 10.375400
368  2 13.326212  8.751825 23.114800
369  2 13.326212 17.585912 10.375400
370  2 13.326212 17.585912 23.114800
371  2 13.326212 26.420000 10.375400
372  2 13.326212 26.420000 23.114800
373  2 22.160300  8.751825 10.375400
374  2 22.160300  8.751825 23.114800
375  2 22.160300 17.585912 10.375400
376  2 22.160300 17.585912 23.114800
377  2 22.160300 26.420000 10.375400
378  2 22.160300 26.420000 23.114800
379  2  8.807320  4.316521  2.325119
380  2  8.807320  4.316521 15.064493
381  2  8.807320 13.150609  2.325119
382  2  8.807320 13.150609 15.064493
383  2  8.807320 21.984696  2.325119
384  2  8.807320 21.984696 15.064493
385  2 17.641408  4.316521  2.325119
386  2 17.641408  4.316521 15.064493
387  2 17.641408 13.150609  2.325119
388  2 17.641408 13.150609 15.064493
389  2 17.641408 21.984696  2.325119
390  2 17.641408 21.984696 15.064493
391  2 26.475496  4.316521  2.325119
392  2 26.475496  4.316521 15.064493
393  2 26.475496 13.150609  2.325119
394  2 26.475496 13.150609 15.064493
395  2 26.475496 21.984696  2.325119
396  2 26.475496 21.984696 15.064493
397  3  0.076565  4.274250  8.712068
398  3  0.076565  4.274250 21.451493
399  3  0.076565 13.108311  8.712068
400  3  0.076565 13.108311 21.451493
401  3  0.076565 21.942399  8.712068
402  3  0.076565 21.942399 21.451493
403  3  8.910653  4.274250  8.712068
404  3  8.910653  4.274250 21.451493
405  3  8.910653 13.108311  8.712068
406  3  8.910653 13.108311 21.451493
407  3  8.910653 21.942399  8.712068
408  3  8.910653 21.942399 21.451493
409  3 17.744687  4.274250  8.712068
410  3 17.744687  4.274250 21.451493
411  3 17.744687 13.108311  8.712068
412  3 17.744687 13.108311 21.451493
413  3 17.744687 21.942399  8.712068
414  3 17.744687 21.942399 21.451493
415  3  4.307139  0.072669  3.961648
416  3  4.307139  0.072669 16.700997
417  3  4.307139  8.906730  3.961648
418  3  4.307139  8.906730 16.700997
419  3  4.307139 17.740791  3.961648
420  3  4.307139 17.740791 16.700997
421  3 13.141200  0.072669  3.961648
422  3 13.141200  0.072669 16.700997
423  3 13.141200  8.906730  3.961648
424  3 13.141200  8.906730 16.700997
425  3 13.141200 17.740791  3.961648
426  3 13.141200 17.740791 16.700997
427  3 21.975288  0.072669  3.961648
428  3 21.975288  0.072669 16.700997
429  3 21.975288  8.906730  3.961648
430  3 21.975288  8.906730 16.700997
431  3 21.975288 17.740791  3.961648
432  3 21.975288 17.740791 16.700997
433  3  4.346813  4.567073 12.654301
434  3  4.346813  4.567073 25.393701
435  3  4.346813 13.401108 12.654301
436  3  4.346813 13.401108 25.393701
437  3  4.346813 22.235195 12.654301
438  3  4.346813 22.235195 25.393701
439  3 13.180901  4.567073 12.654301
440  3 13.180901  4.567073 25.393701
441  3 13.180901 13.401108 12.654301
442  3 13.180901 13.401108 25.393701
443  3 13.180901 22.235195 12.654301
444  3 13.180901 22.235195 25.393701
445  3 22.014988  4.567073 12.654301
446  3 22.014988  4.567073 25.393701
447  3 22.014988 13.401108 12.654301
448  3 22.014988 13.401108 25.393701
449  3 22.014988 22.235195 12.654301
450  3 22.014988 22.235195 25.393701
451  3  8.780023  8.518632  6.390389
452  3  8.780023  8.518632 19.129789
453  3  8.780023 17.352693  6.390389
454  3  8.780023 17.352693 19.129789
455  3  8.780023 26.186807  6.390389
456  3  8.780023 26.186807 19.129789
457  3 17.614111  8.518632  6.390389
458  3 17.614111  8.518632 19.129789
459  3 17.614111 17.352693  6.390389
460  3 17.614111 17.352693 19.129789
461  3 17.614111 26.186807  6.390389
462  3 17.614111 26.186807 19.129789
463  3 26.448198  8.518632  6.390389
464  3 26.448198  8.518632 19.129789
465  3 26.448198 17.352693  6.390389
466  3 26.448198 17.352693 19.129789
467  3 26.448198 26.186807  6.390389
468  3 26.448198 26.186807 19.129789
469  4  0.006122  6.285423  1.271774
470  4  0.006122  6.285423 14.011200
471  4  0.006122 15.119511  1.271774
472  4  0.006122 15.119511 14.011200
473  4  0.006122 23.953492  1.271774
474  4  0.006122 23.953492 14.011200
475  4  8.840183  6.285423  1.271774
476  4  8.840183  6.285423 14.011200
477  4  8.840183 15.119511  1.271774
478  4  8.840183 15.119511 14.011200
479  4  8.840183 23.953492  1.271774
480  4  8.840183 23.953492 14.011200
481  4 17.674297  6.285423  1.271774
482  4 17.674297  6.285423 14.011200
483  4 17.674297 15.119511  1.271774
484  4 17.674297 15.119511 14.011200
485  4 17.674297 23.953492  1.271774
486  4 17.674297 23.953492 14.011200
487  4  0.023905  2.466375  9.732086
488  4  0.023905  2.466375 22.471512
489  4  0.023905 11.300410  9.732086
490  4  0.023905 11.300410 22.471512
491  4  0.023905 20.134498  9.732086
492  4  0.023905 20.134498 22.471512
493  4  8.857966  2.466375  9.732086
494  4  8.857966  2.466375 22.471512
495  4  8.857966 11.300410  9.732086
496  4  8.857966 11.300410 22.471512
497  4  8.857966 20.134498  9.732086
498  4  8.857966 20.134498 22.471512
499  4 17.692001  2.466375  9.732086
500  4 17.692001  2.466375 22.471512
501  4 17.692001 11.300410  9.732086
502  4 17.692001 11.300410 22.471512
503  4 17.692001 20.134498  9.732086
504  4 17.692001 20.134498 22.471512
505  4  0.051944  7.028095  4.969640
506  4  0.051944  7.028095 17.708989
507  4  0.051944 15.862209  4.969640
508  4  0.051944 15.862209 17.708989
509  4  0.051944 24.696190  4.969640
510  4  0.051944 24.696190 17.708989
511  4  8.886005  7.028095  4.969640
512  4  8.886005  7.028095 17.708989
513  4  8.886005 15.862209  4.969640
514  4  8.886005 15.862209 17.708989
515  4  8.886005 24.696190  4.969640
516  4  8.886005 24.696190 17.708989
517  4 17.720093  7.028095  4.969640
518  4 17.720093  7.028095 17.708989
519  4 17.720093 15.862209  4.969640
520  4 17.720093 15.862209 17.708989
521  4 17.720093 24.696190  4.969640
522  4 17.720093 24.696190 17.708989
523  4  0.072590  2.606996  0.863477
524  4  0.072590  2.606996 13.602902
525  4  0.072590 11.441110  0.863477
526  4  0.072590 11.441110 13.602902
527  4  0.072590 20.275092  0.863477
528  4  0.072590 20.275092 13.602902
529  4  8.906651  2.606996  0.863477
530  4  8.906651  2.606996 13.602902
531  4  8.906651 11.441110  0.863477
532  4  8.906651 11.441110 13.602902
533  4  8.906651 20.275092  0.863477
534  4  8.906651 20.275092 13.602902
535  4 17.740712  2.606996  0.863477
536  4 17.740712  2.606996 13.602902
537  4 17.740712 11.441110  0.863477
538  4 17.740712 11.441110 13.602902
539  4 17.740712 20.275092  0.863477
540  4 17.740712 20.275092 13.602902
541  4  1.700090  8.386863  7.485620
542  4  1.700090  8.386863 20.224995
543  4  1.700090 17.220898  7.485620
544  4  1.700090 17.220898 20.224995
545  4  1.700090 26.055012  7.485620
546  4  1.700090 26.055012 20.224995
547  4 10.534204  8.386863  7.485620
548  4 10.534204  8.386863 20.224995
549  4 10.534204 17.220898  7.485620
550  4 10.534204 17.220898 20.224995
551  4 10.534204 26.055012  7.485620
552  4 10.534204 26.055012 20.224995
553  4 19.368213  8.386863  7.485620
554  4 19.368213  8.386863 20.224995
555  4 19.368213 17.220898  7.485620
556  4 19.368213 17.220898 20.224995
557  4 19.368213 26.055012  7.485620
558  4 19.368213 26.055012 20.224995
559  4  1.743766  4.219735  3.700108
560  4  1.743766  4.219735 16.439508
561  4  1.743766 13.053796  3.700108
562  4  1.743766 13.053796 16.439508
563  4  1.743766 21.887910  3.700108
564  4  1.743766 21.887910 16.439508
565  4 10.577801  4.219735  3.700108
566  4 10.577801  4.219735 16.439508
567  4 10.577801 13.053796  3.700108
568  4 10.577801 13.053796 16.439508
569  4 10.577801 21.887910  3.700108
570  4 10.577801 21.887910 16.439508
571  4 19.411888  4.219735  3.700108
572  4 19.411888  4.219735 16.439508
573  4 19.411888 13.053796  3.700108
574  4 19.411888 13.053796 16.439508
575  4 19.411888 21.887910  3.700108
576  4 19.411888 21.887910 16.439508
577  4  1.850146  4.307749  7.645551
578  4  1.850146  4.307749 20.384900
579  4  1.850146 13.141810  7.645551
580  4  1.850146 13.141810 20.384900
581  4  1.850146 21.975898  7.645551
582  4  1.850146 21.975898 20.384900
583  4 10.684207  4.307749  7.645551
584  4 10.684207  4.307749 20.384900
585  4 10.684207 13.141810  7.645551
586  4 10.684207 13.141810 20.384900
587  4 10.684207 21.975898  7.645551
588  4 10.684207 21.975898 20.384900
589  4 19.518295  4.307749  7.645551
590  4 19.518295  4.307749 20.384900
591  4 19.518295 13.141810  7.645551
592  4 19.518295 13.141810 20.384900
593  4 19.518295 21.975898  7.645551
594  4 19.518295 21.975898 20.384900
595  4  2.541429  8.735605 11.529106
596  4  2.541429  8.735605 24.268506
597  4  2.541429 17.569693 11.529106
598  4  2.541429 17.569693 24.268506
599  4  2.541429 26.403701 11.529106
600  4  2.541429 26.403701 24.268506
601  4 11.375491  8.735605 11.529106
602  4 11.375491  8.735605 24.268506
603  4 11.375491 17.569693 11.529106
604  4 11.375491 17.569693 24.268506
605  4 11.375491 26.403701 11.529106
606  4 11.375491 26.403701 24.268506
607  4 20.209605  8.735605 11.529106
608  4 20.209605  8.735605 24.268506
609  4 20.209605 17.569693 11.529106
610  4 20.209605 17.569693 24.268506
611  4 20.209605 26.403701 11.529106
612  4 20.209605 26.403701 24.268506
613  4  2.617729  0.277399  2.798719
614  4  2.617729  0.277399 15.538093
615  4  2.617729  9.111460  2.798719
616  4  2.617729  9.111460 15.538093
617  4  2.617729 17.945494  2.798719
618  4  2.617729 17.945494 15.538093
619  4 11.451790  0.277399  2.798719
620  4 11.451790  0.277399 15.538093
621  4 11.451790  9.111460  2.798719
622  4 11.451790  9.111460 15.538093
623  4 11.451790 17.945494  2.798719
624  4 11.451790 17.945494 15.538093
625  4 20.285905  0.277399  2.798719
626  4 20.285905  0.277399 15.538093
627  4 20.285905  9.111460  2.798719
628  4 20.285905  9.111460 15.538093
629  4 20.285905 17.945494  2.798719
630  4 20.285905 17.945494 15.538093
631  4  2.646670  4.696722 11.478607
632  4  2.646670  4.696722 24.218007
633  4  2.646670 13.530809 11.478607
634  4  2.646670 13.530809 24.218007
635  4  2.646670 22.364897 11.478607
636  4  2.646670 22.364897 24.218007
637  4 11.480704  4.696722 11.478607
638  4 11.480704  4.696722 24.218007
639  4 11.480704 13.530809 11.478607
640  4 11.480704 13.530809 24.218007
641  4 11.480704 22.364897 11.478607
642  4 11.480704 22.364897 24.218007
643  4 20.314792  4.696722 11.478607
644  4 20.314792  4.696722 24.218007
645  4 20.314792 13.530809 11.478607
646  4 20.314792 13.530809 24.218007
647  4 20.314792 22.364897 11.478607
648  4 20.314792 22.364897 24.218007
649  4  4.273216  7.034482  4.829710
650  4  4.273216  7.034482 17.569110
651  4  4.273216 15.868490  4.829710
652  4  4.273216 15.868490 17.569110
653  4  4.273216 24.702604  4.829710
654  4  4.273216 24.702604 17.569110
655  4 13.107304  7.034482  4.829710
656  4 13.107304  7.034482 17.569110
657  4 13.107304 15.868490  4.829710
658  4 13.107304 15.868490 17.569110
659  4 13.107304 24.702604  4.829710
660  4 13.107304 24.702604 17.569110
661  4 21.941312  7.034482  4.829710
662  4 21.941312  7.034482 17.569110
663  4 21.941312 15.868490  4.829710
664  4 21.941312 15.868490 17.569110
665  4 21.941312 24.702604  4.829710
666  4 21.941312 24.702604 17.569110
667  4  4.302793  2.721432  0.809589
668  4  4.302793  2.721432 13.548989
669  4  4.302793 11.555494  0.809589
670  4  4.302793 11.555494 13.548989
671  4  4.302793 20.389608  0.809589
672  4  4.302793 20.389608 13.548989
673  4 13.136801  2.721432  0.809589
674  4 13.136801  2.721432 13.548989
675  4 13.136801 11.555494  0.809589
676  4 13.136801 11.555494 13.548989
677  4 13.136801 20.389608  0.809589
678  4 13.136801 20.389608 13.548989
679  4 21.970889  2.721432  0.809589
680  4 21.970889  2.721432 13.548989
681  4 21.970889 11.555494  0.809589
682  4 21.970889 11.555494 13.548989
683  4 21.970889 20.389608  0.809589
684  4 21.970889 20.389608 13.548989
685  4  4.366955  7.006018  8.956868
686  4  4.366955  7.006018 21.696294
687  4  4.366955 15.840106  8.956868
688  4  4.366955 15.840106 21.696294
689  4  4.366955 24.674194  8.956868
690  4  4.366955 24.674194 21.696294
691  4 13.200989  7.006018  8.956868
692  4 13.200989  7.006018 21.696294
693  4 13.200989 15.840106  8.956868
694  4 13.200989 15.840106 21.696294
695  4 13.200989 24.674194  8.956868
696  4 13.200989 24.674194 21.696294
697  4 22.035103  7.006018  8.956868
698  4 22.035103  7.006018 21.696294
699  4 22.035103 15.840106  8.956868
700  4 22.035103 15.840106 21.696294
701  4 22.035103 24.674194  8.956868
702  4 22.035103 24.674194 21.696294
703  4  4.360515  6.128716  1.234830
704  4  4.360515  6.128716 13.974205
705  4  4.360515 14.962803  1.234830
706  4  4.360515 14.962803 13.974205
707  4  4.360515 23.796811  1.234830
708  4  4.360515 23.796811 13.974205
709  4 13.194602  6.128716  1.234830
710  4 13.194602  6.128716 13.974205
711  4 13.194602 14.962803  1.234830
712  4 13.194602 14.962803 13.974205
713  4 13.194602 23.796811  1.234830
714  4 13.194602 23.796811 13.974205
715  4 22.028690  6.128716  1.234830
716  4 22.028690  6.128716 13.974205
717  4 22.028690 14.962803  1.234830
718  4 22.028690 14.962803 13.974205
719  4 22.028690 23.796811  1.234830
720  4 22.028690 23.796811 13.974205
721  4  4.368624  1.581175  5.354905
722  4  4.368624  1.581175 18.094305
723  4  4.368624 10.415210  5.354905
724  4  4.368624 10.415210 18.094305
725  4  4.368624 19.249297  5.354905
726  4  4.368624 19.249297 18.094305
727  4 13.202712  1.581175  5.354905
728  4 13.202712  1.581175 18.094305
729  4 13.202712 10.415210  5.354905
730  4 13.202712 10.415210 18.094305
731  4 13.202712 19.249297  5.354905
732  4 13.202712 19.249297 18.094305
733  4 22.036800  1.581175  5.354905
734  4 22.036800  1.581175 18.094305
735  4 22.036800 10.415210  5.354905
736  4 22.036800 10.415210 18.094305
737  4 22.036800 19.249297  5.354905
738  4 22.036800 19.249297 18.094305
739  4  4.575448  1.798360  9.155883
740  4  4.575448  1.798360 21.895309
741  4  4.575448 10.632395  9.155883
742  4  4.575448 10.632395 21.895309
743  4  4.575448 19.466509  9.155883
744  4  4.575448 19.466509 21.895309
745  4 13.409509  1.798360  9.155883
746  4 13.409509  1.798360 21.895309
747  4 13.409509 10.632395  9.155883
748  4 13.409509 10.632395 21.895309
749  4 13.409509 19.466509  9.155883
750  4 13.409509 19.466509 21.895309
751  4 22.243596  1.798360  9.155883
752  4 22.243596  1.798360 21.895309
753  4 22.243596 10.632395  9.155883
754  4 22.243596 10.632395 21.895309
755  4 22.243596 19.466509  9.155883
756  4 22.243596 19.466509 21.895309
757  4  6.025754  4.681933 11.454300
758  4  6.025754  4.681933 24.193700
759  4  6.025754 13.515995 11.454300
760  4  6.025754 13.515995 24.193700
761  4  6.025754 22.350109 11.454300
762  4  6.025754 22.350109 24.193700
763  4 14.859789  4.681933 11.454300
764  4 14.859789  4.681933 24.193700
765  4 14.859789 13.515995 11.454300
766  4 14.859789 13.515995 24.193700
767  4 14.859789 22.350109 11.454300
768  4 14.859789 22.350109 24.193700
769  4 23.693903  4.681933 11.454300
770  4 23.693903  4.681933 24.193700
771  4 23.693903 13.515995 11.454300
772  4 23.693903 13.515995 24.193700
773  4 23.693903 22.350109 11.454300
774  4 23.693903 22.350109 24.193700
775  4  6.033970  0.148359  2.813700
776  4  6.033970  0.148359 15.553100
777  4  6.033970  8.982421  2.813700
778  4  6.033970  8.982421 15.553100
779  4  6.033970 17.816508  2.813700
780  4  6.033970 17.816508 15.553100
781  4 14.868005  0.148359  2.813700
782  4 14.868005  0.148359 15.553100
783  4 14.868005  8.982421  2.813700
784  4 14.868005  8.982421 15.553100
785  4 14.868005 17.816508  2.813700
786  4 14.868005 17.816508 15.553100
787  4 23.702093  0.148359  2.813700
788  4 23.702093  0.148359 15.553100
789  4 23.702093  8.982421  2.813700
790  4 23.702093  8.982421 15.553100
791  4 23.702093 17.816508  2.813700
792  4 23.702093 17.816508 15.553100
793  4  6.264089  8.804803 11.721089
794  4  6.264089  8.804803 24.460489
795  4  6.264089 17.638890 11.721089
796  4  6.264089 17.638890 24.460489
797  4  6.264089 26.472899 11.721089
798  4  6.264089 26.472899 24.460489
799  4 15.098203  8.804803 11.721089
800  4 15.098203  8.804803 24.460489
801  4 15.098203 17.638890 11.721089
802  4 15.098203 17.638890 24.460489
803  4 15.098203 26.472899 11.721089
804  4 15.098203 26.472899 24.460489