LAMMPS (4 May 2022)
## variable
variable        temp            equal 800
variable        eql_step        equal 500000
variable        rd_seed         equal 2

variable        temp_damp       equal 0.2 # tau_NVT = timestep * 100
variable        t_step          equal 0.002
variable        rlx_step        equal 20000

variable        thermo_freq     equal 100
variable        dump_freq       equal 100

## units
dimension       3
boundary        p p p
units           metal
atom_style      atomic
neighbor        1.0 bin
neigh_modify    every 10 delay 0 check no

## data.lmp, potential
read_data       data.lmp
Reading data file ...
  orthogonal box = (0 0 0) to (26.50221 26.50221 25.4788)
  1 by 1 by 1 MPI processor grid
  reading atoms ...
  900 atoms
  read_data CPU = 0.001 seconds
pair_style      mdpu model.pb
pair_coeff * *

## velocity, timestep
velocity        all create ${temp} ${rd_seed} loop geom
velocity        all create 800 ${rd_seed} loop geom
velocity        all create 800 2 loop geom
timestep        ${t_step}
timestep        0.002

## nvt-relax
fix             equil all nvt temp ${temp} ${temp} ${temp_damp}
fix             equil all nvt temp 800 ${temp} ${temp_damp}
fix             equil all nvt temp 800 800 ${temp_damp}
fix             equil all nvt temp 800 800 0.2
run             ${rlx_step}
run             20000
Generated 0 of 6 mixed pair_coeff terms from geometric mixing rule
Neighbor list info ...
  update every 10 steps, delay 0 steps, check no
  max neighbors/atom: 2000, page size: 100000
  master list distance cutoff = 8
  ghost atom cutoff = 8
  binsize = 4, bins = 7 7 7
  1 neighbor lists, perpetual/occasional/extra = 1 0 0
  (1) pair mdpu, perpetual
      attributes: full, newton on
      pair build: full/bin/atomonly
      stencil: full/bin/3d
      bin: standard
Per MPI rank memory allocation (min/avg/max) = 2.675 | 2.675 | 2.675 Mbytes
   Step          Temp          E_pair         E_mol          TotEng         Press     
         0   800            198.65691      0              291.62081      7043.6154    
     20000   770.95622      292.15154      0              381.74041      12730.338    
Loop time of 12.0352 on 1 procs for 20000 steps with 900 atoms

Performance: 287.157 ns/day, 0.084 hours/ns, 1661.787 timesteps/s
54.0% CPU use with 1 MPI tasks x no OpenMP threads

MPI task timing breakdown:
Section |  min time  |  avg time  |  max time  |%varavg| %total
---------------------------------------------------------------
Pair    | 7.6894     | 7.6894     | 7.6894     |   0.0 | 63.89
Neigh   | 4.0581     | 4.0581     | 4.0581     |   0.0 | 33.72
Comm    | 0.13845    | 0.13845    | 0.13845    |   0.0 |  1.15
Output  | 1.8481e-05 | 1.8481e-05 | 1.8481e-05 |   0.0 |  0.00
Modify  | 0.1262     | 0.1262     | 0.1262     |   0.0 |  1.05
Other   |            | 0.02302    |            |       |  0.19

Nlocal:            900 ave         900 max         900 min
Histogram: 1 0 0 0 0 0 0 0 0 0
Nghost:           2773 ave        2773 max        2773 min
Histogram: 1 0 0 0 0 0 0 0 0 0
Neighs:              0 ave           0 max           0 min
Histogram: 1 0 0 0 0 0 0 0 0 0
FullNghs:        96680 ave       96680 max       96680 min
Histogram: 1 0 0 0 0 0 0 0 0 0

Total # of neighbors = 96680
Ave neighs/atom = 107.42222
Neighbor list builds = 2000
Dangerous builds not checked
unfix           equil

## nvt-equal
reset_timestep  0
fix             equil all nvt temp ${temp} ${temp} ${temp_damp}
fix             equil all nvt temp 800 ${temp} ${temp_damp}
fix             equil all nvt temp 800 800 ${temp_damp}
fix             equil all nvt temp 800 800 0.2
fix             com all recenter INIT INIT INIT

## thermo_style
thermo_style    custom step time temp ke etotal press
thermo          ${thermo_freq}
thermo          100
thermo_modify   flush yes
dump            1 all custom ${dump_freq} dump.lammpstraj id type x y z
dump            1 all custom 100 dump.lammpstraj id type x y z
run             500000
Generated 0 of 6 mixed pair_coeff terms from geometric mixing rule
Per MPI rank memory allocation (min/avg/max) = 3.96 | 3.96 | 3.96 Mbytes
   Step          Time           Temp          KinEng         TotEng         Press     
         0   0              770.95622      89.588867      381.74041      12730.338    
       100   0.2            794.09595      92.277817      383.17537      14186.557    
       200   0.4            842.55496      97.90899       389.03511      13965.248    
       300   0.6            819.37626      95.215512      391.10186      13899.619    
       400   0.8            801.43553      93.130712      387.67876      16766.559    
       500   1              787.38953      91.498498      385.41566      13568.143    
       600   1.2            795.22087      92.408539      383.69095      13786.997    
       700   1.4            814.99212      94.706053      381.50415      11885.295    
       800   1.6            771.15215      89.611636      379.03401      13817.127    
       900   1.8            785.44279      91.272277      378.6529       12884.352    
      1000   2              794.24016      92.294575      383.94879      14171.03     
      1100   2.2            775.41386      90.106867      387.46741      15616.371    
      1200   2.4            802.34912      93.236875      386.91976      13437.904    
      1300   2.6            803.19292      93.334929      384.11354      12873.004    
      1400   2.8            768.8196       89.340582      378.11656      16378.949    
      1500   3              805.11614      93.558417      378.53573      14738.334    
      1600   3.2            801.61789      93.151903      381.67025      14052.276    
      1700   3.4            762.44448      88.599762      383.01218      13854.557    
      1800   3.6            803.37767      93.356398      384.20025      14595.981    
      1900   3.8            808.27259      93.925211      384.47643      14711.684    
      2000   4              802.82924      93.292668      385.1582       15072.368    
      2100   4.2            824.65647      95.829098      386.21877      16222.102    
      2200   4.4            809.65329      94.085656      383.57117      12030.167    
      2300   4.6            757.79802      88.059821      379.32256      14118.961    
      2400   4.8            781.34491      90.796085      378.97674      13677.7      
      2500   5              812.81338      94.452873      385.54806      13849.592    
      2600   5.2            818.0305       95.059129      388.6786       14458.887    
      2700   5.4            789.19552      91.708363      386.53216      15013.264    
      2800   5.6            786.08406      91.346797      382.69123      16388.999    
      2900   5.8            774.88109      90.044956      380.91603      14506.379    
      3000   6              810.90669      94.231306      385.72169      14898.437    
      3100   6.2            839.39062      97.541278      390.98095      14528.262    
      3200   6.4            810.66769      94.203533      389.55816      12815.036    
      3300   6.6            783.39571      91.034397      385.24232      13896.693    
      3400   6.8            811.56112      94.307355      383.2191       14021.452    
      3500   7              791.47366      91.973094      382.67439      14097.097    
      3600   7.2            793.96137      92.262178      383.69309      14209.487    
      3700   7.4            785.99976      91.337001      384.33356      14434.839    
      3800   7.6            817.64895      95.014791      385.18269      15063.418    
      3900   7.8            838.57866      97.446924      383.79736      13726.134    
      4000   8              763.4864       88.720838      380.44776      14207.195    
      4100   8.2            750.93019      87.261745      376.25579      14889.905    
      4200   8.4            771.54634      89.657442      379.63361      15447.191    
      4300   8.6            780.00691      90.640602      384.84304      13420.91     
      4400   8.8            815.12178      94.72112       385.70734      13877.953    
      4500   9              814.90297      94.695694      385.03354      12802.197    
      4600   9.2            775.56525      90.12446       381.82852      13023.95     
      4700   9.4            772.69329      89.790723      379.13753      14045.948    
      4800   9.6            777.09042      90.301691      379.22547      11584.345    
      4900   9.8            785.16421      91.239905      385.46982      14405.047    
      5000   10             820.92557      95.39555       387.90946      15323.192    
      5100   10.2           790.91114      91.907726      385.68246      13376.004    
      5200   10.4           770.35642      89.519168      381.2585       11424.928    
      5300   10.6           774.62833      90.015584      379.76851      13724.371    
      5400   10.8           783.99875      91.104473      384.29027      13398.037    
      5500   11             806.01732      93.663138      390.36399      11682.025    
      5600   11.2           841.58833      97.796663      388.12718      11065.974    
      5700   11.4           797.59348      92.684247      383.15273      15832.161    
      5800   11.6           750.97867      87.267379      381.04143      12911.068    
      5900   11.8           782.51174      90.931675      383.64542      15154.113    
      6000   12             816.51856      94.883433      388.51132      13026.785    
      6100   12.2           800.83598      93.061041      389.36138      13844.701    
      6200   12.4           793.93462      92.25907       386.44461      15546.339    
      6300   12.6           781.26996      90.787374      378.46167      13452.087    
      6400   12.8           802.89076      93.299817      379.2048       13324.196    
      6500   13             784.15889      91.123082      383.62904      14101.231    
      6600   13.2           786.37243      91.380306      387.87642      13565.359    
      6700   13.4           809.21995      94.0353        389.64694      14081.88     
      6800   13.6           831.23658      96.593739      387.70907      12092.517    
      6900   13.8           787.49097      91.510286      381.04374      14130.615    
      7000   14             812.84619      94.456687      380.94638      11336.739    
      7100   14.2           817.71909      95.022941      383.88643      15757.953    
      7200   14.4           815.46785      94.761336      387.04682      13034.811    
      7300   14.6           815.23808      94.734636      386.12443      15231.292    
      7400   14.8           812.0734       94.366884      384.96253      11782.325    
      7500   15             817.31999      94.976563      384.07107      13176.872    
      7600   15.2           805.27747      93.577164      384.49561      15134.731    
      7700   15.4           810.41216      94.17384       386.85403      15236.979    
      7800   15.6           811.67949      94.32111       391.3794       12585.64     
      7900   15.8           825.78748      95.960527      391.79214      15586.182    
      8000   16             837.51483      97.323302      385.38056      14829.842    
      8100   16.2           776.65513      90.251109      382.63745      14370.34     
      8200   16.4           800.99377      93.079377      383.02941      14311.437    
      8300   16.6           808.02356      93.896273      386.31584      12743.278    
      8400   16.8           831.043        96.571244      390.72972      11626.102    
      8500   17             799.19746      92.870638      389.21332      13290.521    
      8600   17.2           772.71013      89.79268       381.51886      12800.714    
      8700   17.4           787.20006      91.476481      381.87073      15630.977    
      8800   17.6           814.09831      94.602188      384.39041      12803.104    
      8900   17.8           812.88262      94.460919      386.36879      14760.873    
      9000   18             804.31847      93.465723      384.55697      12490.095    
      9100   18.2           780.00627      90.640528      379.60433      15063.291    
      9200   18.4           786.39566      91.383005      379.594        13757.239    
      9300   18.6           794.06438      92.274148      384.4618       16521.408    
      9400   18.8           836.69188      97.227671      388.99983      15396.283    
      9500   19             809.62502      94.08237       387.86808      14213.592    
      9600   19.2           778.3365       90.446492      384.96096      12712.901    
      9700   19.4           799.34215      92.887451      382.96519      14276.053    
      9800   19.6           789.42907      91.735503      382.24578      14869.846    
      9900   19.8           823.62057      95.708722      383.51574      14354.568    
     10000   20             814.86812      94.691644      387.29676      12422.122    
     10100   20.2           813.35713      94.51606       388.41643      15683.387    
     10200   20.4           777.09519      90.302246      384.88465      12554.891    
     10300   20.6           796.71674      92.582366      380.01002      11375.593    
     10400   20.8           764.00307      88.780878      379.52556      13983.856    
     10500   21             781.0347       90.760035      382.03843      13685.451    
     10600   21.2           816.91316      94.929287      383.86749      13135.403    
     10700   21.4           814.6703       94.668657      385.21793      11914.217    
     10800   21.6           786.88027      91.43932       386.09977      13500.156    
     10900   21.8           804.98552      93.543237      387.21931      17317.519    
     11000   22             782.90591      90.97748       386.99878      14153.911    
     11100   22.2           817.0587       94.946201      384.83445      12805.614    
     11200   22.4           773.36061      89.868269      381.90937      16668.512    
     11300   22.6           788.49577      91.627049      379.87814      12197.767    
     11400   22.8           777.72764      90.37574       381.05134      12659.405    
     11500   23             795.031        92.386474      387.4423       15813.71     
     11600   23.2           802.90364      93.301314      389.85698      16776.33     
     11700   23.4           811.79878      94.334972      386.52655      14119.374    
     11800   23.6           781.0599       90.762965      382.95641      11866.186    
     11900   23.8           761.49269      88.489159      382.65511      18183.518    
     12000   24             789.70602      91.767685      383.91389      11931.415    
     12100   24.2           834.64951      96.990338      384.47098      12163.032    
     12200   24.4           837.84081      97.361183      383.58977      16297.383    
     12300   24.6           799.51445      92.907473      383.18082      13292.558    
     12400   24.8           813.99801      94.590533      384.28615      14430.854    
     12500   25             740.84632      86.089951      385.23564      14224.95     
     12600   25.2           788.22413      91.595483      385.24952      15204.386    
     12700   25.4           795.96611      92.495138      382.16939      13993.734    
     12800   25.6           776.12971      90.190052      379.6844       10565.026    
     12900   25.8           790.13123      91.817097      383.4679       13582.784    
     13000   26             817.71107      95.022009      387.64526      13869.687    
     13100   26.2           810.3464       94.166198      387.00019      13188.996    
     13200   26.4           812.88109      94.460741      385.29363      14042.895    
     13300   26.6           755.5423       87.797694      379.05756      13371.221    
     13400   26.8           771.45495      89.646822      377.72019      14233.467    
     13500   27             786.41654      91.385432      380.58524      14581.039    
     13600   27.2           833.76854      96.887965      383.03002      14345.887    
     13700   27.4           789.37508      91.729228      384.48746      14789.961    
     13800   27.6           849.60107      98.727782      384.82244      12977.529    
     13900   27.8           804.33459      93.467597      385.49431      14907.546    
     14000   28             850.25552      98.803832      386.35934      15015.158    
     14100   28.2           817.46457      94.993365      385.22278      11869.765    
     14200   28.4           797.11266      92.628374      381.29951      13865.933    
     14300   28.6           786.47593      91.392334      378.19755      13221.6      
     14400   28.8           807.97178      93.890256      380.86867      14271.984    
     14500   29             838.00107      97.379806      387.46775      12081.058    
     14600   29.2           830.88383      96.552748      387.77029      14477.353    
     14700   29.4           827.01123      96.102733      385.93567      16226.524    
     14800   29.6           793.41307      92.198462      381.53551      10423.57     
     14900   29.8           775.35468      90.09999       379.95819      13331.741    
     15000   30             788.95734      91.680686      385.28103      14511.365    
     15100   30.2           806.60145      93.731017      390.16675      11917.967    
     15200   30.4           824.30168      95.787869      388.59657      13200.829    
     15300   30.6           822.43283      95.570701      384.79057      14158.669    
     15400   30.8           792.57723      92.101334      382.14583      12287.158    
     15500   31             794.40722      92.313988      382.58219      11155.805    
     15600   31.2           829.32225      96.371284      389.60873      13916.818    
     15700   31.4           824.51748      95.812947      391.62712      12297.024    
     15800   31.6           818.47044      95.110251      387.01958      14539.939    
     15900   31.8           793.16345      92.169456      384.54714      12219.596    
     16000   32             806.3873       93.706132      383.53438      11247.409    
     16100   32.2           787.08956      91.46364       382.39115      14493.82     
     16200   32.4           773.00308      89.826723      379.1643       11398.908    
     16300   32.6           774.16382      89.961607      379.09896      13887.345    
     16400   32.8           801.92277      93.187331      385.0971       15297.753    
     16500   33             826.99913      96.101326      387.91624      14509.805    
     16600   33.2           797.57539      92.682145      387.63091      15764.959    
     16700   33.4           786.10028      91.348681      383.03204      14229.361    
     16800   33.6           765.78993      88.988519      378.75638      12121.709    
     16900   33.8           809.07623      94.018598      380.29475      14086.8      
     17000   34             784.13367      91.120151      383.34479      12922.311    
     17100   34.2           801.14585      93.097049      385.93826      13689.487    
     17200   34.4           807.65866      93.85387       386.08215      13420.625    
     17300   34.6           798.41917      92.780197      383.95239      16230.982    
     17400   34.8           792.1973       92.057185      378.31133      13096.738    
     17500   35             798.15975      92.75005       378.92533      14175.329    
     17600   35.2           797.43021      92.665274      383.39468      15657.849    
     17700   35.4           802.43278      93.246597      386.59875      13493.786    
     17800   35.6           788.8777       91.671431      385.63429      14388.756    
     17900   35.8           804.59764      93.498165      383.85019      13785.977    
     18000   36             787.04533      91.4585        382.90293      14097.135    
     18100   36.2           800.01729      92.965905      383.58166      12831.855    
     18200   36.4           814.85219      94.689793      383.98304      15515.68     
     18300   36.6           778.7289       90.492091      384.05178      14943.371    
     18400   36.8           826.93678      96.094081      386.05523      11091.37     
     18500   37             842.06341      97.851869      390.21325      13847.738    
     18600   37.2           791.26325      91.948644      387.09981      15874.799    
     18700   37.4           803.71467      93.395559      382.23457      13870.067    
     18800   37.6           763.45324      88.716984      380.86723      14029.654    
     18900   37.8           806.25504      93.690763      382.20199      14860.945    
     19000   38             804.86764      93.52954       386.67291      12346.294    
     19100   38.2           848.95089      98.652228      392.31257      16550.503    
     19200   38.4           816.88027      94.925466      389.54107      17713.771    
     19300   38.6           791.9142       92.024287      385.39473      13293.555    
     19400   38.8           796.95705      92.61029       384.02476      14369.264    
     19500   39             792.9026       92.139144      383.41581      13616.031    
     19600   39.2           797.43322      92.665624      381.37797      11632.68     
     19700   39.4           775.11966      90.07268       378.61541      14354.333    
     19800   39.6           791.40767      91.965425      380.06742      12484.518    
     19900   39.8           793.04136      92.155269      385.20618      11096.365    
     20000   40             803.91822      93.419212      386.96772      14192.053    
     20100   40.2           789.1737       91.705828      386.68085      14708.029    
     20200   40.4           798.35145      92.772327      382.58865      11964.859    
     20300   40.6           762.33336      88.586849      378.33394      14296.98     
     20400   40.8           790.75321      91.889375      380.30826      14868.023    
     20500   41             803.8987       93.416945      385.75978      14711.058    
     20600   41.2           814.93289      94.699171      387.18273      12721.637    
     20700   41.4           823.81351      95.731142      386.43516      15954.502    
     20800   41.6           772.54511      89.773504      384.13771      13866.737    
     20900   41.8           793.92214      92.257619      378.30059      12271.462    
     21000   42             794.86369      92.367032      377.74469      12619.2      
     21100   42.2           817.39826      94.985659      383.11294      15779.804    
     21200   42.4           799.27295      92.87941       384.95862      11215.562    
     21300   42.6           813.84295      94.572515      385.50565      14148.945    
     21400   42.8           787.17072      91.473071      386.0789       13871.3      
     21500   43             813.49987      94.532647      386.17495      12326.168    
     21600   43.2           820.37705      95.331809      386.90797      15177.433    
     21700   43.4           799.49087      92.904733      387.99068      14951.493    
     21800   43.6           794.03208      92.270395      386.04929      14038.152    
     21900   43.8           779.30163      90.558644      383.15597      15362.694    
     22000   44             798.52497      92.79249       381.77032      15673.8      
     22100   44.2           773.97565      89.93974       383.42164      13325.878    
     22200   44.4           784.11067      91.117479      388.86018      17545.082    
     22300   44.6           773.36434      89.868703      390.14575      15866.121    
     22400   44.8           812.44226      94.409748      386.67857      12101.888    
     22500   45             820.68157      95.367196      381.41759      15916.847    
     22600   45.2           778.56009      90.472474      380.91435      16210.196    
     22700   45.4           794.1132       92.279821      382.30658      12605.566    
     22800   45.6           820.76038      95.376354      385.15768      12495.016    
     22900   45.8           816.82804      94.919396      388.39201      14934.833    
     23000   46             862.78622      100.25996      391.65853      13003.97     
     23100   46.2           830.69305      96.530578      390.28883      14173.384    
     23200   46.4           788.05892      91.576285      384.24909      14091.68     
     23300   46.6           771.50157      89.65224       381.40033      11506.178    
     23400   46.8           806.49151      93.718241      382.3362       14066.714    
     23500   47             794.94381      92.376342      386.56149      12991.296    
     23600   47.2           853.48938      99.179623      391.9447       14318.811    
     23700   47.4           834.94292      97.024434      391.05692      14390.812    
     23800   47.6           805.58745      93.613185      382.92373      9456.6792    
     23900   47.8           816.24542      94.851693      381.8664       14494.337    
     24000   48             814.85616      94.690254      382.19718      15527.424    
     24100   48.2           821.23719      95.431761      384.26442      9415.8003    
     24200   48.4           788.18144      91.590522      386.81682      15804.842    
     24300   48.6           812.28386      94.39134       390.61041      13594.01     
     24400   48.8           819.80048      95.264809      391.22436      12144.977    
     24500   49             792.88983      92.13766       384.36654      16015.957    
     24600   49.2           782.5765       90.939201      381.60582      11748.651    
     24700   49.4           792.86468      92.134738      383.64154      12403.259    
     24800   49.6           824.79999      95.845776      388.03837      14595.837    
     24900   49.8           845.55747      98.257896      389.23638      14756.913    
     25000   50             781.19999      90.779244      383.11813      11923.554    
     25100   50.2           784.12838      91.119537      378.99879      13264.171    
     25200   50.4           801.84938      93.178803      380.48725      13807.508    
     25300   50.6           829.25896      96.36393       384.65804      12415.678    
     25400   50.8           808.92019      94.000466      387.29485      13006.188    
     25500   51             804.92247      93.535911      386.2055       12816.311    
     25600   51.2           777.61122      90.362211      378.94587      14302.989    
     25700   51.4           748.49479      86.97874       377.017        15274.541    
     25800   51.6           781.94087      90.865338      380.8499       12225.805    
     25900   51.8           792.34749      92.074638      384.42082      14308.696    
     26000   52             792.80242      92.127503      386.51771      16803.577    
     26100   52.2           800.43794      93.014786      387.28575      14223.661    
     26200   52.4           823.61156      95.707675      384.18088      12851.747    
     26300   52.6           790.22679      91.828201      378.24799      14041.876    
     26400   52.8           792.45564      92.087205      378.43834      9812.1922    
     26500   53             787.58374      91.521066      383.392        15480.827    
     26600   53.2           808.21518      93.91854       386.70182      14318.873    
     26700   53.4           810.79517      94.218347      385.86643      14983.357    
     26800   53.6           813.27382      94.506378      383.90662      14361.961    
     26900   53.8           789.67643      91.764247      380.10178      12482.725    
     27000   54             782.94084      90.981539      375.51321      13749.259    
     27100   54.2           782.83707      90.96948       378.54118      13493.37     
     27200   54.4           789.24748      91.714401      384.17813      11491.494    
     27300   54.6           799.36813      92.89047       385.05074      15496.812    
     27400   54.8           796.74755      92.585946      386.05818      13501.815    
     27500   55             806.10086      93.672846      387.03601      14981.187    
     27600   55.2           792.5493       92.098089      387.29352      14087.323    
     27700   55.4           795.6292       92.455988      384.64338      15050.762    
     27800   55.6           789.28933      91.719264      381.0485       12789.715    
     27900   55.8           804.41177      93.476565      380.63752      16129.865    
     28000   56             819.67839      95.250621      386.13314      15769.394    
     28100   56.2           824.30343      95.788074      389.61839      11021.996    
     28200   56.4           816.27032      94.854587      387.2964       14116.636    
     28300   56.6           798.66479      92.808738      383.85514      15357.282    
     28400   56.8           817.42875      94.989202      382.74973      11074.075    
     28500   57             786.11649      91.350565      381.66471      15435.081    
     28600   57.2           795.62894      92.455958      382.57654      15396.607    
     28700   57.4           841.40603      97.775479      387.11094      13690.09     
     28800   57.6           809.02689      94.012865      391.38934      17021.998    
     28900   57.8           813.50896      94.533703      390.25285      15472.777    
     29000   58             806.29572      93.69549       382.81368      16378.611    
     29100   58.2           792.29485      92.068521      381.69903      15841.246    
     29200   58.4           790.98376      91.916165      382.66724      12512.505    
     29300   58.6           802.86179      93.29645       385.99209      12043.838    
     29400   58.8           813.21136      94.499121      390.158        15517.843    
     29500   59             838.23499      97.406988      389.6458       13729.313    
     29600   59.2           804.82579      93.524676      381.40863      11877.603    
     29700   59.4           788.08889      91.579767      379.96085      17154.533    
     29800   59.6           761.80215      88.525121      381.61144      9813.9632    
     29900   59.8           814.09772      94.60212       386.55666      13542.909    
     30000   60             821.55329      95.468493      388.60868      16697.816    
     30100   60.2           817.3411       94.979016      386.71941      14157.355    
     30200   60.4           804.23696      93.456252      381.46226      11027.724    
     30300   60.6           759.88483      88.302318      375.85155      12722.075    
     30400   60.8           765.04176      88.901579      378.28124      15340.941    
     30500   61             828.43873      96.268615      383.54957      13351.378    
     30600   61.2           807.866        93.877963      387.52104      12917.603    
     30700   61.4           826.38923      96.030453      387.70629      15198.423    
     30800   61.6           818.29033      95.089322      383.44327      15211.304    
     30900   61.8           767.78916      89.22084       379.17974      12266.124    
     31000   62             783.25023      91.017492      380.08329      14655.544    
     31100   62.2           811.44614      94.293994      382.75535      12986.864    
     31200   62.4           784.10597      91.116933      385.18454      12542.961    
     31300   62.6           827.93162      96.209686      387.71865      14151.257    
     31400   62.8           801.88661      93.18313       387.03161      12752.074    
     31500   63             784.60037      91.174384      380.39249      10962.41     
     31600   63.2           790.19385      91.824374      378.84105      15322.504    
     31700   63.4           781.53037      90.817635      382.36383      12930.375    
     31800   63.6           841.39976      97.77475       387.23804      11177.994    
     31900   63.8           811.06933      94.250206      386.71678      17114.726    
     32000   64             783.51658      91.048442      386.02617      13659.603    
     32100   64.2           824.80001      95.845778      384.82781      13336.155    
     32200   64.4           787.51844      91.513478      378.62123      12579.175    
     32300   64.6           774.82218      90.03811       377.24432      12487.666    
     32400   64.8           796.54316      92.562195      382.37735      13201.065    
     32500   65             833.35336      96.839719      385.01267      13348.645    
     32600   65.2           777.96799      90.403669      384.64059      13961.454    
     32700   65.4           841.37631      97.772025      385.15541      13832.899    
     32800   65.6           794.25388      92.296169      384.74446      14512.884    
     32900   65.8           769.36648      89.404132      384.11585      12743.326    
     33000   66             806.53251      93.723005      386.2769       13461.684    
     33100   66.2           826.05504      95.991619      389.33559      13837.986    
     33200   66.4           797.68837      92.695273      387.49775      14934.406    
     33300   66.6           791.09204      91.928748      381.60629      15236.11     
     33400   66.8           788.94567      91.67933       379.95391      12353.204    
     33500   67             778.96742      90.519808      381.58792      12600.349    
     33600   67.2           788.64076      91.643898      383.9409       12201.091    
     33700   67.4           825.43281      95.919313      391.89019      14445.971    
     33800   67.6           811.03189      94.245856      393.67877      16242.189    
     33900   67.8           801.36645      93.122684      389.1245       17141.985    
     34000   68             787.82699      91.549334      385.03962      11149.536    
     34100   68.2           796.85234      92.598123      382.63183      16801.418    
     34200   68.4           770.20341      89.501387      381.67232      15442.688    
     34300   68.6           798.94583      92.841397      381.8906       14380.677    
     34400   68.8           780.96481      90.751914      383.69447      13382.408    
     34500   69             790.15974      91.82041       387.98344      14265.297    
     34600   69.2           807.90863      93.882918      389.69167      15333.557    
     34700   69.4           778.21748      90.432661      385.63237      15498.052    
     34800   69.6           784.43148      91.154758      380.96869      13717.671    
     34900   69.8           781.7155       90.839148      382.11481      13342.476    
     35000   70             800.53344      93.025884      383.92877      13876.892    
     35100   70.2           830.57725      96.517122      385.9222       12832.052    
     35200   70.4           800.21373      92.988733      390.27198      15031.958    
     35300   70.6           858.92531      99.811304      393.06902      13423.773    
     35400   70.8           789.57774      91.752779      387.01386      16075.769    
     35500   71             791.15185      91.935698      383.68613      13473.96     
     35600   71.2           770.98851      89.59262       382.05465      14313.43     
     35700   71.4           784.59831      91.174145      384.31115      13477.409    
     35800   71.6           830.6666       96.527504      390.06655      15099.922    
     35900   71.8           830.37856      96.494033      390.69293      12928.342    
     36000   72             813.4018       94.521251      387.86413      15482.935    
     36100   72.2           780.13845      90.655887      386.61656      12281.046    
     36200   72.4           803.97042      93.425278      386.17068      12105.246    
     36300   72.6           813.94105      94.583915      384.55771      12717.269    
     36400   72.8           789.10964      91.698383      380.05914      12122.688    
     36500   73             792.27206      92.065872      378.53719      13608.751    
     36600   73.2           805.24893      93.573848      385.40455      9892.2395    
     36700   73.4           831.87736      96.668201      388.84406      13486.508    
     36800   73.6           779.96698      90.635962      387.64655      15624.893    
     36900   73.8           782.47459      90.927358      384.40435      15496.932    
     37000   74             813.95138      94.585114      381.69466      15119.102    
     37100   74.2           801.9051       93.185278      382.69318      15430.008    
     37200   74.4           818.59892      95.125181      388.69183      15682.086    
     37300   74.6           813.99474      94.590153      390.11161      12723.232    
     37400   74.8           808.14008      93.909813      386.40622      11472.219    
     37500   75             786.48962      91.393925      382.02789      14736.67     
     37600   75.2           784.69639      91.185543      382.2356       12519.646    
     37700   75.4           780.23993      90.66768       384.84333      14523.334    
     37800   75.6           812.74175      94.44455       387.87698      17741.867    
     37900   75.8           811.31626      94.278901      390.65586      16294.985    
     38000   76             802.46223      93.250019      392.27329      16068.32     
     38100   76.2           832.20172      96.705893      389.82159      16206.734    
     38200   76.4           778.94728      90.517467      384.05908      16701.405    
     38300   76.6           804.88619      93.531696      382.12867      13040.236    
     38400   76.8           792.05721      92.040905      382.76036      16139.467    
     38500   77             786.06555      91.344645      387.5374       13809.831    
     38600   77.2           813.46448      94.528534      390.83879      12160.071    
     38700   77.4           804.61444      93.500117      387.40834      15798.016    
     38800   77.6           789.69837      91.766796      381.6668       13659.013    
     38900   77.8           782.69001      90.952391      382.21919      15274.33     
     39000   78             813.69047      94.554796      385.02616      15402.945    
     39100   78.2           795.46795      92.43725       387.33553      16030.149    
     39200   78.4           800.39038      93.00926       387.85416      14737.77     
     39300   78.6           781.75977      90.844293      383.86706      13020.991    
     39400   78.8           764.58299      88.848267      379.30156      15878.278    
     39500   79             785.45539      91.273742      380.74866      15203.658    
     39600   79.2           798.98704      92.846185      385.15374      12109.057    
     39700   79.4           804.64447      93.503607      388.55932      15287.094    
     39800   79.6           834.89522      97.018891      387.84032      14403.189    
     39900   79.8           785.56398      91.28636       385.87606      13930.742    
     40000   80             793.21217      92.175117      382.84735      14586.857    
     40100   80.2           800.35842      93.005546      380.80815      14102.076    
     40200   80.4           780.40618      90.686999      380.79694      16427.439    
     40300   80.6           778.85399      90.506627      385.81468      16651.458    
     40400   80.8           820.21536      95.313019      389.39598      12247.912    
     40500   81             810.85303      94.225071      387.27467      13522.327    
     40600   81.2           820.5206       95.34849       382.10031      12524.135    
     40700   81.4           775.37666      90.102544      380.83209      12411.965    
     40800   81.6           801.93223      93.188431      382.86545      12629.563    
     40900   81.8           789.83888      91.783125      385.59036      14229.222    
     41000   82             826.61274      96.056427      388.52123      14708.292    
     41100   82.2           804.36118      93.470686      389.43114      14181.327    
     41200   82.4           786.68741      91.416908      383.4501       14686.532    
     41300   82.6           780.4524       90.69237       380.34657      12674.197    
     41400   82.8           779.62922      90.596712      381.56214      11139.533    
     41500   83             793.43198      92.20066       385.85434      15413.321    
     41600   83.2           807.731        93.862277      388.88447      15132.967    
     41700   83.4           802.30518      93.23177       387.18873      14085.545    
     41800   83.6           773.19452      89.848969      381.08152      10034.588    
     41900   83.8           796.74228      92.585334      380.04112      15333.919    
     42000   84             789.14801      91.702842      381.85402      15330.213    
     42100   84.2           814.10888      94.603416      385.13608      13346.625    
     42200   84.4           846.94072      98.418637      388.81406      14456.086    
     42300   84.6           793.54961      92.214329      388.15804      15221.574    
     42400   84.8           808.25054      93.922649      380.44855      14018.442    
     42500   85             771.53038      89.655588      379.59475      14474.435    
     42600   85.2           786.1916       91.359292      383.70404      13166.327    
     42700   85.4           818.25376      95.085072      387.39772      13239.68     
     42800   85.6           799.2722       92.879323      387.31724      13283.581    
     42900   85.8           820.68147      95.367184      384.47571      12655.797    
     43000   86             792.92489      92.141734      377.37497      12812.829    
     43100   86.2           776.35244      90.215935      378.18112      13005.162    
     43200   86.4           811.60268      94.312184      382.5225       14776.381    
     43300   86.6           813.16018      94.493174      385.51976      13637.373    
     43400   86.8           820.40259      95.334776      386.83247      13814.491    
     43500   87             804.79409      93.520993      384.03595      15471.466    
     43600   87.2           776.95481      90.285933      377.83882      12770.631    
     43700   87.4           757.83607      88.064242      376.89246      11942.582    
     43800   87.6           748.74718      87.008069      379.4117       13468.684    
     43900   87.8           788.20964      91.593799      383.91894      16187.117    
     44000   88             805.68396      93.6244        386.16993      16208.057    
     44100   88.2           803.09473      93.323519      386.19987      13063.376    
     44200   88.4           783.78282      91.079381      382.51989      13498.336    
     44300   88.6           798.45685      92.784574      377.95559      12839.977    
     44400   88.8           781.40891      90.803521      380.09493      13820.073    
     44500   89             810.81067      94.220149      385.15247      11631.689    
     44600   89.2           816.68921      94.903264      386.41837      12706.057    
     44700   89.4           802.74339      93.282692      386.37147      13480.982    
     44800   89.6           820.06574      95.295633      385.6109       12874.375    
     44900   89.8           737.16175      85.661785      380.15188      14610.957    
     45000   90             771.21858      89.619355      378.00071      13359.874    
     45100   90.2           787.96013      91.564804      382.70569      10603.267    
     45200   90.4           798.69219      92.811922      386.37864      14467.703    
     45300   90.6           809.66124      94.086579      387.89225      14809.12     
     45400   90.8           804.02355      93.431452      387.35359      14835.606    
     45500   91             792.31774      92.07118       384.99382      14630.778    
     45600   91.2           795.3411       92.42251       379.30518      13132.947    
     45700   91.4           761.47097      88.486635      379.44231      15211.486    
     45800   91.6           814.01285      94.592257      383.96509      13330.979    
     45900   91.8           822.13748      95.536379      385.38187      15349.036    
     46000   92             791.29695      91.952559      384.79783      15804.272    
     46100   92.2           803.82947      93.408899      383.98004      11611.642    
     46200   92.4           818.74294      95.141918      383.69686      14770.644    
     46300   92.6           809.92361      94.117068      384.34986      13734.427    
     46400   92.8           810.32693      94.163936      386.18948      14589.562    
     46500   93             815.87911      94.809126      387.94065      12599.435    
     46600   93.2           785.3513       91.261646      385.67714      14462.089    
     46700   93.4           793.47873      92.206093      381.21272      13461.764    
     46800   93.6           763.34033      88.703864      379.20192      12903.711    
     46900   93.8           819.72093      95.255565      384.33194      16321.626    
     47000   94             812.59984      94.428059      388.85592      13377.31     
     47100   94.2           816.43038      94.873187      386.98894      13241.802    
     47200   94.4           776.76367      90.263722      383.08092      16864.278    
     47300   94.6           763.79038      88.756162      381.8339       16160.802    
     47400   94.8           778.7472       90.494217      383.82124      14166.874    
     47500   95             829.13881      96.349968      392.18328      15621.539    
     47600   95.2           803.77035      93.40203       391.81611      14603.66     
     47700   95.4           796.44691      92.55101       387.06153      13847.382    
     47800   95.6           792.59567      92.103477      383.70938      14870.303    
     47900   95.8           777.52069      90.351691      381.33684      13310.927    
     48000   96             789.58868      91.75405       380.98845      10621.442    
     48100   96.2           792.35777      92.075832      383.5436       14619.657    
     48200   96.4           798.09938      92.743035      389.16786      14577.459    
     48300   96.6           821.97437      95.517425      389.31689      14062.797    
     48400   96.8           792.47999      92.090034      383.67339      14501.49     
     48500   97             796.27344      92.530852      381.77354      12417.928    
     48600   97.2           800.82661      93.059953      382.92808      15318.678    
     48700   97.4           792.09143      92.044882      384.64027      14575.777    
     48800   97.6           825.67046      95.946929      389.28241      15370.487    
     48900   97.8           799.60251      92.917706      393.42388      13832.207    
     49000   98             853.62294      99.195143      389.48005      16999.828    
     49100   98.2           783.72203      91.072317      384.86559      12149.149    
     49200   98.4           815.37901      94.751013      384.33881      14031.305    
     49300   98.6           817.48067      94.995235      382.99411      13389.469    
     49400   98.8           788.38408      91.61407       380.42021      14388.52     
     49500   99             769.35267      89.402527      380.21805      12369.851    
     49600   99.2           811.51012      94.301429      386.406        14042.04     
     49700   99.4           808.25063      93.92266       388.46716      12990.545    
     49800   99.6           805.22947      93.571586      387.57282      12603.962    
     49900   99.8           775.06478      90.066302      381.90784      12510.342    
     50000   100            774.19624      89.965374      379.8684       15955.281    
     50100   100.2          768.4738       89.300398      381.95803      12931.723    
     50200   100.4          794.52947      92.328194      383.60769      11911.232    
     50300   100.6          813.90835      94.580115      384.80248      12243.405    
     50400   100.8          799.69986      92.929018      386.04514      14725.147    
     50500   101            819.33638      95.210878      389.1045       16073.873    
     50600   101.2          842.74762      97.931378      391.80536      13900.154    
     50700   101.4          814.70653      94.672866      387.09234      13910.072    
     50800   101.6          777.16502      90.310361      383.13         15877.468    
     50900   101.8          774.66835      90.020235      383.31172      12308.993    
     51000   102            799.99023      92.962762      386.58966      15473.263    
     51100   102.2          843.18247      97.98191       391.43872      16088.884    
     51200   102.4          831.67681      96.644896      393.1906       15458.998    
     51300   102.6          842.24024      97.872418      389.15005      16418.628    
     51400   102.8          768.02958      89.248777      383.25852      13612.677    
     51500   103            809.80712      94.103531      382.97415      14009.538    
     51600   103.2          825.97711      95.982563      385.29129      14531.992    
     51700   103.4          837.69196      97.343886      388.65605      12199.205    
     51800   103.6          827.81089      96.195657      392.25073      14503.165    
     51900   103.8          845.29281      98.227141      393.11145      13218.672    
     52000   104            797.68589      92.694985      385.79386      14696.483    
     52100   104.2          765.2588       88.926799      382.95053      15140.202    
     52200   104.4          787.2728       91.484934      383.70625      11629.82     
     52300   104.6          813.11109      94.487469      387.38719      15560.71     
     52400   104.8          831.34207      96.605997      390.27083      17118.599    
     52500   105            812.58856      94.426749      386.01359      13716.613    
     52600   105.2          773.43524      89.876941      381.14129      14834.034    
     52700   105.4          772.34899      89.750715      381.41745      18234.893    
     52800   105.6          787.60283      91.523284      385.24169      12616.256    
     52900   105.8          850.00322      98.774513      388.68919      15161.371    
     53000   106            780.62568      90.712506      385.91609      15935.475    
     53100   106.2          804.58682      93.496907      378.68998      12931.345    
     53200   106.4          783.82804      91.084636      379.00144      14265.196    
     53300   106.6          786.74329      91.423402      384.01429      13492.798    
     53400   106.8          837.3603       97.305345      386.69712      12704.705    
     53500   107            775.51151      90.118215      385.13747      14979.655    
     53600   107.2          793.33946      92.18991       383.72001      13494.612    
     53700   107.4          776.70148      90.256495      378.19436      15802.533    
     53800   107.6          748.16028      86.939869      374.88329      10996.331    
     53900   107.8          805.34622      93.585153      378.95202      12958.623    
     54000   108            800.84328      93.06189       382.40837      14583.595    
     54100   108.2          801.22574      93.106334      384.00929      12655.934    
     54200   108.4          796.44781      92.551115      386.64706      16069.113    
     54300   108.6          804.77097      93.518307      388.53572      15551.329    
     54400   108.8          800.78862      93.055538      388.65686      13680.929    
     54500   109            807.43068      93.827377      383.72486      16059.891    
     54600   109.2          791.2912       91.951891      380.06547      14641.392    
     54700   109.4          784.23589      91.13203       379.58393      13515.931    
     54800   109.6          806.93603      93.769897      385.06165      15080.977    
     54900   109.8          820.54723      95.351584      387.59076      16203.814    
     55000   110            817.24815      94.968216      386.48621      11281.637    
     55100   110.2          811.00639      94.242892      384.15444      14313.389    
     55200   110.4          823.64765      95.711869      382.77996      13597.786    
     55300   110.6          794.55638      92.331321      383.79517      12815.047    
     55400   110.8          842.8394       97.942044      392.0735       15628.729    
     55500   111            832.33928      96.721879      390.70882      13736.369    
     55600   111.2          813.89724      94.578823      385.59323      12989.709    
     55700   111.4          799.26861      92.878905      382.32345      12390.427    
     55800   111.6          779.16402      90.542654      382.2771       15401.419    
     55900   111.8          799.61378      92.919016      385.30449      14423.303    
     56000   112            849.92038      98.764888      391.32925      12837.863    
     56100   112.2          862.39164      100.21411      393.53868      15827.501    
     56200   112.4          815.01325      94.708509      385.50666      12889.394    
     56300   112.6          779.36416      90.565911      382.68102      14064.122    
     56400   112.8          771.26733      89.62502       381.03053      13070.94     
     56500   113            810.3422       94.165711      381.88238      12498.84     
     56600   113.2          810.69283      94.206455      385.22977      12988.889    
     56700   113.4          822.92744      95.628176      389.14314      11722.884    
     56800   113.6          819.21443      95.196706      388.75913      14496.876    
     56900   113.8          817.04773      94.944925      381.52625      13530.297    
     57000   114            797.58033      92.682719      379.4061       9616.3107    
     57100   114.2          777.89367      90.395033      382.52658      14455.384    
     57200   114.4          797.17382      92.635481      386.56789      14644.865    
     57300   114.6          774.00004      89.942574      386.80917      12311.876    
     57400   114.8          773.78759      89.917887      385.40065      12365.172    
     57500   115            761.83063      88.528429      377.90652      13774.498    
     57600   115.2          750.08876      87.163967      377.05985      13467.467    
     57700   115.4          766.21536      89.037956      381.83612      14471.354    
     57800   115.6          792.04042      92.038954      385.35975      12373.375    
     57900   115.8          847.51992      98.485943      387.92721      14129.645    
     58000   116            805.20145      93.568331      388.2898       16283.051    
     58100   116.2          826.48431      96.041502      386.12814      14525.785    
     58200   116.4          791.117        91.931648      380.19665      13468.298    
     58300   116.6          782.17479      90.892521      379.74184      12339.317    
     58400   116.8          828.8779       96.319648      384.23422      16292.378    
     58500   117            822.67671      95.599041      387.36731      14532.616    
     58600   117.2          820.9383       95.397029      387.07479      12629.478    
     58700   117.4          791.03262      91.921843      384.75914      14641.33     
     58800   117.6          812.37252      94.401643      383.29071      12822.594    
     58900   117.8          797.17217      92.635288      381.81331      13976.106    
     59000   118            757.20343      87.990726      379.9842       13122.934    
     59100   118.2          805.87869      93.647029      380.89661      14548.277    
     59200   118.4          800.02101      92.966338      384.78369      13615.316    
     59300   118.6          826.02678      95.988335      389.06951      14173.862    
     59400   118.8          844.3006       98.111841      389.07191      14660.973    
     59500   119            794.65225      92.342462      383.90693      16683.387    
     59600   119.2          780.34532      90.679927      380.92053      11317.957    
     59700   119.4          770.81289      89.572212      382.51646      13490.561    
     59800   119.6          730.17733      84.850162      384.51463      15876.594    
     59900   119.8          802.45758      93.249479      386.90665      14013.232    
     60000   120            809.89626      94.11389       387.10937      13001.141    
     60100   120.2          787.15594      91.471354      381.34916      14053.661    
     60200   120.4          794.21231      92.291339      377.94864      12543.668    
     60300   120.6          797.1318       92.630598      381.00098      13994.499    
     60400   120.8          810.25279      94.15532       385.31851      14591.335    
     60500   121            813.24481      94.503008      385.53037      14984.077    
     60600   121.2          806.82896      93.757455      384.34251      13896.86     
     60700   121.4          745.2027       86.596184      378.10043      13921.507    
     60800   121.6          780.92174      90.746909      376.10786      12881.957    
     60900   121.8          784.4957       91.162221      380.19088      12977.9      
     61000   122            818.50347      95.114089      383.52575      13612.245    
     61100   122.2          790.7889       91.893522      384.70462      13481.395    
     61200   122.4          791.62434      91.990603      385.83344      14602.349    
     61300   122.6          802.43246      93.24656       387.39586      14256.575    
     61400   122.8          843.90702      98.066105      389.43129      13941.316    
     61500   123            816.54073      94.88601       386.47667      14145.031    
     61600   123.2          807.94041      93.886611      381.68463      11731.79     
     61700   123.4          779.59549      90.592792      380.20731      13364.767    
     61800   123.6          805.91942      93.651761      382.9303       13907.062    
     61900   123.8          817.30943      94.975337      389.83328      12345.35     
     62000   124            842.85641      97.94402       389.39033      11467.216    
     62100   124.2          776.45477      90.227826      385.45795      12751.719    
     62200   124.4          777.70168      90.372723      382.38097      12163.211    
     62300   124.6          786.18388      91.358396      380.99301      12821.33     
     62400   124.8          793.99063      92.265578      383.4462       15371.01     
     62500   125            827.81261      96.195857      388.49652      14838.056    
     62600   125.2          807.03632      93.781551      388.83725      15620.193    
     62700   125.4          773.10363      89.838408      383.46161      13240.413    
     62800   125.6          819.55712      95.236528      380.49319      14797.675    
     62900   125.8          767.91532      89.2355        380.45954      11960.817    
     63000   126            790.03647      91.806086      383.67507      12894.322    
     63100   126.2          822.5429       95.583491      385.27065      16096.2      
     63200   126.4          810.71466      94.208992      385.06437      13710.818    
     63300   126.6          794.16558      92.285908      383.29714      12259.606    
     63400   126.8          772.91692      89.816711      378.99823      12237.051    
     63500   127            742.51256      86.283576      373.97113      12197.766    
     63600   127.2          752.58704      87.45428       377.65815      13908.609    
     63700   127.4          802.29754      93.230882      382.28031      13717.861    
     63800   127.6          795.8482       92.481437      383.39897      13820.341    
     63900   127.8          795.12835      92.397787      385.70029      13678.751    
     64000   128            814.20679      94.614794      388.3617       12890.523    
     64100   128.2          845.16379      98.212148      390.69219      14001.04     
     64200   128.4          814.83935      94.688301      385.96117      15766.449    
     64300   128.6          788.63586      91.643327      381.79618      12860.521    
     64400   128.8          780.28966      90.673459      381.35997      15874.286    
     64500   129            820.79038      95.379839      383.95967      15860.387    
     64600   129.2          829.74432      96.420331      389.99844      15569.195    
     64700   129.4          819.01974      95.174083      389.41473      15557.646    
     64800   129.6          792.33416      92.073088      383.00184      14622.272    
     64900   129.8          773.30425      89.86172       381.39408      13122.5      
     65000   130            783.72594      91.072772      382.72991      11799.283    
     65100   130.2          797.92506      92.722778      385.27733      14462.423    
     65200   130.4          817.01072      94.940624      387.40431      14132.401    
     65300   130.6          807.9756       93.8907        389.7717       14874.187    
     65400   130.8          819.78585      95.263108      389.22027      13511.058    
     65500   131            780.42029      90.688638      383.24754      16663.075    
     65600   131.2          770.91024      89.583525      380.75487      12966.118    
     65700   131.4          789.39701      91.731778      381.19506      14071.159    
     65800   131.6          806.10452      93.673272      386.39967      15381.688    
     65900   131.8          815.13668      94.722853      390.49785      16731.054    
     66000   132            808.65157      93.969251      388.99665      12258.265    
     66100   132.2          794.37         92.309663      386.09245      12607.083    
     66200   132.4          819.40638      95.219012      383.39315      15990.875    
     66300   132.6          789.2624       91.716135      380.88684      10831.604    
     66400   132.8          788.84724      91.667891      381.39974      13224.048    
     66500   133            803.29851      93.347199      381.9496       14956.969    
     66600   133.2          818.63611      95.129503      383.63392      10418.347    
     66700   133.4          845.24238      98.221281      385.77552      12985.549    
     66800   133.6          812.93571      94.467088      386.69836      17016.475    
     66900   133.8          782.73244      90.957322      386.30211      11356.946    
     67000   134            791.05616      91.924578      382.57975      17749.837    
     67100   134.2          803.84484      93.410685      380.88343      16002.463    
     67200   134.4          798.34868      92.772005      380.2584       13087.538    
     67300   134.6          827.97307      96.214503      385.78592      13874.996    
     67400   134.8          820.04086      95.292741      388.76486      13991.397    
     67500   135            796.65609      92.575318      388.23112      14835.399    
     67600   135.2          781.87474      90.857653      382.20329      13544.791    
     67700   135.4          809.30852      94.045592      380.01865      13166.694    
     67800   135.6          811.23394      94.269335      382.18716      14891.345    
     67900   135.8          802.86266      93.296551      385.05344      12990.46     
     68000   136            801.40767      93.127474      387.85472      16201.715    
     68100   136.2          845.06196      98.200315      391.3867       13782.41     
     68200   136.4          829.47835      96.389424      392.62628      12050.854    
     68300   136.6          807.09884      93.788817      386.40741      13518.947    
     68400   136.8          779.67268      90.601763      382.76034      11558.169    
     68500   137            793.50134      92.20872       382.15291      11450.623    
     68600   137.2          816.26782      94.854297      383.39535      13233.217    
     68700   137.4          810.46648      94.180152      387.59426      15130.201    
     68800   137.6          823.64086      95.711079      390.56528      11211.186    
     68900   137.8          800.05062      92.969779      386.46414      16484.131    
     69000   138            793.92369      92.2578        381.11083      14413.688    
     69100   138.2          788.10503      91.581643      381.18299      14518.303    
     69200   138.4          787.21871      91.478648      384.77871      15584.386    
     69300   138.6          819.6342       95.245486      388.12282      13989.704    
     69400   138.8          841.37564      97.771947      387.33671      15037.694    
     69500   139            798.50051      92.789648      385.67457      13653.414    
     69600   139.2          806.59364      93.73011       385.26835      13347.413    
     69700   139.4          784.82677      91.200693      384.4643       14858.666    
     69800   139.6          806.72585      93.745473      384.42158      12585.338    
     69900   139.8          762.12115      88.56219       382.55498      15988.303    
     70000   140            800.43575      93.014533      381.68823      13920.373    
     70100   140.2          781.03984      90.760634      382.70062      13673.754    
     70200   140.4          834.40306      96.9617        387.36619      13398.564    
     70300   140.6          808.26568      93.924409      389.16674      12614.912    
     70400   140.8          778.36111      90.449352      385.00777      11677.132    
     70500   141            745.39491      86.618519      379.23267      13840.141    
     70600   141.2          773.5676       89.892323      380.65117      13599.086    
     70700   141.4          806.15793      93.679477      385.18797      15417.64     
     70800   141.6          820.33749      95.327212      388.07311      16098.076    
     70900   141.8          813.75445      94.56223       387.77315      14889.274    
     71000   142            801.88051      93.182421      384.81803      15574.097    
     71100   142.2          764.8289       88.876843      378.09617      14287.61     
     71200   142.4          759.09679      88.210744      378.02215      16532.243    
     71300   142.6          813.88801      94.577751      381.23298      10889.126    
     71400   142.8          806.80807      93.755027      384.20461      14894.283    
     71500   143            833.03107      96.802267      386.63035      13645.454    
     71600   143.2          827.94684      96.211456      386.1641       14478.606    
     71700   143.4          783.64307      91.063141      378.50073      14843.054    
     71800   143.6          764.30914      88.816444      378.02831      11647.827    
     71900   143.8          828.37479      96.261185      382.47835      12359.551    
     72000   144            805.23543      93.572278      385.83222      14587.317    
     72100   144.2          803.1428       93.329104      386.53689      14173.747    
     72200   144.4          808.39052      93.938916      384.62642      12145.055    
     72300   144.6          747.82338      86.900718      378.17743      12951.344    
     72400   144.8          751.67372      87.348148      377.06616      13948.86     
     72500   145            804.01952      93.430984      379.70176      11089.318    
     72600   145.2          776.30212      90.210087      382.79386      12583.105    
     72700   145.4          813.0844       94.484367      385.98776      15112.642    
     72800   145.6          822.38395      95.56502       386.85244      14489.878    
     72900   145.8          802.96574      93.30853       383.68843      13339.93     
     73000   146            712.30638      82.77347       377.43456      14448.342    
     73100   146.2          761.78764      88.523434      379.6496       12698.2      
     73200   146.4          793.00637      92.151203      383.75226      16206.806    
     73300   146.6          794.28188      92.299423      385.63908      10076.627    
     73400   146.8          787.65606      91.52947       386.16469      16336.326    
     73500   147            777.37012      90.334194      383.7778       11884.132    
     73600   147.2          794.11889      92.280482      377.3733       11124.555    
     73700   147.4          779.76968      90.613034      375.99678      13438.995    
     73800   147.6          782.17679      90.892752      380.19129      14191.927    
     73900   147.8          790.54909      91.865655      383.31427      14156.394    
     74000   148            795.33332      92.421605      385.6916       11155.956    
     74100   148.2          827.13066      96.116611      387.79919      16201.189    
     74200   148.4          791.34738      91.95842       385.76325      11576.67     
     74300   148.6          793.81454      92.245116      379.20329      11719.258    
     74400   148.8          789.35647      91.727066      378.7657       14289.737    
     74500   149            791.40883      91.96556       382.70335      13430.584    
     74600   149.2          822.66548      95.597736      385.85156      14078.14     
     74700   149.4          828.31068      96.253736      386.04868      14568.633    
     74800   149.6          815.95101      94.817482      384.97768      14215.947    
     74900   149.8          783.39438      91.034242      383.46645      12849.566    
     75000   150            804.64978      93.504224      383.21258      15045.972    
     75100   150.2          810.14981      94.143353      382.05399      14033.825    
     75200   150.4          786.34125      91.376683      382.20241      12330.456    
     75300   150.6          808.61166      93.964613      385.12673      14959.26     
     75400   150.8          805.99487      93.660529      387.35527      14914.897    
     75500   151            760.52179      88.376336      386.29827      13552.522    
     75600   151.2          759.10995      88.212273      381.10747      15220.607    
     75700   151.4          773.10067      89.838064      378.94307      13291.364    
     75800   151.6          807.23515      93.804656      382.29153      12270.378    
     75900   151.8          787.86991      91.55432       386.87294      14814.132    
     76000   152            802.73172      93.281336      387.03986      14275.827    
     76100   152.2          780.30812      90.675604      385.93809      13005.506    
     76200   152.4          808.25861      93.923587      382.47593      13644.647    
     76300   152.6          771.83378      89.690844      378.72522      16302.63     
     76400   152.8          782.84088      90.969923      378.22992      12586.306    
     76500   153            802.78223      93.287205      385.40735      13262.877    
     76600   153.2          842.24723      97.87323       388.21724      15000.87     
     76700   153.4          815.9271       94.814703      386.00423      15346.778    
     76800   153.6          801.0486       93.085749      381.75713      13766.575    
     76900   153.8          770.46469      89.53175       379.24896      12407.639    
     77000   154            771.85012      89.692744      380.61644      15744.381    
     77100   154.2          810.9341       94.234491      388.54601      12345.902    
     77200   154.4          807.07549      93.786102      388.96179      14134.531    
     77300   154.6          811.73893      94.328018      384.25088      15279.304    
     77400   154.8          790.69423      91.88252       381.33855      14470.137    
     77500   155            792.294        92.068421      382.5312       13772.262    
     77600   155.2          783.67641      91.067016      386.74623      13580.603    
     77700   155.4          873.85809      101.54657      393.11296      13303.382    
     77800   155.6          839.4047       97.542915      391.39928      14211.861    
     77900   155.8          807.83072      93.873864      387.85655      13967.787    
     78000   156            807.41598      93.82567       384.13019      15242.119    
     78100   156.2          776.78076      90.265708      381.22898      12094.833    
     78200   156.4          761.81139      88.526194      381.85271      13678.118    
     78300   156.6          821.87125      95.505442      389.4532       16068.288    
     78400   156.8          833.03189      96.802363      390.53539      12178.5      
     78500   157            812.30261      94.393519      386.48698      14511.556    
     78600   157.2          795.31539      92.419522      382.77483      12984.879    
     78700   157.4          813.46494      94.528588      382.46891      12691.22     
     78800   157.6          792.13064      92.049438      383.61613      12028.165    
     78900   157.8          795.39325      92.42857       387.98886      12821.271    
     79000   158            852.74869      99.093551      393.02674      14563.292    
     79100   158.2          824.13049      95.767977      389.30825      14756.69     
     79200   158.4          816.45817      94.876416      384.87304      13972.914    
     79300   158.6          807.82031      93.872655      383.58419      12349.546    
     79400   158.8          773.18169      89.847478      383.82606      13691.347    
     79500   159            800.17188      92.98387       388.05659      12556.289    
     79600   159.2          829.39726      96.380001      392.7852       14310.589    
     79700   159.4          834.6589       96.99143       391.12136      15996.781    
     79800   159.6          801.48951      93.136985      384.11173      13572.544    
     79900   159.8          801.17368      93.100284      382.96625      12117.671    
     80000   160            819.46468      95.225787      383.50756      11258.316    
     80100   160.2          805.06605      93.552596      384.6387       12368.615    
     80200   160.4          819.87295      95.273229      388.17666      12566.883    
     80300   160.6          851.43592      98.941         390.3362       12185.201    
     80400   160.8          805.73528      93.630364      386.72117      11823.578    
     80500   161            778.81416      90.501998      381.22606      14293.192    
     80600   161.2          806.2397       93.688979      380.70151      14945.847    
     80700   161.4          793.96117      92.262155      384.01102      14250.451    
     80800   161.6          818.78926      95.1473        388.53909      15645.062    
     80900   161.8          825.21847      95.894405      389.14001      16221.537    
     81000   162            805.69971      93.62623       387.48571      12455.841    
     81100   162.2          790.80881      91.895835      383.873        15303.398    
     81200   162.4          798.26572      92.762365      381.25878      14111.852    
     81300   162.6          753.54933      87.566102      381.19351      11938.417    
     81400   162.8          799.12417      92.862121      386.15638      12291.566    
     81500   163            831.82229      96.661801      390.56091      15182.133    
     81600   163.2          810.13827      94.142013      387.93929      13251.225    
     81700   163.4          775.6912       90.139095      383.76928      14677.29     
     81800   163.6          794.05579      92.27315       382.06671      12550.076    
     81900   163.8          775.93158      90.167029      383.68898      12853.998    
     82000   164            842.70511      97.926438      388.91535      10810.247    
     82100   164.2          854.26122      99.269314      395.56315      15332.747    
     82200   164.4          808.05073      93.89943       391.22334      12509.138    
     82300   164.6          818.11894      95.069405      386.15038      12481.062    
     82400   164.8          774.00231      89.942838      382.94838      14834.469    
     82500   165            800.92997      93.071963      382.07981      12101.842    
     82600   165.2          785.94659      91.330821      384.65671      14579.839    
     82700   165.4          838.52741      97.440969      390.87736      13745.958    
     82800   165.6          819.41506      95.220021      390.44405      13481.247    
     82900   165.8          786.03249      91.340803      386.73771      14396.821    
     83000   166            793.71582      92.233644      384.9446       13401.828    
     83100   166.2          806.12869      93.67608       385.63469      16526.38     
     83200   166.4          794.7109       92.349277      385.41927      13401.871    
     83300   166.6          806.3489       93.70167       385.98705      14835.69     
     83400   166.8          804.35339      93.469782      388.49558      14653.363    
     83500   167            824.36903      95.795697      394.05128      15853.697    
     83600   167.2          808.36515      93.935967      390.53787      14758.875    
     83700   167.4          806.30505      93.696573      386.25622      15738.201    
     83800   167.6          801.16342      93.099091      383.85981      15647.181    
     83900   167.8          784.01103      91.1059        382.11484      16346.896    
     84000   168            817.89004      95.042806      383.63106      13578.703    
     84100   168.2          836.92974      97.255312      390.49628      15986.656    
     84200   168.4          831.81546      96.661008      392.28701      14935.368    
     84300   168.6          832.23919      96.710247      387.40701      13738.004    
     84400   168.8          799.63568      92.92156       384.10021      13183.155    
     84500   169            777.18445      90.312618      383.59128      15395.565    
     84600   169.2          806.87869      93.763233      384.74531      15467.452    
     84700   169.4          838.03034      97.383207      387.36484      12968.672    
     84800   169.6          836.18697      97.168998      389.89947      15376.697    
     84900   169.8          805.36661      93.587523      389.09996      15963.957    
     85000   170            822.35949      95.562178      383.0161       15706.73     
     85100   170.2          774.51094      90.001943      381.0284       12253.011    
     85200   170.4          798.08148      92.740955      382.25702      13941.892    
     85300   170.6          809.57983      94.077119      387.13296      12159.982    
     85400   170.8          840.37218      97.65534       389.64809      11800.504    
     85500   171            795.00625      92.383599      387.80663      16726.583    
     85600   171.2          832.27337      96.714219      385.8798       15156.617    
     85700   171.4          793.75558      92.238264      383.26318      13450.755    
     85800   171.6          815.51273      94.766551      381.9245       16416.725    
     85900   171.8          801.12148      93.094218      380.82664      14623.532    
     86000   172            779.64912      90.599025      378.21728      12868.635    
     86100   172.2          781.16922      90.775668      380.32497      12859.86     
     86200   172.4          824.58609      95.820919      385.85276      15584.295    
     86300   172.6          817.07721      94.948351      387.73704      17259.374    
     86400   172.8          791.41228      91.965961      385.40921      12656.301    
     86500   173            768.992        89.360616      381.4133       14009.409    
     86600   173.2          797.15956      92.633823      380.72644      13038.57     
     86700   173.4          813.99682      94.590395      381.81137      13595.584    
     86800   173.6          791.39397      91.963834      383.25815      13067.476    
     86900   173.8          821.09638      95.415399      385.11085      15012.498    
     87000   174            798.63892      92.805733      388.48047      15657.713    
[...]
    478600   957.2          778.28817      90.440876      384.92212      14890.161    
    478700   957.4          809.22308      94.035663      384.6939       11767.414    
    478800   957.6          799.99585      92.963414      383.9798       12620.335    
    478900   957.8          783.1898       91.010469      383.55045      15308.488    
    479000   958            787.39201      91.498786      383.60424      15923.024    
    479100   958.2          816.74513      94.909762      386.08974      12041.407    
    479200   958.4          811.60545      94.312506      387.89332      13982.169    
    479300   958.6          838.1453       97.396566      387.06957      12774.349    
    479400   958.8          791.70721      92.000233      382.45582      14016.985    
    479500   959            742.36215      86.266098      379.10552      12829.219    
    479600   959.2          782.53309      90.934156      381.61644      11463.606    
    479700   959.4          811.28372      94.27512       387.94438      17580.877    
    479800   959.6          815.31974      94.744125      388.18822      16994.465    
    479900   959.8          814.61199      94.66188       385.18405      12977.586    
    480000   960            772.90919      89.815812      382.32233      15000.634    
    480100   960.2          765.57979      88.9641        381.39231      14421.984    
    480200   960.4          801.65319      93.156005      386.18584      13086.381    
    480300   960.6          841.23547      97.755659      390.65779      15112.164    
    480400   960.8          840.80002      97.705057      387.58679      14564.009    
    480500   961            786.95436      91.44793       383.64731      13254.806    
    480600   961.2          798.6276       92.804417      383.57191      15139.907    
    480700   961.4          782.39263      90.917834      382.51495      14864.197    
    480800   961.6          769.41423      89.409681      379.93196      14224.192    
    480900   961.8          780.25803      90.669783      376.79087      12704.392    
    481000   962            791.12538      91.932622      378.94854      14677.533    
    481100   962.2          784.14596      91.12158       384.62277      14579.656    
    481200   962.4          801.31353      93.116535      386.6952       12548.887    
    481300   962.6          784.21779      91.129926      386.09657      16289.178    
    481400   962.8          790.59747      91.871276      383.38833      15257.155    
    481500   963            764.0028       88.780846      377.22623      13040.726    
    481600   963.2          775.95228      90.169435      377.79963      14608.196    
    481700   963.4          786.56553      91.402746      381.93293      12976.292    
    481800   963.6          783.76258      91.077029      383.87493      13430.277    
    481900   963.8          790.63888      91.876088      385.75549      14981.093    
    482000   964            802.57277      93.262865      387.75855      18111.295    
    482100   964.2          799.20038      92.870976      388.24179      12140.164    
    482200   964.4          780.24036      90.66773       383.01375      12091.245    
    482300   964.6          796.2103       92.523515      379.78789      13251.343    
    482400   964.8          799.69581      92.928548      380.78416      13241.49     
    482500   965            809.92894      94.117687      387.09638      12982.522    
    482600   965.2          815.07759      94.715986      389.25254      14998.024    
    482700   965.4          807.48477      93.833663      386.22165      14806.46     
    482800   965.6          800.95516      93.07489       382.79534      11217.667    
    482900   965.8          785.84158      91.318619      381.69051      15653.561    
    483000   966            821.69469      95.484925      385.5275       14885.571    
    483100   966.2          830.34954      96.490661      392.64642      13573.514    
    483200   966.4          797.58283      92.683009      390.47303      16501.707    
    483300   966.6          797.76331      92.703981      385.91423      11449.617    
    483400   966.8          788.71333      91.65233       382.67103      13509.743    
    483500   967            789.37605      91.729341      381.96575      15243.868    
    483600   967.2          772.41252      89.758097      383.98381      12473.471    
    483700   967.4          827.9301       96.20951       391.26871      13611.786    
    483800   967.6          808.96482      94.005652      392.20969      14195.567    
    483900   967.8          812.10085      94.370074      387.67689      16000.699    
    484000   968            770.74102      89.56386       384.40858      14947.776    
    484100   968.2          808.02253      93.896153      384.87431      14372.922    
    484200   968.4          831.64389      96.641071      386.08521      15228.678    
    484300   968.6          837.50118      97.321717      388.96078      15882.917    
    484400   968.8          839.50218      97.554242      392.62449      15954.474    
    484500   969            838.02749      97.382876      389.42163      15919.228    
    484600   969.2          794.87574      92.368432      383.56618      14452.08     
    484700   969.4          800.48646      93.020425      383.18527      14375.203    
    484800   969.6          796.8722       92.600431      384.6519       12469.911    
    484900   969.8          817.35241      94.98033       388.42829      15614.275    
    485000   970            824.62934      95.825945      392.90444      14144.537    
    485100   970.2          839.71267      97.578703      392.73503      11608.182    
    485200   970.4          837.28965      97.297136      384.73817      14122.318    
    485300   970.6          794.3097       92.302656      382.54971      14456.282    
    485400   970.8          810.82269      94.221546      384.15142      12731.406    
    485500   971            795.75518      92.470628      388.46963      14480.09     
    485600   971.2          849.57265      98.724479      389.88166      15207.158    
    485700   971.4          778.79908      90.500246      382.8416       14170.564    
    485800   971.6          781.29118      90.789841      380.52842      13909.578    
    485900   971.8          797.22984      92.64199       382.59664      12643.053    
    486000   972            791.50825      91.977113      386.21168      12231.474    
    486100   972.2          789.66794      91.76326       387.74027      15247.053    
    486200   972.4          811.96561      94.354358      386.26491      12197.86     
    486300   972.6          773.28089      89.859006      379.64777      13098.87     
    486400   972.8          773.02795      89.829613      379.04658      13236.748    
    486500   973            796.74825      92.586027      383.49682      13716.893    
    486600   973.2          823.38526      95.681377      386.34993      13607.88     
    486700   973.4          803.51553      93.372418      385.53987      14775.297    
    486800   973.6          817.18968      94.96142       384.49462      12243.503    
    486900   973.8          776.43688      90.225747      383.4795       15182.583    
    487000   974            779.40521      90.570681      384.4156       15710.956    
    487100   974.2          814.65589      94.666982      384.98464      11904.411    
    487200   974.4          812.71534      94.441481      384.85169      14491.632    
    487300   974.6          802.95541      93.30733       385.53304      15555.249    
    487400   974.8          810.50096      94.184159      388.39497      12879.072    
    487500   975            803.07628      93.321375      389.84742      13577.199    
    487600   975.2          801.76222      93.168675      387.31398      14043.336    
    487700   975.4          779.64963      90.599084      383.05349      12165.515    
    487800   975.6          780.99424      90.755334      382.91802      14057.84     
    487900   975.8          769.55796      89.426383      387.35911      15366.493    
    488000   976            859.38916      99.865206      392.61695      14031.438    
    488100   976.2          826.06204      95.992433      388.96827      13864.75     
    488200   976.4          829.00442      96.334351      384.93273      15831.715    
    488300   976.6          783.73721      91.074081      383.41731      11280.583    
    488400   976.8          806.61609      93.732718      385.0071       12394.139    
    488500   977            806.20765      93.685256      390.03001      17361.372    
    488600   977.2          831.90064      96.670906      390.94928      14414.626    
    488700   977.4          794.95949      92.378165      383.22896      13586.852    
    488800   977.6          780.52773      90.701124      380.68672      15042.786    
    488900   977.8          799.64843      92.923042      382.03347      12547.565    
    489000   978            789.66078      91.762429      386.22543      13920.194    
    489100   978.2          801.32512      93.117881      389.16824      14670.001    
    489200   978.4          803.54373      93.375695      387.14471      14462.399    
    489300   978.6          777.79901      90.384033      379.69037      11444.699    
    489400   978.8          769.0577       89.36825       379.5019       11948.385    
    489500   979            803.80997      93.406634      383.72562      12398.227    
    489600   979.2          821.07088      95.412435      387.55647      13185.576    
    489700   979.4          814.24132      94.618807      387.84093      15346.728    
    489800   979.6          814.95282      94.701487      385.89724      12909.169    
    489900   979.8          821.32872      95.442397      384.358        14636.559    
    490000   980            799.6514       92.923387      384.53657      13301.852    
    490100   980.2          799.95497      92.958664      385.31984      13289.598    
    490200   980.4          824.65371      95.828777      386.47072      13761.554    
    490300   980.6          823.79154      95.728589      386.19784      12911.19     
    490400   980.8          812.1763       94.378842      382.83874      14395.8      
    490500   981            775.32102      90.096079      380.10489      11433.599    
    490600   981.2          790.33696      91.841004      382.29544      14768.48     
    490700   981.4          818.20673      95.079608      388.56886      16503.443    
    490800   981.6          823.31196      95.67286       388.96756      10985.231    
    490900   981.8          805.38149      93.589252      385.56069      13254.542    
    491000   982            790.40651      91.849087      382.79091      12487.177    
    491100   982.2          789.83361      91.782512      382.63045      11835.596    
    491200   982.4          796.91757      92.605703      383.67952      12612.83     
    491300   982.6          800.04014      92.968561      390.48596      17054.248    
    491400   982.8          835.32148      97.068424      393.70434      14691.062    
    491500   983            833.4286       96.848463      388.7981       12435.006    
    491600   983.2          819.44651      95.223676      384.89337      14291.038    
    491700   983.4          791.57033      91.984328      383.26321      11893.835    
    491800   983.6          824.41816      95.801406      383.56061      14137.119    
    491900   983.8          815.6501       94.782514      384.81         13735.188    
    492000   984            832.47208      96.73731       386.62462      14936.474    
    492100   984.2          810.74948      94.213038      388.03535      12800.436    
    492200   984.4          815.94252      94.816495      386.679        15008.303    
    492300   984.6          788.82359      91.665142      381.49153      13497.263    
    492400   984.8          790.55831      91.866726      379.44615      12156.027    
    492500   985            778.89893      90.511849      380.38568      15128.439    
    492600   985.2          816.08374      94.832905      388.30748      16738.208    
    492700   985.4          815.56641      94.772788      389.40866      15631.452    
    492800   985.6          803.57345      93.379148      386.13535      14589.038    
    492900   985.8          836.52042      97.207747      381.99862      16623.853    
    493000   986            761.29999      88.466767      380.17352      14527.18     
    493100   986.2          798.7825       92.822417      380.70944      11699.095    
    493200   986.4          784.10483      91.1168        382.27497      15283.574    
    493300   986.6          837.10729      97.275944      390.00358      14800.832    
    493400   986.8          832.3899       96.72776       392.33627      13235.233    
    493500   987            810.33621      94.165014      388.42269      16525.586    
    493600   987.2          795.6375       92.456953      385.61568      12969.34     
    493700   987.4          776.7301       90.259821      384.27947      14643.96     
    493800   987.6          806.76743      93.750304      385.5908       15043.549    
    493900   987.8          795.86251      92.4831        389.15342      14555.937    
    494000   988            835.5401       97.093829      391.58552      14633.548    
    494100   988.2          821.23467      95.431469      387.59691      15109.216    
    494200   988.4          801.2397       93.107956      382.63437      14267.09     
    494300   988.6          783.3487       91.028935      382.3931       13817.305    
    494400   988.8          797.89917      92.719769      384.75696      13965.028    
    494500   989            837.09696      97.274744      388.51401      14829.304    
    494600   989.2          846.87811      98.411361      395.08972      16184.024    
    494700   989.4          858.54708      99.767352      395.89038      14304.505    
    494800   989.6          813.9717       94.587476      387.32551      13860.253    
    494900   989.8          787.31861      91.490257      383.81768      14227.658    
    495000   990            793.5457       92.213875      381.74245      13585.729    
    495100   990.2          794.77971      92.357273      382.14358      15498.967    
    495200   990.4          816.17447      94.843449      385.48522      16347.189    
    495300   990.6          809.03628      94.013956      388.54785      14447.77     
    495400   990.8          839.8851       97.59874       389.91019      14497.465    
    495500   991            827.54519      96.164781      386.92262      13513.322    
    495600   991.2          796.10747      92.511565      381.21002      13152.71     
    495700   991.4          796.96667      92.611409      380.13708      16455.304    
    495800   991.6          814.8235       94.686459      382.82306      14906.186    
    495900   991.8          829.96861      96.446394      388.46269      14832.024    
    496000   992            827.00747      96.102296      388.58381      15736.411    
    496100   992.2          804.68818      93.508685      385.48353      13223.763    
    496200   992.4          787.92713      91.56097       383.71782      14173.837    
    496300   992.6          795.15894      92.401341      382.71627      15287.712    
    496400   992.8          808.44621      93.945387      380.78697      13379.838    
    496500   993            780.39546      90.685754      375.91161      13895.465    
    496600   993.2          787.60691      91.523759      375.01529      12948.954    
    496700   993.4          795.83841      92.480299      380.86064      11632.351    
    496800   993.6          802.93562      93.30503       383.9135       14001.713    
    496900   993.8          783.40175      91.035099      385.23306      12762.587    
    497000   994            816.02951      94.826604      385.70027      13392.793    
    497100   994.2          776.21623      90.200107      384.82364      18124.822    
    497200   994.4          781.56212      90.821325      382.86334      11993.841    
    497300   994.6          781.28291      90.788879      379.97743      13083.037    
    497400   994.8          773.57626      89.89333       379.84881      14528.989    
    497500   995            791.60679      91.988564      384.34282      14613.498    
    497600   995.2          813.52733      94.535837      388.45547      15546.318    
    497700   995.4          803.81354      93.407049      386.87729      12292.104    
    497800   995.6          788.49343      91.626777      383.5443       14978.504    
    497900   995.8          816.16204      94.842004      381.55872      16085.219    
    498000   996            767.59343      89.198095      381.7803       10788.028    
    498100   996.2          798.77436      92.821471      384.24762      13419.278    
    498200   996.4          785.75423      91.308468      386.40258      14767.597    
    498300   996.6          828.27414      96.249489      389.69863      10461.153    
    498400   996.8          843.16119      97.979437      391.68194      13118.355    
    498500   997            809.08617      94.019754      386.14253      15864.797    
    498600   997.2          787.48922      91.510082      381.98639      13048.533    
    498700   997.4          766.00444      89.013447      380.52876      14417.488    
    498800   997.6          800.69972      93.045208      381.52994      13900.203    
    498900   997.8          846.34745      98.349696      386.42302      17322.808    
    499000   998            848.19814      98.564755      390.11415      14480.604    
    499100   998.2          801.01975      93.082396      387.89874      14113.607    
    499200   998.4          788.0967       91.580675      381.33645      12383.828    
    499300   998.6          777.26574      90.322064      380.35676      15198.475    
    499400   998.8          792.98725      92.14898       382.65902      13789.306    
    499500   999            807.36411      93.819642      386.91635      13117.615    
    499600   999.2          831.74446      96.652758      388.50663      12304.737    
    499700   999.4          819.19619      95.194588      387.29796      14193.598    
    499800   999.6          801.26673      93.111097      381.38352      13677.444    
    499900   999.8          775.14201      90.075276      376.88353      12156.944    
    500000   1000           778.61457      90.478806      380.12419      14428.483    
Loop time of 327.041 on 1 procs for 500000 steps with 900 atoms

Performance: 264.187 ns/day, 0.091 hours/ns, 1528.858 timesteps/s
54.2% CPU use with 1 MPI tasks x no OpenMP threads

MPI task timing breakdown:
Section |  min time  |  avg time  |  max time  |%varavg| %total
---------------------------------------------------------------
Pair    | 209.13     | 209.13     | 209.13     |   0.0 | 63.94
Neigh   | 105.63     | 105.63     | 105.63     |   0.0 | 32.30
Comm    | 3.9236     | 3.9236     | 3.9236     |   0.0 |  1.20
Output  | 2.1391     | 2.1391     | 2.1391     |   0.0 |  0.65
Modify  | 5.5399     | 5.5399     | 5.5399     |   0.0 |  1.69
Other   |            | 0.6806     |            |       |  0.21

Nlocal:            900 ave         900 max         900 min
Histogram: 1 0 0 0 0 0 0 0 0 0
Nghost:           2769 ave        2769 max        2769 min
Histogram: 1 0 0 0 0 0 0 0 0 0
Neighs:              0 ave           0 max           0 min
Histogram: 1 0 0 0 0 0 0 0 0 0
FullNghs:        96572 ave       96572 max       96572 min
Histogram: 1 0 0 0 0 0 0 0 0 0

Total # of neighbors = 96572
Ave neighs/atom = 107.30222
Neighbor list builds = 50000
Dangerous builds not checked

Total wall time: 0:05:46
