LAMMPS data file via write_data, version 4 May 2022, timestep = 41

32 atoms
3 atom types

0.002340217666695842 6.392208782333304 xlo xhi
-0.01870097034510325 22.1015789703451 ylo yhi
0.008647227371537563 5.173818772628467 zlo zhi
.319610439116665 0 0 xy xz yz
Masses

1 24.305
2 65.40900000000001
3 88.90600000000001

Atoms # atomic

1 1 0.12511691213409226 7.425452638313901 3.0746799039513397 0 0 0
2 1 3.320047302068608 7.425452260863717 3.0746800649423647 0 0 0
3 1 1.7225810286401644 6.507821324922626 0.49209092019138445 0 0 0
4 1 4.91751556267923 6.5078206347608605 0.4920907879771059 0 0 0
5 1 1.7225810812997011 10.190562271119736 3.074680122137354 0 0 0
6 1 4.917515699178491 10.190562850510531 3.074679801352911 0 0 0
7 1 0.12511679174289547 9.272882502462313 0.49209066013974817 0 0 0
8 1 3.32004743502146 9.272882700845454 0.49209067115800226 0 0 0
9 1 0.12511698089248582 12.955521376371044 3.0746794935330737 0 0 0
10 1 3.3200473760126767 12.955521543801122 3.0746796649514527 0 0 0
11 1 1.7225810560377801 15.720496803729203 3.074679047197197 0 0 0
12 1 4.917515486131035 15.72049736632068 3.074679182417465 0 0 0
13 1 0.12511703604442523 14.80289033734649 0.4920910812751708 0 0 0
14 1 1.722581082456444 12.037887995186644 0.4920906469835577 0 0 0
15 1 4.91751545967523 12.037886959595571 0.4920905303871994 0 0 0
16 1 3.3200473491218765 14.802890234760493 0.49209107024570686 0 0 0
17 1 0.12511675918480364 18.485546169054874 3.0746784378330205 0 0 0
18 1 3.3200473116253786 18.485546003512713 3.074678379007063 0 0 0
19 1 1.7225809288113456 21.25055950949865 3.074678445437232 0 0 0
20 1 4.917515704296251 21.250560678369645 3.0746785023762255 0 0 0
21 1 1.7225810527212393 17.567979015557857 0.49209123024141416 0 0 0
22 1 4.917515602124951 17.56797843128223 0.4920912755633461 0 0 0
23 1 0.12511696058531516 20.33289725684489 0.4920912797187233 0 0 0
24 1 3.3200473256472276 20.332897074552744 0.4920913492606975 0 0 0
25 1 0.12511687951010006 1.8952620959392912 3.074678029360085 0 0 0
26 1 3.3200474901040598 1.8952618978683402 3.0746774814456046 0 0 0
27 1 1.7225810997719775 0.977622140235353 0.4920915680321449 0 0 0
28 1 4.917515424048558 0.9776216375434064 0.4920914556356791 0 0 0
29 1 1.722581071479144 4.660351212180926 3.074678795343497 0 0 0
30 1 4.9175155345185555 4.660351962188557 3.074679002827927 0 0 0
31 1 0.12511704373150997 3.742709975474553 0.4920914631044273 0 0 0
32 1 3.320047232776227 3.742710348900481 0.4920915981318 0 0 0

Velocities

1 0 0 0
2 0 0 0
3 0 0 0
4 0 0 0
5 0 0 0
6 0 0 0
7 0 0 0
8 0 0 0
9 0 0 0
10 0 0 0
11 0 0 0
12 0 0 0
13 0 0 0
14 0 0 0
15 0 0 0
16 0 0 0
17 0 0 0
18 0 0 0
19 0 0 0
20 0 0 0
21 0 0 0
22 0 0 0
23 0 0 0
24 0 0 0
25 0 0 0
26 0 0 0
27 0 0 0
28 0 0 0
29 0 0 0
30 0 0 0
31 0 0 0
32 0 0 0
