ITEM: TIMESTEP
0
ITEM: NUMBER OF ATOMS
32
ITEM: BOX BOUNDS xy xz yz pp pp pp
-9.5987319946289062e-04 6.3977920413017273e+00 -0.0000000000000000e+00
-1.0525226593017578e-02 1.0923638880252838e+01 0.0000000000000000e+00
-5.8505058288574219e-02 2.0783891499042511e+01 5.3926824927330017e+00
ITEM: ATOMS id type xs ys zs fx fy fz
1 1 0.999986 0.60852 0.0597507 -2.02656e-06 0 0.00668693
2 1 0.499986 0.60852 0.0597507 2.02656e-06 0 0.00668705
3 1 0.249986 0.10852 0.0597507 1.19209e-07 0 0.00668871
4 1 0.749986 0.10852 0.0597507 -4.76837e-07 0 0.00668776
5 1 0.999986 0.365233 0.309751 1.19209e-07 0 2.47955e-05
6 1 0.249986 0.32021 0.184751 -9.53674e-07 0 -0.000172138
7 1 0.749986 0.32021 0.184751 8.34465e-07 0 -0.000173688
8 1 0.499986 0.365233 0.309751 1.07288e-06 0 2.55108e-05
9 1 0.999986 0.82021 0.184751 3.57628e-07 0 -0.000172257
10 1 0.249986 0.865233 0.309751 -2.02656e-06 0 2.28882e-05
11 1 0.499986 0.82021 0.184751 -2.38419e-07 0 -0.000174522
12 1 0.749986 0.865233 0.309751 1.43051e-06 0 2.32458e-05
13 1 0.999986 0.121946 0.559751 -2.38419e-06 0 1.90735e-06
14 1 0.499986 0.121946 0.559751 2.5034e-06 0 2.02656e-06
15 1 0.249986 0.621946 0.559751 -7.15256e-07 0 2.26498e-06
16 1 0.749986 0.621946 0.559751 8.34465e-07 0 2.86102e-06
17 1 0.249986 0.0769229 0.434751 4.76837e-07 0 -1.90735e-06
18 1 0.749986 0.076923 0.434751 -2.38419e-06 0 -2.14577e-06
19 1 0.999986 0.576923 0.434751 9.53674e-07 0 -1.78814e-06
20 1 0.499986 0.576923 0.434751 2.38419e-07 0 -1.43051e-06
21 1 0.999986 0.878659 0.809751 -2.38419e-07 0 0.000172019
22 1 0.249986 0.833636 0.684751 1.19209e-07 0 -2.38419e-05
23 1 0.499986 0.878659 0.809751 -7.15256e-07 0 0.000172734
24 1 0.749986 0.833636 0.684751 3.57628e-07 0 -2.57492e-05
25 1 0.999986 0.333636 0.684751 -7.15256e-07 0 -2.40803e-05
26 1 0.249986 0.378659 0.809751 3.57628e-07 0 0.00017345
27 1 0.749986 0.378659 0.809751 4.76837e-07 0 0.000172734
28 1 0.499986 0.333636 0.684751 3.57628e-07 0 -2.46763e-05
29 1 0.249986 0.590349 0.934751 -3.57628e-07 0 -0.00668859
30 1 0.749986 0.590349 0.934751 7.15256e-07 0 -0.00668514
31 1 0.999986 0.0903487 0.934751 -7.15256e-07 0 -0.00668728
32 1 0.499986 0.0903487 0.934751 5.96046e-07 0 -0.00668764
ITEM: TIMESTEP
1
ITEM: NUMBER OF ATOMS
32
ITEM: BOX BOUNDS xy xz yz pp pp pp
-9.5987319946289062e-04 6.3977920413017273e+00 -0.0000000000000000e+00
-1.0525226593017578e-02 1.0923638880252838e+01 0.0000000000000000e+00
-5.8505058288574219e-02 2.0783891499042511e+01 5.3926824927330017e+00
ITEM: ATOMS id type xs ys zs fx fy fz
1 1 0.999986 0.608438 0.0598347 0 0 1.34706e-05
2 1 0.499986 0.608438 0.0598347 -5.96046e-07 0 1.35899e-05
3 1 0.249986 0.108438 0.0598347 0 0 1.33514e-05
4 1 0.749986 0.108438 0.0598347 1.19209e-07 0 1.32322e-05
5 1 0.999986 0.365233 0.309751 2.38419e-07 0 5.98431e-05
6 1 0.249986 0.320212 0.184749 -1.19209e-07 0 0.00199747
7 1 0.749986 0.320212 0.184749 0 0 0.00199699
8 1 0.499986 0.365233 0.309751 -2.38419e-07 0 5.97239e-05
9 1 0.999986 0.820212 0.184749 1.19209e-07 0 0.00199723
10 1 0.249986 0.865233 0.309751 5.96046e-07 0 5.87702e-05
11 1 0.499986 0.820212 0.184749 1.19209e-07 0 0.00199747
12 1 0.749986 0.865233 0.309751 -4.76837e-07 0 5.8651e-05
13 1 0.999986 0.121946 0.559751 4.76837e-07 0 3.09944e-06
14 1 0.499986 0.121946 0.559751 -4.76837e-07 0 3.09944e-06
15 1 0.249986 0.621946 0.559751 4.76837e-07 0 3.69549e-06
16 1 0.749986 0.621946 0.559751 -3.57628e-07 0 3.33786e-06
17 1 0.249986 0.076923 0.434751 -7.15256e-07 0 -2.98023e-06
18 1 0.749986 0.076923 0.434751 3.57628e-07 0 -3.33786e-06
19 1 0.999986 0.576923 0.434751 -1.19209e-07 0 -3.57628e-06
20 1 0.499986 0.576923 0.434751 2.38419e-07 0 -2.98023e-06
21 1 0.999986 0.878657 0.809753 0 0 -0.00199723
22 1 0.249986 0.833636 0.68475 -2.38419e-07 0 -5.91278e-05
23 1 0.499986 0.878657 0.809753 -1.19209e-07 0 -0.00199711
24 1 0.749986 0.833636 0.68475 -2.38419e-07 0 -5.94854e-05
25 1 0.999986 0.333636 0.68475 4.76837e-07 0 -5.94854e-05
26 1 0.249986 0.378657 0.809753 1.19209e-07 0 -0.00199711
27 1 0.749986 0.378657 0.809753 -1.19209e-07 0 -0.00199735
28 1 0.499986 0.333636 0.68475 2.38419e-07 0 -5.93662e-05
29 1 0.249986 0.590431 0.934667 0 0 -1.40667e-05
30 1 0.749986 0.590431 0.934667 2.38419e-07 0 -1.29938e-05
31 1 0.999986 0.0904305 0.934667 1.19209e-07 0 -1.34706e-05
32 1 0.499986 0.0904305 0.934667 -1.19209e-07 0 -1.33514e-05
ITEM: TIMESTEP
2
ITEM: NUMBER OF ATOMS
32
ITEM: BOX BOUNDS xy xz yz pp pp pp
-9.5987319946289062e-04 6.3977920413017273e+00 -0.0000000000000000e+00
-1.0525226593017578e-02 1.0923638880252838e+01 0.0000000000000000e+00
-5.8505058288574219e-02 2.0783891499042511e+01 5.3926824927330017e+00
ITEM: ATOMS id type xs ys zs fx fy fz
1 1 0.999986 0.608424 0.0598496 2.38419e-07 0 -4.37498e-05
2 1 0.499986 0.608424 0.0598496 2.38419e-07 0 -4.3869e-05
3 1 0.249986 0.108424 0.0598496 -1.19209e-07 0 -4.33922e-05
4 1 0.749986 0.108424 0.0598496 -7.15256e-07 0 -4.29153e-05
5 1 0.999986 0.365231 0.309752 0 0 0.00115418
6 1 0.249986 0.320168 0.184794 0 0 -2.26498e-05
7 1 0.749986 0.320168 0.184794 -5.96046e-07 0 -2.15769e-05
8 1 0.499986 0.365231 0.309752 -1.19209e-07 0 0.00115359
9 1 0.999986 0.820168 0.184794 -2.38419e-07 0 -2.16961e-05
10 1 0.249986 0.865231 0.309752 1.19209e-07 0 0.0011543
11 1 0.499986 0.820168 0.184794 7.15256e-07 0 -2.13385e-05
12 1 0.749986 0.865231 0.309752 2.38419e-07 0 0.00115442
13 1 0.999986 0.121946 0.559751 4.76837e-07 0 -9.35793e-05
14 1 0.499986 0.121946 0.559751 -4.76837e-07 0 -9.32217e-05
15 1 0.249986 0.621946 0.559751 -1.19209e-07 0 -9.38177e-05
16 1 0.749986 0.621946 0.559751 4.76837e-07 0 -9.40561e-05
17 1 0.249986 0.076923 0.434751 4.76837e-07 0 9.33409e-05
18 1 0.749986 0.0769231 0.434751 -3.57628e-07 0 9.36985e-05
19 1 0.999986 0.576923 0.434751 2.38419e-07 0 9.38177e-05
20 1 0.499986 0.576923 0.434751 -7.15256e-07 0 9.32217e-05
21 1 0.999986 0.878701 0.809708 0 0 2.16961e-05
22 1 0.249986 0.833638 0.684749 2.38419e-07 0 -0.00115383
23 1 0.499986 0.878701 0.809708 0 0 2.19345e-05
24 1 0.749986 0.833637 0.684749 0 0 -0.00115371
25 1 0.999986 0.333638 0.684749 -2.38419e-07 0 -0.00115371
26 1 0.249986 0.378701 0.809708 -2.38419e-07 0 2.15769e-05
27 1 0.749986 0.378701 0.809708 0 0 2.11e-05
28 1 0.499986 0.333637 0.684749 0 0 -0.00115395
29 1 0.249986 0.590445 0.934652 1.19209e-07 0 4.44651e-05
30 1 0.749986 0.590445 0.934652 -2.38419e-07 0 4.3273e-05
31 1 0.999986 0.0904449 0.934652 7.15256e-07 0 4.33922e-05
32 1 0.499986 0.0904449 0.934652 -1.19209e-07 0 4.30346e-05
ITEM: TIMESTEP
3
ITEM: NUMBER OF ATOMS
32
ITEM: BOX BOUNDS xy xz yz pp pp pp
-9.5987319946289062e-04 6.3977920413017273e+00 -0.0000000000000000e+00
-1.0525226593017578e-02 1.0923638880252838e+01 0.0000000000000000e+00
-5.8505058288574219e-02 2.0783891499042511e+01 5.3926824927330017e+00
ITEM: ATOMS id type xs ys zs fx fy fz
1 1 0.999986 0.608419 0.0598543 -5.96046e-07 0 5.36442e-05
2 1 0.499986 0.608419 0.0598543 0 0 5.32866e-05
3 1 0.249986 0.108419 0.0598543 -3.57628e-07 0 5.32866e-05
4 1 0.749986 0.108419 0.0598543 7.15256e-07 0 5.28097e-05
5 1 0.999986 0.3652 0.309785 -2.38419e-07 0 -5.6982e-05
6 1 0.249986 0.320151 0.184811 0 0 -9.65595e-06
7 1 0.749986 0.320151 0.184811 9.53674e-07 0 -9.41753e-06
8 1 0.499986 0.3652 0.309785 -4.76837e-07 0 -5.65052e-05
9 1 0.999986 0.820151 0.184811 3.57628e-07 0 -1.00136e-05
10 1 0.249986 0.8652 0.309785 -1.19209e-07 0 -5.65052e-05
11 1 0.499986 0.820151 0.184811 -8.34465e-07 0 -1.00136e-05
12 1 0.749986 0.8652 0.309785 3.57628e-07 0 -5.59092e-05
13 1 0.999986 0.121948 0.559748 -4.76837e-07 0 -0.000695705
14 1 0.499986 0.121948 0.559748 3.57628e-07 0 -0.000695825
15 1 0.249986 0.621948 0.559748 4.76837e-07 0 -0.000695348
16 1 0.749986 0.621948 0.559748 -3.57628e-07 0 -0.000695586
17 1 0.249986 0.0769206 0.434753 1.19209e-07 0 0.000695586
18 1 0.749986 0.0769206 0.434753 1.19209e-07 0 0.000696063
19 1 0.999986 0.576921 0.434753 -3.57628e-07 0 0.000695944
20 1 0.499986 0.576921 0.434753 3.57628e-07 0 0.000695705
21 1 0.999986 0.878718 0.80969 -2.38419e-07 0 1.04904e-05
22 1 0.249986 0.833669 0.684717 -1.19209e-07 0 5.60284e-05
23 1 0.499986 0.878718 0.80969 3.57628e-07 0 1.03712e-05
24 1 0.749986 0.833669 0.684717 0 0 5.59092e-05
25 1 0.999986 0.333669 0.684717 3.57628e-07 0 5.60284e-05
26 1 0.249986 0.378718 0.80969 0 0 9.29832e-06
27 1 0.749986 0.378718 0.80969 1.19209e-07 0 1.03712e-05
28 1 0.499986 0.333669 0.684717 0 0 5.62668e-05
29 1 0.249986 0.59045 0.934647 -4.76837e-07 0 -5.38826e-05
30 1 0.749986 0.59045 0.934647 1.19209e-07 0 -5.37634e-05
31 1 0.999986 0.0904495 0.934647 -1.07288e-06 0 -5.30481e-05
32 1 0.499986 0.0904495 0.934647 9.53674e-07 0 -5.29289e-05
ITEM: TIMESTEP
4
ITEM: NUMBER OF ATOMS
32
ITEM: BOX BOUNDS xy xz yz pp pp pp
-9.5987319946289062e-04 6.3977920413017273e+00 -0.0000000000000000e+00
-1.0525226593017578e-02 1.0923638880252838e+01 0.0000000000000000e+00
-5.8505058288574219e-02 2.0783891499042511e+01 5.3926824927330017e+00
ITEM: ATOMS id type xs ys zs fx fy fz
1 1 0.999986 0.608418 0.0598559 1.19209e-07 0 7.27177e-06
2 1 0.499986 0.608418 0.0598559 -3.57628e-07 0 7.51019e-06
3 1 0.249986 0.108418 0.0598559 3.57628e-07 0 5.72205e-06
4 1 0.749986 0.108418 0.059856 1.19209e-07 0 6.31809e-06
5 1 0.999986 0.365195 0.30979 -4.76837e-07 0 -6.55651e-06
6 1 0.249986 0.320148 0.184814 0 0 1.26362e-05
7 1 0.749986 0.320148 0.184814 1.19209e-07 0 1.20401e-05
8 1 0.499986 0.365195 0.30979 4.76837e-07 0 -6.31809e-06
9 1 0.999986 0.820148 0.184814 3.57628e-07 0 1.14441e-05
10 1 0.249986 0.865195 0.30979 -3.57628e-07 0 -6.19888e-06
11 1 0.499986 0.820148 0.184815 -3.57628e-07 0 1.14441e-05
12 1 0.749986 0.865195 0.30979 -2.38419e-07 0 -6.31809e-06
13 1 0.999986 0.121959 0.559738 -4.76837e-07 0 3.57628e-07
14 1 0.499986 0.121959 0.559738 5.96046e-07 0 1.19209e-07
15 1 0.249986 0.621959 0.559738 -2.38419e-07 0 2.38419e-07
16 1 0.749986 0.621959 0.559738 -1.19209e-07 0 4.76837e-07
17 1 0.249986 0.0769103 0.434764 0 0 -2.38419e-07
18 1 0.749986 0.0769103 0.434764 0 0 -3.57628e-07
19 1 0.999986 0.57691 0.434764 0 0 -4.76837e-07
20 1 0.499986 0.57691 0.434764 7.15256e-07 0 -1.19209e-07
21 1 0.999986 0.878721 0.809687 0 0 -1.21593e-05
22 1 0.249986 0.833674 0.684711 -5.96046e-07 0 6.55651e-06
23 1 0.499986 0.878721 0.809687 0 0 -1.27554e-05
24 1 0.749986 0.833674 0.684711 5.96046e-07 0 6.55651e-06
25 1 0.999986 0.333674 0.684711 -1.19209e-07 0 5.96046e-06
26 1 0.249986 0.378721 0.809687 0 0 -1.20401e-05
27 1 0.749986 0.378721 0.809687 0 0 -1.15633e-05
28 1 0.499986 0.333674 0.684711 1.19209e-07 0 6.4373e-06
29 1 0.249986 0.590451 0.934645 1.19209e-07 0 -6.91414e-06
30 1 0.749986 0.590451 0.934645 -1.19209e-07 0 -7.03335e-06
31 1 0.999986 0.0904511 0.934645 -2.38419e-07 0 -6.07967e-06
32 1 0.499986 0.0904511 0.934645 0 0 -5.96046e-06
ITEM: TIMESTEP
5
ITEM: NUMBER OF ATOMS
32
ITEM: BOX BOUNDS xy xz yz pp pp pp
-9.5987319946289062e-04 6.3977920413017273e+00 -0.0000000000000000e+00
-1.0525226593017578e-02 1.0923638880252838e+01 0.0000000000000000e+00
-5.8505058288574219e-02 2.0783891499042511e+01 5.3926824927330017e+00
ITEM: ATOMS id type xs ys zs fx fy fz
1 1 0.999986 0.608417 0.0598561 -1.19209e-07 0 2.14577e-06
2 1 0.499986 0.608417 0.0598561 2.38419e-07 0 2.6226e-06
3 1 0.249986 0.108418 0.059856 0 0 2.38419e-06
4 1 0.749986 0.108418 0.0598561 -1.19209e-07 0 2.74181e-06
5 1 0.999986 0.365195 0.30979 1.19209e-07 0 5.60284e-06
6 1 0.249986 0.320148 0.184815 0 0 5.96046e-07
7 1 0.749986 0.320148 0.184815 0 0 8.34465e-07
8 1 0.499986 0.365195 0.30979 -1.19209e-07 0 5.72205e-06
9 1 0.999986 0.820148 0.184815 0 0 3.57628e-07
10 1 0.249986 0.865195 0.30979 0 0 5.72205e-06
11 1 0.499986 0.820148 0.184815 0 0 4.76837e-07
12 1 0.749986 0.865195 0.30979 0 0 5.48363e-06
13 1 0.999986 0.121959 0.559738 2.38419e-07 0 2.26498e-06
14 1 0.499986 0.121959 0.559738 -2.38419e-07 0 2.38419e-06
15 1 0.249986 0.621959 0.559738 2.38419e-07 0 1.78814e-06
16 1 0.749986 0.621959 0.559738 -2.38419e-07 0 2.26498e-06
17 1 0.249986 0.0769103 0.434764 1.19209e-07 0 -1.90735e-06
18 1 0.749986 0.0769103 0.434764 -1.19209e-07 0 -2.38419e-06
19 1 0.999986 0.57691 0.434764 2.38419e-07 0 -2.38419e-06
20 1 0.499986 0.57691 0.434764 -2.38419e-07 0 -2.26498e-06
21 1 0.999986 0.878721 0.809687 0 0 -2.38419e-07
22 1 0.249986 0.833674 0.684711 5.96046e-07 0 -5.84126e-06
23 1 0.499986 0.878721 0.809687 1.19209e-07 0 -3.57628e-07
24 1 0.749986 0.833674 0.684711 -3.57628e-07 0 -5.84126e-06
25 1 0.999986 0.333674 0.684711 -1.19209e-07 0 -5.60284e-06
26 1 0.249986 0.378721 0.809687 1.19209e-07 0 1.19209e-07
27 1 0.749986 0.378721 0.809687 -1.19209e-07 0 4.76837e-07
28 1 0.499986 0.333674 0.684711 -2.38419e-07 0 -5.96046e-06
29 1 0.249986 0.590451 0.934645 1.19209e-07 0 -2.98023e-06
30 1 0.749986 0.590451 0.934645 0 0 -2.38419e-06
31 1 0.999986 0.0904512 0.934645 1.19209e-07 0 -2.98023e-06
32 1 0.499986 0.0904512 0.934645 -2.38419e-07 0 -2.86102e-06
ITEM: TIMESTEP
6
ITEM: NUMBER OF ATOMS
32
ITEM: BOX BOUNDS xy xz yz pp pp pp
-9.5987319946289062e-04 6.3977920413017273e+00 -0.0000000000000000e+00
-1.0525226593017578e-02 1.0923638880252838e+01 0.0000000000000000e+00
-5.8505058288574219e-02 2.0783891499042511e+01 5.3926824927330017e+00
ITEM: ATOMS id type xs ys zs fx fy fz
1 1 0.999986 0.608417 0.0598561 0 0 -1.78814e-06
2 1 0.499986 0.608417 0.0598561 2.38419e-07 0 -1.90735e-06
3 1 0.249986 0.108418 0.0598561 0 0 -1.54972e-06
4 1 0.749986 0.108417 0.0598561 -1.19209e-07 0 -1.43051e-06
5 1 0.999986 0.365195 0.30979 1.19209e-07 0 1.3113e-06
6 1 0.249986 0.320148 0.184815 -1.19209e-07 0 1.07288e-06
7 1 0.749986 0.320148 0.184815 0 0 9.53674e-07
8 1 0.499986 0.365195 0.30979 -2.38419e-07 0 1.3113e-06
9 1 0.999986 0.820148 0.184815 -3.57628e-07 0 9.53674e-07
10 1 0.249986 0.865195 0.30979 2.38419e-07 0 1.43051e-06
11 1 0.499986 0.820148 0.184815 3.57628e-07 0 1.07288e-06
12 1 0.749986 0.865195 0.30979 -2.38419e-07 0 9.53674e-07
13 1 0.999986 0.121959 0.559738 1.19209e-07 0 -2.74181e-06
14 1 0.499986 0.121959 0.559738 -2.38419e-07 0 -2.86102e-06
15 1 0.249986 0.621959 0.559738 -7.15256e-07 0 -2.02656e-06
16 1 0.749986 0.621959 0.559738 3.57628e-07 0 -2.86102e-06
17 1 0.249986 0.0769103 0.434764 2.38419e-07 0 2.5034e-06
18 1 0.749986 0.0769104 0.434764 3.57628e-07 0 2.6226e-06
19 1 0.999986 0.57691 0.434764 -1.19209e-07 0 2.98023e-06
20 1 0.499986 0.57691 0.434764 0 0 2.6226e-06
21 1 0.999986 0.878721 0.809687 0 0 -1.3113e-06
22 1 0.249986 0.833674 0.684711 2.38419e-07 0 -1.54972e-06
23 1 0.499986 0.878721 0.809687 0 0 -1.19209e-06
24 1 0.749986 0.833674 0.684711 0 0 -1.07288e-06
25 1 0.999986 0.333674 0.684711 0 0 -1.3113e-06
26 1 0.249986 0.378721 0.809687 1.19209e-07 0 -1.07288e-06
27 1 0.749986 0.378721 0.809687 -1.19209e-07 0 -1.43051e-06
28 1 0.499986 0.333674 0.684711 -2.38419e-07 0 -1.19209e-06
29 1 0.249986 0.590451 0.934645 1.19209e-07 0 2.02656e-06
30 1 0.749986 0.590451 0.934645 0 0 2.14577e-06
31 1 0.999986 0.0904513 0.934645 1.19209e-07 0 1.66893e-06
32 1 0.499986 0.0904513 0.934645 -1.19209e-07 0 1.66893e-06
ITEM: TIMESTEP
7
ITEM: NUMBER OF ATOMS
32
ITEM: BOX BOUNDS xy xz yz pp pp pp
-9.5987319946289062e-04 6.3977920413017273e+00 -0.0000000000000000e+00
-1.0525226593017578e-02 1.0923638880252838e+01 0.0000000000000000e+00
-5.8505058288574219e-02 2.0783891499042511e+01 5.3926824927330017e+00
ITEM: ATOMS id type xs ys zs fx fy fz
1 1 0.999986 0.608417 0.0598561 3.57628e-07 0 2.38419e-07
2 1 0.499986 0.608417 0.0598561 -8.34465e-07 0 1.19209e-07
3 1 0.249986 0.108418 0.0598561 -2.38419e-07 0 8.34465e-07
4 1 0.749986 0.108417 0.0598561 7.15256e-07 0 -3.57628e-07
5 1 0.999986 0.365195 0.30979 0 0 1.19209e-07
6 1 0.249986 0.320148 0.184815 0 0 -1.19209e-06
7 1 0.749986 0.320148 0.184815 1.19209e-07 0 -7.15256e-07
8 1 0.499986 0.365195 0.30979 2.38419e-07 0 2.38419e-07
9 1 0.999986 0.820147 0.184815 5.96046e-07 0 -4.76837e-07
10 1 0.249986 0.865195 0.30979 -7.15256e-07 0 -1.19209e-07
11 1 0.499986 0.820147 0.184815 -4.76837e-07 0 -8.34465e-07
12 1 0.749986 0.865195 0.30979 4.76837e-07 0 8.34465e-07
13 1 0.999986 0.121959 0.559738 -4.76837e-07 0 -7.15256e-07
14 1 0.499986 0.121959 0.559738 7.15256e-07 0 -8.34465e-07
15 1 0.249986 0.621959 0.559738 7.15256e-07 0 -9.53674e-07
16 1 0.749986 0.621959 0.559738 -5.96046e-07 0 -7.15256e-07
17 1 0.249986 0.0769102 0.434764 -1.19209e-07 0 4.76837e-07
18 1 0.749986 0.0769103 0.434764 0 0 8.34465e-07
19 1 0.999986 0.57691 0.434764 -1.19209e-07 0 5.96046e-07
20 1 0.499986 0.57691 0.434764 -2.38419e-07 0 9.53674e-07
21 1 0.999986 0.878721 0.809687 2.38419e-07 0 8.34465e-07
22 1 0.249986 0.833674 0.684711 -8.34465e-07 0 0
23 1 0.499986 0.878721 0.809687 1.19209e-07 0 1.19209e-06
24 1 0.749986 0.833674 0.684711 4.76837e-07 0 -5.96046e-07
25 1 0.999986 0.333674 0.684711 -1.19209e-07 0 3.57628e-07
26 1 0.249986 0.378721 0.809687 -5.96046e-07 0 -4.76837e-07
27 1 0.749986 0.378721 0.809687 3.57628e-07 0 4.76837e-07
28 1 0.499986 0.333674 0.684711 2.38419e-07 0 0
29 1 0.249986 0.590451 0.934645 -3.57628e-07 0 1.19209e-07
30 1 0.749986 0.590451 0.934645 2.38419e-07 0 -5.96046e-07
31 1 0.999986 0.0904513 0.934645 -1.19209e-07 0 1.19209e-07
32 1 0.499986 0.0904513 0.934645 2.38419e-07 0 2.38419e-07
