ITEM: TIMESTEP
0
ITEM: NUMBER OF ATOMS
56
ITEM: BOX BOUNDS xy xz yz pp pp pp
-4.4995363950729370e+00 1.2206987559795380e+01 -4.7683715820312500e-07
-7.5370073318481445e-03 5.5339480042457581e+00 -4.4776481986045837e+00
-3.2569408416748047e-02 1.9052529454231262e+01 2.8610229492187500e-06
ITEM: ATOMS id type xs ys zs fx fy fz
1 1 0.598038 1 0.132369 0 -0.0227962 0.0767163
2 1 0.348038 0.166667 0.132369 0 0.0227963 0.0767173
3 1 0.28724 1 0.275226 0 0.00285602 -0.00064373
4 1 0.0372396 0.166667 0.275226 0 -0.00285602 -0.000643611
5 1 0.976443 5.00995e-07 0.418084 0 -0.000181317 0.001068
6 1 0.0980376 1 0.132369 0 -0.0227963 0.0767167
7 1 0.00343675 0.5 0.0609408 0 2.59773 1.98272
8 1 0.848038 0.166667 0.132369 0 0.022796 0.0767179
9 1 0.753437 0.666667 0.0609408 0 -2.59774 1.98272
10 1 0.78724 1 0.275226 0 0.00285637 -0.000643849
11 1 0.726443 0.166667 0.418084 0 0.000181794 0.00106847
12 1 0.665647 5.53965e-07 0.560941 0 -4.92334e-05 -0.00029254
13 1 0.415647 0.166667 0.560941 0 4.93526e-05 -0.000292778
14 1 0.35485 1.60387e-07 0.703798 0 -0.000326395 -0.00318897
15 1 0.10485 0.166667 0.703798 0 0.000326872 -0.00318861
16 1 0.0440528 1 0.846655 0 0.000497103 -0.00102007
17 1 0.692639 0.5 0.203798 0 0.00049758 0.00102055
18 1 0.53724 0.166667 0.275226 0 -0.00285602 -0.000643611
19 1 0.442639 0.666667 0.203798 0 -0.000496984 0.00102067
20 1 0.476443 5.02326e-07 0.418084 0 -0.000181437 0.00106788
21 1 0.381841 0.5 0.346655 0 -0.000326753 0.00318861
22 1 0.226443 0.166667 0.418084 0 0.000181794 0.00106823
23 1 0.131841 0.666667 0.346655 0 0.000326276 0.00318873
24 1 0.165647 5.42012e-07 0.560941 0 -4.87566e-05 -0.000292897
25 1 0.0710447 0.500001 0.489512 0 -4.94719e-05 0.000293136
26 1 0.915647 0.166667 0.560941 0 4.94719e-05 -0.000293612
27 1 0.821045 0.666667 0.489512 0 4.8995e-05 0.000293016
28 1 0.503437 0.5 0.0609408 0 2.59773 1.98272
29 1 0.253437 0.666667 0.0609408 0 -2.59774 1.98272
30 1 0.192639 0.5 0.203798 0 0.000497699 0.00102055
31 1 0.942639 0.666667 0.203798 0 -0.000497103 0.00102079
32 1 0.881841 0.5 0.346655 0 -0.000326633 0.00318885
33 1 0.794053 0.166667 0.846655 0 -0.000497699 -0.00102019
34 1 0.733255 1 0.989512 0 2.59773 -1.98272
35 1 0.483255 0.166667 0.989512 0 -2.59773 -1.98272
36 1 0.85485 1.92026e-07 0.703798 0 -0.000326276 -0.00318873
37 1 0.760248 0.500001 0.632369 0 -0.000181913 -0.00106823
38 1 0.60485 0.166667 0.703798 0 0.000326872 -0.00318921
39 1 0.510248 0.666667 0.632369 0 0.000181317 -0.00106823
40 1 0.544053 1 0.846655 0 0.000497222 -0.00102007
41 1 0.449452 0.5 0.775226 0 0.00285649 0.000644088
42 1 0.294053 0.166667 0.846655 0 -0.000496984 -0.00102091
43 1 0.199452 0.666667 0.775226 0 -0.00285614 0.000643611
44 1 0.233255 1 0.989512 0 2.59774 -1.98273
45 1 0.138654 0.5 0.918083 0 -0.0227965 -0.0767173
46 1 0.631841 0.666667 0.346655 0 0.000326037 0.00318861
47 1 0.571045 0.500001 0.489512 0 -4.92334e-05 0.000292897
48 1 0.321045 0.666667 0.489512 0 4.88758e-05 0.000292778
49 1 0.260248 0.5 0.632369 0 -0.000181913 -0.00106812
50 1 0.0102484 0.666667 0.632369 0 0.000181317 -0.00106812
51 1 0.949452 0.5 0.775226 0 0.00285614 0.00064373
52 1 0.983255 0.166667 0.989512 0 -2.59773 -1.98272
53 1 0.888654 0.666667 0.918083 0 0.0227963 -0.0767163
54 1 0.699452 0.666667 0.775226 0 -0.00285625 0.000643492
55 1 0.638654 0.5 0.918083 0 -0.022796 -0.0767168
56 1 0.388654 0.666667 0.918083 0 0.022796 -0.0767169
ITEM: TIMESTEP
1
ITEM: NUMBER OF ATOMS
56
ITEM: BOX BOUNDS xy xz yz pp pp pp
-4.4995363950729370e+00 1.2206987559795380e+01 -4.7683715820312500e-07
-7.5370073318481445e-03 5.5339480042457581e+00 -4.4776481986045837e+00
-3.2569408416748047e-02 1.9052529454231262e+01 2.8610229492187500e-06
ITEM: ATOMS id type xs ys zs fx fy fz
1 1 0.598094 0.999842 0.132524 0 0.0926197 0.0559232
2 1 0.348094 0.166826 0.132524 0 -0.0926203 0.0559238
3 1 0.287239 1.00002 0.275225 0 0.00219572 0.00730121
4 1 0.0372391 0.166647 0.275225 0 -0.00219631 0.00730193
5 1 0.976444 -7.58565e-07 0.418086 0 -0.000557661 -0.00109494
6 1 0.0980942 0.999842 0.132524 0 0.0926198 0.0559236
7 1 0.00490107 0.518045 0.06494 0 1.09531 0.777783
8 1 0.848094 0.166826 0.132524 0 -0.0926201 0.0559242
9 1 0.754901 0.648622 0.06494 0 -1.09531 0.777783
10 1 0.787239 1.00002 0.275225 0 0.00219631 0.00730109
11 1 0.726444 0.166668 0.418086 0 0.000558019 -0.00109446
12 1 0.665646 2.11955e-07 0.56094 0 4.69685e-05 4.94719e-05
13 1 0.415646 0.166667 0.56094 0 -4.68493e-05 4.95911e-05
14 1 0.354848 -2.10698e-06 0.703791 0 -0.000891685 -0.00825489
15 1 0.104848 0.166669 0.703791 0 0.000891924 -0.00825465
16 1 0.044052 1 0.846653 0 -0.0143331 -0.0912627
17 1 0.692639 0.500003 0.2038 0 -0.0143328 0.0912632
18 1 0.537239 0.166647 0.275225 0 -0.00219643 0.00730169
19 1 0.442639 0.666664 0.2038 0 0.0143338 0.0912632
20 1 0.476444 -7.58061e-07 0.418086 0 -0.00055778 -0.00109494
21 1 0.381843 0.499998 0.346661 0 -0.000891805 0.00825477
22 1 0.226444 0.166668 0.418086 0 0.000557899 -0.00109494
23 1 0.131844 0.666669 0.346661 0 0.000891805 0.00825489
24 1 0.165646 2.03314e-07 0.56094 0 4.73261e-05 4.86374e-05
25 1 0.0710449 0.5 0.489513 0 4.70877e-05 -4.92334e-05
26 1 0.915646 0.166667 0.56094 0 -4.68493e-05 4.87566e-05
27 1 0.821045 0.666667 0.489513 0 -4.73261e-05 -4.87566e-05
28 1 0.504901 0.518045 0.06494 0 1.09531 0.777783
29 1 0.254901 0.648622 0.06494 0 -1.09531 0.777784
30 1 0.192639 0.500003 0.2038 0 -0.0143328 0.0912629
31 1 0.942639 0.666664 0.2038 0 0.0143335 0.0912631
32 1 0.881843 0.499998 0.346661 0 -0.000891685 0.008255
33 1 0.794052 0.166664 0.846653 0 0.0143327 -0.0912628
34 1 0.73179 1.01805 0.985513 0 1.09531 -0.777784
35 1 0.48179 0.148622 0.985513 0 -1.09531 -0.777783
36 1 0.854848 -2.07451e-06 0.703791 0 -0.000891924 -0.008255
37 1 0.760248 0.499999 0.632367 0 -0.00055778 0.00109518
38 1 0.604848 0.166669 0.703791 0 0.000891805 -0.0082556
39 1 0.510248 0.666668 0.632367 0 0.000557423 0.00109494
40 1 0.544052 1 0.846653 0 -0.0143329 -0.0912623
41 1 0.449452 0.50002 0.775228 0 0.00219643 -0.00730145
42 1 0.294052 0.166664 0.846653 0 0.0143332 -0.0912633
43 1 0.199452 0.666647 0.775228 0 -0.00219607 -0.00730145
44 1 0.23179 1.01805 0.985513 0 1.09531 -0.777784
45 1 0.138597 0.499842 0.917929 0 0.0926198 -0.0559243
46 1 0.631843 0.666669 0.346661 0 0.000891447 0.00825453
47 1 0.571045 0.5 0.489513 0 4.73261e-05 -4.94719e-05
48 1 0.321045 0.666667 0.489513 0 -4.72069e-05 -4.88758e-05
49 1 0.260248 0.499999 0.632367 0 -0.000558138 0.00109518
50 1 0.0102476 0.666668 0.632367 0 0.000557542 0.00109506
51 1 0.949452 0.50002 0.775228 0 0.00219595 -0.00730193
52 1 0.98179 0.148622 0.985513 0 -1.09531 -0.777784
53 1 0.888597 0.666826 0.917929 0 -0.0926197 -0.0559231
54 1 0.699452 0.666647 0.775228 0 -0.00219584 -0.00730157
55 1 0.638597 0.499842 0.917929 0 0.0926195 -0.0559241
56 1 0.388597 0.666826 0.917929 0 -0.0926195 -0.0559236
ITEM: TIMESTEP
2
ITEM: NUMBER OF ATOMS
56
ITEM: BOX BOUNDS xy xz yz pp pp pp
-4.4995363950729370e+00 1.2206987559795380e+01 -4.7683715820312500e-07
-7.5370073318481445e-03 5.5339480042457581e+00 -4.4776481986045837e+00
-3.2569408416748047e-02 1.9052529454231262e+01 2.8610229492187500e-06
ITEM: ATOMS id type xs ys zs fx fy fz
1 1 0.598192 1.00137 0.132792 0 0.215259 0.0502509
2 1 0.348192 0.1653 0.132792 0 -0.21526 0.0502515
3 1 0.287252 1.00006 0.27526 0 0.00105894 0.0148476
4 1 0.0372519 0.166611 0.27526 0 -0.00105846 0.0148479
5 1 0.976442 -9.94628e-06 0.418081 0 -0.00109863 -0.00121129
6 1 0.0981922 1.00137 0.132792 0 0.215259 0.0502509
7 1 0.00626343 0.536091 0.0686607 0 0.241367 0.050337
8 1 0.848192 0.1653 0.132792 0 -0.21526 0.0502517
9 1 0.756263 0.630576 0.0686607 0 -0.241366 0.0503365
10 1 0.787252 1.00006 0.27526 0 0.00105894 0.0148478
11 1 0.726442 0.166677 0.418081 0 0.00109935 -0.00121129
12 1 0.665646 9.85782e-07 0.56094 0 -0.000123739 -0.000866532
13 1 0.415646 0.166666 0.56094 0 0.000123739 -0.000866532
14 1 0.354833 -1.67979e-05 0.703752 0 -0.00181174 -0.01714
15 1 0.104833 0.166684 0.703752 0 0.00181234 -0.0171406
16 1 0.0438921 0.999767 0.846216 0 -0.0263979 -0.180193
17 1 0.692799 0.499767 0.204237 0 -0.0263977 0.180193
18 1 0.537252 0.166611 0.27526 0 -0.00105834 0.0148481
19 1 0.442799 0.6669 0.204237 0 0.0263981 0.180193
20 1 0.476442 -9.94774e-06 0.418081 0 -0.00109875 -0.00121152
21 1 0.381858 0.499983 0.346701 0 -0.00181246 0.0171405
22 1 0.226442 0.166677 0.418081 0 0.00109923 -0.00121117
23 1 0.131858 0.666684 0.346701 0 0.00181162 0.01714
24 1 0.165646 9.83033e-07 0.56094 0 -0.000123978 -0.00086689
25 1 0.0710448 0.500001 0.489512 0 -0.00012362 0.000866532
26 1 0.915646 0.166666 0.56094 0 0.000123858 -0.00086689
27 1 0.821045 0.666666 0.489512 0 0.000123501 0.000866652
28 1 0.506263 0.536091 0.0686607 0 0.241367 0.0503371
29 1 0.256263 0.630576 0.0686607 0 -0.241366 0.0503365
30 1 0.192799 0.499767 0.204237 0 -0.0263976 0.180193
31 1 0.942799 0.6669 0.204237 0 0.0263977 0.180193
32 1 0.881858 0.499983 0.346701 0 -0.00181246 0.0171403
33 1 0.793892 0.1669 0.846216 0 0.0263977 -0.180193
34 1 0.730428 1.03609 0.981792 0 0.241366 -0.0503366
35 1 0.480428 0.130576 0.981792 0 -0.241367 -0.0503368
36 1 0.854833 -1.67693e-05 0.703752 0 -0.00181186 -0.0171402
37 1 0.76025 0.49999 0.632372 0 -0.00109911 0.00121152
38 1 0.604833 0.166684 0.703752 0 0.00181186 -0.0171405
39 1 0.51025 0.666677 0.632372 0 0.00109851 0.00121129
40 1 0.543892 0.999767 0.846216 0 -0.0263978 -0.180193
41 1 0.449439 0.500056 0.775193 0 0.00105858 -0.0148475
42 1 0.293892 0.1669 0.846216 0 0.0263981 -0.180193
43 1 0.199439 0.666611 0.775193 0 -0.00105858 -0.014848
44 1 0.230428 1.03609 0.981792 0 0.241366 -0.0503367
45 1 0.138499 0.501368 0.917661 0 0.215259 -0.0502514
46 1 0.631858 0.666684 0.346701 0 0.00181162 0.0171397
47 1 0.571045 0.500001 0.489512 0 -0.000123739 0.000866413
48 1 0.321045 0.666666 0.489512 0 0.000123739 0.000866652
49 1 0.26025 0.49999 0.632372 0 -0.00109887 0.00121164
50 1 0.0102496 0.666677 0.632372 0 0.00109851 0.0012114
51 1 0.949439 0.500056 0.775193 0 0.00105894 -0.0148476
52 1 0.980428 0.130576 0.981792 0 -0.241367 -0.0503368
53 1 0.888499 0.6653 0.917661 0 -0.215259 -0.0502508
54 1 0.699439 0.666611 0.775193 0 -0.00105858 -0.0148479
55 1 0.638499 0.501368 0.917661 0 0.215259 -0.0502514
56 1 0.388499 0.6653 0.917661 0 -0.215259 -0.050251
ITEM: TIMESTEP
3
ITEM: NUMBER OF ATOMS
56
ITEM: BOX BOUNDS xy xz yz pp pp pp
-4.4995363950729370e+00 1.2206987559795380e+01 -4.7683715820312500e-07
-7.5370073318481445e-03 5.5339480042457581e+00 -4.4776481986045837e+00
-3.2569408416748047e-02 1.9052529454231262e+01 2.8610229492187500e-06
ITEM: ATOMS id type xs ys zs fx fy fz
1 1 0.598592 1.01746 0.133882 0 0.095679 0.0245409
2 1 0.348592 0.149206 0.133882 0 -0.0956782 0.0245404
3 1 0.28737 1.00014 0.275582 0 -0.00710106 0.0570397
4 1 0.0373699 0.166532 0.275582 0 0.00710022 0.0570396
5 1 0.976432 -9.20852e-05 0.418054 0 -0.00309014 0.0118697
6 1 0.0985916 1.01746 0.133882 0 0.0956793 0.0245407
7 1 0.00666354 0.554137 0.0697535 0 -0.0740952 -0.109601
8 1 0.848592 0.149206 0.133882 0 -0.0956781 0.0245402
9 1 0.756664 0.61253 0.0697535 0 0.0740938 -0.1096
10 1 0.78737 1.00014 0.275582 0 -0.00710082 0.0570395
11 1 0.726432 0.166759 0.418054 0 0.00308836 0.0118697
12 1 0.66564 -8.26553e-06 0.560922 0 -0.00265062 -0.0102024
13 1 0.41564 0.166675 0.560922 0 0.0026511 -0.010203
14 1 0.354697 -0.000152252 0.70338 0 -0.00911593 -0.0738585
15 1 0.104697 0.166819 0.70338 0 0.0091157 -0.0738584
16 1 0.0424599 0.997793 0.842305 0 0.0594122 -0.00712752
17 1 0.694231 0.497793 0.208148 0 0.0594122 0.0071274
18 1 0.53737 0.166532 0.275582 0 0.00710022 0.0570394
19 1 0.444231 0.668874 0.208148 0 -0.059412 0.0071274
20 1 0.476432 -9.20956e-05 0.418054 0 -0.00308979 0.0118699
21 1 0.381994 0.499848 0.347073 0 -0.00911558 0.0738585
22 1 0.226432 0.166759 0.418054 0 0.00308847 0.0118695
23 1 0.131994 0.666819 0.347073 0 0.00911689 0.0738584
24 1 0.16564 -8.28611e-06 0.560922 0 -0.0026505 -0.0102023
25 1 0.0710517 0.499992 0.489531 0 -0.00265121 0.010203
26 1 0.91564 0.166675 0.560922 0 0.00265086 -0.010203
27 1 0.821052 0.666675 0.489531 0 0.00265121 0.0102024
28 1 0.506664 0.554137 0.0697535 0 -0.0740951 -0.109601
29 1 0.256664 0.61253 0.0697535 0 0.0740943 -0.109601
30 1 0.194231 0.497793 0.208148 0 0.0594121 0.00712752
31 1 0.944231 0.668874 0.208148 0 -0.0594121 0.00712717
32 1 0.881994 0.499848 0.347073 0 -0.00911522 0.0738585
33 1 0.79246 0.168874 0.842305 0 -0.0594122 -0.00712764
34 1 0.730028 1.05414 0.980699 0 -0.0740943 0.109601
35 1 0.480028 0.11253 0.980699 0 0.0740954 0.109601
36 1 0.854697 -0.000152232 0.70338 0 -0.00911665 -0.0738581
37 1 0.760259 0.499908 0.632399 0 -0.00308907 -0.0118693
38 1 0.604697 0.166819 0.70338 0 0.00911593 -0.0738585
39 1 0.510259 0.666759 0.632399 0 0.00308979 -0.0118699
40 1 0.54246 0.997793 0.842305 0 0.0594121 -0.00712752
41 1 0.449321 0.500135 0.77487 0 -0.00710011 -0.0570397
42 1 0.29246 0.168874 0.842305 0 -0.0594126 -0.00712752
43 1 0.199321 0.666532 0.77487 0 0.0071007 -0.0570395
44 1 0.230028 1.05414 0.980699 0 -0.0740945 0.109601
45 1 0.1381 0.517461 0.91657 0 0.0956789 -0.0245402
46 1 0.631994 0.666819 0.347073 0 0.00911665 0.0738585
47 1 0.571052 0.499992 0.489531 0 -0.00265098 0.0102028
48 1 0.321052 0.666675 0.489531 0 0.0026511 0.0102025
49 1 0.260259 0.499908 0.632399 0 -0.00308955 -0.0118697
50 1 0.0102592 0.666759 0.632399 0 0.00309002 -0.0118698
51 1 0.949321 0.500135 0.77487 0 -0.0071007 -0.0570399
52 1 0.980028 0.11253 0.980699 0 0.0740952 0.109601
53 1 0.8881 0.649206 0.91657 0 -0.0956794 -0.0245407
54 1 0.699321 0.666532 0.77487 0 0.00710034 -0.0570396
55 1 0.6381 0.517461 0.91657 0 0.0956788 -0.0245401
56 1 0.3881 0.649206 0.91657 0 -0.0956793 -0.0245405
ITEM: TIMESTEP
4
ITEM: NUMBER OF ATOMS
56
ITEM: BOX BOUNDS xy xz yz pp pp pp
-4.4995363950729370e+00 1.2206987559795380e+01 -4.7683715820312500e-07
-7.5370073318481445e-03 5.5339480042457581e+00 -4.4776481986045837e+00
-3.2569408416748047e-02 1.9052529454231262e+01 2.8610229492187500e-06
ITEM: ATOMS id type xs ys zs fx fy fz
1 1 0.598823 1.02625 0.134515 0 -0.0359949 0.0176072
2 1 0.348823 0.140416 0.134515 0 0.0359946 0.0176075
3 1 0.287738 0.99975 0.276588 0 0.00670826 0.0380443
4 1 0.037738 0.166917 0.276588 0 -0.00670767 0.0380445
5 1 0.976502 -0.000284238 0.418244 0 -0.00405359 0.0268381
6 1 0.098823 1.02625 0.134515 0 -0.0359949 0.0176075
7 1 0.00608776 0.553725 0.0681809 0 0.0580791 0.0432144
8 1 0.848823 0.140416 0.134515 0 0.0359945 0.0176073
9 1 0.756088 0.612942 0.068181 0 -0.0580789 0.0432134
10 1 0.787738 0.99975 0.276588 0 0.00670803 0.0380445
11 1 0.726502 0.166951 0.418244 0 0.00405395 0.0268378
12 1 0.665577 -0.000160259 0.56075 0 -0.00663447 -0.0204093
13 1 0.415577 0.166827 0.56075 0 0.00663459 -0.0204087
14 1 0.354224 -0.000696705 0.702088 0 -0.00410187 -0.0393562
15 1 0.104224 0.167364 0.702088 0 0.00410151 -0.0393555
16 1 0.0421168 1.00074 0.841368 0 0.0616034 0.0414342
17 1 0.694575 0.500743 0.209085 0 0.0616035 -0.041434
18 1 0.537738 0.166917 0.276588 0 -0.00670779 0.0380441
19 1 0.444575 0.665924 0.209085 0 -0.0616038 -0.0414345
20 1 0.476502 -0.00028423 0.418244 0 -0.00405383 0.0268384
21 1 0.382467 0.499303 0.348365 0 -0.00410151 0.0393553
22 1 0.226502 0.166951 0.418244 0 0.00405443 0.0268375
23 1 0.132467 0.667364 0.348365 0 0.0041008 0.0393564
24 1 0.165577 -0.000160276 0.56075 0 -0.00663435 -0.0204092
25 1 0.0711145 0.49984 0.489703 0 -0.00663435 0.020409
26 1 0.915577 0.166827 0.56075 0 0.00663459 -0.0204087
27 1 0.821115 0.666827 0.489703 0 0.00663435 0.0204095
28 1 0.506088 0.553725 0.0681809 0 0.058079 0.0432146
29 1 0.256088 0.612942 0.0681809 0 -0.058079 0.0432137
30 1 0.194575 0.500743 0.209085 0 0.0616035 -0.041434
31 1 0.944575 0.665924 0.209085 0 -0.0616033 -0.041435
32 1 0.882467 0.499303 0.348365 0 -0.00410163 0.0393556
33 1 0.792117 0.165924 0.841368 0 -0.0616035 0.0414344
34 1 0.730604 1.05372 0.982272 0 0.0580788 -0.0432136
35 1 0.480604 0.112942 0.982272 0 -0.0580789 -0.0432143
36 1 0.854224 -0.000696727 0.702088 0 -0.0041014 -0.0393564
37 1 0.76019 0.499716 0.632209 0 -0.00405371 -0.0268382
38 1 0.604224 0.167364 0.702088 0 0.0041014 -0.0393555
39 1 0.51019 0.666951 0.632209 0 0.00405359 -0.0268383
40 1 0.542117 1.00074 0.841368 0 0.0616032 0.0414344
41 1 0.448953 0.49975 0.773865 0 0.00670791 -0.0380445
42 1 0.292117 0.165924 0.841368 0 -0.0616034 0.0414345
43 1 0.198953 0.666917 0.773865 0 -0.00670767 -0.038044
44 1 0.230604 1.05372 0.982272 0 0.0580791 -0.0432136
45 1 0.137868 0.526251 0.915938 0 -0.0359948 -0.0176078
46 1 0.632467 0.667364 0.348365 0 0.0041014 0.0393565
47 1 0.571115 0.49984 0.489703 0 -0.00663447 0.020409
48 1 0.321115 0.666827 0.489703 0 0.006634 0.0204095
49 1 0.26019 0.499716 0.632209 0 -0.00405347 -0.0268379
50 1 0.0101898 0.666951 0.632209 0 0.00405371 -0.0268384
51 1 0.948953 0.49975 0.773865 0 0.00670767 -0.0380439
52 1 0.980604 0.112942 0.982272 0 -0.0580789 -0.0432144
53 1 0.887868 0.640416 0.915938 0 0.0359944 -0.0176077
54 1 0.698953 0.666917 0.773865 0 -0.00670767 -0.038044
55 1 0.637868 0.526251 0.915938 0 -0.0359944 -0.0176073
56 1 0.387868 0.640416 0.915938 0 0.0359946 -0.0176076
ITEM: TIMESTEP
5
ITEM: NUMBER OF ATOMS
56
ITEM: BOX BOUNDS xy xz yz pp pp pp
-4.4995363950729370e+00 1.2206987559795380e+01 -4.7683715820312500e-07
-7.5370073318481445e-03 5.5339480042457581e+00 -4.4776481986045837e+00
-3.2569408416748047e-02 1.9052529454231262e+01 2.8610229492187500e-06
ITEM: ATOMS id type xs ys zs fx fy fz
1 1 0.599109 1.02923 0.135296 0 -0.026601 0.0186049
2 1 0.349109 0.137435 0.135296 0 0.0266004 0.0186049
3 1 0.288272 0.999997 0.278045 0 0.0220264 0.0002141
4 1 0.0382716 0.16667 0.278045 0 -0.0220261 0.000213742
5 1 0.976756 -0.000705791 0.418939 0 -0.00573969 0.0220722
6 1 0.0991091 1.02923 0.135296 0 -0.0266008 0.0186055
7 1 0.00605713 0.557737 0.0680973 0 0.0106028 -0.00448072
8 1 0.849109 0.137435 0.135296 0 0.0266006 0.0186052
9 1 0.756057 0.60893 0.0680973 0 -0.0106028 -0.00448072
10 1 0.788272 0.999997 0.278045 0 0.0220262 0.000214338
11 1 0.726756 0.167373 0.418939 0 0.00574052 0.0220724
12 1 0.665377 -0.0007461 0.560204 0 -0.00765574 -0.0108265
13 1 0.415377 0.167413 0.560204 0 0.0076555 -0.0108268
14 1 0.353613 -0.00134752 0.700419 0 0.00658 0.0230826
15 1 0.103613 0.168015 0.700419 0 -0.00658011 0.023083
16 1 0.0422213 1.00717 0.841653 0 -0.00172997 -0.0167005
17 1 0.69447 0.507168 0.2088 0 -0.00172985 0.0167009
18 1 0.538272 0.16667 0.278045 0 -0.0220261 0.000214338
19 1 0.44447 0.659499 0.2088 0 0.00172973 0.0167012
20 1 0.476756 -0.000705788 0.418939 0 -0.00574005 0.0220723
21 1 0.383078 0.498653 0.350034 0 0.00658035 -0.0230827
22 1 0.226756 0.167373 0.418939 0 0.00573981 0.0220729
23 1 0.133078 0.668015 0.350034 0 -0.00657988 -0.0230829
24 1 0.165377 -0.000746107 0.560204 0 -0.00765562 -0.0108266
25 1 0.0713146 0.499254 0.490249 0 -0.0076555 0.0108266
26 1 0.915377 0.167413 0.560204 0 0.00765574 -0.0108262
27 1 0.821315 0.667413 0.490249 0 0.00765538 0.0108263
28 1 0.506057 0.557737 0.0680973 0 0.0106032 -0.00448084
29 1 0.256057 0.60893 0.0680973 0 -0.0106026 -0.0044806
30 1 0.19447 0.507168 0.2088 0 -0.0017302 0.0167006
31 1 0.94447 0.659499 0.2088 0 0.00172973 0.0167016
32 1 0.883078 0.498653 0.350034 0 0.00657976 -0.0230829
33 1 0.792221 0.159499 0.841653 0 0.00172985 -0.0167012
34 1 0.730634 1.05774 0.982356 0 0.0106031 0.00448072
35 1 0.480634 0.10893 0.982356 0 -0.0106034 0.00448072
36 1 0.853613 -0.00134753 0.700419 0 0.00658059 0.0230824
37 1 0.759935 0.499294 0.631514 0 -0.00574028 -0.0220727
38 1 0.603613 0.168015 0.700419 0 -0.00658011 0.0230829
39 1 0.509935 0.667373 0.631514 0 0.00574005 -0.0220723
40 1 0.542221 1.00717 0.841653 0 -0.00172925 -0.0167006
41 1 0.44842 0.499997 0.772408 0 0.0220257 -0.000213981
42 1 0.292221 0.159499 0.841653 0 0.00173032 -0.016701
43 1 0.19842 0.66667 0.772408 0 -0.0220267 -0.000214458
44 1 0.230634 1.05774 0.982356 0 0.0106033 0.00448084
45 1 0.137582 0.529232 0.915157 0 -0.0266008 -0.0186052
46 1 0.633078 0.668015 0.350034 0 -0.00658059 -0.0230823
47 1 0.571315 0.499254 0.490249 0 -0.00765562 0.0108265
48 1 0.321315 0.667413 0.490249 0 0.00765586 0.0108263
49 1 0.259935 0.499294 0.631514 0 -0.00574017 -0.0220724
50 1 0.00993521 0.667373 0.631514 0 0.00573993 -0.0220724
51 1 0.94842 0.499997 0.772408 0 0.0220263 -0.000214338
52 1 0.980634 0.10893 0.982356 0 -0.0106032 0.00448036
53 1 0.887582 0.637435 0.915157 0 0.0266012 -0.0186049
54 1 0.69842 0.66667 0.772408 0 -0.0220264 -0.0002141
55 1 0.637582 0.529232 0.915157 0 -0.0266007 -0.0186055
56 1 0.387582 0.637435 0.915157 0 0.026601 -0.018605
ITEM: TIMESTEP
6
ITEM: NUMBER OF ATOMS
56
ITEM: BOX BOUNDS xy xz yz pp pp pp
-4.4995363950729370e+00 1.2206987559795380e+01 -4.7683715820312500e-07
-7.5370073318481445e-03 5.5339480042457581e+00 -4.4776481986045837e+00
-3.2569408416748047e-02 1.9052529454231262e+01 2.8610229492187500e-06
ITEM: ATOMS id type xs ys zs fx fy fz
1 1 0.599271 1.02786 0.135737 0 -0.00304651 0.00776136
2 1 0.349271 0.138809 0.135737 0 0.00304663 0.0077616
3 1 0.288335 1.00145 0.278219 0 0.00677395 0.00837052
4 1 0.0383354 0.165215 0.278219 0 -0.00677419 0.00837064
5 1 0.976938 -0.00112671 0.419435 0 -0.0034852 -0.0025481
6 1 0.0992707 1.02786 0.135737 0 -0.00304723 0.00776052
7 1 0.00602271 0.558892 0.0680033 0 -0.0122495 -0.0142436
8 1 0.849271 0.138809 0.135737 0 0.00304687 0.00776148
9 1 0.756023 0.607775 0.0680033 0 0.0122498 -0.0142441
10 1 0.788335 1.00145 0.278219 0 0.00677431 0.00836992
11 1 0.726938 0.167794 0.419435 0 0.00348556 -0.00254798
12 1 0.665279 -0.00131028 0.559936 0 -0.00201261 0.0134383
13 1 0.415279 0.167977 0.559936 0 0.00201237 0.0134381
14 1 0.3537 -0.000997583 0.700657 0 0.00371718 -0.00227129
15 1 0.1037 0.167665 0.700657 0 -0.00371706 -0.00227201
16 1 0.0421185 1.00781 0.841372 0 -0.00859833 0.0014801
17 1 0.694573 0.507808 0.20908 0 -0.0085988 -0.00147998
18 1 0.538335 0.165215 0.278219 0 -0.00677407 0.00837052
19 1 0.444573 0.658859 0.20908 0 0.00859821 -0.00148022
20 1 0.476938 -0.00112673 0.419435 0 -0.00348485 -0.00254905
21 1 0.382991 0.499002 0.349795 0 0.0037173 0.00227237
22 1 0.226938 0.167794 0.419435 0 0.00348532 -0.00254834
23 1 0.132991 0.667665 0.349795 0 -0.00371706 0.00227249
24 1 0.165279 -0.00131028 0.559936 0 -0.00201273 0.0134383
25 1 0.0714125 0.49869 0.490517 0 -0.00201237 -0.0134386
26 1 0.915279 0.167977 0.559936 0 0.00201237 0.0134383
27 1 0.821412 0.667977 0.490517 0 0.00201237 -0.0134386
28 1 0.506023 0.558892 0.0680033 0 -0.0122503 -0.014244
29 1 0.256023 0.607775 0.0680033 0 0.0122497 -0.0142436
30 1 0.194573 0.507808 0.20908 0 -0.00859773 -0.00148046
31 1 0.944573 0.658859 0.20908 0 0.00859809 -0.00148022
32 1 0.882991 0.499002 0.349795 0 0.00371718 0.00227201
33 1 0.792119 0.158859 0.841372 0 0.00859821 0.00148058
34 1 0.730669 1.05889 0.98245 0 -0.0122496 0.0142438
35 1 0.480669 0.107775 0.98245 0 0.0122502 0.0142442
36 1 0.8537 -0.000997558 0.700657 0 0.00371683 -0.00227177
37 1 0.759754 0.498873 0.631018 0 -0.00348568 0.00254822
38 1 0.6037 0.167665 0.700657 0 -0.00371718 -0.00227213
39 1 0.509754 0.667794 0.631018 0 0.0034852 0.00254881
40 1 0.542119 1.00781 0.841372 0 -0.00859845 0.00147974
41 1 0.448356 0.501452 0.772234 0 0.00677431 -0.008371
42 1 0.292119 0.158859 0.841372 0 0.00859797 0.00147998
43 1 0.198356 0.665215 0.772234 0 -0.00677395 -0.00837028
44 1 0.230669 1.05889 0.98245 0 -0.0122497 0.0142435
45 1 0.137421 0.527859 0.914716 0 -0.00304663 -0.00776112
46 1 0.632991 0.667665 0.349795 0 -0.00371695 0.00227141
47 1 0.571412 0.49869 0.490517 0 -0.00201249 -0.0134383
48 1 0.321412 0.667977 0.490517 0 0.00201249 -0.0134383
49 1 0.259754 0.498873 0.631018 0 -0.00348556 0.0025481
50 1 0.00975351 0.667794 0.631018 0 0.0034852 0.00254893
51 1 0.948356 0.501452 0.772234 0 0.00677454 -0.00837088
52 1 0.980669 0.107775 0.98245 0 0.0122496 0.0142441
53 1 0.887421 0.638809 0.914716 0 0.00304723 -0.00776124
54 1 0.698356 0.665215 0.772234 0 -0.00677454 -0.00837064
55 1 0.637421 0.527859 0.914716 0 -0.00304687 -0.00776088
56 1 0.387421 0.638809 0.914716 0 0.00304711 -0.00776136
ITEM: TIMESTEP
7
ITEM: NUMBER OF ATOMS
56
ITEM: BOX BOUNDS xy xz yz pp pp pp
-4.4995363950729370e+00 1.2206987559795380e+01 -4.7683715820312500e-07
-7.5370073318481445e-03 5.5339480042457581e+00 -4.4776481986045837e+00
-3.2569408416748047e-02 1.9052529454231262e+01 2.8610229492187500e-06
ITEM: ATOMS id type xs ys zs fx fy fz
1 1 0.599355 1.02738 0.135968 0 -0.00648153 0.00206804
2 1 0.349355 0.139286 0.135968 0 0.00648105 0.00206792
3 1 0.288403 1.00217 0.278404 0 -0.00440276 0.00464845
4 1 0.0384031 0.164494 0.278404 0 0.00440276 0.00464869
5 1 0.97696 -0.00142822 0.419496 0 0.00116432 0.000709057
6 1 0.0993552 1.02738 0.135968 0 -0.00648081 0.00206804
7 1 0.00592328 0.558393 0.0677318 0 0.00451589 0.00449526
8 1 0.849355 0.139286 0.135968 0 0.00648057 0.0020678
9 1 0.755923 0.608274 0.0677317 0 -0.00451601 0.00449634
10 1 0.788403 1.00217 0.278404 0 -0.00440323 0.00464892
11 1 0.72696 0.168095 0.419496 0 -0.00116456 0.000708818
12 1 0.665345 -0.00155272 0.560117 0 -0.000973582 0.00383663
13 1 0.415345 0.16822 0.560117 0 0.000972629 0.00383723
14 1 0.353704 -0.000697057 0.700668 0 0.00069499 -0.00101221
15 1 0.103704 0.167364 0.700668 0 -0.000694633 -0.00101316
16 1 0.0421062 1.00742 0.841339 0 -0.000869989 0.00726962
17 1 0.694585 0.507421 0.209114 0 -0.000869751 -0.00726974
18 1 0.538403 0.164494 0.278404 0 0.00440276 0.00464857
19 1 0.444585 0.659246 0.209114 0 0.000870228 -0.00726974
20 1 0.47696 -0.00142823 0.419496 0 0.00116444 0.000709414
21 1 0.382987 0.499303 0.349785 0 0.000694513 0.0010128
22 1 0.22696 0.168095 0.419496 0 -0.00116396 0.000708938
23 1 0.132987 0.667364 0.349785 0 -0.000694633 0.00101185
24 1 0.165345 -0.00155273 0.560117 0 -0.000973463 0.00383711
25 1 0.0713464 0.498447 0.490336 0 -0.000973225 -0.00383699
26 1 0.915345 0.16822 0.560117 0 0.000972748 0.00383675
27 1 0.821346 0.66822 0.490336 0 0.000973344 -0.00383663
28 1 0.505923 0.558393 0.0677317 0 0.0045166 0.00449586
29 1 0.255923 0.608274 0.0677317 0 -0.00451612 0.00449502
30 1 0.194585 0.507421 0.209114 0 -0.000870466 -0.00726867
31 1 0.944585 0.659246 0.209114 0 0.000870228 -0.00726974
32 1 0.882987 0.499303 0.349785 0 0.000694871 0.00101316
33 1 0.792106 0.159246 0.841339 0 0.000870109 0.00726962
34 1 0.730768 1.05839 0.982721 0 0.00451624 -0.00449562
35 1 0.480768 0.108274 0.982721 0 -0.00451672 -0.00449598
36 1 0.853704 -0.000697045 0.700668 0 0.00069499 -0.00101197
37 1 0.759731 0.498572 0.630957 0 0.00116456 -0.000709057
38 1 0.603704 0.167364 0.700668 0 -0.000694871 -0.0010128
39 1 0.509731 0.668095 0.630957 0 -0.00116408 -0.000709057
40 1 0.542106 1.00742 0.841339 0 -0.000870585 0.00726974
41 1 0.448288 0.502173 0.772049 0 -0.004403 -0.00464821
42 1 0.292106 0.159246 0.841339 0 0.000870585 0.00726998
43 1 0.198288 0.664494 0.772049 0 0.00440276 -0.00464892
44 1 0.230768 1.05839 0.982721 0 0.00451577 -0.0044955
45 1 0.137336 0.527381 0.914485 0 -0.00648081 -0.00206804
46 1 0.632987 0.667364 0.349785 0 -0.000694394 0.00101197
47 1 0.571346 0.498447 0.490336 0 -0.000972629 -0.00383663
48 1 0.321346 0.66822 0.490336 0 0.000973105 -0.00383711
49 1 0.259731 0.498572 0.630957 0 0.00116444 -0.000709176
50 1 0.00973134 0.668095 0.630957 0 -0.0011642 -0.000709295
51 1 0.948288 0.502173 0.772049 0 -0.00440335 -0.00464845
52 1 0.980768 0.108274 0.982721 0 -0.00451541 -0.00449526
53 1 0.887336 0.639286 0.914485 0 0.00648081 -0.00206828
54 1 0.698288 0.664494 0.772049 0 0.00440311 -0.00464892
55 1 0.637336 0.527381 0.914485 0 -0.00648093 -0.00206852
56 1 0.387336 0.639286 0.914485 0 0.00648129 -0.00206792
ITEM: TIMESTEP
8
ITEM: NUMBER OF ATOMS
56
ITEM: BOX BOUNDS xy xz yz pp pp pp
-4.4995363950729370e+00 1.2206987559795380e+01 -4.7683715820312500e-07
-7.5370073318481445e-03 5.5339480042457581e+00 -4.4776481986045837e+00
-3.2569408416748047e-02 1.9052529454231262e+01 2.8610229492187500e-06
ITEM: ATOMS id type xs ys zs fx fy fz
1 1 0.599388 1.02689 0.136057 0 -0.000740051 0.000673771
2 1 0.349388 0.139778 0.136057 0 0.000740886 0.00067389
3 1 0.288448 1.00209 0.278527 0 -0.00405097 2.22921e-05
4 1 0.038448 0.164582 0.278527 0 0.00405097 2.20537e-05
5 1 0.97697 -0.00143089 0.419522 0 0.00148749 0.00282133
6 1 0.0993879 1.02689 0.136057 0 -0.00074029 0.000674248
7 1 0.00592791 0.55854 0.0677444 0 -0.00114787 -0.00270081
8 1 0.849388 0.139778 0.136057 0 0.000740647 0.000674009
9 1 0.755928 0.608127 0.0677444 0 0.00114822 -0.00270164
10 1 0.788448 1.00209 0.278527 0 -0.00405121 2.24113e-05
11 1 0.72697 0.168098 0.419522 0 -0.00148797 0.00282133
12 1 0.665384 -0.00166665 0.560224 0 -0.000185966 -0.00191319
13 1 0.415384 0.168334 0.560224 0 0.000186205 -0.00191319
14 1 0.353699 -0.00058579 0.700653 0 -0.000867724 0.0028336
15 1 0.103699 0.167253 0.700653 0 0.000867248 0.00283408
16 1 0.0421486 1.00728 0.841454 0 -0.00075376 -0.000163317
17 1 0.694543 0.507279 0.208998 0 -0.000754237 0.000162721
18 1 0.538448 0.164582 0.278527 0 0.00405097 2.19345e-05
19 1 0.444543 0.659388 0.208998 0 0.000753999 0.000163198
20 1 0.47697 -0.00143089 0.419522 0 0.00148773 0.00282145
21 1 0.382992 0.499414 0.349799 0 -0.000867724 -0.00283444
22 1 0.22697 0.168098 0.419522 0 -0.00148773 0.00282168
23 1 0.132992 0.667253 0.349799 0 0.000867605 -0.0028342
24 1 0.165384 -0.00166665 0.560224 0 -0.000185966 -0.00191319
25 1 0.071307 0.498333 0.490229 0 -0.000186324 0.00191367
26 1 0.915384 0.168334 0.560224 0 0.000186443 -0.00191367
27 1 0.821307 0.668334 0.490229 0 0.000186682 0.00191319
28 1 0.505928 0.55854 0.0677444 0 -0.00114822 -0.00270104
29 1 0.255928 0.608127 0.0677444 0 0.00114763 -0.00270057
30 1 0.194543 0.507279 0.208998 0 -0.000754237 0.000162244
31 1 0.944543 0.659388 0.208998 0 0.000753999 0.000163555
32 1 0.882992 0.499414 0.349799 0 -0.000867248 -0.00283408
33 1 0.792149 0.159388 0.841454 0 0.000754476 -0.000162601
34 1 0.730763 1.05854 0.982708 0 -0.00114822 0.00270092
35 1 0.480763 0.108127 0.982708 0 0.00114846 0.00270104
36 1 0.853699 -0.000585782 0.700653 0 -0.000867844 0.00283384