ITEM: TIMESTEP
0
ITEM: NUMBER OF ATOMS
48
ITEM: BOX BOUNDS xy xz yz pp pp pp
-5.9081587245273726e+00 8.5889536499827912e+00 2.5120357483981479e+00
-2.3252728783138264e-03 9.4515407374878730e+00 -5.9165632558427319e+00
9.2526380721303085e-04 1.9516202358592782e+01 2.0640487290955647e-01
ITEM: ATOMS id type xs ys zs fx fy fz
1 1 0.952309 0.167048 0.0318988 0 0 2.24386
2 1 0.509479 0.074165 0.0529524 0 0 0.27298
3 1 0.676661 0.12485 0.656954 0 0 -0.00595422
4 1 0.918611 0.948828 0.927931 0 0 -2.24386
5 1 0.578533 0.157077 0.80274 0 0 -0.00312328
6 1 0.361442 0.0417114 0.906878 0 0 -0.272981
7 1 0.0212629 0.249755 0.781855 0 0 -0.0159423
8 1 0.983332 0.208448 0.407115 0 0 -0.00155471
9 1 0.234055 0.0322453 0.677678 0 0 0.00821737
10 1 0.887588 0.240762 0.552715 0 0 0.00155604
11 1 0.849658 0.199455 0.177975 0 0 0.0159439
12 1 0.636865 0.083631 0.282152 0 0 -0.00821747
13 1 0.292387 0.292133 0.15709 0 0 0.00312371
14 1 0.540742 0.115898 0.427787 0 0 0.000501674
15 1 0.952309 0.500382 0.0318988 0 0 2.24386
16 1 0.509479 0.407498 0.0529524 0 0 0.272981
17 1 0.676661 0.458184 0.656954 0 0 -0.00595396
18 1 0.918611 0.282161 0.927931 0 0 -2.24386
19 1 0.578533 0.49041 0.80274 0 0 -0.00312281
20 1 0.361442 0.375045 0.906878 0 0 -0.272982
21 1 0.0212629 0.583088 0.781855 0 0 -0.0159426
22 1 0.330179 0.333312 0.532044 0 0 -0.000501279
23 1 0.983332 0.541781 0.407115 0 0 -0.00155465
24 1 0.234055 0.365579 0.677678 0 0 0.00821654
25 1 0.887588 0.574095 0.552715 0 0 0.00155558
26 1 0.194259 0.324359 0.302876 0 0 0.00595398
27 1 0.849658 0.532788 0.177975 0 0 0.015943
28 1 0.636865 0.416964 0.282152 0 0 -0.0082173
29 1 0.292387 0.625466 0.15709 0 0 0.00312199
30 1 0.540742 0.449231 0.427787 0 0 0.000500696
31 1 0.952309 0.833715 0.0318988 0 0 2.24386
32 1 0.509479 0.740832 0.0529524 0 0 0.27298
33 1 0.676661 0.791517 0.656954 0 0 -0.00595474
34 1 0.918611 0.615495 0.927931 0 0 -2.24386
35 1 0.578533 0.823743 0.80274 0 0 -0.00312317
36 1 0.361442 0.708378 0.906878 0 0 -0.272981
37 1 0.0212629 0.916422 0.781855 0 0 -0.0159427
38 1 0.330179 0.666645 0.532044 0 0 -0.00050109
39 1 0.983332 0.875115 0.407115 0 0 -0.00155483
40 1 0.234055 0.698912 0.677678 0 0 0.00821696
41 1 0.887588 0.907428 0.552715 0 0 0.00155304
42 1 0.194259 0.657693 0.302876 0 0 0.00595631
43 1 0.849658 0.866121 0.177975 0 0 0.015944
44 1 0.636865 0.750298 0.282152 0 0 -0.00821649
45 1 0.292387 0.9588 0.15709 0 0 0.00312337
46 1 0.540742 0.782564 0.427787 0 0 0.000501232
47 1 0.330179 0.999979 0.532044 0 0 -0.000501695
48 1 0.194259 0.991026 0.302876 0 0 0.00595418
ITEM: TIMESTEP
11
ITEM: NUMBER OF ATOMS
48
ITEM: BOX BOUNDS xy xz yz pp pp pp
-5.9081587245273726e+00 8.5889536499827912e+00 2.5120357483981479e+00
-2.3252728783138264e-03 9.4515407374878730e+00 -5.9165632558427319e+00
9.2526380721303085e-04 1.9516202358592782e+01 2.0640487290955647e-01
ITEM: ATOMS id type xs ys zs fx fy fz
1 1 0.966043 0.166737 0.0458533 0 0 -7.27802e-05
2 1 0.514274 0.0740563 0.057825 0 0 1.42762e-05
3 1 0.672467 0.124945 0.652692 0 0 -0.000149003
4 1 0.904877 0.949139 0.913977 0 0 7.19149e-05
5 1 0.57174 0.157231 0.795837 0 0 -7.09924e-06
6 1 0.356646 0.0418201 0.902005 0 0 -1.48249e-05
7 1 0.0146804 0.249904 0.775167 0 0 -4.12503e-05
8 1 0.984475 0.208422 0.408276 0 0 -0.000213709
9 1 0.230345 0.0323294 0.673908 0 0 -3.8787e-05
10 1 0.886445 0.240788 0.551554 0 0 0.000213052
11 1 0.85624 0.199305 0.184663 0 0 4.18831e-05
12 1 0.640575 0.0835469 0.285922 0 0 3.82673e-05
13 1 0.299181 0.291979 0.163993 0 0 6.60428e-06
14 1 0.542232 0.115864 0.429301 0 0 -0.000233578
15 1 0.966043 0.50007 0.0458533 0 0 -7.1945e-05
16 1 0.514274 0.40739 0.0578249 0 0 1.47694e-05
17 1 0.672467 0.458279 0.652692 0 0 -0.000148379
18 1 0.904877 0.282473 0.913977 0 0 7.24681e-05
19 1 0.57174 0.490564 0.795837 0 0 -7.16453e-06
20 1 0.356646 0.375153 0.902005 0 0 -1.47192e-05
21 1 0.0146804 0.583238 0.775167 0 0 -4.40869e-05
22 1 0.328689 0.333346 0.530529 0 0 0.000233361
23 1 0.984475 0.541755 0.408276 0 0 -0.000213575
24 1 0.230345 0.365663 0.673908 0 0 -3.49518e-05
25 1 0.886445 0.574121 0.551554 0 0 0.000212083
26 1 0.198454 0.324264 0.307138 0 0 0.000149299
27 1 0.85624 0.532639 0.184663 0 0 4.12165e-05
28 1 0.640575 0.41688 0.285922 0 0 3.67113e-05
29 1 0.299181 0.625312 0.163993 0 0 8.12233e-06
30 1 0.542232 0.449197 0.429301 0 0 -0.000233006
31 1 0.966043 0.833404 0.0458533 0 0 -7.2453e-05
32 1 0.514274 0.740723 0.0578249 0 0 1.59568e-05
33 1 0.672467 0.791612 0.652692 0 0 -0.00014634
34 1 0.904877 0.615806 0.913977 0 0 7.28312e-05
35 1 0.57174 0.823897 0.795837 0 0 -7.00193e-06
36 1 0.356646 0.708487 0.902005 0 0 -1.5929e-05
37 1 0.0146804 0.916571 0.775167 0 0 -4.12259e-05
38 1 0.328689 0.666679 0.530529 0 0 0.000232974
39 1 0.984475 0.875089 0.408276 0 0 -0.000212976
40 1 0.230345 0.698996 0.673908 0 0 -3.8512e-05
41 1 0.886445 0.907454 0.551554 0 0 0.000215151
42 1 0.198454 0.657598 0.307138 0 0 0.000146905
43 1 0.85624 0.865972 0.184663 0 0 4.16835e-05
44 1 0.640575 0.750214 0.285922 0 0 3.8747e-05
45 1 0.299181 0.958646 0.163993 0 0 8.36144e-06
46 1 0.542232 0.782531 0.429301 0 0 -0.000233115
47 1 0.328689 1.00001 0.530529 0 0 0.000233094
48 1 0.198454 0.990931 0.307138 0 0 0.000146891
