LAMMPS (4 May 2022)
units 			metal
dimension		3
boundary		p    p    p				# Periodic boundary condition
atom_style		atomic					# Only the default values, coarse-grain liquids, solids, metals
box         	tilt large				# LAMMPS normally requires that no tilt factor can skew the box more than half the distance of the parallel box length, but tilt large allow.

neighbor 0.0 bin
neigh_modify    every 10 delay 0 check no		# Check no, rebuild anyway

read_data   	copper.lmp
Reading data file ...
  triclinic box = (0 0 0) to (117 117 117) with tilt (0 0 0)
  2 by 2 by 2 MPI processor grid
  reading atoms ...
  133344 atoms
  read_data CPU = 0.134 seconds
mass            1 63.54600000

pair_style 		mdpu model.pb
# pair_style 		deepmd model.pb
# pair_style 	deepmd copper1.pb copper2.pb copper3.pb copper4.pb 100 model-devi.out
pair_coeff		* *				# Coefficient of petential function

variable        Ttarget equal 300.0			# Target tempture for annealing and MD

# compute		thermo_pe    all pe			# System potential energy
# compute 		thermo_temp  all temp
compute			mypress all  pressure thermo_temp
compute			myCNA   all cna/atom 3.10215312	# Common neighbor analysis

timestep		0.005  	# unit==psec==10^-12sec
thermo			100  	# 100==0.5psec			# Output frequency
thermo_style    custom step temp fmax fnorm c_thermo_temp c_thermo_pe press c_thermo_press[*] lx ly lz vol	# Box lengths in x,y,z

# no annealing?
# how to annealing though?

delete_atoms 	overlap 1.0 all all
System init for delete_atoms ...
Generated 0 of 0 mixed pair_coeff terms from geometric mixing rule
Neighbor list info ...
  update every 10 steps, delay 0 steps, check no
  max neighbors/atom: 2000, page size: 100000
  master list distance cutoff = 8
  ghost atom cutoff = 8
  binsize = 4, bins = 30 30 30
  3 neighbor lists, perpetual/occasional/extra = 1 2 0
  (1) command delete_atoms, occasional, copy from (2)
      attributes: full, newton on
      pair build: copy
      stencil: none
      bin: none
  (2) pair mdpu, perpetual
      attributes: full, newton on
      pair build: full/bin/atomonly
      stencil: full/bin/3d
      bin: standard
  (3) compute cna/atom, occasional, copy from (2)
      attributes: full, newton on
      pair build: copy
      stencil: none
      bin: none
Deleted 591 atoms, new total = 132753

# dump          1 all custom 100 dump.relax id type xs ys zs fx fy fz c_atom_order[*]	# dump command, fx fy fz: forces on atoms
velocity        all create ${Ttarget} 9999 dist gaussian mom yes rot yes
velocity        all create 300 9999 dist gaussian mom yes rot yes
fix             5 all npt temp ${Ttarget} ${Ttarget} $(100.0*dt) iso 0.0 0.0 $(1000.0*dt)      # Tdamp = temperature damping parameter (time units)
fix             5 all npt temp 300 ${Ttarget} $(100.0*dt) iso 0.0 0.0 $(1000.0*dt)      
fix             5 all npt temp 300 300 $(100.0*dt) iso 0.0 0.0 $(1000.0*dt)      
fix             5 all npt temp 300 300 0.5 iso 0.0 0.0 $(1000.0*dt)      
fix             5 all npt temp 300 300 0.5 iso 0.0 0.0 5      
run             10000                                                                   # Pdamp = pressure damping parameter (time units)
Generated 0 of 0 mixed pair_coeff terms from geometric mixing rule
Neighbor list info ...
  update every 10 steps, delay 0 steps, check no
  max neighbors/atom: 2000, page size: 100000
  master list distance cutoff = 8
  ghost atom cutoff = 8
  binsize = 4, bins = 30 30 30
  2 neighbor lists, perpetual/occasional/extra = 1 1 0
  (1) pair mdpu, perpetual
      attributes: full, newton on
      pair build: full/bin/atomonly
      stencil: full/bin/3d
      bin: standard
  (2) compute cna/atom, occasional, copy from (1)
      attributes: full, newton on
      pair build: copy
      stencil: none
      bin: none
Per MPI rank memory allocation (min/avg/max) = 18.72 | 18.72 | 18.72 Mbytes
   Step          Temp           Fmax          Fnorm      c_thermo_temp   c_thermo_pe       Press      c_thermo_press[1] c_thermo_press[2] c_thermo_press[3] c_thermo_press[4] c_thermo_press[5] c_thermo_press[6]       Lx             Ly             Lz           Volume    
         0   300            35.73456       1544.1975      300           -13923.854      67016.204      67714.98       66232.326      67101.306      1077.5181     -568.14375      378.9721       117            117            117            1601613      
       100   998.68971      5.9133625      466.91244      998.68971     -32222.454      37260.779      37472.05       37460.23       36850.058      5.0643472     -76.480502      469.54441      118.73307      118.73307      118.73307      1673844.5    
       200   836.61254      5.2004223      414.19041      836.61254     -34566.5        4106.1194      4418.5999      3814.0407      4085.7177     -196.08962      76.487801     -49.439817      119.43148      119.43148      119.43148      1703556.1    
       300   724.46028      4.2856522      384.47937      724.46028     -36680.756     -4196.2633     -4540.9896     -3912.3405     -4135.4596     -447.15926      150.39125      584.55136      119.42413      119.42413      119.42413      1703241.5    
       400   645.67629      3.7132397      364.42567      645.67629     -38836.344     -3747.9299     -3725.616      -4013.1101     -3505.0636     -175.50241      34.911641     -151.69558      119.12388      119.12388      119.12388      1690427.3    
       500   571.34155      3.7808361      347.34649      571.34155     -40560.411     -2884.6643     -3374.5713     -2743.4226     -2535.9991     -256.62904     -178.94891      137.45438      118.86365      118.86365      118.86365      1679373.3    
       600   512.47332      3.2714939      329.04101      512.47332     -42067.942     -2266.8709     -2638.669      -2175.12       -1986.8237     -203.02918      1.1549368      273.5178       118.64955      118.64955      118.64955      1670314.6    
       700   459.69724      3.155941       313.55133      459.69724     -43264.454     -1717.5456     -1967.3153     -1517.8338     -1667.4878     -217.2373      -203.8169       18.374191      118.46565      118.46565      118.46565      1662560.2    
       800   416.73504      2.9122105      299.39686      416.73504     -44260.015     -1134.4798     -1453.0321     -1053.0338     -897.37361     -187.015       -423.00804      160.54392      118.32204      118.32204      118.32204      1656521.1    
       900   379.96493      2.8204994      286.79858      379.96493     -45050.09      -883.25518     -1441.8266     -438.93929     -768.99965     -366.27719     -355.20691      188.19071      118.20346      118.20346      118.20346      1651545.6    
      1000   350.87401      2.4372311      276.08585      350.87401     -45699.348     -646.17746     -935.00632     -489.77563     -513.75043     -137.76774     -554.5121       110.49707      118.11495      118.11495      118.11495      1647838.4    
      1100   327.32517      2.4157925      267.16484      327.32517     -46205.113     -393.19134     -513.9464      -505.32484     -160.30278     -130.97983     -418.25259      5.8159189      118.03773      118.03773      118.03773      1644608.4    
      1200   309.46842      2.8542042      259.8245       309.46842     -46590.423     -328.04066     -584.42637     -392.79546     -6.9001373     -15.201228     -497.69325     -61.82294       117.98737      117.98737      117.98737      1642504.3    
      1300   296.89281      2.3032913      255.64467      296.89281     -46848.336     -105.21661     -210.87088     -96.369741     -8.409224       125.8669      -553.77374      238.91521      117.94595      117.94595      117.94595      1640775.3    
      1400   291.57344      2.2741108      253.05331      291.57344     -46995.444     -48.101843     -352.07018     -97.23899       305.00364     -21.635129     -251.42985      65.201958      117.92732      117.92732      117.92732      1639997.7    
      1500   292.65452      2.2831726      254.82225      292.65452     -46983.062      178.42667     -110.07278      181.48611      463.8667       82.562484     -212.42397     -18.688605      117.92076      117.92076      117.92076      1639724.1    
      1600   300.55668      2.34412        256.80557      300.55668     -46898.487      53.560293     -320.12116      126.97657      353.82547     -55.97132      -378.43434      87.541528      117.93612      117.93612      117.93612      1640364.8    
      1700   305.52229      2.3266869      259.76363      305.52229     -46797.773      58.657481     -262.50891      206.13038      232.35097     -257.80386     -434.84974     -18.412659      117.94864      117.94864      117.94864      1640887.7    
      1800   305.72246      2.2245159      259.436        305.72246     -46813.434     -49.188085     -370.10108     -43.627511      266.16433     -250.68094     -252.03279     -76.12795       117.95115      117.95115      117.95115      1640992.1    
      1900   300.45161      2.0445766      257.33795      300.45161     -46920.829     -83.221508     -474.60094     -317.5351       542.47151      19.757865     -562.55147      274.94856      117.93643      117.93643      117.93643      1640377.8    
      2000   295.06329      2.196846       255.38025      295.06329     -47024.966      13.704749     -269.58933     -101.61522      412.3188      -182.65544     -564.25541      58.541207      117.92118      117.92118      117.92118      1639741.8    
      2100   294.56589      2.1720791      254.81784      294.56589     -47067.183      42.767523     -495.48778     -25.74501       649.53536     -226.60743     -654.21439      79.487704      117.91428      117.91428      117.91428      1639453.7    
      2200   297.48726      2.08325        256.75008      297.48726     -47000.344      77.89603      -404.7424      -41.581371      680.01186     -144.41207     -576.17793      32.333238      117.92122      117.92122      117.92122      1639743.3    
      2300   303.22772      2.2266197      258.64413      303.22772     -46933.138     -58.351201     -652.80541     -37.95024       515.70205     -71.996454     -488.67875      0.61851584     117.93428      117.93428      117.93428      1640288.2    
      2400   304.76325      2.3789177      259.20478      304.76325     -46896.146      2.700317      -385.959       -18.808502      412.86845     -375.04833     -431.53516      57.846119      117.93786      117.93786      117.93786      1640437.6    
      2500   301.86652      2.3017559      258.41794      301.86652     -46940.83      -94.850851     -388.37437     -223.16939      326.99121     -298.45494     -340.54781      146.69083      117.93523      117.93523      117.93523      1640327.8    
      2600   297.96658      2.1875954      256.7538       297.96658     -47038.588      8.8447834     -316.76301     -71.594348      414.89171     -182.65063     -650.54749     -113.16096      117.91865      117.91865      117.91865      1639636.1    
      2700   295.36943      2.2376022      256.03146      295.36943     -47088.871      25.215104     -394.48244     -15.593581      485.72134     -133.03714     -550.44824      179.01363      117.91411      117.91411      117.91411      1639446.8    
      2800   298.05306      2.2407837      255.74638      298.05306     -47094.441      25.170508     -423.91426      17.035168      482.39062     -174.663       -458.90956      260.80713      117.91293      117.91293      117.91293      1639397.5    
      2900   301.22804      2.4151611      257.60094      301.22804     -47020.62      -3.0475662     -569.86087     -20.253232      580.9714      -21.369115     -375.36035      64.880333      117.92264      117.92264      117.92264      1639802.5    
      3000   304.66272      2.0405788      258.24057      304.66272     -46983.564     -60.793895     -353.92107     -178.68126      350.22065     -69.021965     -419.64278      193.15663      117.93021      117.93021      117.93021      1640118.3    
      3100   303.65405      2.1617775      258.54915      303.65405     -46989.033     -57.952971     -169.02571     -104.03627      99.203063     -328.22861     -420.55482      183.64629      117.9282       117.9282       117.9282       1640034.7    
      3200   300.20399      2.4461594      256.75981      300.20399     -47052.284     -77.065143     -377.92371      21.478853      125.24943     -152.92145     -548.58694      412.73354      117.92057      117.92057      117.92057      1639716.3    
      3300   296.44727      2.2542801      256.14529      296.44727     -47099.115      41.228963     -256.18657      139.39532      240.47814     -248.11581     -470.72224      238.39794      117.91028      117.91028      117.91028      1639287      
      3400   297.03426      2.0185585      255.76722      297.03426     -47122.299      44.031938     -371.57323      424.43836      79.230691     -160.03203     -340.39309      302.03441      117.90803      117.90803      117.90803      1639193.2    
      3500   299.32991      2.3620071      256.8116       299.32991     -47071.823      6.7805492     -414.9265       164.3477       270.92045     -227.15678     -317.82817      260.38334      117.91595      117.91595      117.91595      1639523.4    
      3600   302.52676      2.1998711      258.12037      302.52676     -47017.354      9.0974817     -170.46942     -12.180235      209.9421      -62.096846     -122.24025      155.38592      117.9228       117.9228       117.9228       1639809.2    
      3700   304.00976      2.1684303      258.00187      304.00976     -47012.589     -47.896039     -541.07004      58.631617      338.7503      -149.62854     -258.44393      127.05116      117.92516      117.92516      117.92516      1639907.9    
      3800   300.95019      2.4755726      257.5819       300.95019     -47037.766     -44.911443     -488.89146      163.83222      190.32491     -172.40886     -353.1107       309.51516      117.91995      117.91995      117.91995      1639690.5    
      3900   298.05802      2.1612778      257.10885      298.05802     -47102.127     -9.1516574     -368.14118      40.159964      300.52624     -77.454674     -277.39184      170.45187      117.91175      117.91175      117.91175      1639348.3    
      4000   296.72177      2.110096       255.8959       296.72177     -47132.186     -3.9839636     -196.51735     -78.756316      263.32178     -17.956208     -265.00014      484.74947      117.90894      117.90894      117.90894      1639231      
      4100   297.87624      2.2082653      257.05279      297.87624     -47101.795      128.70698     -371.07998      302.32016      454.88075     -52.440457     -180.13726      258.66709      117.90765      117.90765      117.90765      1639177.5    
      4200   301.17176      2.4378929      257.93344      301.17176     -47052.946     -61.056012     -424.1934       3.2111376      237.81423     -111.25632     -105.97927      288.25959      117.92042      117.92042      117.92042      1639710      
      4300   302.63561      2.6317997      258.73154      302.63561     -47012.92       8.0198693     -323.47319      28.544499      318.9883      -211.54972     -270.94439      266.6097       117.92177      117.92177      117.92177      1639766.3    
      4400   302.67353      2.1819267      257.96956      302.67353     -47046.7       -110.0165      -477.51929     -182.76562      330.23541     -174.05944     -316.83135      341.95589      117.92136      117.92136      117.92136      1639749.2    
      4500   299.11864      2.1483173      257.36376      299.11864     -47089.069      72.913325     -426.72185      222.94506      422.51676     -174.84566     -354.89664      160.84241      117.91188      117.91188      117.91188      1639354      
      4600   297.20466      2.1491203      256.20635      297.20466     -47138.78       0.43994142    -378.8189      -57.861754      438.00048     -216.68603     -192.31312      350.48177      117.90704      117.90704      117.90704      1639152      
      4700   297.56607      2.1004925      256.02425      297.56607     -47141.808     -20.618299     -373.18599     -2.2662921      313.59739     -243.88606     -222.89212      361.91584      117.90791      117.90791      117.90791      1639188.3    
      4800   300.00287      3.0276356      257.59384      300.00287     -47099.817      12.181736     -238.51587     -79.666344      354.72742     -291.80949     -274.134        286.10988      117.91232      117.91232      117.91232      1639372.2    
      4900   302.56399      2.0731087      258.59281      302.56399     -47055.135     -6.146417      -370.85204      67.153273      285.25952     -132.51638     -231.45726      175.22108      117.91961      117.91961      117.91961      1639676.1    
      5000   302.82819      2.7911587      258.68403      302.82819     -47046.957     -72.591999     -351.58902     -152.35605      286.16907     -100.70666     -154.68636      234.36704      117.9205       117.9205       117.9205       1639713.4    
      5100   300.80983      2.3571472      258.01443      300.80983     -47085.787     -19.992688     -533.71646      240.7416       232.9968      -119.85393     -149.57678      264.1868       117.91598      117.91598      117.91598      1639524.8    
      5200   298.36212      2.0847683      256.90497      298.36212     -47137.647     -6.0124705     -503.74612      149.35363      336.35508     -14.310914     -142.11348      178.74516      117.9082       117.9082       117.9082       1639200.3    
      5300   297.00435      2.2269402      256.52967      297.00435     -47146.894      40.008821     -304.69794      124.2827       300.4417      -113.23123     -112.66638      164.98816      117.90482      117.90482      117.90482      1639059.4    
      5400   298.71743      2.3873672      256.94134      298.71743     -47124.455     -32.493407     -444.38737     -26.612138      373.51928     -194.34387     -151.0262       175.79358      117.90994      117.90994      117.90994      1639272.8    
      5500   301.02712      2.3504982      258.41378      301.02712     -47073.362      66.940257     -141.55673     -2.1849758      344.56248     -94.472345     -327.14376      285.21532      117.91401      117.91401      117.91401      1639442.8    
      5600   302.73079      2.3996792      258.63607      302.73079     -47053.246     -61.29032      -452.53083     -133.15981      401.81968     -59.452864     -393.43202      212.0965       117.92032      117.92032      117.92032      1639706      
      5700   301.64018      2.6808891      258.23204      301.64018     -47072.824     -28.223834     -417.75917     -96.994024      430.0817      -173.21127     -236.41628      314.03397      117.91587      117.91587      117.91587      1639520.3    
      5800   298.97415      2.2857685      257.52245      298.97415     -47119.25       15.201354     -303.63354     -137.78515      487.02275     -5.9016833     -286.52713      285.5677       117.9098       117.9098       117.9098       1639267      
      5900   297.49805      2.3385124      256.45559      297.49805     -47159.595      12.209627     -345.60195      26.245739      355.98509     -138.75787     -369.21693      225.93287      117.90505      117.90505      117.90505      1639068.8    
      6000   298.31954      2.0110054      255.99971      298.31954     -47160.307      52.197562     -345.39338      50.390198      451.59587      66.20008      -292.23467      417.6264       117.90309      117.90309      117.90309      1638987.1    
      6100   300.08804      2.4650936      257.66349      300.08804     -47114.253     -65.200813     -314.2949      -67.762461      186.45492     -87.806727     -185.68197      365.67494      117.9124       117.9124       117.9124       1639375.5    
      6200   302.89723      2.1811237      257.72218      302.89723     -47091.127      21.340199     -260.85448     -145.47359      470.34867     -145.64419     -299.45415      315.88905      117.91383      117.91383      117.91383      1639435.3    
      6300   301.88695      2.2955227      258.6811       301.88695     -47073.399     -37.47568      -324.67784     -332.80375      545.05456     -87.443493     -259.23611      160.68943      117.91699      117.91699      117.91699      1639566.9    
      6400   300.19227      2.0696888      257.48746      300.19227     -47116.059     -18.83883      -478.93135     -167.10727      589.52213     -219.3786      -338.4485       367.34103      117.9102       117.9102       117.9102       1639283.8    
      6500   298.55603      2.19347        256.87876      298.55603     -47166.986      24.590548     -272.85641      170.75672      175.87133     -190.85594     -303.16013      152.05205      117.90339      117.90339      117.90339      1638999.5    
      6600   297.70339      2.3155918      256.3666       297.70339     -47171.487     -30.33534      -290.99738      26.021233      173.97013     -234.38328     -367.03071      261.62053      117.90412      117.90412      117.90412      1639030      
      6700   299.92944      2.1546574      257.05216      299.92944     -47156.28      -21.397823     -283.01163     -97.920881      316.73904     -72.750579     -292.34426      287.30965      117.90565      117.90565      117.90565      1639094.1    
      6800   301.651        2.191433       257.55355      301.651       -47108.738     -77.989644     -431.24912     -198.68677      395.96695     -132.37895     -382.46537      394.96775      117.91323      117.91323      117.91323      1639410      
      6900   301.86775      2.2739887      258.84019      301.86775     -47078.456      82.138185     -39.98486      -40.441957      326.84137     -145.20504     -288.73023      320.67093      117.91336      117.91336      117.91336      1639415.7    
      7000   302.61168      2.0425415      257.38531      302.61168     -47133.761     -148.74663     -393.04289     -176.32588      123.12888     -120.3396      -189.03123      345.26474      117.91301      117.91301      117.91301      1639400.8    
      7100   298.58305      2.2609138      257.2226       298.58305     -47142.892      26.962881     -163.72081     -20.548307      265.15776     -259.53106     -199.98363      317.52664      117.90552      117.90552      117.90552      1639088.7    
      7200   298.1039       2.4132862      256.57916      298.1039      -47183.409     -32.11534      -228.79709     -3.3363537      135.78743     -267.23319     -198.81456      411.53114      117.90189      117.90189      117.90189      1638937.2    
      7300   297.84309      2.5012989      256.85593      297.84309     -47156.815      11.132732     -212.09943     -28.390511      273.88813     -302.07684     -111.49536      340.29718      117.90336      117.90336      117.90336      1638998.5    
      7400   300.08262      2.1192055      258.00065      300.08262     -47122.263      42.363582     -125.64231     -203.89595      456.629       -137.76175     -183.01111      288.88909      117.90699      117.90699      117.90699      1639149.7    
      7500   301.53339      2.1944313      258.52692      301.53339     -47089.456     -78.191617     -356.58073     -333.29607      455.30195     -355.23876     -203.4361       374.03005      117.91535      117.91535      117.91535      1639498.4    
      7600   302.13668      2.4026642      258.44891      302.13668     -47110.122      73.052961     -55.482889      105.59955      169.04222     -233.66267     -184.37478      245.21527      117.90924      117.90924      117.90924      1639243.6    
      7700   299.97988      2.2508564      257.11894      299.97988     -47140.389     -95.526013     -532.05336      3.0368599      242.43846     -98.31624      -299.92356      422.79791      117.9097       117.9097       117.9097       1639262.9    
      7800   298.18494      2.2184124      256.72341      298.18494     -47174.571      97.40934      -43.245164     -52.57454       388.04772     -268.66473     -291.27436      200.48914      117.90026      117.90026      117.90026      1638869.2    
      7900   297.96391      2.7880096      256.76571      297.96391     -47179.072     -55.12307      -407.87733     -211.95197      454.46008     -116.87484     -294.80413      247.13065      117.90419      117.90419      117.90419      1639033.2    
      8000   300.31445      2.2337513      256.63946      300.31445     -47166.295      33.165169     -226.39675      71.731471      254.16079     -163.68688     -385.11938      169.63437      117.90293      117.90293      117.90293      1638980.6    
      8100   301.27503      2.2663841      258.36296      301.27503     -47115.816     -70.578647     -315.31949     -167.71087      271.29441     -290.99251     -304.2763       443.88885      117.91162      117.91162      117.91162      1639342.9    
      8200   302.00429      2.6956844      258.3784       302.00429     -47108.159      30.609549     -368.84975     -110.0193       570.69769     -165.8851      -112.70519      307.57723      117.90923      117.90923      117.90923      1639243.1    
      8300   301.56005      2.3594856      257.25942      301.56005     -47147.318     -116.66605     -426.94888     -293.06883      370.01957     -108.53281     -112.29416      370.25529      117.90957      117.90957      117.90957      1639257.4    
      8400   298.71836      2.255352       256.94488      298.71836     -47171.478      1.5562337     -359.40267     -45.380476      409.45184     -160.16559     -295.21872      449.6389       117.90068      117.90068      117.90068      1638886.7    
      8500   298.7853       2.1473846      256.41594      298.7853      -47205.576     -23.770642     -311.86622     -227.62665      468.18094     -330.04349     -401.05691      459.35097      117.90123      117.90123      117.90123      1638909.6    
      8600   298.02868      2.1268997      257.33784      298.02868     -47162.922      97.027342      22.576602     -122.47176      390.97718     -176.16428     -385.45805      370.49445      117.90089      117.90089      117.90089      1638895.6    
      8700   301.32298      2.3501873      257.48543      301.32298     -47154.578     -93.599811     -277.2652      -244.85188      241.31764     -7.1244147     -371.25948      438.5071       117.90596      117.90596      117.90596      1639107      
      8800   302.27547      2.2089653      258.08981      302.27547     -47126.586     -88.068919     -303.65028     -131.0607       170.50423      22.669611     -317.03573      240.37053      117.91129      117.91129      117.91129      1639329.1    
      8900   300.76892      2.2396736      258.26917      300.76892     -47119.647      53.103847     -294.31036     -34.944779      488.56667     -163.925       -441.58129      320.2659       117.90718      117.90718      117.90718      1639157.6    
      9000   299.82556      2.4164753      257.06436      299.82556     -47167.548     -103.65049     -565.38755     -178.77266      433.20872     -390.42885     -388.71197      198.53311      117.90566      117.90566      117.90566      1639094.2    
      9100   298.65739      2.1476192      256.7828       298.65739     -47201.582      46.462207     -3.397732      -119.0479       261.83225     -165.74062     -229.23229      414.63453      117.89759      117.89759      117.89759      1638758      
      9200   298.33399      2.190794       256.81124      298.33399     -47196.952     -52.665224     -262.71663     -267.41593      372.13689     -110.82353     -382.80057      313.63342      117.90194      117.90194      117.90194      1638939.1    
      9300   300.05679      2.2735767      257.30854      300.05679     -47174.593      64.890228     -316.90191     -15.90628       527.47887     -217.2918      -403.71614      274.4369       117.90044      117.90044      117.90044      1638876.6    
      9400   301.64898      2.2857685      257.92945      301.64898     -47142.089     -70.112924     -322.90174     -125.62513      238.1881      -37.846872     -352.63139      379.43624      117.90968      117.90968      117.90968      1639262      
      9500   301.54796      2.3734779      258.57131      301.54796     -47125.297      34.250989     -175.26286     -26.53983       304.55566     -200.06902     -350.4763       312.9039       117.90745      117.90745      117.90745      1639169.1    
      9600   300.77458      2.2061749      257.24684      300.77458     -47158.966     -46.986244     -560.51869     -58.429179      477.98914     -164.52714     -413.32358      192.79674      117.90553      117.90553      117.90553      1639088.8    
      9700   299.02583      2.2919617      256.90693      299.02583     -47193.933      31.391238     -248.85637     -47.316721      390.3468      -103.14963     -262.88434      394.52435      117.89977      117.89977      117.89977      1638848.6    
      9800   297.9523       2.149744       256.73707      297.9523      -47204.821      28.665051     -186.32789      47.024502      225.29855     -137.09166     -207.71034      375.1315       117.89801      117.89801      117.89801      1638775.4    
      9900   298.47413      2.1801796      256.90601      298.47413     -47182.186      54.744924     -312.44958      117.0047       359.67966     -61.823095     -220.315        463.03055      117.8997       117.8997       117.8997       1638845.8    
     10000   300.38744      2.4739952      257.8258       300.38744     -47151.162      28.74846      -232.53593      67.793376      250.98793     -257.78809     -367.68562      272.48568      117.90451      117.90451      117.90451      1639046.5    
Loop time of 619.087 on 8 procs for 10000 steps with 132753 atoms

Performance: 6.978 ns/day, 3.439 hours/ns, 16.153 timesteps/s
90.5% CPU use with 8 MPI tasks x no OpenMP threads

MPI task timing breakdown:
Section |  min time  |  avg time  |  max time  |%varavg| %total
---------------------------------------------------------------
Pair    | 522.09     | 538.5      | 554.33     |  46.4 | 86.98
Neigh   | 53.248     | 54.436     | 55.735     |  11.0 |  8.79
Comm    | 3.6797     | 20.824     | 37.883     | 245.6 |  3.36
Output  | 0.019542   | 0.019879   | 0.021171   |   0.3 |  0.00
Modify  | 4.8189     | 4.8762     | 4.916      |   1.4 |  0.79
Other   |            | 0.4297     |            |       |  0.07

Nlocal:        16594.1 ave       16639 max       16562 min
Histogram: 1 0 2 1 2 1 0 0 0 1
Nghost:        17487.4 ave       17549 max       17431 min
Histogram: 2 0 0 1 2 0 1 0 0 2
Neighs:              0 ave           0 max           0 min
Histogram: 8 0 0 0 0 0 0 0 0 0
FullNghs:  2.87661e+06 ave 2.89186e+06 max 2.86445e+06 min
Histogram: 1 1 0 3 1 0 0 0 1 1

Total # of neighbors = 23012880
Ave neighs/atom = 173.35111
Neighbor list builds = 1000
Dangerous builds not checked
unfix           5

min_style       cg
min_modify      dmax 0.01 norm max
fix             1 all box/relax iso 0.0
minimize        1.000000e-13 1.000000e+3 5000 5000
WARNING: Using 'neigh_modify every 1 delay 0 check yes' setting during minimization (../min.cpp:187)
Generated 0 of 0 mixed pair_coeff terms from geometric mixing rule
Per MPI rank memory allocation (min/avg/max) = 23.59 | 23.6 | 23.6 Mbytes
   Step          Temp           Fmax          Fnorm      c_thermo_temp   c_thermo_pe       Press      c_thermo_press[1] c_thermo_press[2] c_thermo_press[3] c_thermo_press[4] c_thermo_press[5] c_thermo_press[6]       Lx             Ly             Lz           Volume    
     10000   300.38744      2.4739952      257.8258       300.38744     -47151.162      28.74846      -232.53593      67.793376      250.98793     -257.78809     -367.68562      272.48568      117.90451      117.90451      117.90451      1639046.5    
     10009   300.38744      2.4996834      260.61824      300.38744     -47156.011      3389.0301      3123.791       3431.5216      3611.7776     -261.23062     -370.44223      274.04741      117.79877      117.79877      117.79877      1634640.4    
Loop time of 1.34668 on 8 procs for 9 steps with 132753 atoms

94.6% CPU use with 8 MPI tasks x no OpenMP threads

Minimization stats:
  Stopping criterion = force tolerance
  Energy initial, next-to-last, final = 
     -47151.1617354155  -47155.8873400688  -47156.0109050274
  Force two-norm initial, final = 10224.044 268.39367
  Force max component initial, final = 10220.792 64.134999
  Final line search alpha, max atom move = 9.4739137e-08 6.0760945e-06
  Iterations, force evaluations = 9 10

MPI task timing breakdown:
Section |  min time  |  avg time  |  max time  |%varavg| %total
---------------------------------------------------------------
Pair    | 0.67871    | 0.76443    | 0.81092    |   4.9 | 56.76
Neigh   | 0.50638    | 0.54326    | 0.6283     |   6.4 | 40.34
Comm    | 0.0075185  | 0.027771   | 0.0583     |   9.8 |  2.06
Output  | 0          | 0          | 0          |   0.0 |  0.00
Modify  | 0          | 0          | 0          |   0.0 |  0.00
Other   |            | 0.01121    |            |       |  0.83

Nlocal:        16594.1 ave       16639 max       16562 min
Histogram: 1 0 2 1 2 1 0 0 0 1
Nghost:        17504.6 ave       17561 max       17450 min
Histogram: 2 0 1 0 1 1 1 0 0 2
Neighs:              0 ave           0 max           0 min
Histogram: 8 0 0 0 0 0 0 0 0 0
FullNghs:  2.88337e+06 ave 2.89849e+06 max 2.87123e+06 min
Histogram: 1 1 0 3 1 0 0 0 1 1

Total # of neighbors = 23066980
Ave neighs/atom = 173.75863
Neighbor list builds = 10
Dangerous builds not checked
unfix           1
fix             1 all box/relax aniso 0.0
minimize        1.000000e-13 2.000000e+2 5000 5000
WARNING: Using 'neigh_modify every 1 delay 0 check yes' setting during minimization (../min.cpp:187)
Generated 0 of 0 mixed pair_coeff terms from geometric mixing rule
Per MPI rank memory allocation (min/avg/max) = 23.59 | 23.6 | 23.6 Mbytes
   Step          Temp           Fmax          Fnorm      c_thermo_temp   c_thermo_pe       Press      c_thermo_press[1] c_thermo_press[2] c_thermo_press[3] c_thermo_press[4] c_thermo_press[5] c_thermo_press[6]       Lx             Ly             Lz           Volume    
     10009   300.38744      2.4996834      260.61824      300.38744     -47156.011      3389.0301      3123.791       3431.5216      3611.7776     -261.23062     -370.44223      274.04741      117.79877      117.79877      117.79877      1634640.4    
     10010   300.38744      2.4989166      260.59281      300.38744     -47156.085      3358.1925      3207.822       3370.7622      3495.9932     -260.30717     -368.50088      271.478        117.78699      117.80267      117.8095       1634680.2    
Loop time of 0.17971 on 8 procs for 1 steps with 132753 atoms

94.3% CPU use with 8 MPI tasks x no OpenMP threads

Minimization stats:
  Stopping criterion = force tolerance
  Energy initial, next-to-last, final = 
     -47156.0109050274  -47156.0109050274  -47156.0845685005
  Force two-norm initial, final = 450.20078 339.19422
  Force max component initial, final = 263.50625 177.71077
  Final line search alpha, max atom move = 3.7949763e-07 6.7440817e-05
  Iterations, force evaluations = 1 1

MPI task timing breakdown:
Section |  min time  |  avg time  |  max time  |%varavg| %total
---------------------------------------------------------------
Pair    | 0.092367   | 0.11951    | 0.12501    |   3.0 | 66.50
Neigh   | 0.050294   | 0.05487    | 0.080776   |   4.2 | 30.53
Comm    | 0.00085096 | 0.003521   | 0.0061518  |   2.9 |  1.96
Output  | 0          | 0          | 0          |   0.0 |  0.00
Modify  | 0          | 0          | 0          |   0.0 |  0.00
Other   |            | 0.00181    |            |       |  1.01

Nlocal:        16594.1 ave       16639 max       16562 min
Histogram: 1 0 2 1 2 1 0 0 0 1
Nghost:        17505.2 ave       17562 max       17450 min
Histogram: 2 0 0 1 1 1 1 0 0 2
Neighs:              0 ave           0 max           0 min
Histogram: 8 0 0 0 0 0 0 0 0 0
FullNghs:  2.88331e+06 ave 2.89839e+06 max  2.8712e+06 min
Histogram: 1 1 0 3 1 0 0 0 1 1

Total # of neighbors = 23066476
Ave neighs/atom = 173.75484
Neighbor list builds = 1
Dangerous builds not checked
unfix           1
fix             1 all box/relax tri 0.0
minimize        1.000000e-13 1.000000e+2 5000 5000
WARNING: Using 'neigh_modify every 1 delay 0 check yes' setting during minimization (../min.cpp:187)
Generated 0 of 0 mixed pair_coeff terms from geometric mixing rule
Per MPI rank memory allocation (min/avg/max) = 23.59 | 23.6 | 23.6 Mbytes
   Step          Temp           Fmax          Fnorm      c_thermo_temp   c_thermo_pe       Press      c_thermo_press[1] c_thermo_press[2] c_thermo_press[3] c_thermo_press[4] c_thermo_press[5] c_thermo_press[6]       Lx             Ly             Lz           Volume    
     10010   300.38744      2.4989166      260.59281      300.38744     -47156.085      3358.1925      3207.822       3370.7622      3495.9932     -260.30717     -368.50088      271.478        117.78699      117.80267      117.8095       1634680.2    
     10017   300.38744      2.4988213      260.59758      300.38744     -47156.144      3364.382       3249.6642      3369.1211      3474.3607     -234.71069     -325.63044      240.71908      117.78301      117.80328      117.81229      1634672.1    
Loop time of 13.2458 on 8 procs for 7 steps with 132753 atoms

95.3% CPU use with 8 MPI tasks x no OpenMP threads

Minimization stats:
  Stopping criterion = quadratic factors are zero
  Energy initial, next-to-last, final = 
     -47156.0845685005  -47156.1436965466  -47156.1436965466
  Force two-norm initial, final = 635.13316 569.60707
  Force max component initial, final = 381.73608 337.99463
  Final line search alpha, max atom move = 2.8215664e-13 9.5367429e-11
  Iterations, force evaluations = 7 102

MPI task timing breakdown:
Section |  min time  |  avg time  |  max time  |%varavg| %total
---------------------------------------------------------------
Pair    | 6.4446     | 7.3282     | 7.7611     |  14.8 | 55.32
Neigh   | 5.1632     | 5.578      | 6.5753     |  20.0 | 42.11
Comm    | 0.074797   | 0.24776    | 0.4113     |  22.4 |  1.87
Output  | 0          | 0          | 0          |   0.0 |  0.00
Modify  | 0          | 0          | 0          |   0.0 |  0.00
Other   |            | 0.09182    |            |       |  0.69

Nlocal:        16594.1 ave       16639 max       16562 min
Histogram: 1 0 2 1 2 1 0 0 0 1
Nghost:        17505.2 ave       17562 max       17450 min
Histogram: 2 0 0 1 1 1 1 0 0 2
Neighs:              0 ave           0 max           0 min
Histogram: 8 0 0 0 0 0 0 0 0 0
FullNghs:  2.88332e+06 ave 2.89842e+06 max  2.8712e+06 min
Histogram: 1 1 0 3 1 0 0 0 1 1

Total # of neighbors = 23066582
Ave neighs/atom = 173.75564
Neighbor list builds = 102
Dangerous builds not checked
unfix           1

timestep        0.0005
min_style       quickmin
min_modify      dmax 0.01 norm max
fix             2 all viscous 0.2
minimize        0.0 100 5000 5000
WARNING: Using 'neigh_modify every 1 delay 0 check yes' setting during minimization (../min.cpp:187)
Generated 0 of 0 mixed pair_coeff terms from geometric mixing rule
Per MPI rank memory allocation (min/avg/max) = 20.22 | 20.22 | 20.23 Mbytes
   Step          Temp           Fmax          Fnorm      c_thermo_temp   c_thermo_pe       Press      c_thermo_press[1] c_thermo_press[2] c_thermo_press[3] c_thermo_press[4] c_thermo_press[5] c_thermo_press[6]       Lx             Ly             Lz           Volume    
     10017   0              2.4988213      260.59758      0             -47156.144     -3.6479216     -132.33431      23.340144      98.050403     -226.28645     -331.34682      240.51134      117.78301      117.80328      117.81229      1634672.1    
     10018   0.075113529    2.4608803      256.64079      0.075113529   -47156.144     -2.8057272     -131.49035      24.18153       98.891638     -226.28385     -331.34643      240.51412      117.78301      117.80328      117.81229      1634672.1    
Loop time of 0.111086 on 8 procs for 1 steps with 132753 atoms

88.9% CPU use with 8 MPI tasks x no OpenMP threads

Minimization stats:
  Stopping criterion = force tolerance
  Energy initial, next-to-last, final = 
     -47156.1436965466  -47156.1436965466  -47156.1436965466
  Force two-norm initial, final = 260.59758 256.64079
  Force max component initial, final = 2.4988213 2.4608803
  Final line search alpha, max atom move = 0 0
  Iterations, force evaluations = 1 1

MPI task timing breakdown:
Section |  min time  |  avg time  |  max time  |%varavg| %total
---------------------------------------------------------------
Pair    | 0.10437    | 0.10702    | 0.1097     |   0.5 | 96.34
Neigh   | 0          | 0          | 0          |   0.0 |  0.00
Comm    | 0.00056666 | 0.0032373  | 0.0058748  |   3.1 |  2.91
Output  | 0          | 0          | 0          |   0.0 |  0.00
Modify  | 0.00015641 | 0.00016478 | 0.00017295 |   0.0 |  0.15
Other   |            | 0.0006646  |            |       |  0.60

Nlocal:        16594.1 ave       16639 max       16562 min
Histogram: 1 0 2 1 2 1 0 0 0 1
Nghost:        17505.2 ave       17562 max       17450 min
Histogram: 2 0 0 1 1 1 1 0 0 2
Neighs:              0 ave           0 max           0 min
Histogram: 8 0 0 0 0 0 0 0 0 0
FullNghs:  2.88332e+06 ave 2.89842e+06 max  2.8712e+06 min
Histogram: 1 1 0 3 1 0 0 0 1 1

Total # of neighbors = 23066582
Ave neighs/atom = 173.75564
Neighbor list builds = 0
Dangerous builds not checked
unfix           2

min_style       cg
min_modify      dmax 0.01 norm max
fix             1 all box/relax tri 0.0
minimize        1.000000e-13 5.000000e+1 1000 10000
WARNING: Using 'neigh_modify every 1 delay 0 check yes' setting during minimization (../min.cpp:187)
Generated 0 of 0 mixed pair_coeff terms from geometric mixing rule
Per MPI rank memory allocation (min/avg/max) = 23.59 | 23.6 | 23.6 Mbytes
   Step          Temp           Fmax          Fnorm      c_thermo_temp   c_thermo_pe       Press      c_thermo_press[1] c_thermo_press[2] c_thermo_press[3] c_thermo_press[4] c_thermo_press[5] c_thermo_press[6]       Lx             Ly             Lz           Volume    
     10018   0.075113529    2.4988213      260.59758      0.075113529   -47156.144     -2.8057272     -131.49035      24.18153       98.891638     -226.28385     -331.34643      240.51412      117.78301      117.80328      117.81229      1634672.1    
     10019   0.075113529    2.4988213      260.59758      0.075113529   -47156.144     -2.8057272     -131.49035      24.18153       98.891638     -226.28385     -331.34643      240.51412      117.78301      117.80328      117.81229      1634672.1    
Loop time of 2.85933 on 8 procs for 1 steps with 132753 atoms

95.3% CPU use with 8 MPI tasks x no OpenMP threads

Minimization stats:
  Stopping criterion = quadratic factors are zero
  Energy initial, next-to-last, final = 
     -47156.1436965466  -47156.1436965466  -47156.1436965466
  Force two-norm initial, final = 569.59703 569.59703
  Force max component initial, final = 337.98323 337.98323
  Final line search alpha, max atom move = 2.8216616e-13 9.5367432e-11
  Iterations, force evaluations = 1 22

MPI task timing breakdown:
Section |  min time  |  avg time  |  max time  |%varavg| %total
---------------------------------------------------------------
Pair    | 1.321      | 1.5831     | 1.6829     |  10.2 | 55.37
Neigh   | 1.1112     | 1.2019     | 1.4674     |  12.5 | 42.03
Comm    | 0.015622   | 0.051      | 0.090027   |  10.3 |  1.78
Output  | 0          | 0          | 0          |   0.0 |  0.00
Modify  | 0          | 0          | 0          |   0.0 |  0.00
Other   |            | 0.0233     |            |       |  0.81

Nlocal:        16594.1 ave       16639 max       16562 min
Histogram: 1 0 2 1 2 1 0 0 0 1
Nghost:        17505.2 ave       17562 max       17450 min
Histogram: 2 0 0 1 1 1 1 0 0 2
Neighs:              0 ave           0 max           0 min
Histogram: 8 0 0 0 0 0 0 0 0 0
FullNghs:  2.88332e+06 ave 2.89842e+06 max  2.8712e+06 min
Histogram: 1 1 0 3 1 0 0 0 1 1

Total # of neighbors = 23066582
Ave neighs/atom = 173.75564
Neighbor list builds = 22
Dangerous builds not checked
unfix           1

timestep        0.0005
min_style       quickmin
min_modify      dmax 0.01 norm max
fix             2 all viscous 0.2
minimize        0.0 2.0e+1 10000 10000
WARNING: Using 'neigh_modify every 1 delay 0 check yes' setting during minimization (../min.cpp:187)
Generated 0 of 0 mixed pair_coeff terms from geometric mixing rule
Per MPI rank memory allocation (min/avg/max) = 20.22 | 20.22 | 20.23 Mbytes
   Step          Temp           Fmax          Fnorm      c_thermo_temp   c_thermo_pe       Press      c_thermo_press[1] c_thermo_press[2] c_thermo_press[3] c_thermo_press[4] c_thermo_press[5] c_thermo_press[6]       Lx             Ly             Lz           Volume    
     10019   0              2.4988213      260.59758      0             -47156.144     -3.6479216     -132.33431      23.340144      98.050403     -226.28645     -331.34682      240.51134      117.78301      117.80328      117.81229      1634672.1    
     10020   0.075113529    2.4608803      256.64079      0.075113529   -47156.144     -2.8057272     -131.49035      24.18153       98.891638     -226.28385     -331.34643      240.51412      117.78301      117.80328      117.81229      1634672.1    
Loop time of 0.0996388 on 8 procs for 1 steps with 132753 atoms

88.2% CPU use with 8 MPI tasks x no OpenMP threads

Minimization stats:
  Stopping criterion = force tolerance
  Energy initial, next-to-last, final = 
     -47156.1436965466  -47156.1436965466  -47156.1436965466
  Force two-norm initial, final = 260.59758 256.64079
  Force max component initial, final = 2.4988213 2.4608803
  Final line search alpha, max atom move = 0 0
  Iterations, force evaluations = 1 1

MPI task timing breakdown:
Section |  min time  |  avg time  |  max time  |%varavg| %total
---------------------------------------------------------------
Pair    | 0.093054   | 0.095679   | 0.098305   |   0.6 | 96.03
Neigh   | 0          | 0          | 0          |   0.0 |  0.00
Comm    | 0.00047928 | 0.0031085  | 0.0057431  |   3.1 |  3.12
Output  | 0          | 0          | 0          |   0.0 |  0.00
Modify  | 0.00015901 | 0.00016449 | 0.00017292 |   0.0 |  0.17
Other   |            | 0.0006863  |            |       |  0.69

Nlocal:        16594.1 ave       16639 max       16562 min
Histogram: 1 0 2 1 2 1 0 0 0 1
Nghost:        17505.2 ave       17562 max       17450 min
Histogram: 2 0 0 1 1 1 1 0 0 2
Neighs:              0 ave           0 max           0 min
Histogram: 8 0 0 0 0 0 0 0 0 0
FullNghs:  2.88332e+06 ave 2.89842e+06 max  2.8712e+06 min
Histogram: 1 1 0 3 1 0 0 0 1 1

Total # of neighbors = 23066582
Ave neighs/atom = 173.75564
Neighbor list builds = 0
Dangerous builds not checked
unfix           2

min_style       cg
min_modify      dmax 0.01 norm max
fix             1 all box/relax tri 0.0
minimize        1.000000e-13 1.000000e+1 10000 10000
WARNING: Using 'neigh_modify every 1 delay 0 check yes' setting during minimization (../min.cpp:187)
Generated 0 of 0 mixed pair_coeff terms from geometric mixing rule
Per MPI rank memory allocation (min/avg/max) = 23.59 | 23.6 | 23.6 Mbytes
   Step          Temp           Fmax          Fnorm      c_thermo_temp   c_thermo_pe       Press      c_thermo_press[1] c_thermo_press[2] c_thermo_press[3] c_thermo_press[4] c_thermo_press[5] c_thermo_press[6]       Lx             Ly             Lz           Volume    
     10020   0.075113529    2.4988213      260.59758      0.075113529   -47156.144     -2.8057272     -131.49035      24.18153       98.891638     -226.28385     -331.34643      240.51412      117.78301      117.80328      117.81229      1634672.1    
     10021   0.075113529    2.4988213      260.59758      0.075113529   -47156.144     -2.8057272     -131.49035      24.18153       98.891638     -226.28385     -331.34643      240.51412      117.78301      117.80328      117.81229      1634672.1    
Loop time of 2.88103 on 8 procs for 1 steps with 132753 atoms

95.2% CPU use with 8 MPI tasks x no OpenMP threads

Minimization stats:
  Stopping criterion = quadratic factors are zero
  Energy initial, next-to-last, final = 
     -47156.1436965466  -47156.1436965466  -47156.1436965466
  Force two-norm initial, final = 569.59703 569.59703
  Force max component initial, final = 337.98323 337.98323
  Final line search alpha, max atom move = 2.8216616e-13 9.5367432e-11
  Iterations, force evaluations = 1 22

MPI task timing breakdown:
Section |  min time  |  avg time  |  max time  |%varavg| %total
---------------------------------------------------------------
Pair    | 1.3975     | 1.5988     | 1.6958     |   8.2 | 55.49
Neigh   | 1.1132     | 1.2011     | 1.4002     |  10.5 | 41.69
Comm    | 0.015808   | 0.061143   | 0.097757   |  11.0 |  2.12
Output  | 0          | 0          | 0          |   0.0 |  0.00
Modify  | 0          | 0          | 0          |   0.0 |  0.00
Other   |            | 0.01997    |            |       |  0.69

Nlocal:        16594.1 ave       16639 max       16562 min
Histogram: 1 0 2 1 2 1 0 0 0 1
Nghost:        17505.2 ave       17562 max       17450 min
Histogram: 2 0 0 1 1 1 1 0 0 2
Neighs:              0 ave           0 max           0 min
Histogram: 8 0 0 0 0 0 0 0 0 0
FullNghs:  2.88332e+06 ave 2.89842e+06 max  2.8712e+06 min
Histogram: 1 1 0 3 1 0 0 0 1 1

Total # of neighbors = 23066582
Ave neighs/atom = 173.75564
Neighbor list builds = 22
Dangerous builds not checked
unfix           1

min_style       quickmin
min_modify      dmax 0.01 norm max
fix             2 all viscous 0.1
minimize        0.0 1.0e-0 20000 20000
WARNING: Using 'neigh_modify every 1 delay 0 check yes' setting during minimization (../min.cpp:187)
Generated 0 of 0 mixed pair_coeff terms from geometric mixing rule
Per MPI rank memory allocation (min/avg/max) = 20.22 | 20.22 | 20.23 Mbytes
   Step          Temp           Fmax          Fnorm      c_thermo_temp   c_thermo_pe       Press      c_thermo_press[1] c_thermo_press[2] c_thermo_press[3] c_thermo_press[4] c_thermo_press[5] c_thermo_press[6]       Lx             Ly             Lz           Volume    
     10021   0              2.4988213      260.59758      0             -47156.144     -3.6479216     -132.33431      23.340144      98.050403     -226.28645     -331.34682      240.51134      117.78301      117.80328      117.81229      1634672.1    
     10066   86.529929      0.95176636     117.29009      86.529929     -48999.472     -5642.5161     -5801.5177     -5593.322      -5532.7085     -230.66229     -317.39593      253.18493      117.78301      117.80328      117.81229      1634672.1    
Loop time of 5.84226 on 8 procs for 45 steps with 132753 atoms

95.1% CPU use with 8 MPI tasks x no OpenMP threads

Minimization stats:
  Stopping criterion = force tolerance
  Energy initial, next-to-last, final = 
     -47156.1436965466  -48937.6137837172  -48999.4716724157
  Force two-norm initial, final = 260.59758 117.29009
  Force max component initial, final = 2.4988213 0.95176636
  Final line search alpha, max atom move = 0 0
  Iterations, force evaluations = 45 45

MPI task timing breakdown:
Section |  min time  |  avg time  |  max time  |%varavg| %total
---------------------------------------------------------------
Pair    | 2.7665     | 3.3054     | 3.4601     |  12.2 | 56.58
Neigh   | 2.2289     | 2.3974     | 2.8499     |  12.7 | 41.04
Comm    | 0.031085   | 0.11678    | 0.20254    |  16.3 |  2.00
Output  | 0          | 0          | 0          |   0.0 |  0.00
Modify  | 0.0037349  | 0.0038786  | 0.0040156  |   0.1 |  0.07
Other   |            | 0.01878    |            |       |  0.32

Nlocal:        16594.1 ave       16636 max       16561 min
Histogram: 1 0 2 1 1 1 1 0 0 1
Nghost:          17510 ave       17568 max       17453 min
Histogram: 2 0 0 1 2 0 0 1 0 2
Neighs:              0 ave           0 max           0 min
Histogram: 8 0 0 0 0 0 0 0 0 0
FullNghs:  2.88244e+06 ave 2.89612e+06 max 2.87027e+06 min
Histogram: 1 1 0 2 2 0 0 0 0 2

Total # of neighbors = 23059516
Ave neighs/atom = 173.70241
Neighbor list builds = 44
Dangerous builds not checked
unfix           2

min_style       cg
min_modify      dmax 0.01 norm max
fix             1 all box/relax tri 0.0
minimize        1.000000e-13 5.000000e-1 20000 20000
WARNING: Using 'neigh_modify every 1 delay 0 check yes' setting during minimization (../min.cpp:187)
Generated 0 of 0 mixed pair_coeff terms from geometric mixing rule
Per MPI rank memory allocation (min/avg/max) = 23.59 | 23.6 | 23.6 Mbytes
   Step          Temp           Fmax          Fnorm      c_thermo_temp   c_thermo_pe       Press      c_thermo_press[1] c_thermo_press[2] c_thermo_press[3] c_thermo_press[4] c_thermo_press[5] c_thermo_press[6]       Lx             Ly             Lz           Volume    
     10066   86.529929      1.4998646      184.43735      86.529929     -48999.472     -5642.5161     -5801.5177     -5593.322      -5532.7085     -230.66229     -317.39593      253.18493      117.78301      117.80328      117.81229      1634672.1    
     10094   86.529929      1.5315361      188.39476      86.529929     -49017.861      1114.2825      1112.8712      1113.5369      1116.4395      33.177949      28.588362     -22.151578      117.55787      117.59946      117.61305      1625970      
Loop time of 13.433 on 8 procs for 28 steps with 132753 atoms

95.3% CPU use with 8 MPI tasks x no OpenMP threads

Minimization stats:
  Stopping criterion = quadratic factors are zero
  Energy initial, next-to-last, final = 
     -48999.4716724157  -49017.8607230186  -49017.8607230186
  Force two-norm initial, final = 11698.912 312.48021
  Force max component initial, final = 6911.7915 145.47587
  Final line search alpha, max atom move = 1.31111e-12 1.9073486e-10
  Iterations, force evaluations = 28 102

MPI task timing breakdown:
Section |  min time  |  avg time  |  max time  |%varavg| %total
---------------------------------------------------------------
Pair    | 6.8577     | 7.5007     | 7.9334     |  13.4 | 55.84
Neigh   | 5.1873     | 5.5827     | 6.312      |  16.1 | 41.56
Comm    | 0.071582   | 0.24831    | 0.42644    |  24.1 |  1.85
Output  | 0          | 0          | 0          |   0.0 |  0.00
Modify  | 0          | 0          | 0          |   0.0 |  0.00
Other   |            | 0.1013     |            |       |  0.75

Nlocal:        16594.1 ave       16636 max       16561 min
Histogram: 1 0 2 1 1 1 1 0 0 1
Nghost:        17543.2 ave       17597 max       17482 min
Histogram: 2 0 0 1 1 1 0 1 0 2
Neighs:              0 ave           0 max           0 min
Histogram: 8 0 0 0 0 0 0 0 0 0
FullNghs:   2.8953e+06 ave 2.90843e+06 max 2.88315e+06 min
Histogram: 1 1 0 1 3 0 0 0 0 2

Total # of neighbors = 23162440
Ave neighs/atom = 174.47771
Neighbor list builds = 102
Dangerous builds not checked
unfix           1

min_style       quickmin
min_modify      dmax 0.01 norm max
fix             2 all viscous 0.2
minimize        0.0 4.0e-1 20000 20000
WARNING: Using 'neigh_modify every 1 delay 0 check yes' setting during minimization (../min.cpp:187)
Generated 0 of 0 mixed pair_coeff terms from geometric mixing rule
Per MPI rank memory allocation (min/avg/max) = 20.22 | 20.22 | 20.23 Mbytes
   Step          Temp           Fmax          Fnorm      c_thermo_temp   c_thermo_pe       Press      c_thermo_press[1] c_thermo_press[2] c_thermo_press[3] c_thermo_press[4] c_thermo_press[5] c_thermo_press[6]       Lx             Ly             Lz           Volume    
     10094   0              1.5315361      188.39476      0             -49017.861      138.89178      134.78981      138.78091      143.10463      30.524512      26.769127     -24.02412       117.55787      117.59946      117.61305      1625970      
     10100   1.3073212      1.3878868      171.03339      1.3073212     -49037.586      83.466007      78.913543      83.613968      87.870509      30.519063      27.010681     -23.681777      117.55787      117.59946      117.61305      1625970      
     10171   22.314487      0.34400267     47.611185      22.314487     -50627.183     -5359.3224     -5398.1799     -5341.2538     -5338.5335      9.992469       26.292441      0.88102923     117.55787      117.59946      117.61305      1625970      
Loop time of 10.0702 on 8 procs for 77 steps with 132753 atoms

95.2% CPU use with 8 MPI tasks x no OpenMP threads

Minimization stats:
  Stopping criterion = force tolerance
  Energy initial, next-to-last, final = 
     -49017.8607230186  -50607.2839100361  -50627.1827192307
  Force two-norm initial, final = 188.39476 47.611185
  Force max component initial, final = 1.5315361 0.34400267
  Final line search alpha, max atom move = 0 0
  Iterations, force evaluations = 77 77

MPI task timing breakdown:
Section |  min time  |  avg time  |  max time  |%varavg| %total
---------------------------------------------------------------
Pair    | 5.0827     | 5.6693     | 5.9659     |  12.1 | 56.30
Neigh   | 3.8979     | 4.1714     | 4.7326     |  14.5 | 41.42
Comm    | 0.053881   | 0.19117    | 0.3241     |  21.3 |  1.90
Output  | 0.00018349 | 0.00018453 | 0.00018831 |   0.0 |  0.00
Modify  | 0.0062145  | 0.0064836  | 0.0067364  |   0.2 |  0.06
Other   |            | 0.03165    |            |       |  0.31

Nlocal:        16594.1 ave       16637 max       16557 min
Histogram: 1 0 0 3 1 1 1 0 0 1
Nghost:        17548.8 ave       17606 max       17493 min
Histogram: 2 0 0 2 0 1 0 1 0 2
Neighs:              0 ave           0 max           0 min
Histogram: 8 0 0 0 0 0 0 0 0 0
FullNghs:  2.89234e+06 ave 2.90422e+06 max 2.88196e+06 min
Histogram: 1 1 0 2 2 0 0 0 0 2

Total # of neighbors = 23138732
Ave neighs/atom = 174.29913
Neighbor list builds = 76
Dangerous builds not checked
unfix           2

min_style       cg
min_modify      dmax 0.01 norm max
fix             1 all box/relax tri 0.0
minimize        1.000000e-13 2.000000e-1 20000 20000
WARNING: Using 'neigh_modify every 1 delay 0 check yes' setting during minimization (../min.cpp:187)
Generated 0 of 0 mixed pair_coeff terms from geometric mixing rule
Per MPI rank memory allocation (min/avg/max) = 23.59 | 23.6 | 23.6 Mbytes
   Step          Temp           Fmax          Fnorm      c_thermo_temp   c_thermo_pe       Press      c_thermo_press[1] c_thermo_press[2] c_thermo_press[3] c_thermo_press[4] c_thermo_press[5] c_thermo_press[6]       Lx             Ly             Lz           Volume    
     10171   22.314487      0.83540154     115.78505      22.314487     -50627.183     -5359.3224     -5398.1799     -5341.2538     -5338.5335      9.992469       26.292441      0.88102923     117.55787      117.59946      117.61305      1625970      
     10190   22.314487      0.85261345     117.53063      22.314487     -50638.58      -363.5417      -386.19456     -350.90092     -353.52963      7.5098295      21.139669     -1.230446       117.40476      117.44913      117.4627       1619703.4    
Loop time of 12.5735 on 8 procs for 19 steps with 132753 atoms

95.2% CPU use with 8 MPI tasks x no OpenMP threads

Minimization stats:
  Stopping criterion = quadratic factors are zero
  Energy initial, next-to-last, final = 
     -50627.1827192307  -50638.5797362328  -50638.5797362328
  Force two-norm initial, final = 9863.4551 1087.0698
  Force max component initial, final = 5734.3758 647.29133
  Final line search alpha, max atom move = 1.4733309e-13 9.5367432e-11
  Iterations, force evaluations = 19 94

MPI task timing breakdown:
Section |  min time  |  avg time  |  max time  |%varavg| %total
---------------------------------------------------------------
Pair    | 6.4451     | 7.0947     | 7.4544     |  14.6 | 56.43
Neigh   | 4.7688     | 5.1572     | 5.9141     |  17.6 | 41.02
Comm    | 0.070211   | 0.22707    | 0.37669    |  21.0 |  1.81
Output  | 0          | 0          | 0          |   0.0 |  0.00
Modify  | 0          | 0          | 0          |   0.0 |  0.00
Other   |            | 0.09456    |            |       |  0.75

Nlocal:        16594.1 ave       16637 max       16557 min
Histogram: 1 0 0 3 1 1 1 0 0 1
Nghost:        17577.4 ave       17636 max       17522 min
Histogram: 2 0 1 0 2 0 0 1 0 2
Neighs:              0 ave           0 max           0 min
Histogram: 8 0 0 0 0 0 0 0 0 0
FullNghs:  2.90119e+06 ave 2.91294e+06 max 2.89102e+06 min
Histogram: 2 0 0 2 2 0 0 0 0 2

Total # of neighbors = 23209502
Ave neighs/atom = 174.83222
Neighbor list builds = 94
Dangerous builds not checked
unfix           1

timestep        0.0005
min_style       quickmin
min_modify      dmax 0.01 norm max
fix             2 all viscous 0.2
minimize        0.0 1.0e-1 40000 40000
WARNING: Using 'neigh_modify every 1 delay 0 check yes' setting during minimization (../min.cpp:187)
Generated 0 of 0 mixed pair_coeff terms from geometric mixing rule
Per MPI rank memory allocation (min/avg/max) = 20.22 | 20.22 | 20.23 Mbytes
   Step          Temp           Fmax          Fnorm      c_thermo_temp   c_thermo_pe       Press      c_thermo_press[1] c_thermo_press[2] c_thermo_press[3] c_thermo_press[4] c_thermo_press[5] c_thermo_press[6]       Lx             Ly             Lz           Volume    
     10190   0              0.85261345     117.53063      0             -50638.58      -616.05033     -639.45305     -603.45983     -605.2381       6.5912956      20.16736      -1.333858       117.40476      117.44913      117.4627       1619703.4    
     10200   1.3268301      0.7272427      99.800693      1.3268301     -50661.486     -682.3054      -706.00307     -669.52409     -671.38902      6.2801002      20.326094     -1.0165156      117.40476      117.44913      117.4627       1619703.4    
     10300   8.0677213      0.23878087     28.553275      8.0677213     -51589.084     -3805.8724     -3852.5686     -3791.4429     -3773.6058     -7.6114549      22.806563      15.317641      117.40476      117.44913      117.4627       1619703.4    
     10400   2.7492411      0.18990184     22.094442      2.7492411     -52001.679     -5194.1212     -5252.9554     -5185.8941     -5143.5142     -17.638149      25.557401      24.67867       117.40476      117.44913      117.4627       1619703.4    
     10500   1.4292305      0.15524028     16.097681      1.4292305     -52222.339     -5874.3143     -5939.8755     -5872.7421     -5810.3253     -23.294091      26.69553       31.669961      117.40476      117.44913      117.4627       1619703.4    
     10600   0.83001365     0.31639527     12.572733      0.83001365    -52360.402     -6273.9952     -6344.1714     -6277.6786     -6200.1358     -27.518689      27.799356      37.346432      117.40476      117.44913      117.4627       1619703.4    
     10700   0.48797358     0.35124576     10.576708      0.48797358    -52452.286     -6522.614      -6598.0359     -6529.422      -6440.384      -30.208742      28.436702      43.051052      117.40476      117.44913      117.4627       1619703.4    
     10800   0.33514293     0.30696259     8.7683265      0.33514293    -52516.339     -6682.8446     -6762.2344     -6692.4097     -6593.8896     -30.793431      29.474204      48.148279      117.40476      117.44913      117.4627       1619703.4    
     10900   0.24719595     0.28893233     7.4036293      0.24719595    -52562.999     -6794.2795     -6877.8745     -6805.9456     -6699.0184     -30.987022      29.968212      52.477354      117.40476      117.44913      117.4627       1619703.4    
     11000   0.1867594      0.21877231     6.4361055      0.1867594     -52598.508     -6871.7447     -6958.2152     -6886.32       -6770.6988     -30.438458      29.69835       56.810923      117.40476      117.44913      117.4627       1619703.4    
     11100   0.14840276     0.17991571     5.6286845      0.14840276    -52625.322     -6929.7033     -7019.7724     -6945.4306     -6823.9067     -29.675986      30.490265      61.089495      117.40476      117.44913      117.4627       1619703.4    
     11200   0.11706259     0.21564815     5.0692513      0.11706259    -52647.1       -6973.0866     -7065.7289     -6990.5795     -6862.9513     -29.513883      30.729509      65.53195       117.40476      117.44913      117.4627       1619703.4    
     11300   0.095396654    0.19484813     4.5842931      0.095396654   -52664.565     -7005.8282     -7100.8292     -7023.9304     -6892.725      -28.298274      30.419341      69.116035      117.40476      117.44913      117.4627       1619703.4    
     11400   0.078251649    0.16986846     4.2077524      0.078251649   -52678.766     -7033.2966     -7130.5161     -7052.2888     -6917.0849     -27.80867       30.701279      72.17621       117.40476      117.44913      117.4627       1619703.4    
     11500   0.066824729    0.13921847     3.8389398      0.066824729   -52690.725     -7055.0366     -7154.0989     -7075.0127     -6935.9983     -26.965579      30.783439      75.37516       117.40476      117.44913      117.4627       1619703.4    
     11600   0.056578449    0.12479217     3.5609939      0.056578449   -52700.621     -7069.6764     -7171.2815     -7090.4157     -6947.3319     -26.45061       30.653889      78.120974      117.40476      117.44913      117.4627       1619703.4    
     11699   0.048513425    0.072768693    3.3226575      0.048513425   -52709.039     -7081.4587     -7184.6693     -7103.3412     -6956.3657     -25.829475      30.715281      81.00874       117.40476      117.44913      117.4627       1619703.4    
Loop time of 203.231 on 8 procs for 1509 steps with 132753 atoms

95.4% CPU use with 8 MPI tasks x no OpenMP threads

Minimization stats:
  Stopping criterion = force tolerance
  Energy initial, next-to-last, final = 
     -50638.5797362328  -52708.9981991053  -52709.0388032198
  Force two-norm initial, final = 117.53063 3.3226575
  Force max component initial, final = 0.85261345 0.072768693
  Final line search alpha, max atom move = 0 0
  Iterations, force evaluations = 1509 1509

MPI task timing breakdown:
Section |  min time  |  avg time  |  max time  |%varavg| %total
---------------------------------------------------------------
Pair    | 110.66     | 115.98     | 118.88     |  24.5 | 57.07
Neigh   | 81.507     | 82.621     | 85.304     |  14.1 | 40.65
Comm    | 1.1224     | 3.8456     | 6.4712     |  89.8 |  1.89
Output  | 0.0028361  | 0.0028648  | 0.0030584  |   0.1 |  0.00
Modify  | 0.12157    | 0.1262     | 0.13268    |   0.9 |  0.06
Other   |            | 0.6541     |            |       |  0.32

Nlocal:        16594.1 ave       16638 max       16553 min
Histogram: 1 0 1 0 3 1 0 1 0 1
Nghost:        17580.6 ave       17642 max       17509 min
Histogram: 2 0 0 1 1 0 1 1 1 1
Neighs:              0 ave           0 max           0 min
Histogram: 8 0 0 0 0 0 0 0 0 0
FullNghs:  2.89118e+06 ave 2.90172e+06 max 2.88289e+06 min
Histogram: 2 0 0 2 2 0 0 0 0 2

Total # of neighbors = 23129400
Ave neighs/atom = 174.22883
Neighbor list builds = 1508
Dangerous builds not checked
unfix           2

min_style       cg
min_modify      dmax 0.01 norm max
fix             1 all box/relax tri 0.0
minimize        1.000000e-13 1.000000e-1 40000 40000
WARNING: Using 'neigh_modify every 1 delay 0 check yes' setting during minimization (../min.cpp:187)
Generated 0 of 0 mixed pair_coeff terms from geometric mixing rule
Per MPI rank memory allocation (min/avg/max) = 23.59 | 23.6 | 23.6 Mbytes
   Step          Temp           Fmax          Fnorm      c_thermo_temp   c_thermo_pe       Press      c_thermo_press[1] c_thermo_press[2] c_thermo_press[3] c_thermo_press[4] c_thermo_press[5] c_thermo_press[6]       Lx             Ly             Lz           Volume    
     11699   0.048513425    0.13681984     6.4752507      0.048513425   -52709.039     -7081.4587     -7184.6693     -7103.3412     -6956.3657     -25.829475      30.715281      81.00874       117.40476      117.44913      117.4627       1619703.4    
     11700   0.048513425    0.13710594     6.4847554      0.048513425   -52711.924     -6705.3792     -6807.3388     -6726.4019     -6582.3968     -25.354915      30.930283      80.301869      117.39302      117.43752      117.45133      1619224.5    
     11719   0.048513425    0.13720703     6.6964169      0.048513425   -52737.555     -11.254763     -45.588991     -18.310621      30.135325     -14.842662      19.953529      43.558051      117.18372      117.23389      117.25774      1610875.4    
Loop time of 9.94992 on 8 procs for 20 steps with 132753 atoms

95.4% CPU use with 8 MPI tasks x no OpenMP threads

Minimization stats:
  Stopping criterion = linesearch alpha is zero
  Energy initial, next-to-last, final = 
     -52709.0388032198    -52737.55504632    -52737.55504632
  Force two-norm initial, final = 12402.026 77.485672
  Force max component initial, final = 7263.8101 46.468565
  Final line search alpha, max atom move = 2.0522999e-12 9.5367432e-11
  Iterations, force evaluations = 20 73

MPI task timing breakdown:
Section |  min time  |  avg time  |  max time  |%varavg| %total
---------------------------------------------------------------
Pair    | 5.126      | 5.7043     | 5.9876     |  12.6 | 57.33
Neigh   | 3.702      | 4          | 4.5179     |  16.4 | 40.20
Comm    | 0.050717   | 0.17691    | 0.30526    |  20.2 |  1.78
Output  | 0.00018676 | 0.00018825 | 0.00019485 |   0.0 |  0.00
Modify  | 0          | 0          | 0          |   0.0 |  0.00
Other   |            | 0.06848    |            |       |  0.69

Nlocal:        16594.1 ave       16638 max       16553 min
Histogram: 1 0 1 0 3 1 0 1 0 1
Nghost:        17618.5 ave       17675 max       17550 min
Histogram: 1 1 0 1 1 0 0 2 1 1
Neighs:              0 ave           0 max           0 min
Histogram: 8 0 0 0 0 0 0 0 0 0
FullNghs:  2.90127e+06 ave 2.91129e+06 max 2.89258e+06 min
Histogram: 2 0 0 1 2 1 0 0 0 2

Total # of neighbors = 23210140
Ave neighs/atom = 174.83703
Neighbor list builds = 73
Dangerous builds not checked
unfix           1

min_style       quickmin
min_modify      dmax 0.01 norm max
fix             2 all viscous 0.2
minimize        0.0 5.0e-2 40000 40000
WARNING: Using 'neigh_modify every 1 delay 0 check yes' setting during minimization (../min.cpp:187)
Generated 0 of 0 mixed pair_coeff terms from geometric mixing rule
Per MPI rank memory allocation (min/avg/max) = 20.22 | 20.22 | 20.23 Mbytes
   Step          Temp           Fmax          Fnorm      c_thermo_temp   c_thermo_pe       Press      c_thermo_press[1] c_thermo_press[2] c_thermo_press[3] c_thermo_press[4] c_thermo_press[5] c_thermo_press[6]       Lx             Ly             Lz           Volume    
     11719   0              0.13720703     6.6964169      0             -52737.555     -11.806744     -46.130614     -18.871107      29.581487     -14.841906      19.954467      43.555421      117.18372      117.23389      117.25774      1610875.4    
     11800   0.055110679    0.082340817    2.9861407      0.055110679   -52741.983     -27.410233     -65.050323     -34.963258      17.782883     -14.44911       20.146516      45.553365      117.18372      117.23389      117.25774      1610875.4    
     11900   0.043648053    0.069750526    2.908291       0.043648053   -52748.637     -47.300032     -88.274164     -56.373322      2.7473916     -14.226988      20.982316      48.434474      117.18372      117.23389      117.25774      1610875.4    
     12000   0.035872297    0.072131099    2.8153437      0.035872297   -52754.594     -64.390513     -108.6064      -74.076986     -10.48815      -13.753398      21.423837      50.721683      117.18372      117.23389      117.25774      1610875.4    
     12100   0.030501037    0.072679928    2.6988553      0.030501037   -52759.75      -76.641554     -123.39131     -86.972875     -19.560477     -13.144398      21.735564      53.098634      117.18372      117.23389      117.25774      1610875.4    
     12200   0.027553088    0.073158241    2.5296106      0.027553088   -52764.193     -86.213952     -135.18257     -97.290886     -26.168401     -12.649076      22.174677      55.150513      117.18372      117.23389      117.25774      1610875.4    
     12300   0.024136312    0.073162663    2.4292772      0.024136312   -52768.152     -95.245267     -146.54175     -107.05774     -32.136309     -12.428079      22.897574      56.8954        117.18372      117.23389      117.25774      1610875.4    
     12400   0.021842021    0.073201317    2.3107584      0.021842021   -52771.879     -103.95754     -157.36686     -116.1373      -38.368451     -12.257778      22.852334      59.092276      117.18372      117.23389      117.25774      1610875.4    
     12500   0.019808266    0.07034853     2.1981708      0.019808266   -52775.06      -110.88719     -166.5152      -123.79405     -42.352321     -11.465444      22.634843      61.494007      117.18372      117.23389      117.25774      1610875.4    
     12600   0.018899629    0.06826872     2.0561118      0.018899629   -52778.192     -117.75787     -174.79279     -131.33784     -47.142966     -11.097039      22.939617      63.422456      117.18372      117.23389      117.25774      1610875.4    
     12700   0.015644336    0.070390937    2.0561575      0.015644336   -52780.703     -119.70391     -178.47547     -133.74013     -46.896135     -10.245107      23.124009      65.489952      117.18372      117.23389      117.25774      1610875.4    
     12800   0.01525819     0.067101834    1.9189453      0.01525819    -52783.187     -123.5078      -183.81008     -138.44559     -48.267741     -9.9243689      23.020712      67.030868      117.18372      117.23389      117.25774      1610875.4    
     12900   0.014143503    0.064426906    1.8340548      0.014143503   -52785.244     -125.7868      -187.68132     -141.53154     -48.147535     -10.017732      22.966838      68.566857      117.18372      117.23389      117.25774      1610875.4    
     13000   0.012719443    0.064940639    1.7879131      0.012719443   -52787.312     -130.57201     -194.2551      -146.72701     -50.733917     -9.843784       22.464351      69.811605      117.18372      117.23389      117.25774      1610875.4    
     13100   0.012910349    0.062438675    1.6490332      0.012910349   -52789.253     -134.37582     -199.52219     -150.88425     -52.721038     -9.4036676      22.303722      71.324894      117.18372      117.23389      117.25774      1610875.4    
     13200   0.011192748    0.064095449    1.6424368      0.011192748   -52790.969     -136.63832     -203.54888     -153.34674     -53.019348     -8.7625941      22.08926       72.895502      117.18372      117.23389      117.25774      1610875.4    
     13300   0.010277953    0.060932202    1.5954573      0.010277953   -52792.886     -141.16024     -209.51004     -158.51067     -55.460016     -8.3494505      21.856128      74.460404      117.18372      117.23389      117.25774      1610875.4    
     13400   0.0096257051   0.059478456    1.5373071      0.0096257051  -52794.244     -142.14254     -212.28834     -159.73956     -54.39973      -7.8228004      21.983789      75.769793      117.18372      117.23389      117.25774      1610875.4    
     13500   0.0085878698   0.060179571    1.5229356      0.0085878698  -52795.704     -144.71236     -216.38776     -162.4974      -55.251913     -7.64291        21.730722      77.095343      117.18372      117.23389      117.25774      1610875.4    
     13600   0.008013665    0.05971412     1.4792277      0.008013665   -52797.237     -147.35457     -220.58483     -165.34591     -56.132971     -7.3435174      21.560667      78.066931      117.18372      117.23389      117.25774      1610875.4    
     13700   0.0073799854   0.06015326     1.4471842      0.0073799854  -52798.3       -147.9         -222.53455     -166.35902     -54.806421     -7.1310932      21.485142      79.115373      117.18372      117.23389      117.25774      1610875.4    
     13800   0.0070220276   0.059594067    1.4010745      0.0070220276  -52799.207     -148.15163     -224.25784     -166.77914     -53.417916     -6.8095215      20.988409      79.987572      117.18372      117.23389      117.25774      1610875.4    
     13900   0.0062942114   0.060962947    1.3908379      0.0062942114  -52800.187     -149.13843     -226.51463     -167.87403     -53.026632     -6.7719903      21.035058      81.168427      117.18372      117.23389      117.25774      1610875.4    
     14000   0.0060822098   0.059185834    1.342915       0.0060822098  -52801.511     -151.39177     -229.8357      -170.39322     -53.946389     -6.4528255      20.878987      81.944071      117.18372      117.23389      117.25774      1610875.4    
     14100   0.0057691851   0.058498756    1.3069557      0.0057691851  -52802.503     -152.89266     -232.2401      -172.28152     -54.156361     -6.2153521      21.098013      83.141047      117.18372      117.23389      117.25774      1610875.4    
     14200   0.0054243638   0.057897403    1.2798694      0.0054243638  -52803.391     -153.67306     -233.94735     -173.4655      -53.606343     -5.9743457      21.060773      84.100065      117.18372      117.23389      117.25774      1610875.4    
     14300   0.004978388    0.0576135      1.266375       0.004978388   -52804.138     -154.44057     -235.91221     -174.43168     -52.977809     -5.760695       21.009649      84.801513      117.18372      117.23389      117.25774      1610875.4    
     14400   0.0048917394   0.054593548    1.2169636      0.0048917394  -52804.959     -155.91946     -238.08581     -176.09549     -53.577066     -5.6437134      20.832752      85.879615      117.18372      117.23389      117.25774      1610875.4    
     14500   0.0045220243   0.055041209    1.2065369      0.0045220243  -52805.749     -156.59229     -239.79097     -176.99183     -52.994057     -5.3306154      20.468471      86.723299      117.18372      117.23389      117.25774      1610875.4    
     14600   0.0043344334   0.053280002    1.1796089      0.0043344334  -52806.618     -157.75361     -241.96927     -178.337       -52.954547     -5.2347299      20.166987      87.63121       117.18372      117.23389      117.25774      1610875.4    
     14700   0.0040645273   0.052847423    1.15993        0.0040645273  -52807.475     -159.15291     -244.29284     -179.79975     -53.36615      -4.9833197      20.048903      88.692754      117.18372      117.23389      117.25774      1610875.4    
     14800   0.0038209906   0.051871393    1.142376       0.0038209906  -52808.007     -159.13921     -245.1595      -179.92132     -52.336801     -4.5774633      19.561668      89.510087      117.18372      117.23389      117.25774      1610875.4    
     14900   0.0038135996   0.049696211    1.1009225      0.0038135996  -52808.669     -160.36294     -247.46966     -181.27387     -52.345293     -4.2303339      19.784888      90.385276      117.18372      117.23389      117.25774      1610875.4    
     15000   0.0036708457   0.050551759    1.0765158      0.0036708457  -52809.266     -160.83048     -248.79224     -181.91003     -51.789185     -3.9901914      19.627958      91.173158      117.18372      117.23389      117.25774      1610875.4    
     15100   0.0033321099   0.052862233    1.0768121      0.0033321099  -52809.765     -161.23686     -250.07139     -182.46142     -51.177778     -3.8216795      19.30589       91.625611      117.18372      117.23389      117.25774      1610875.4    
     15200   0.0032687402   0.053694603    1.045792       0.0032687402  -52810.289     -161.62153     -251.31997     -183.08453     -50.460093     -3.3779913      19.306287      92.344394      117.18372      117.23389      117.25774      1610875.4    
     15300   0.0030938768   0.055818436    1.0344674      0.0030938768  -52810.81      -162.25823     -252.74111     -183.82497     -50.208597     -3.1885062      19.09105       92.855308      117.18372      117.23389      117.25774      1610875.4    
[...]
    265900   298.73641      2.2483082      254.49916      298.73641     -46711.192     -6226.7286     -225.51987     -518.55304     -17936.113      40.022346      883.34728      92.554219      112.09524      112.14325      131.13051      1648405.6    
    266000   301.12886      2.2715511      254.66099      301.12886     -46741.6       -5573.664       363.72451      362.49251     -17447.209      126.23595      798.9858       23.181795      112.04732      112.09531      131.15999      1647366.8    
    266100   300.39363      2.1131001      254.02455      300.39363     -46736.154     -6184.9124     -283.8821      -487.51111     -17783.344      200.72062      763.60861     -95.393799      112.06435      112.11235      131.18947      1648238      
    266200   300.3228       2.2603893      254.59341      300.3228      -46743.848     -5610.3987      449.7189       307.00176     -17587.917      99.678215      728.59295     -248.16245      112.02318      112.07115      131.21894      1647397      
    266300   299.20531      2.5892868      254.14783      299.20531     -46733.886     -6151.2969     -144.50554     -172.23686     -18137.148      203.37523      681.02482      74.272311      112.03735      112.08533      131.24842      1648184.1    
    266400   300.29884      2.4051304      253.82341      300.29884     -46748.202     -6042.1773      20.882789     -29.756119     -18117.659      12.401221      810.54568      140.34848      112.01864      112.06661      131.2779       1648003.6    
    266500   300.48709      2.3359909      254.76084      300.48709     -46720.972     -5802.0587      300.77232      189.60248     -17896.551     -74.229113      832.86002      51.745101      111.99625      112.04422      131.30737      1647714.9    
    266600   299.73516      2.2101536      254.81494      299.73516     -46691.02      -6251.0052     -94.493946     -331.06981     -18327.452     -44.399073      750.88489     -38.231589      112.01003      112.058        131.33685      1648490.2    
    266700   300.46251      2.1688004      254.56727      300.46251     -46711.184     -5845.4946      389.63328      84.914895     -18011.032      143.42018      868.78894     -48.432818      111.9756       112.02356      131.36633      1647846.8    
    266800   299.65822      2.2891541      253.84124      299.65822     -46717.286     -6432.2819     -234.73145     -354.2569      -18707.857      60.428094      712.38268     -103.92032      111.98628      112.03424      131.39581      1648530.8    
    266900   299.50223      2.288084       254.48585      299.50223     -46710.626     -5909.9601      229.29956      194.9036      -18154.083      145.64698      704.26101     -63.043953      111.95179      111.99974      131.42528      1647885.3    
    267000   300.80625      2.3687077      253.65046      300.80625     -46730.147     -6144.0162      111.56359     -245.83067     -18297.782      80.537327      774.60206     -67.969439      111.94878      111.99673      131.45476      1648166.2    
    267100   300.16829      2.2945251      254.32958      300.16829     -46712.233     -6245.1814     -61.343106     -101.90439     -18572.297      201.14416      765.03731     -0.14216628     111.94415      111.9921       131.48424      1648399.5    
    267200   300.68372      2.152195       254.53091      300.68372     -46706.219     -6067.5883      139.5172       87.312852     -18429.595      87.58102       738.97216      137.54442      111.92324      111.97117      131.51371      1648153      
    267300   300.20266      2.4571438      254.70572      300.20266     -46688.308     -6315.2528     -252.60468     -85.997301     -18607.156      192.39692      797.59225      17.666156      111.92447      111.9724       131.54319      1648558.7    
    267400   300.58534      2.1694527      254.28163      300.58534     -46705.532     -6072.2809      92.666121      183.49237     -18493.001      299.42211      681.00939      197.99385      111.89839      111.94632      131.57267      1648159.9    
    267500   300.20938      2.1941738      253.94085      300.20938     -46717.283     -6209.0932      63.956838     -144.34167     -18546.895      283.14077      604.63318      54.438333      111.89143      111.93935      131.60214      1648324      
    267600   299.44033      2.1611614      254.28534      299.44033     -46703.214     -6100.1664      100.08229     -90.970685     -18309.611      182.95728      725.59721      35.518556      111.87451      111.92243      131.63162      1648194.7    
    267700   300.00727      2.4819183      254.44118      300.00727     -46703.04      -6027.1179      107.23384      7.5491453     -18196.137      95.847348      689.95369     -43.295331      111.85952      111.90743      131.6611       1648122      
    267800   300.14923      2.1768665      254.49131      300.14923     -46689.896     -6089.9545      96.849578     -219.68556     -18147.028      263.06664      626.30474     -21.768701      111.85151      111.89942      131.69058      1648254.9    
    267900   300.9089       2.2014198      254.88026      300.9089      -46687.642     -5996.7721      225.47038     -135.72205     -18080.064      360.59142      753.74875      64.245196      111.83587      111.88377      131.72005      1648162.9    
    268000   300.4044       2.3481331      254.56169      300.4044      -46696.729     -6025.9212      378.57692     -138.48775     -18317.853      216.74156      608.66265     -12.437389      111.82347      111.87137      131.74953      1648166.1    
    268100   299.4355       2.5481911      254.63574      299.4355      -46697.646     -6020.1247      320.64982     -194.19083     -18186.833      298.03767      560.89674     -151.23786      111.80892      111.85681      131.77901      1648105.8    
    268200   300.00347      2.1802063      253.9872       300.00347     -46712.244     -5985.0861      412.46659     -327.87064     -18039.854      427.97257      549.60512      49.714723      111.79348      111.84136      131.80848      1648019.3    
    268300   300.14785      2.0497971      253.92449      300.14785     -46715.271     -6096.3549      132.9772      -293.01997     -18129.022      409.24506      502.55899     -180.90081      111.78574      111.83361      131.83796      1648159.4    
    268400   299.87957      2.1613026      254.4838       299.87957     -46711.562     -5825.5239      386.1347      -155.2648      -17707.442      361.10904      582.46292      4.4051792      111.75981      111.80767      131.86744      1647763.3    
    268500   299.5992       2.2525196      254.38193      299.5992      -46713.519     -5962.1471      204.69703     -256.71401     -17834.424      441.04813      830.85658      121.13749      111.75416      111.80203      131.89691      1647965.1    
    268600   299.29321      2.4846668      254.01923      299.29321     -46714.499     -5946.2614      344.27773     -293.7434      -17889.319      130.81185      656.53246     -94.970253      111.74175      111.78961      131.92639      1647967.3    
    268700   299.1474       2.1739826      254.28836      299.1474      -46701.334     -5904.6835      359.40541     -310.33043     -17763.126      152.56536      524.79179      43.58498       111.72692      111.77477      131.95587      1647898      
    268800   300.50919      2.5809383      254.58087      300.50919     -46695.611     -5941.7432      326.23108     -227.26471     -17924.196      173.03913      664.54233      79.105243      111.71808      111.76592      131.98534      1648005.2    
    268900   300.82731      2.17766        254.17518      300.82731     -46689.095     -6001.1237      140.51995     -174.53498     -17969.356      422.73565      704.15426      71.944091      111.71022      111.75807      132.01482      1648141.5    
    269000   300.58659      2.6234283      254.3648       300.58659     -46702.779     -5974.892       381.97463     -307.3844      -17999.266      336.4323       683.65806     -63.31476       111.69412      111.74196      132.0443       1648034.2    
    269100   299.57202      2.9124527      254.22038      299.57202     -46699.738     -6086.633       75.799234     -225.69537     -18110.003      509.01755      583.91317      58.098268      111.68644      111.73427      132.07378      1648175.5    
    269200   299.88618      2.0338516      254.55205      299.88618     -46702.039     -5985.787       230.38128     -247.68106     -17940.061      509.87338      535.36375     -27.297504      111.66811      111.71594      132.10325      1648002.3    
    269300   300.14342      2.3259888      254.356        300.14342     -46707.069     -6040.6684      207.12319     -367.00513     -17962.123      542.00278      639.38046      34.409851      111.65934      111.70717      132.13273      1648111.2    
    269400   300.05976      2.7542782      254.44843      300.05976     -46712.567     -5869.3631      413.59197     -108.1277      -17913.553      392.94234      644.72805      45.026539      111.63667      111.68448      132.16221      1647809.5    
    269500   299.42409      2.3818607      254.24576      299.42409     -46715.965     -6097.8209     -47.376417     -322.52081     -17923.565      459.98636      648.49738      8.2012036      111.63438      111.68219      132.19168      1648109.4    
    269600   299.43374      2.1668949      254.32949      299.43374     -46718.897     -5890.1079      300.86994     -147.10785     -17824.086      407.58904      863.53454     -36.790232      111.6127       111.6605       132.22116      1647836.5    
    269700   301.00334      2.1190701      254.15815      301.00334     -46723.692     -5931.1322      158.18005     -320.51128     -17631.065      411.57616      786.26564      7.8538767      111.6009       111.6487       132.25064      1647855.5    
    269800   300.80832      2.2786484      254.63019      300.80832     -46693.329     -5932.8699      91.681022     -260.95695     -17629.334      462.56083      906.16714      15.10335       111.59439      111.64219      132.28011      1648030.6    
    269900   301.22599      2.1619072      254.4952       301.22599     -46704.867     -5756.2755      275.62752     -135.09421     -17409.36       464.49083      973.13643      27.414194      111.57085      111.61863      132.30959      1647702.2    
    270000   300.37734      2.518961       254.28723      300.37734     -46711.079     -5800.0178      187.03977     -249.30387     -17337.789      556.51562      1106.5649      75.144759      111.56067      111.60845      132.33907      1647768.8    
    270100   299.82449      2.340353       254.5721       299.82449     -46706.528     -5815.1281      301.94303     -350.82564     -17396.502      462.75961      1172.5249     -81.341334      111.548        111.59577      132.36854      1647761.3    
    270200   300.93198      2.0672016      254.22751      300.93198     -46732.991     -5761.9062      192.4803      -89.87564      -17388.323      482.99268      870.42865      102.89045      111.53159      111.57935      132.39802      1647643.4    
    270300   299.97663      2.0942287      254.13534      299.97663     -46728.708     -5802.748       364.40779     -404.53866     -17368.113      551.24313      908.58777      41.307346      111.52148      111.56924      132.4275       1647711.4    
    270400   299.40545      2.1921291      254.41117      299.40545     -46724.77      -5550.7529      481.64727     -94.908739     -17038.997      577.84975      844.65561     -103.24002      111.49608      111.54383      132.45698      1647327.7    
    270500   299.38171      2.3262959      254.07102      299.38171     -46736.421     -5866.8649     -102.19557     -305.59445     -17192.805      344.57458      949.85119     -213.67228      111.49686      111.54461      132.48645      1647717.4    
    270600   299.81649      2.2333546      254.1007       299.81649     -46761.035     -5278.4154      551.33919     -54.671501     -16331.914      368.71371      779.89563     -194.98684      111.45347      111.5012       132.51593      1646801.4    
    270700   298.60881      2.3651104      254.39397      298.60881     -46735.649     -5723.8585      71.309688     -550.06521     -16692.82       301.58002      903.03762     -176.34744      111.46596      111.5137       132.54541      1647536.9    
    270800   300.35948      2.6173515      255.17001      300.35948     -46736.614     -5285.8891      476.53045      3.5567264     -16337.754      203.88878      1150.6072     -272.51608      111.43596      111.48368      132.57488      1647016.3    
    270900   300.38497      2.1227188      255.1847       300.38497     -46726.523     -5422.7374      134.89975     -238.08637     -16165.026      314.81708      1145.4448     -341.88016      111.43027      111.47799      132.60436      1647214.2    
    271000   301.10818      2.1702003      254.63798      301.10818     -46751.031     -5375.4548      97.36297      -270.47467     -15953.253      332.87915      1104.0977     -103.3207       111.41236      111.46007      132.63384      1647050.8    
    271100   301.00529      2.4195251      254.80265      301.00529     -46762.673     -5155.2941      330.48011     -34.360016     -15762.002      263.42899      1081.1928     -240.37546      111.38848      111.43619      132.66331      1646710.9    
    271200   299.28396      2.3496304      255.15069      299.28396     -46749.465     -5380.0366     -13.395393     -401.82311     -15724.891      265.54097      1201.8614     -271.02003      111.38756      111.43526      132.69279      1647049.5    
    271300   300.6712       2.3772373      254.98462      300.6712      -46789.829     -4912.6253      506.99011      94.093635     -15338.96       354.05531      1073.8949     -364.54594      111.34928      111.39696      132.72227      1646283.1    
    271400   299.86022      2.1447716      254.53334      299.86022     -46787.795     -5438          -67.692517     -461.35458     -15784.953      187.002        1008.6613     -439.4092       111.35986      111.40755      132.75174      1646961.9    
    271500   300.12657      2.6225204      254.89968      300.12657     -46796.365     -4936.716       150.8592       271.16554     -15232.173      186.92744      945.69142     -391.50406      111.32376      111.37143      132.78122      1646259.6    
    271600   300.45893      2.5313988      254.1796       300.45893     -46811.809     -5420.4069     -305.68148     -346.37604     -15609.163      322.48828      982.3729      -472.82462      111.33246      111.38013      132.8107       1646882.4    
    271700   299.89815      2.1915607      254.24721      299.89815     -46822.049     -5160.2717     -99.841195      144.32365     -15525.298      324.11794      1107.0287     -383.25429      111.30625      111.35392      132.84018      1646472.5    
    271800   298.66999      2.1023483      254.45082      298.66999     -46822.236     -5185.463       144.88413     -41.969886     -15659.303      247.66229      1030.2861     -263.94578      111.29333      111.341        132.86965      1646455.7    
    271900   299.62313      2.2555332      254.06703      299.62313     -46825.943     -5282.7757     -39.37315      -42.148135     -15766.806      352.86191      1099.7099     -404.02951      111.28569      111.33335      132.89913      1646594.9    
    272000   299.63875      2.1660118      254.79571      299.63875     -46806.461     -5188.5947      98.325813      165.13606     -15829.246      135.9937       1164.8667     -428.34562      111.27111      111.31876      132.92861      1646528.4    
    272100   299.82278      2.3963699      255.00205      299.82278     -46790.986     -5308.2262     -192.63285     -104.07215     -15627.974      86.261266      1132.8987     -551.63629      111.26644      111.31409      132.95808      1646755.3    
    272200   300.99527      2.2624474      254.92709      300.99527     -46807.273     -5062.1584      186.64429      220.52019     -15593.64       322.25256      1213.2976     -279.7593       111.239        111.28664      132.98756      1646308.2    
    272300   299.48299      2.0144405      254.52438      299.48299     -46807.717     -5547.3394     -192.72691     -100.43905     -16348.852      215.97164      1013.1342     -287.02727      111.24916      111.29681      133.01704      1646973.9    
    272400   299.12821      2.1636047      254.83941      299.12821     -46805.976     -5221.2777      18.812322      343.24611     -16025.892      405.84388      1103.6554     -295.49395      111.22273      111.27036      133.04651      1646556.1    
    272500   300.5586       2.4938259      254.27639      300.5586      -46822.927     -5501.8665     -260.97011     -63.02068      -16181.609      353.58471      1050.7801     -304.85213      111.22065      111.26829      133.07599      1646859.5    
    272600   299.28579      2.2431202      254.93186      299.28579     -46790.632     -5344.6321     -180.43246      320.32499     -16173.789      292.33979      1188.7379     -404.37236      111.20623      111.25385      133.10547      1646797      
    272700   299.51778      2.2302608      255.18128      299.51778     -46784.585     -5387.4895     -343.45458      389.28357     -16208.298      260.69868      1174.4287     -236.9495       111.19515      111.24277      133.13495      1646833.4    
    272800   300.13703      2.5073624      255.18313      300.13703     -46805.377     -5357.7617     -155.64225      109.21796     -16026.861      272.09731      1132.9754     -106.53304      111.17993      111.22754      133.16442      1646747.2    
    272900   299.56254      2.3350925      254.4809       299.56254     -46816.965     -5186.0858     -176.72149      435.61671     -15817.153      461.60861      1142.3985     -83.430453      111.15674      111.20434      133.1939       1646424.6    
    273000   300.11199      2.1143055      254.33592      300.11199     -46828.852     -5582.4867     -407.17888      57.07689      -16397.358      511.15003      1054.1022     -200.96097      111.16334      111.21094      133.22338      1646984.6    
    273042   300.18091      2.241394       254.03433      300.18091     -46826.885     -5418.1885     -189.51443      231.52173     -16296.573      442.90494      1033.7559     -142.3935       111.14893      111.19653      133.23576      1646710.7    
Loop time of 3433.77 on 8 procs for 52000 steps with 132753 atoms

Performance: 6.542 ns/day, 3.669 hours/ns, 15.144 timesteps/s
90.6% CPU use with 8 MPI tasks x no OpenMP threads

MPI task timing breakdown:
Section |  min time  |  avg time  |  max time  |%varavg| %total
---------------------------------------------------------------
Pair    | 2609.3     | 2844.7     | 3073.7     | 288.6 | 82.84
Neigh   | 282.61     | 286.08     | 292.6      |  16.9 |  8.33
Comm    | 22.349     | 258.05     | 495.83     | 971.4 |  7.52
Output  | 0.74563    | 0.74697    | 0.75398    |   0.3 |  0.02
Modify  | 41.837     | 41.976     | 42.22      |   2.1 |  1.22
Other   |            | 2.224      |            |       |  0.06

Nlocal:        16594.1 ave       16626 max       16573 min
Histogram: 1 2 2 0 0 1 0 0 1 1
Nghost:        17556.2 ave       17628 max       17517 min
Histogram: 2 0 2 1 2 0 0 0 0 1
Neighs:              0 ave           0 max           0 min
Histogram: 8 0 0 0 0 0 0 0 0 0
FullNghs:  2.84267e+06 ave 2.86382e+06 max 2.82944e+06 min
Histogram: 2 1 1 2 0 0 0 1 0 1

Total # of neighbors = 22741378
Ave neighs/atom = 171.30594
Neighbor list builds = 5200
Dangerous builds not checked
unfix 			strainstress
unfix           10
unfix			11

write_restart	restart.npt.21
System init for write_restart ...
Generated 0 of 0 mixed pair_coeff terms from geometric mixing rule
Total wall time: 7:11:46
