ITEM: TIMESTEP
0
ITEM: NUMBER OF ATOMS
32
ITEM: BOX BOUNDS xy xz yz pp pp pp
-9.5987319946289062e-04 6.3977920413017273e+00 -0.0000000000000000e+00
-1.0525226593017578e-02 7.4667910933494568e+00 0.0000000000000000e+00
-5.8505058288574219e-02 2.0783891499042511e+01 1.9358347058296204e+00
ITEM: ATOMS id type xs ys zs fx fy fz
1 1 0.999986 0.645793 0.0597507 -1.3113e-06 0 1.09568
2 1 0.499986 0.645793 0.0597507 1.19209e-06 0 1.09568
3 1 0.249986 0.145793 0.0597507 4.76837e-07 0 1.09569
4 1 0.749986 0.145793 0.0597507 -3.57628e-07 0 1.09568
5 1 0.999986 0.55846 0.309751 0 0 0.00141585
6 1 0.249986 0.43546 0.184751 -1.3113e-06 0 8.58307e-06
7 1 0.749986 0.43546 0.184751 1.07288e-06 0 7.51019e-06
8 1 0.499986 0.55846 0.309751 1.07288e-06 0 0.00141668
9 1 0.999986 0.93546 0.184751 7.15256e-07 0 8.10623e-06
10 1 0.249986 0.0584596 0.309751 -2.02656e-06 0 0.00141394
11 1 0.499986 0.93546 0.184751 -2.38419e-07 0 6.55651e-06
12 1 0.749986 0.0584596 0.309751 1.54972e-06 0 0.00141442
13 1 0.999986 0.471126 0.559751 -2.38419e-06 0 6.31809e-05
14 1 0.499986 0.471126 0.559751 2.5034e-06 0 6.33001e-05
15 1 0.249986 0.971126 0.559751 -7.15256e-07 0 6.35386e-05
16 1 0.749986 0.971126 0.559751 8.34465e-07 0 6.41346e-05
17 1 0.249986 0.348126 0.434751 4.76837e-07 0 -6.31809e-05
18 1 0.749986 0.348126 0.434751 -2.38419e-06 0 -6.34193e-05
19 1 0.999986 0.848126 0.434751 9.53674e-07 0 -6.30617e-05
20 1 0.499986 0.848126 0.434751 2.38419e-07 0 -6.27041e-05
21 1 0.999986 0.383792 0.809751 3.57628e-07 0 -8.58307e-06
22 1 0.249986 0.260792 0.684751 2.38419e-07 0 -0.0014149
23 1 0.499986 0.383792 0.809751 -1.07288e-06 0 -8.10623e-06
24 1 0.749986 0.260792 0.684751 4.76837e-07 0 -0.00141668
25 1 0.999986 0.760792 0.684751 -5.96046e-07 0 -0.00141525
26 1 0.249986 0.883792 0.809751 2.38419e-07 0 -7.62939e-06
27 1 0.749986 0.883792 0.809751 3.57628e-07 0 -7.86781e-06
28 1 0.499986 0.760792 0.684751 2.38419e-07 0 -0.00141597
29 1 0.249986 0.173458 0.934751 -2.38419e-07 0 -1.09568
30 1 0.749986 0.173458 0.934751 5.96046e-07 0 -1.09568
31 1 0.999986 0.673458 0.934751 -1.07288e-06 0 -1.09568
32 1 0.499986 0.673458 0.934751 1.19209e-07 0 -1.09568
ITEM: TIMESTEP
1
ITEM: NUMBER OF ATOMS
32
ITEM: BOX BOUNDS xy xz yz pp pp pp
-9.5987319946289062e-04 6.3977920413017273e+00 -0.0000000000000000e+00
-1.0525226593017578e-02 7.4667910933494568e+00 0.0000000000000000e+00
-5.8505058288574219e-02 2.0783891499042511e+01 1.9358347058296204e+00
ITEM: ATOMS id type xs ys zs fx fy fz
1 1 0.999986 0.644117 0.0645486 -1.43051e-06 0 0.260538
2 1 0.499986 0.644117 0.0645486 1.3113e-06 0 0.260538
3 1 0.249986 0.144117 0.0645486 1.19209e-07 0 0.260539
4 1 0.749986 0.144117 0.0645486 -4.76837e-07 0 0.26054
5 1 0.999986 0.558457 0.309757 2.38419e-07 0 0.008605
6 1 0.249986 0.43546 0.184751 -3.57628e-07 0 0.144096
7 1 0.749986 0.43546 0.184751 7.15256e-07 0 0.144095
8 1 0.499986 0.558457 0.309757 -2.38419e-07 0 0.00860536
9 1 0.999986 0.93546 0.184751 3.57628e-07 0 0.144095
10 1 0.249986 0.0584574 0.309757 -7.15256e-07 0 0.00860322
11 1 0.499986 0.93546 0.184751 1.19209e-07 0 0.144093
12 1 0.749986 0.0584574 0.309757 7.15256e-07 0 0.00860333
13 1 0.999986 0.471126 0.559751 -4.76837e-07 0 0.000341892
14 1 0.499986 0.471126 0.559751 4.76837e-07 0 0.000342131
15 1 0.249986 0.971126 0.559751 -1.19209e-07 0 0.000342607
16 1 0.749986 0.971126 0.559751 0 0 0.000342369
17 1 0.249986 0.348126 0.43475 2.38419e-07 0 -0.00034225
18 1 0.749986 0.348126 0.43475 -5.96046e-07 0 -0.000342011
19 1 0.999986 0.848126 0.43475 4.76837e-07 0 -0.000341654
20 1 0.499986 0.848126 0.43475 -2.38419e-07 0 -0.000341654
21 1 0.999986 0.383792 0.809751 1.19209e-07 0 -0.144096
22 1 0.249986 0.260794 0.684744 0 0 -0.00860393
23 1 0.499986 0.383792 0.809751 -7.15256e-07 0 -0.144096
24 1 0.749986 0.260794 0.684745 2.38419e-07 0 -0.00860512
25 1 0.999986 0.760794 0.684745 -2.38419e-07 0 -0.00860453
26 1 0.249986 0.883792 0.809751 1.19209e-07 0 -0.144095
27 1 0.749986 0.883792 0.809751 2.38419e-07 0 -0.144095
28 1 0.499986 0.760794 0.684745 0 0 -0.00860476
29 1 0.249986 0.175134 0.929953 -3.57628e-07 0 -0.260539
30 1 0.749986 0.175134 0.929953 4.76837e-07 0 -0.260537
31 1 0.999986 0.675134 0.929953 -3.57628e-07 0 -0.260539
32 1 0.499986 0.675134 0.929953 3.57628e-07 0 -0.260539
ITEM: TIMESTEP
2
ITEM: NUMBER OF ATOMS
32
ITEM: BOX BOUNDS xy xz yz pp pp pp
-9.5987319946289062e-04 6.3977920413017273e+00 -0.0000000000000000e+00
-1.0525226593017578e-02 7.4667910933494568e+00 0.0000000000000000e+00
-5.8505058288574219e-02 2.0783891499042511e+01 1.9358347058296204e+00
ITEM: ATOMS id type xs ys zs fx fy fz
1 1 0.999986 0.642924 0.0679641 1.19209e-07 0 -0.105364
2 1 0.499986 0.642924 0.067964 3.57628e-07 0 -0.105364
3 1 0.249986 0.142924 0.0679641 -1.19209e-07 0 -0.105365
4 1 0.749986 0.142924 0.0679641 -1.19209e-07 0 -0.105364
5 1 0.999986 0.558418 0.30987 1.19209e-07 0 0.0584035
6 1 0.249986 0.4348 0.18664 0 0 0.145916
7 1 0.749986 0.4348 0.18664 -3.57628e-07 0 0.145916
8 1 0.499986 0.558418 0.30987 1.19209e-07 0 0.0584031
9 1 0.999986 0.9348 0.18664 1.19209e-07 0 0.145917
10 1 0.249986 0.058418 0.30987 1.19209e-07 0 0.0584024
11 1 0.499986 0.9348 0.18664 1.19209e-07 0 0.145917
12 1 0.749986 0.058418 0.30987 -1.19209e-07 0 0.0584028
13 1 0.999986 0.471124 0.559755 1.19209e-07 0 -0.00497961
14 1 0.499986 0.471124 0.559755 0 0 -0.00497997
15 1 0.249986 0.971124 0.559755 1.19209e-07 0 -0.00497985
16 1 0.749986 0.971124 0.559755 -1.19209e-07 0 -0.00497961
17 1 0.249986 0.348128 0.434746 2.38419e-07 0 0.00497973
18 1 0.749986 0.348128 0.434746 -4.76837e-07 0 0.00497949
19 1 0.999986 0.848128 0.434746 1.19209e-07 0 0.00497985
20 1 0.499986 0.848128 0.434746 0 0 0.00497961
21 1 0.999986 0.384452 0.807862 -4.76837e-07 0 -0.145917
22 1 0.249986 0.260834 0.684632 -2.38419e-07 0 -0.058403
23 1 0.499986 0.384452 0.807862 1.19209e-07 0 -0.145916
24 1 0.749986 0.260834 0.684632 1.19209e-07 0 -0.0584036
25 1 0.999986 0.760834 0.684632 -1.19209e-07 0 -0.0584028
26 1 0.249986 0.884452 0.807862 -2.38419e-07 0 -0.145917
27 1 0.749986 0.884452 0.807862 1.19209e-07 0 -0.145917
28 1 0.499986 0.760834 0.684632 3.57628e-07 0 -0.0584027
29 1 0.249986 0.176328 0.926537 -2.38419e-07 0 0.105364
30 1 0.749986 0.176328 0.926537 3.57628e-07 0 0.105365
31 1 0.999986 0.676327 0.926537 1.19209e-07 0 0.105365
32 1 0.499986 0.676327 0.926537 -2.38419e-07 0 0.105364
ITEM: TIMESTEP
3
ITEM: NUMBER OF ATOMS
32
ITEM: BOX BOUNDS xy xz yz pp pp pp
-9.5987319946289062e-04 6.3977920413017273e+00 -0.0000000000000000e+00
-1.0525226593017578e-02 7.4667910933494568e+00 0.0000000000000000e+00
-5.8505058288574219e-02 2.0783891499042511e+01 1.9358347058296204e+00
ITEM: ATOMS id type xs ys zs fx fy fz
1 1 0.999986 0.642833 0.0682244 4.76837e-07 0 -0.0189449
2 1 0.499986 0.642833 0.0682244 -9.53674e-07 0 -0.0189451
3 1 0.249986 0.142833 0.0682244 -1.19209e-07 0 -0.0189451
4 1 0.749986 0.142833 0.0682245 3.57628e-07 0 -0.0189456
5 1 0.999986 0.558089 0.310812 -2.38419e-07 0 0.100747
6 1 0.249986 0.433673 0.189865 0 0 -0.0306194
7 1 0.749986 0.433673 0.189865 -2.38419e-07 0 -0.0306185
8 1 0.499986 0.558089 0.310812 2.38419e-07 0 0.100747
9 1 0.999986 0.933673 0.189865 2.38419e-07 0 -0.0306189
10 1 0.249986 0.0580888 0.310812 4.76837e-07 0 0.100748
11 1 0.499986 0.933673 0.189865 2.38419e-07 0 -0.030618
12 1 0.749986 0.0580888 0.310812 -3.57628e-07 0 0.100748
13 1 0.999986 0.471149 0.559683 -2.38419e-07 0 -0.0274069
14 1 0.499986 0.471149 0.559683 2.38419e-07 0 -0.0274067
15 1 0.249986 0.971149 0.559683 0 0 -0.0274066
16 1 0.749986 0.971149 0.559683 2.38419e-07 0 -0.0274072
17 1 0.249986 0.348102 0.434819 -5.96046e-07 0 0.0274072
18 1 0.749986 0.348102 0.434819 1.19209e-07 0 0.0274071
19 1 0.999986 0.848102 0.434819 -3.57628e-07 0 0.0274065
20 1 0.499986 0.848102 0.434819 4.76837e-07 0 0.0274066
21 1 0.999986 0.385578 0.804636 -5.96046e-07 0 0.030619
22 1 0.249986 0.261163 0.683689 1.19209e-07 0 -0.100748
23 1 0.499986 0.385578 0.804636 5.96046e-07 0 0.0306193
24 1 0.749986 0.261163 0.683689 -1.19209e-07 0 -0.100747
25 1 0.999986 0.761163 0.683689 0 0 -0.100748
26 1 0.249986 0.885578 0.804636 0 0 0.0306185
27 1 0.749986 0.885579 0.804636 -1.19209e-07 0 0.0306189
28 1 0.499986 0.761163 0.683689 0 0 -0.100747
29 1 0.249986 0.176419 0.926277 4.76837e-07 0 0.0189449
30 1 0.749986 0.176419 0.926277 -5.96046e-07 0 0.0189447
31 1 0.999986 0.676418 0.926277 1.19209e-07 0 0.0189447
32 1 0.499986 0.676418 0.926277 1.19209e-07 0 0.018945
ITEM: TIMESTEP
4
ITEM: NUMBER OF ATOMS
32
ITEM: BOX BOUNDS xy xz yz pp pp pp
-9.5987319946289062e-04 6.3977920413017273e+00 -0.0000000000000000e+00
-1.0525226593017578e-02 7.4667910933494568e+00 0.0000000000000000e+00
-5.8505058288574219e-02 2.0783891499042511e+01 1.9358347058296204e+00
ITEM: ATOMS id type xs ys zs fx fy fz
1 1 0.999986 0.642931 0.0679445 1.19209e-07 0 0.0267632
2 1 0.499986 0.642931 0.0679445 -1.19209e-07 0 0.0267638
3 1 0.249986 0.142931 0.0679445 2.38419e-07 0 0.0267639
4 1 0.749986 0.142931 0.0679445 0 0 0.0267645
5 1 0.999986 0.557322 0.313006 2.38419e-07 0 -0.0071547
6 1 0.249986 0.433534 0.190262 -3.57628e-07 0 0.00179422
7 1 0.749986 0.433535 0.190262 3.57628e-07 0 0.00179386
8 1 0.499986 0.557322 0.313006 -2.38419e-07 0 -0.00715446
9 1 0.999986 0.933534 0.190262 -1.19209e-07 0 0.0017941
10 1 0.249986 0.0573224 0.313006 -1.19209e-07 0 -0.00715423
11 1 0.499986 0.933534 0.190262 0 0 0.00179362
12 1 0.749986 0.0573224 0.313006 2.38419e-07 0 -0.00715411
13 1 0.999986 0.471338 0.559142 1.19209e-07 0 -0.0412445
14 1 0.499986 0.471338 0.559142 -3.57628e-07 0 -0.0412444
15 1 0.249986 0.971339 0.559142 1.19209e-07 0 -0.0412443
16 1 0.749986 0.971338 0.559142 -1.19209e-07 0 -0.0412445
17 1 0.249986 0.347913 0.43536 1.19209e-07 0 0.0412446
18 1 0.749986 0.347913 0.43536 2.38419e-07 0 0.0412445
19 1 0.999986 0.847913 0.43536 0 0 0.0412445
20 1 0.499986 0.847913 0.43536 -1.19209e-07 0 0.0412447
21 1 0.999986 0.385717 0.804239 3.57628e-07 0 -0.0017935
22 1 0.249986 0.261929 0.681495 -2.38419e-07 0 0.00715446
23 1 0.499986 0.385717 0.804239 -2.38419e-07 0 -0.0017941
24 1 0.749986 0.261929 0.681495 0 0 0.0071547
25 1 0.999986 0.761929 0.681495 0 0 0.00715411
26 1 0.249986 0.885717 0.804239 2.38419e-07 0 -0.00179374
27 1 0.749986 0.885717 0.804239 -3.57628e-07 0 -0.0017941
28 1 0.499986 0.761929 0.681495 2.38419e-07 0 0.00715363
29 1 0.249986 0.176321 0.926557 -2.38419e-07 0 -0.026764
30 1 0.749986 0.176321 0.926557 2.38419e-07 0 -0.026764
31 1 0.999986 0.676321 0.926557 0 0 -0.026764
32 1 0.499986 0.676321 0.926557 -2.38419e-07 0 -0.0267638
ITEM: TIMESTEP
5
ITEM: NUMBER OF ATOMS
32
ITEM: BOX BOUNDS xy xz yz pp pp pp
-9.5987319946289062e-04 6.3977920413017273e+00 -0.0000000000000000e+00
-1.0525226593017578e-02 7.4667910933494568e+00 0.0000000000000000e+00
-5.8505058288574219e-02 2.0783891499042511e+01 1.9358347058296204e+00
ITEM: ATOMS id type xs ys zs fx fy fz
1 1 0.999986 0.642839 0.0682061 2.38419e-07 0 0.00204659
2 1 0.499986 0.642839 0.0682061 -2.38419e-07 0 0.00204682
3 1 0.249986 0.14284 0.0682061 0 0 0.00204718
4 1 0.749986 0.14284 0.0682061 1.19209e-07 0 0.00204706
5 1 0.999986 0.557253 0.313203 0 0 -0.00215471
6 1 0.249986 0.43351 0.190332 3.57628e-07 0 0.0121593
7 1 0.749986 0.43351 0.190332 -1.19209e-07 0 0.0121593
8 1 0.499986 0.557254 0.313203 -2.38419e-07 0 -0.00215459
9 1 0.999986 0.93351 0.190332 0 0 0.0121592
10 1 0.249986 0.0572536 0.313203 1.19209e-07 0 -0.00215399
11 1 0.499986 0.93351 0.190332 1.19209e-07 0 0.0121592
12 1 0.749986 0.0572535 0.313203 -1.19209e-07 0 -0.00215447
13 1 0.999986 0.471522 0.558616 1.19209e-07 0 -0.000657916
14 1 0.499986 0.471522 0.558616 1.19209e-07 0 -0.000657797
15 1 0.249986 0.971522 0.558616 -1.19209e-07 0 -0.000658631
16 1 0.749986 0.971522 0.558616 -2.38419e-07 0 -0.000657797
17 1 0.249986 0.34773 0.435886 2.38419e-07 0 0.000657797
18 1 0.749986 0.34773 0.435886 0 0 0.000657797
19 1 0.999986 0.84773 0.435886 1.19209e-07 0 0.000657678
20 1 0.499986 0.84773 0.435886 -3.57628e-07 0 0.000657678
21 1 0.999986 0.385742 0.804169 2.38419e-07 0 -0.0121593
22 1 0.249986 0.261998 0.681298 -2.38419e-07 0 0.00215471
23 1 0.499986 0.385742 0.804169 -3.57628e-07 0 -0.0121595
24 1 0.749986 0.261998 0.681298 -1.19209e-07 0 0.00215483
25 1 0.999986 0.761998 0.681298 2.38419e-07 0 0.00215483
26 1 0.249986 0.885742 0.804169 -1.19209e-07 0 -0.0121591
27 1 0.749986 0.885742 0.804169 1.19209e-07 0 -0.0121593
28 1 0.499986 0.761998 0.681298 3.57628e-07 0 0.00215459
29 1 0.249986 0.176412 0.926295 0 0 -0.00204647
30 1 0.749986 0.176412 0.926295 0 0 -0.00204659
31 1 0.999986 0.676412 0.926295 -2.38419e-07 0 -0.00204742
32 1 0.499986 0.676412 0.926295 0 0 -0.00204706
ITEM: TIMESTEP
6
ITEM: NUMBER OF ATOMS
32
ITEM: BOX BOUNDS xy xz yz pp pp pp
-9.5987319946289062e-04 6.3977920413017273e+00 -0.0000000000000000e+00
-1.0525226593017578e-02 7.4667910933494568e+00 0.0000000000000000e+00
-5.8505058288574219e-02 2.0783891499042511e+01 1.9358347058296204e+00
ITEM: ATOMS id type xs ys zs fx fy fz
1 1 0.999986 0.642826 0.0682454 -2.38419e-07 0 0.00426328
2 1 0.499986 0.642826 0.0682454 2.38419e-07 0 0.00426328
3 1 0.249986 0.142826 0.0682454 0 0 0.00426352
4 1 0.749986 0.142826 0.0682454 0 0 0.004264
5 1 0.999986 0.557264 0.313172 -2.38419e-07 0 0.00604296
6 1 0.249986 0.43344 0.190532 -1.19209e-07 0 0.000355124
7 1 0.749986 0.43344 0.190532 4.76837e-07 0 0.000355124
8 1 0.499986 0.557264 0.313172 7.15256e-07 0 0.00604296
9 1 0.999986 0.93344 0.190532 -2.38419e-07 0 0.000355124
10 1 0.249986 0.0572643 0.313172 -1.19209e-07 0 0.00604236
11 1 0.499986 0.93344 0.190532 -1.19209e-07 0 0.000355005
12 1 0.749986 0.0572642 0.313172 -2.38419e-07 0 0.00604308
13 1 0.999986 0.47153 0.558593 0 0 0.00188231
14 1 0.499986 0.47153 0.558593 -2.38419e-07 0 0.00188231
15 1 0.249986 0.97153 0.558593 -1.19209e-07 0 0.00188291
16 1 0.749986 0.97153 0.558593 4.76837e-07 0 0.00188255
17 1 0.249986 0.347722 0.435908 1.19209e-07 0 -0.00188231
18 1 0.749986 0.347722 0.435908 -3.57628e-07 0 -0.00188231
19 1 0.999986 0.847722 0.435908 -4.76837e-07 0 -0.00188231
20 1 0.499986 0.847722 0.435908 5.96046e-07 0 -0.0018822
21 1 0.999986 0.385811 0.803969 1.19209e-07 0 -0.000355482
22 1 0.249986 0.261988 0.681329 1.19209e-07 0 -0.00604308
23 1 0.499986 0.385811 0.803969 -1.19209e-07 0 -0.000355244
24 1 0.749986 0.261987 0.681329 0 0 -0.0060426
25 1 0.999986 0.761988 0.681329 2.38419e-07 0 -0.00604308
26 1 0.249986 0.885811 0.803969 1.19209e-07 0 -0.000355601
27 1 0.749986 0.885811 0.803969 -1.19209e-07 0 -0.000355124
28 1 0.499986 0.761987 0.681329 -5.96046e-07 0 -0.00604308
29 1 0.249986 0.176426 0.926256 -1.19209e-07 0 -0.00426316
30 1 0.749986 0.176426 0.926256 -3.57628e-07 0 -0.00426352
31 1 0.999986 0.676426 0.926256 2.38419e-07 0 -0.00426352
32 1 0.499986 0.676426 0.926256 3.57628e-07 0 -0.00426328
ITEM: TIMESTEP
7
ITEM: NUMBER OF ATOMS
32
ITEM: BOX BOUNDS xy xz yz pp pp pp
-9.5987319946289062e-04 6.3977920413017273e+00 -0.0000000000000000e+00
-1.0525226593017578e-02 7.4667910933494568e+00 0.0000000000000000e+00
-5.8505058288574219e-02 2.0783891499042511e+01 1.9358347058296204e+00
ITEM: ATOMS id type xs ys zs fx fy fz
1 1 0.999986 0.642794 0.0683374 -1.19209e-07 0 -0.0021565
2 1 0.499986 0.642794 0.0683374 1.19209e-07 0 -0.00215626
3 1 0.249986 0.142794 0.0683374 2.38419e-07 0 -0.00215578
4 1 0.749986 0.142794 0.0683374 -2.38419e-07 0 -0.00215614
5 1 0.999986 0.557231 0.313267 1.19209e-07 0 0.00235844
6 1 0.249986 0.433409 0.190621 -2.38419e-07 0 0.000479698
7 1 0.749986 0.433409 0.190621 -1.19209e-07 0 0.000479102
8 1 0.499986 0.557231 0.313267 -1.19209e-07 0 0.00235868
9 1 0.999986 0.933409 0.190621 4.76837e-07 0 0.000479937
10 1 0.249986 0.0572312 0.313267 -2.38419e-07 0 0.00235844
11 1 0.499986 0.933409 0.190621 -2.38419e-07 0 0.000479698
12 1 0.749986 0.0572311 0.313267 4.76837e-07 0 0.00235808
13 1 0.999986 0.471522 0.558617 1.19209e-07 0 -0.00297844
14 1 0.499986 0.471522 0.558617 1.19209e-07 0 -0.00297797
15 1 0.249986 0.971522 0.558617 2.38419e-07 0 -0.00297844
16 1 0.749986 0.971522 0.558617 -3.57628e-07 0 -0.00297821
17 1 0.249986 0.34773 0.435884 -2.38419e-07 0 0.00297832
18 1 0.749986 0.34773 0.435884 4.76837e-07 0 0.00297809
19 1 0.999986 0.84773 0.435884 2.38419e-07 0 0.00297856
20 1 0.499986 0.84773 0.435884 -5.96046e-07 0 0.00297809
21 1 0.999986 0.385842 0.80388 -1.19209e-07 0 -0.000478983
22 1 0.249986 0.262021 0.681234 -2.38419e-07 0 -0.00235903
23 1 0.499986 0.385842 0.80388 3.57628e-07 0 -0.000479102
24 1 0.749986 0.262021 0.681234 0 0 -0.00235903
25 1 0.999986 0.762021 0.681234 0 0 -0.00235844
26 1 0.249986 0.885842 0.80388 -1.19209e-07 0 -0.000479221
27 1 0.749986 0.885843 0.80388 -1.19209e-07 0 -0.000479221
28 1 0.499986 0.762021 0.681234 1.19209e-07 0 -0.00235832
29 1 0.249986 0.176458 0.926164 -3.57628e-07 0 0.00215602
30 1 0.749986 0.176458 0.926164 2.38419e-07 0 0.00215638
31 1 0.999986 0.676458 0.926164 3.57628e-07 0 0.00215614
32 1 0.499986 0.676458 0.926164 -2.38419e-07 0 0.00215542
ITEM: TIMESTEP
8
ITEM: NUMBER OF ATOMS
32
ITEM: BOX BOUNDS xy xz yz pp pp pp
-9.5987319946289062e-04 6.3977920413017273e+00 -0.0000000000000000e+00
-1.0525226593017578e-02 7.4667910933494568e+00 0.0000000000000000e+00
-5.8505058288574219e-02 2.0783891499042511e+01 1.9358347058296204e+00
ITEM: ATOMS id type xs ys zs fx fy fz
1 1 0.999986 0.642797 0.0683284 0 0 0.000410557
2 1 0.499986 0.642797 0.0683284 -1.19209e-07 0 0.00041008
3 1 0.249986 0.142797 0.0683284 -2.38419e-07 0 0.00041008
4 1 0.749986 0.142797 0.0683284 -1.19209e-07 0 0.000409126
5 1 0.999986 0.557199 0.313359 1.19209e-07 0 -0.000309348
6 1 0.249986 0.433393 0.190669 2.38419e-07 0 -2.40803e-05
7 1 0.749986 0.433393 0.190669 -2.38419e-07 0 -2.3365e-05
8 1 0.499986 0.557199 0.313359 -2.38419e-07 0 -0.000309706
9 1 0.999986 0.933392 0.190669 -3.57628e-07 0 -2.36034e-05
10 1 0.249986 0.0571992 0.313359 0 0 -0.000309467
11 1 0.499986 0.933392 0.190669 7.15256e-07 0 -2.36034e-05
12 1 0.749986 0.0571992 0.313359 0 0 -0.000309706
13 1 0.999986 0.471541 0.558562 -5.96046e-07 0 -0.000604987
14 1 0.499986 0.471541 0.558562 2.38419e-07 0 -0.000605345
15 1 0.249986 0.971541 0.558562 -2.38419e-07 0 -0.000605106
16 1 0.749986 0.971541 0.558562 4.76837e-07 0 -0.000605345
17 1 0.249986 0.347711 0.435939 2.38419e-07 0 0.000604749
18 1 0.749986 0.347711 0.435939 -3.57628e-07 0 0.000605226
19 1 0.999986 0.847711 0.435939 0 0 0.000604749
20 1 0.499986 0.847711 0.435939 2.38419e-07 0 0.000604868
21 1 0.999986 0.385859 0.803833 -2.38419e-07 0 2.28882e-05
22 1 0.249986 0.262053 0.681143 3.57628e-07 0 0.000311136
23 1 0.499986 0.385859 0.803833 2.38419e-07 0 2.39611e-05
24 1 0.749986 0.262053 0.681143 0 0 0.000309706
25 1 0.999986 0.762053 0.681143 0 0 0.000309587
26 1 0.249986 0.885859 0.803833 -2.38419e-07 0 2.31266e-05
27 1 0.749986 0.885859 0.803833 1.19209e-07 0 2.28882e-05
28 1 0.499986 0.762052 0.681143 -2.38419e-07 0 0.000310183
29 1 0.249986 0.176455 0.926173 3.57628e-07 0 -0.00041008
30 1 0.749986 0.176455 0.926173 0 0 -0.000409842
31 1 0.999986 0.676455 0.926173 0 0 -0.00041008
32 1 0.499986 0.676455 0.926173 -1.19209e-07 0 -0.000409245
ITEM: TIMESTEP
9
ITEM: NUMBER OF ATOMS
32
ITEM: BOX BOUNDS xy xz yz pp pp pp
-9.5987319946289062e-04 6.3977920413017273e+00 -0.0000000000000000e+00
-1.0525226593017578e-02 7.4667910933494568e+00 0.0000000000000000e+00
-5.8505058288574219e-02 2.0783891499042511e+01 1.9358347058296204e+00
ITEM: ATOMS id type xs ys zs fx fy fz
1 1 0.999986 0.642795 0.0683322 -1.19209e-07 0 2.71797e-05
2 1 0.499986 0.642795 0.0683322 0 0 2.71797e-05
3 1 0.249986 0.142796 0.0683322 -2.38419e-07 0 2.59876e-05
4 1 0.749986 0.142795 0.0683322 3.57628e-07 0 2.65837e-05
5 1 0.999986 0.5572 0.313357 1.19209e-07 0 -2.38419e-07
6 1 0.249986 0.433392 0.190669 3.57628e-07 0 3.23057e-05
7 1 0.749986 0.433393 0.190669 -5.96046e-07 0 3.24249e-05
8 1 0.499986 0.5572 0.313357 0 0 -3.57628e-07
9 1 0.999986 0.933392 0.190669 -2.38419e-07 0 3.20673e-05
10 1 0.249986 0.0572 0.313357 1.19209e-07 0 0
11 1 0.499986 0.933392 0.190669 1.19209e-07 0 3.24249e-05
12 1 0.749986 0.0571999 0.313357 1.19209e-07 0 0
13 1 0.999986 0.471543 0.558556 3.57628e-07 0 1.85966e-05
14 1 0.499986 0.471543 0.558556 -3.57628e-07 0 1.77622e-05
15 1 0.249986 0.971543 0.558556 3.57628e-07 0 1.88351e-05
16 1 0.749986 0.971543 0.558556 -2.38419e-07 0 1.83582e-05
17 1 0.249986 0.347709 0.435946 -2.38419e-07 0 -1.78814e-05
18 1 0.749986 0.347709 0.435946 1.19209e-07 0 -1.8239e-05
19 1 0.999986 0.847709 0.435946 1.19209e-07 0 -1.89543e-05
20 1 0.499986 0.847709 0.435946 0 0 -1.80006e-05
21 1 0.999986 0.385859 0.803833 1.19209e-07 0 -3.21865e-05
22 1 0.249986 0.262052 0.681145 5.96046e-07 0 3.57628e-07
23 1 0.499986 0.385859 0.803833 -2.38419e-07 0 -3.25441e-05
24 1 0.749986 0.262052 0.681145 -2.38419e-07 0 1.19209e-07
25 1 0.999986 0.762052 0.681145 -4.76837e-07 0 -1.19209e-07
26 1 0.249986 0.885859 0.803833 4.76837e-07 0 -3.25441e-05
27 1 0.749986 0.885859 0.803833 -1.19209e-07 0 -3.23057e-05
28 1 0.499986 0.762052 0.681145 0 0 0
29 1 0.249986 0.176456 0.926169 3.57628e-07 0 -2.67029e-05
30 1 0.749986 0.176456 0.926169 -2.38419e-07 0 -2.71797e-05
31 1 0.999986 0.676456 0.926169 -4.76837e-07 0 -2.67029e-05
32 1 0.499986 0.676456 0.926169 1.19209e-07 0 -2.6226e-05
ITEM: TIMESTEP
10
ITEM: NUMBER OF ATOMS
32
ITEM: BOX BOUNDS xy xz yz pp pp pp
-9.5987319946289062e-04 6.3977920413017273e+00 -0.0000000000000000e+00
-1.0525226593017578e-02 7.4667910933494568e+00 0.0000000000000000e+00
-5.8505058288574219e-02 2.0783891499042511e+01 1.9358347058296204e+00
ITEM: ATOMS id type xs ys zs fx fy fz
1 1 0.999986 0.642795 0.0683327 0 0 -8.22544e-06
2 1 0.499986 0.642795 0.0683327 1.19209e-07 0 -8.22544e-06
3 1 0.249986 0.142795 0.0683327 4.76837e-07 0 -8.22544e-06
4 1 0.749986 0.142795 0.0683328 -2.38419e-07 0 -8.46386e-06
5 1 0.999986 0.5572 0.313357 -1.19209e-07 0 1.09673e-05
6 1 0.249986 0.433392 0.190669 -7.15256e-07 0 1.23978e-05
7 1 0.749986 0.433392 0.190669 7.15256e-07 0 1.23978e-05
8 1 0.499986 0.5572 0.313357 -3.57628e-07 0 1.13249e-05
9 1 0.999986 0.933392 0.190669 2.38419e-07 0 1.2517e-05
10 1 0.249986 0.0572 0.313357 1.19209e-07 0 1.12057e-05
11 1 0.499986 0.933392 0.190669 -3.57628e-07 0 1.2517e-05
12 1 0.749986 0.0571999 0.313357 2.38419e-07 0 1.14441e-05
13 1 0.999986 0.471543 0.558556 -1.19209e-07 0 -8.46386e-06
14 1 0.499986 0.471543 0.558556 -1.19209e-07 0 -7.51019e-06
15 1 0.249986 0.971543 0.558556 -1.19209e-07 0 -8.82149e-06
16 1 0.749986 0.971543 0.558556 1.19209e-07 0 -8.70228e-06
17 1 0.249986 0.347709 0.435946 0 0 7.86781e-06
18 1 0.749986 0.347709 0.435946 -2.38419e-07 0 8.46386e-06
19 1 0.999986 0.847709 0.435945 2.38419e-07 0 8.9407e-06
20 1 0.499986 0.847709 0.435946 4.76837e-07 0 8.34465e-06
21 1 0.999986 0.385859 0.803832 0 0 -1.20401e-05
22 1 0.249986 0.262052 0.681145 -3.57628e-07 0 -1.15633e-05
23 1 0.499986 0.385859 0.803832 3.57628e-07 0 -1.19209e-05
24 1 0.749986 0.262052 0.681145 0 0 -1.13249e-05
25 1 0.999986 0.762052 0.681145 2.38419e-07 0 -1.14441e-05
26 1 0.249986 0.885859 0.803832 -4.76837e-07 0 -1.23978e-05
27 1 0.749986 0.88586 0.803832 1.19209e-07 0 -1.27554e-05
28 1 0.499986 0.762052 0.681145 0 0 -1.16825e-05
29 1 0.249986 0.176456 0.926169 -3.57628e-07 0 7.86781e-06
30 1 0.749986 0.176456 0.926169 7.15256e-07 0 8.58307e-06
31 1 0.999986 0.676456 0.926169 -2.38419e-07 0 8.70228e-06
32 1 0.499986 0.676456 0.926169 -3.57628e-07 0 8.22544e-06
ITEM: TIMESTEP
11
ITEM: NUMBER OF ATOMS
32
ITEM: BOX BOUNDS xy xz yz pp pp pp
-9.5987319946289062e-04 6.3977920413017273e+00 -0.0000000000000000e+00
-1.0525226593017578e-02 7.4667910933494568e+00 0.0000000000000000e+00
-5.8505058288574219e-02 2.0783891499042511e+01 1.9358347058296204e+00
ITEM: ATOMS id type xs ys zs fx fy fz
1 1 0.999986 0.642795 0.0683327 1.19209e-07 0 1.01328e-05
2 1 0.499986 0.642795 0.0683327 -1.19209e-07 0 1.04904e-05
3 1 0.249986 0.142795 0.0683327 -3.57628e-07 0 1.06096e-05
4 1 0.749986 0.142795 0.0683327 2.38419e-07 0 1.0848e-05
5 1 0.999986 0.5572 0.313357 0 0 1.22786e-05
6 1 0.249986 0.433392 0.19067 4.76837e-07 0 -7.62939e-06
7 1 0.749986 0.433392 0.19067 -7.15256e-07 0 -7.62939e-06
8 1 0.499986 0.5572 0.313357 3.57628e-07 0 1.16825e-05
9 1 0.999986 0.933392 0.19067 -1.19209e-07 0 -7.7486e-06
10 1 0.249986 0.0571999 0.313357 2.38419e-07 0 1.22786e-05
11 1 0.499986 0.933392 0.19067 4.76837e-07 0 -7.7486e-06
12 1 0.749986 0.0571998 0.313357 -5.96046e-07 0 1.20401e-05
13 1 0.999986 0.471543 0.558556 -2.38419e-07 0 -4.41074e-06
14 1 0.499986 0.471543 0.558556 3.57628e-07 0 -4.76837e-06
15 1 0.249986 0.971543 0.558556 2.38419e-07 0 -4.52995e-06
16 1 0.749986 0.971543 0.558556 1.19209e-07 0 -4.05312e-06
17 1 0.249986 0.347709 0.435946 0 0 4.29153e-06
18 1 0.749986 0.347709 0.435946 2.38419e-07 0 4.52995e-06
19 1 0.999986 0.847709 0.435946 0 0 4.29153e-06
20 1 0.499986 0.847709 0.435946 -4.76837e-07 0 4.05312e-06
21 1 0.999986 0.385859 0.803832 0 0 7.03335e-06
22 1 0.249986 0.262052 0.681145 -3.57628e-07 0 -1.16825e-05
23 1 0.499986 0.385859 0.803832 -1.19209e-07 0 7.15256e-06
24 1 0.749986 0.262052 0.681145 0 0 -1.19209e-05
25 1 0.999986 0.762052 0.681145 1.19209e-07 0 -1.16825e-05
26 1 0.249986 0.885859 0.803832 -2.38419e-07 0 7.86781e-06
27 1 0.749986 0.88586 0.803832 0 0 7.98702e-06
28 1 0.499986 0.762052 0.681145 1.19209e-07 0 -1.18017e-05
29 1 0.249986 0.176456 0.926169 3.57628e-07 0 -1.0252e-05
30 1 0.749986 0.176456 0.926169 -2.38419e-07 0 -1.03712e-05
31 1 0.999986 0.676456 0.926169 2.38419e-07 0 -1.03712e-05
32 1 0.499986 0.676456 0.926169 -1.19209e-07 0 -1.09673e-05
ITEM: TIMESTEP
12
ITEM: NUMBER OF ATOMS
32
ITEM: BOX BOUNDS xy xz yz pp pp pp
-9.5987319946289062e-04 6.3977920413017273e+00 -0.0000000000000000e+00
-1.0525226593017578e-02 7.4667910933494568e+00 0.0000000000000000e+00
-5.8505058288574219e-02 2.0783891499042511e+01 1.9358347058296204e+00
ITEM: ATOMS id type xs ys zs fx fy fz
1 1 0.999986 0.642795 0.0683328 3.57628e-07 0 1.66893e-06
2 1 0.499986 0.642795 0.0683328 1.19209e-07 0 1.07288e-06
3 1 0.249986 0.142795 0.0683328 -2.38419e-07 0 1.78814e-06
4 1 0.749986 0.142795 0.0683328 0 0 1.90735e-06
5 1 0.999986 0.5572 0.313357 0 0 -1.19209e-06
6 1 0.249986 0.433392 0.19067 2.38419e-07 0 0
7 1 0.749986 0.433392 0.19067 -4.76837e-07 0 -5.96046e-07
8 1 0.499986 0.5572 0.313357 3.57628e-07 0 -8.34465e-07
9 1 0.999986 0.933392 0.19067 -1.19209e-07 0 -2.38419e-07
10 1 0.249986 0.0571998 0.313357 -2.38419e-07 0 -1.3113e-06
11 1 0.499986 0.933392 0.19067 2.38419e-07 0 -4.76837e-07
12 1 0.749986 0.0571997 0.313357 0 0 -1.3113e-06
13 1 0.999986 0.471543 0.558556 -3.57628e-07 0 1.19209e-07
14 1 0.499986 0.471543 0.558556 -1.19209e-07 0 -8.34465e-07
15 1 0.249986 0.971543 0.558556 -2.38419e-07 0 2.38419e-07
16 1 0.749986 0.971543 0.558556 1.19209e-07 0 -1.19209e-07
17 1 0.249986 0.347709 0.435946 4.76837e-07 0 4.76837e-07
18 1 0.749986 0.347709 0.435946 2.38419e-07 0 -3.57628e-07
19 1 0.999986 0.847709 0.435946 -1.19209e-07 0 0
20 1 0.499986 0.847709 0.435946 -1.19209e-07 0 1.19209e-07
21 1 0.999986 0.38586 0.803831 -1.19209e-07 0 0
22 1 0.249986 0.262052 0.681144 4.76837e-07 0 1.19209e-06
23 1 0.499986 0.385859 0.803831 -2.38419e-07 0 0
24 1 0.749986 0.262052 0.681144 1.19209e-07 0 1.3113e-06
25 1 0.999986 0.762052 0.681144 -4.76837e-07 0 1.3113e-06
26 1 0.249986 0.88586 0.803831 5.96046e-07 0 0
27 1 0.749986 0.88586 0.803831 -2.38419e-07 0 7.15256e-07
28 1 0.499986 0.762052 0.681144 -1.19209e-07 0 1.54972e-06
29 1 0.249986 0.176456 0.926169 1.19209e-07 0 -1.19209e-06
30 1 0.749986 0.176456 0.926169 -4.76837e-07 0 -1.3113e-06
31 1 0.999986 0.676456 0.926169 2.38419e-07 0 -2.14577e-06
32 1 0.499986 0.676456 0.926169 0 0 -1.54972e-06
ITEM: TIMESTEP
13
ITEM: NUMBER OF ATOMS
32
ITEM: BOX BOUNDS xy xz yz pp pp pp
-9.5987319946289062e-04 6.3977920413017273e+00 -0.0000000000000000e+00
-1.0525226593017578e-02 7.4667910933494568e+00 0.0000000000000000e+00
-5.8505058288574219e-02 2.0783891499042511e+01 1.9358347058296204e+00
ITEM: ATOMS id type xs ys zs fx fy fz
1 1 0.999986 0.642795 0.0683328 -1.19209e-07 0 -5.96046e-07
2 1 0.499986 0.642795 0.0683328 -2.38419e-07 0 -5.96046e-07
3 1 0.249986 0.142795 0.0683328 1.19209e-07 0 -3.57628e-07
4 1 0.749986 0.142795 0.0683328 0 0 -3.57628e-07
5 1 0.999986 0.5572 0.313357 0 0 -3.57628e-07
6 1 0.249986 0.433392 0.19067 2.38419e-07 0 -2.38419e-07
7 1 0.749986 0.433392 0.19067 2.38419e-07 0 2.38419e-07
8 1 0.499986 0.5572 0.313357 1.19209e-07 0 -5.96046e-07
9 1 0.999986 0.933392 0.19067 -2.38419e-07 0 2.38419e-07
10 1 0.249986 0.0571998 0.313357 0 0 -3.57628e-07
11 1 0.499986 0.933392 0.19067 1.19209e-07 0 1.19209e-07
12 1 0.749986 0.0571997 0.313357 -2.38419e-07 0 -3.57628e-07
13 1 0.999986 0.471543 0.558556 1.19209e-07 0 4.76837e-07
14 1 0.499986 0.471543 0.558556 2.38419e-07 0 1.19209e-07
15 1 0.249986 0.971543 0.558556 0 0 8.34465e-07
16 1 0.749986 0.971543 0.558556 -3.57628e-07 0 2.38419e-07
17 1 0.249986 0.347709 0.435946 0 0 -1.19209e-07
18 1 0.749986 0.347709 0.435946 1.19209e-07 0 -1.19209e-07
19 1 0.999986 0.847709 0.435946 -1.19209e-07 0 -5.96046e-07
20 1 0.499986 0.847709 0.435946 0 0 -3.57628e-07
21 1 0.999986 0.38586 0.803831 1.19209e-07 0 2.38419e-07
22 1 0.249986 0.262052 0.681144 -3.57628e-07 0 1.19209e-07
23 1 0.499986 0.385859 0.803831 -2.38419e-07 0 2.38419e-07
24 1 0.749986 0.262052 0.681144 1.19209e-07 0 2.38419e-07
25 1 0.999986 0.762052 0.681144 2.38419e-07 0 2.38419e-07
26 1 0.249986 0.88586 0.803831 -2.38419e-07 0 1.19209e-07
27 1 0.749986 0.88586 0.803831 1.19209e-07 0 2.38419e-07
28 1 0.499986 0.762052 0.681144 2.38419e-07 0 2.38419e-07
29 1 0.249986 0.176456 0.926169 -1.19209e-07 0 2.38419e-07
30 1 0.749986 0.176456 0.926169 -3.57628e-07 0 -1.19209e-07
31 1 0.999986 0.676456 0.926169 1.19209e-07 0 4.76837e-07
32 1 0.499986 0.676456 0.926169 3.57628e-07 0 4.76837e-07
