ITEM: TIMESTEP
0
ITEM: NUMBER OF ATOMS
32
ITEM: BOX BOUNDS xy xz yz pp pp pp
-2.1013021469116211e-03 7.1162734627723694e+00 7.1962314844131470e-01
-4.1524946689605713e-02 2.2124402940273285e+01 -0.0000000000000000e+00
-1.4066457748413086e-02 5.1965324282646179e+00 0.0000000000000000e+00
ITEM: ATOMS id type xs ys zs fx fy fz
1 1 0.981356 0.336621 0.593597 0 0.000649691 -1.19209e-07
2 1 0.481357 0.336621 0.593597 0 0.000650287 -4.76837e-07
3 1 0.236042 0.294954 0.093597 0 0.00100374 7.15256e-07
4 1 0.736042 0.294954 0.0935971 0 0.00100255 3.57628e-07
5 1 0.217299 0.461621 0.593597 0 -1.74046e-05 3.57628e-07
6 1 0.717299 0.461621 0.593597 0 -1.78814e-05 1.19209e-07
7 1 0.971985 0.419954 0.0935971 0 -3.73125e-05 -4.76837e-07
8 1 0.471985 0.419954 0.0935971 0 -3.75509e-05 0
9 1 0.953241 0.586621 0.593597 0 3.25441e-05 -3.57628e-07
10 1 0.453241 0.586621 0.593597 0 3.23057e-05 -7.15256e-07
11 1 0.189183 0.711621 0.593597 0 -0.0010035 -1.19209e-06
12 1 0.689183 0.711621 0.593597 0 -0.0010035 -1.19209e-06
13 1 0.943869 0.669954 0.093597 0 -0.000655293 1.3113e-06
14 1 0.207927 0.544954 0.0935971 0 1.90735e-05 1.19209e-07
15 1 0.707927 0.544954 0.0935971 0 1.94311e-05 -1.19209e-07
16 1 0.443869 0.669954 0.093597 0 -0.000655055 1.43051e-06
17 1 0.925125 0.83662 0.593597 0 0.00709462 0
18 1 0.425125 0.83662 0.593597 0 0.00709295 -2.38419e-07
19 1 0.161067 0.96162 0.593597 0 -0.161401 -3.57628e-07
20 1 0.661067 0.96162 0.593597 0 -0.1614 2.38419e-07
21 1 0.179811 0.794954 0.093597 0 0.00224721 3.57628e-07
22 1 0.679811 0.794954 0.0935971 0 0.00224769 2.38419e-07
23 1 0.915753 0.919954 0.0935971 0 -0.268572 -4.76837e-07
24 1 0.415753 0.919954 0.093597 0 -0.268572 5.96046e-07
25 1 0.00947234 0.0866205 0.593597 0 0.268576 -1.07288e-06
26 1 0.509472 0.0866205 0.593597 0 0.268576 -5.96046e-07
27 1 0.264158 0.0449538 0.093597 0 0.161398 1.07288e-06
28 1 0.764158 0.0449538 0.093597 0 0.161399 4.76837e-07
29 1 0.245414 0.211621 0.593597 0 -0.00224614 -4.76837e-07
30 1 0.745414 0.211621 0.593597 0 -0.0022471 -7.15256e-07
31 1 0.000100423 0.169954 0.093597 0 -0.00708818 8.34465e-07
32 1 0.5001 0.169954 0.0935971 0 -0.00708771 3.57628e-07
ITEM: TIMESTEP
1
ITEM: NUMBER OF ATOMS
32
ITEM: BOX BOUNDS xy xz yz pp pp pp
-2.1013021469116211e-03 7.1162734627723694e+00 7.1962314844131470e-01
-4.1524946689605713e-02 2.2124402940273285e+01 -0.0000000000000000e+00
-1.4066457748413086e-02 5.1965324282646179e+00 0.0000000000000000e+00
ITEM: ATOMS id type xs ys zs fx fy fz
1 1 0.981356 0.336627 0.593597 0 0.00176561 0
2 1 0.481356 0.336627 0.593597 0 0.00176632 -2.38419e-07
3 1 0.236041 0.294964 0.0935971 0 0.00782275 1.19209e-07
4 1 0.736041 0.294964 0.0935971 0 0.00782263 2.38419e-07
5 1 0.217299 0.46162 0.593597 0 0.000209451 3.57628e-07
6 1 0.717299 0.46162 0.593597 0 0.000209093 0
7 1 0.971985 0.419954 0.0935971 0 -0.000669837 -2.38419e-07
8 1 0.471985 0.419954 0.0935971 0 -0.000669956 -1.19209e-07
9 1 0.953241 0.586621 0.593597 0 0.000666976 1.19209e-07
10 1 0.453241 0.586621 0.593597 0 0.000666976 0
11 1 0.189184 0.71161 0.593597 0 -0.00782275 -2.38419e-07
12 1 0.689184 0.71161 0.593597 0 -0.00782239 -1.19209e-07
13 1 0.94387 0.669947 0.0935971 0 -0.00176775 0
14 1 0.207927 0.544954 0.0935971 0 -0.000210166 -2.38419e-07
15 1 0.707927 0.544954 0.0935971 0 -0.000210047 -1.19209e-07
16 1 0.44387 0.669947 0.0935971 0 -0.00176764 1.19209e-07
17 1 0.925117 0.836693 0.593597 0 -0.0566174 1.19209e-07
18 1 0.425117 0.836693 0.593597 0 -0.0566177 0
19 1 0.161253 0.959966 0.593597 0 0.04926 -1.19209e-07
20 1 0.661253 0.959966 0.593597 0 0.0492601 -1.19209e-07
21 1 0.179808 0.794977 0.0935971 0 -0.0622991 2.38419e-07
22 1 0.679808 0.794977 0.0935971 0 -0.0622994 0
23 1 0.916063 0.917201 0.0935971 0 -0.0129777 -2.38419e-07
24 1 0.416063 0.917201 0.093597 0 -0.0129787 1.19209e-07
25 1 0.00916271 0.0893736 0.593597 0 0.0129795 3.57628e-07
26 1 0.509163 0.0893736 0.593597 0 0.0129796 0
27 1 0.263972 0.0466083 0.093597 0 -0.0492575 4.76837e-07
28 1 0.763972 0.0466083 0.093597 0 -0.0492572 -1.19209e-07
29 1 0.245417 0.211598 0.593597 0 0.0622997 0
30 1 0.745417 0.211598 0.593597 0 0.0622991 2.38419e-07
31 1 0.000108595 0.169881 0.0935971 0 0.0566187 -1.19209e-07
32 1 0.500109 0.169881 0.0935971 0 0.0566186 -4.76837e-07
ITEM: TIMESTEP
2
ITEM: NUMBER OF ATOMS
32
ITEM: BOX BOUNDS xy xz yz pp pp pp
-2.1013021469116211e-03 7.1162734627723694e+00 7.1962314844131470e-01
-4.1524946689605713e-02 2.2124402940273285e+01 -0.0000000000000000e+00
-1.4066457748413086e-02 5.1965324282646179e+00 0.0000000000000000e+00
ITEM: ATOMS id type xs ys zs fx fy fz
1 1 0.981351 0.336672 0.593597 0 0.0330971 0
2 1 0.481351 0.336672 0.593597 0 0.0330964 0
3 1 0.23602 0.295156 0.0935971 0 0.03887 -1.19209e-07
4 1 0.73602 0.295156 0.0935971 0 0.0388697 -1.19209e-07
5 1 0.217298 0.461625 0.593597 0 0.00224507 -7.15256e-07
6 1 0.717298 0.461625 0.593597 0 0.00224543 -2.38419e-07
7 1 0.971986 0.419937 0.0935971 0 0.00917029 3.57628e-07
8 1 0.471986 0.419937 0.0935971 0 0.00917065 3.57628e-07
9 1 0.953239 0.586637 0.593597 0 -0.00916994 0
10 1 0.453239 0.586637 0.593597 0 -0.00917017 2.38419e-07
11 1 0.189206 0.711418 0.593597 0 -0.0388706 5.96046e-07
12 1 0.689206 0.711418 0.593597 0 -0.0388708 4.76837e-07
13 1 0.943875 0.669902 0.0935971 0 -0.0330961 -4.76837e-07
14 1 0.207927 0.544949 0.0935971 0 -0.00224888 2.38419e-07
15 1 0.707927 0.544949 0.0935971 0 -0.00224912 0
16 1 0.443875 0.669902 0.0935971 0 -0.0330955 -4.76837e-07
17 1 0.925268 0.835353 0.593597 0 0.0116733 -1.19209e-07
18 1 0.425268 0.835353 0.593597 0 0.0116739 2.38419e-07
19 1 0.161185 0.96057 0.593597 0 0.0114472 2.38419e-07
20 1 0.661185 0.96057 0.593597 0 0.0114472 0
21 1 0.179977 0.793482 0.0935971 0 -0.00759947 -4.76837e-07
22 1 0.679977 0.793482 0.0935971 0 -0.00759888 -1.19209e-07
23 1 0.916207 0.915915 0.093597 0 0.0107765 2.38419e-07
24 1 0.416207 0.915915 0.0935971 0 0.0107765 0
25 1 0.00901812 0.0906593 0.593597 0 -0.010775 2.38419e-07
26 1 0.509018 0.0906593 0.593597 0 -0.0107749 3.57628e-07
27 1 0.26404 0.0460043 0.0935971 0 -0.0114454 -7.15256e-07
28 1 0.76404 0.0460043 0.093597 0 -0.0114456 0
29 1 0.245249 0.213092 0.593597 0 0.00759745 -1.19209e-07
30 1 0.745249 0.213092 0.593597 0 0.0075984 -1.19209e-07
31 1 -4.21447e-05 0.171221 0.0935971 0 -0.0116725 2.38419e-07
32 1 0.499958 0.171221 0.093597 0 -0.0116725 0
ITEM: TIMESTEP
3
ITEM: NUMBER OF ATOMS
32
ITEM: BOX BOUNDS xy xz yz pp pp pp
-2.1013021469116211e-03 7.1162734627723694e+00 7.1962314844131470e-01
-4.1524946689605713e-02 2.2124402940273285e+01 -0.0000000000000000e+00
-1.4066457748413086e-02 5.1965324282646179e+00 0.0000000000000000e+00
ITEM: ATOMS id type xs ys zs fx fy fz
1 1 0.981263 0.337452 0.593597 0 0.00486183 -1.19209e-07
2 1 0.481263 0.337452 0.593597 0 0.00486243 5.96046e-07
3 1 0.235913 0.296107 0.0935971 0 -0.00330639 -2.38419e-07
4 1 0.735913 0.296107 0.0935971 0 -0.00330579 -2.38419e-07
5 1 0.217292 0.461679 0.593597 0 0.00943935 3.57628e-07
6 1 0.717292 0.461679 0.593597 0 0.00943971 2.38419e-07
7 1 0.971963 0.420146 0.0935971 0 0.0234258 0
8 1 0.471963 0.420146 0.0935971 0 0.0234256 -8.34465e-07
9 1 0.953262 0.586428 0.593597 0 -0.0234265 -2.38419e-07
10 1 0.453262 0.586428 0.593597 0 -0.0234263 -3.57628e-07
11 1 0.189313 0.710467 0.593597 0 0.0033071 -7.15256e-07
12 1 0.689313 0.710467 0.593597 0 0.00330746 -5.96046e-07
13 1 0.943962 0.669123 0.0935971 0 -0.00486457 5.96046e-07
14 1 0.207933 0.544896 0.0935971 0 -0.00943959 -1.19209e-07
15 1 0.707933 0.544896 0.0935971 0 -0.00943971 2.38419e-07
16 1 0.443962 0.669123 0.0935971 0 -0.00486553 5.96046e-07
17 1 0.925275 0.835287 0.593597 0 0.000846028 0
18 1 0.425275 0.835287 0.593597 0 0.00084579 -2.38419e-07
19 1 0.161138 0.960987 0.593597 0 -0.017571 0
20 1 0.661138 0.960987 0.593597 0 -0.0175711 -1.19209e-07
21 1 0.180039 0.79293 0.093597 0 -0.00115669 3.57628e-07
22 1 0.680039 0.79293 0.0935971 0 -0.00115728 2.38419e-07
23 1 0.916215 0.915842 0.093597 0 -0.0106246 1.19209e-07
24 1 0.416215 0.915842 0.0935971 0 -0.0106229 1.19209e-07
25 1 0.00900995 0.0907319 0.593597 0 0.010623 -4.76837e-07
26 1 0.50901 0.0907319 0.593597 0 0.0106235 -7.15256e-07
27 1 0.264087 0.045587 0.093597 0 0.017571 4.76837e-07
28 1 0.764087 0.045587 0.093597 0 0.0175716 3.57628e-07
29 1 0.245187 0.213644 0.593597 0 0.00115919 1.19209e-07
30 1 0.745187 0.213644 0.593597 0 0.00115883 1.19209e-07
31 1 -4.95165e-05 0.171287 0.0935971 0 -0.000844717 1.19209e-07
32 1 0.49995 0.171287 0.093597 0 -0.000845432 3.57628e-07
ITEM: TIMESTEP
4
ITEM: NUMBER OF ATOMS
32
ITEM: BOX BOUNDS xy xz yz pp pp pp
-2.1013021469116211e-03 7.1162734627723694e+00 7.1962314844131470e-01
-4.1524946689605713e-02 2.2124402940273285e+01 -0.0000000000000000e+00
-1.4066457748413086e-02 5.1965324282646179e+00 0.0000000000000000e+00
ITEM: ATOMS id type xs ys zs fx fy fz
1 1 0.981232 0.337724 0.593597 0 -0.00070703 1.19209e-07
2 1 0.481232 0.337724 0.593597 0 -0.000707269 -2.38419e-07
3 1 0.235892 0.29629 0.0935971 0 -0.0019021 -1.19209e-07
4 1 0.735892 0.29629 0.0935971 0 -0.00190234 2.38419e-07
5 1 0.217274 0.461844 0.593597 0 -0.0041188 1.19209e-07
6 1 0.717274 0.461844 0.593597 0 -0.00411916 -1.19209e-07
7 1 0.971915 0.420575 0.0935971 0 0.00169694 -3.57628e-07
8 1 0.471915 0.420575 0.0935971 0 0.00169742 1.19209e-07
9 1 0.953311 0.585999 0.593597 0 -0.00169826 2.38419e-07
10 1 0.453311 0.585999 0.593597 0 -0.00169754 1.19209e-07
11 1 0.189333 0.710284 0.593597 0 0.00190246 2.38419e-07
12 1 0.689333 0.710284 0.593597 0 0.0019021 1.19209e-07
13 1 0.943993 0.66885 0.0935971 0 0.000707388 -2.38419e-07
14 1 0.207952 0.54473 0.0935971 0 0.0041188 0
15 1 0.707952 0.54473 0.0935971 0 0.00411916 -3.57628e-07
16 1 0.443993 0.66885 0.0935971 0 0.000707269 -1.19209e-07
17 1 0.925275 0.835285 0.593597 0 -0.00880861 2.38419e-07
18 1 0.425275 0.835285 0.593597 0 -0.00880826 1.19209e-07
19 1 0.161158 0.960808 0.593597 0 -0.00124192 0
20 1 0.661158 0.960808 0.593597 0 -0.00124228 1.19209e-07
21 1 0.180056 0.792774 0.0935971 0 -0.00486481 0
22 1 0.680056 0.792774 0.0935971 0 -0.00486469 -1.19209e-07
23 1 0.916237 0.915653 0.0935971 0 0.00243008 -1.19209e-07
24 1 0.416237 0.915653 0.0935971 0 0.00242925 -2.38419e-07
25 1 0.00898869 0.090921 0.593597 0 -0.00242901 2.38419e-07
26 1 0.508989 0.090921 0.593597 0 -0.00242996 3.57628e-07
27 1 0.264067 0.0457661 0.0935971 0 0.00124311 0
28 1 0.764067 0.0457661 0.0935971 0 0.00124228 -2.38419e-07
29 1 0.245169 0.2138 0.593597 0 0.00486505 3.57628e-07
30 1 0.745169 0.2138 0.593597 0 0.00486457 1.19209e-07
31 1 -4.98202e-05 0.17129 0.0935971 0 0.00880778 -4.76837e-07
32 1 0.49995 0.17129 0.0935971 0 0.00880837 -1.19209e-07
ITEM: TIMESTEP
5
ITEM: NUMBER OF ATOMS
32
ITEM: BOX BOUNDS xy xz yz pp pp pp
-2.1013021469116211e-03 7.1162734627723694e+00 7.1962314844131470e-01
-4.1524946689605713e-02 2.2124402940273285e+01 -0.0000000000000000e+00
-1.4066457748413086e-02 5.1965324282646179e+00 0.0000000000000000e+00
ITEM: ATOMS id type xs ys zs fx fy fz
1 1 0.98123 0.337748 0.593597 0 6.68764e-05 -1.19209e-07
2 1 0.48123 0.337748 0.593597 0 6.69956e-05 -1.19209e-07
3 1 0.235893 0.296281 0.0935971 0 0.00455213 2.38419e-07
4 1 0.735893 0.296281 0.0935971 0 0.00455236 0
5 1 0.217279 0.461793 0.593597 0 -0.00185883 -1.19209e-07
6 1 0.717279 0.461793 0.593597 0 -0.00185955 0
7 1 0.971905 0.420663 0.0935971 0 -0.00209069 1.19209e-07
8 1 0.471905 0.420663 0.0935971 0 -0.00209105 0
9 1 0.953321 0.585911 0.593597 0 0.00209117 -2.38419e-07
10 1 0.453321 0.585911 0.593597 0 0.00209093 0
11 1 0.189332 0.710293 0.593597 0 -0.00455248 1.19209e-07
12 1 0.689332 0.710293 0.593597 0 -0.00455213 0
13 1 0.943996 0.668826 0.0935971 0 -6.7234e-05 1.19209e-07
14 1 0.207946 0.544781 0.0935971 0 0.00185931 0
15 1 0.707946 0.544781 0.0935971 0 0.00185895 2.38419e-07
16 1 0.443996 0.668826 0.0935971 0 -6.67572e-05 -2.38419e-07
17 1 0.925293 0.835128 0.593597 0 -0.00130808 -1.19209e-07
18 1 0.425293 0.835128 0.593597 0 -0.00130808 0
19 1 0.161164 0.960762 0.593597 0 -0.0015316 -1.19209e-07
20 1 0.661164 0.960762 0.593597 0 -0.0015316 0
21 1 0.180068 0.792667 0.0935971 0 0.00109994 0
22 1 0.680068 0.792667 0.0935971 0 0.00109971 0
23 1 0.916235 0.915671 0.0935971 0 -0.00165653 3.57628e-07
24 1 0.416235 0.915671 0.0935971 0 -0.00165594 -1.19209e-07
25 1 0.00899065 0.0909035 0.593597 0 0.00165689 -5.96046e-07
26 1 0.508991 0.0909035 0.593597 0 0.00165689 -1.19209e-07
27 1 0.264062 0.0458123 0.0935971 0 0.00153136 1.19209e-07
28 1 0.764062 0.0458123 0.093597 0 0.00153196 3.57628e-07
29 1 0.245157 0.213907 0.593597 0 -0.00110054 -1.19209e-07
30 1 0.745157 0.213907 0.593597 0 -0.00109982 -2.38419e-07
31 1 -6.74125e-05 0.171446 0.0935971 0 0.00130785 3.57628e-07
32 1 0.499933 0.171446 0.0935971 0 0.00130761 2.38419e-07
ITEM: TIMESTEP
6
ITEM: NUMBER OF ATOMS
32
ITEM: BOX BOUNDS xy xz yz pp pp pp
-2.1013021469116211e-03 7.1162734627723694e+00 7.1962314844131470e-01
-4.1524946689605713e-02 2.2124402940273285e+01 -0.0000000000000000e+00
-1.4066457748413086e-02 5.1965324282646179e+00 0.0000000000000000e+00
ITEM: ATOMS id type xs ys zs fx fy fz
1 1 0.981229 0.337756 0.593597 0 -0.000903487 2.38419e-07
2 1 0.481229 0.337756 0.593597 0 -0.000903606 4.76837e-07
3 1 0.235884 0.296361 0.0935971 0 0.00134468 -1.19209e-07
4 1 0.735884 0.296361 0.0935971 0 0.00134444 -4.76837e-07
5 1 0.217285 0.461745 0.593597 0 0.00171471 -1.19209e-07
6 1 0.717285 0.461745 0.593597 0 0.00171494 0
7 1 0.971906 0.420651 0.0935971 0 0.00134861 -1.19209e-07
8 1 0.471906 0.420651 0.0935971 0 0.00134838 0
9 1 0.953319 0.585924 0.593597 0 -0.00134826 1.19209e-07
10 1 0.453319 0.585924 0.593597 0 -0.0013485 -2.38419e-07
11 1 0.189341 0.710214 0.593597 0 -0.00134504 -2.38419e-07
12 1 0.689341 0.710214 0.593597 0 -0.00134528 -1.19209e-07
13 1 0.943997 0.668818 0.0935971 0 0.000903606 0
14 1 0.207941 0.544829 0.0935971 0 -0.00171459 -1.19209e-07
15 1 0.707941 0.544829 0.0935971 0 -0.00171494 1.19209e-07
16 1 0.443997 0.668818 0.0935971 0 0.00090313 2.38419e-07
17 1 0.9253 0.83506 0.593597 0 -0.00022459 -1.19209e-07
18 1 0.4253 0.83506 0.593597 0 -0.000224471 -2.38419e-07
19 1 0.161168 0.960721 0.593597 0 0.000404358 2.38419e-07
20 1 0.661168 0.960721 0.593597 0 0.000404477 1.19209e-07
21 1 0.180069 0.792656 0.0935971 0 0.00014782 2.38419e-07
22 1 0.680069 0.792656 0.0935971 0 0.00014782 1.19209e-07
23 1 0.916238 0.915646 0.0935971 0 -9.25064e-05 -1.19209e-07
24 1 0.416238 0.915646 0.093597 0 -9.31025e-05 2.38419e-07
25 1 0.00898785 0.0909285 0.593597 0 9.21488e-05 3.57628e-07
26 1 0.508988 0.0909284 0.593597 0 9.25064e-05 2.38419e-07
27 1 0.264057 0.0458531 0.0935971 0 -0.000404596 -7.15256e-07
28 1 0.764057 0.0458531 0.0935971 0 -0.000404835 0
29 1 0.245156 0.213918 0.593597 0 -0.000146866 1.19209e-07
30 1 0.745156 0.213918 0.593597 0 -0.000147343 1.19209e-07
31 1 -7.50803e-05 0.171514 0.0935971 0 0.000225306 -2.38419e-07
32 1 0.499925 0.171514 0.0935971 0 0.000225067 0
ITEM: TIMESTEP
7
ITEM: NUMBER OF ATOMS
32
ITEM: BOX BOUNDS xy xz yz pp pp pp
-2.1013021469116211e-03 7.1162734627723694e+00 7.1962314844131470e-01
-4.1524946689605713e-02 2.2124402940273285e+01 -0.0000000000000000e+00
-1.4066457748413086e-02 5.1965324282646179e+00 0.0000000000000000e+00
ITEM: ATOMS id type xs ys zs fx fy fz
1 1 0.98123 0.337743 0.593597 0 0.00047493 -3.57628e-07
2 1 0.48123 0.337743 0.593597 0 0.000474691 -4.76837e-07
3 1 0.23588 0.296398 0.0935971 0 -3.67165e-05 2.38419e-07
4 1 0.73588 0.296398 0.0935971 0 -3.6478e-05 3.57628e-07
5 1 0.217282 0.461765 0.593597 0 -0.000184178 -1.19209e-07
6 1 0.717283 0.461764 0.593597 0 -0.000183821 -1.19209e-07
7 1 0.971904 0.42067 0.0935971 0 0.000524044 1.19209e-07
8 1 0.471904 0.42067 0.0935971 0 0.000523567 3.57628e-07
9 1 0.953321 0.585904 0.593597 0 -0.000524044 0
10 1 0.453321 0.585904 0.593597 0 -0.000523686 0
11 1 0.189345 0.710176 0.593597 0 3.69549e-05 1.19209e-07
12 1 0.689345 0.710176 0.593597 0 3.70741e-05 1.19209e-07
13 1 0.943995 0.668831 0.0935971 0 -0.000474572 -1.19209e-07
14 1 0.207943 0.54481 0.0935971 0 0.000183821 0
15 1 0.707943 0.54481 0.0935971 0 0.000184059 0
16 1 0.443995 0.668831 0.0935971 0 -0.000474453 -1.19209e-07
17 1 0.925302 0.835043 0.593597 0 -0.000123143 3.57628e-07
18 1 0.425302 0.835043 0.593597 0 -0.00012362 2.38419e-07
19 1 0.161168 0.96072 0.593597 0 0.000254393 -1.19209e-07
20 1 0.661168 0.96072 0.593597 0 0.000254393 5.96046e-07
21 1 0.180069 0.792657 0.0935971 0 -0.000205874 -3.57628e-07
22 1 0.680069 0.792657 0.0935971 0 -0.000205159 -1.19209e-07
23 1 0.916238 0.91564 0.0935971 0 0.000141621 -3.57628e-07
24 1 0.416238 0.91564 0.0935971 0 0.000141859 0
25 1 0.00898715 0.0909347 0.593597 0 -0.000141621 1.19209e-07
26 1 0.508987 0.0909347 0.593597 0 -0.00014174 -1.19209e-07
27 1 0.264057 0.0458542 0.093597 0 -0.000254631 3.57628e-07
28 1 0.764057 0.0458542 0.0935971 0 -0.000254273 -4.76837e-07
29 1 0.245156 0.213918 0.593597 0 0.000205159 -2.38419e-07
30 1 0.745156 0.213918 0.593597 0 0.000204682 -1.19209e-07
31 1 -7.69447e-05 0.171531 0.0935971 0 0.000123501 1.19209e-07
32 1 0.499923 0.171531 0.0935971 0 0.000123262 1.19209e-07
ITEM: TIMESTEP
8
ITEM: NUMBER OF ATOMS
32
ITEM: BOX BOUNDS xy xz yz pp pp pp
-2.1013021469116211e-03 7.1162734627723694e+00 7.1962314844131470e-01
-4.1524946689605713e-02 2.2124402940273285e+01 -0.0000000000000000e+00
-1.4066457748413086e-02 5.1965324282646179e+00 0.0000000000000000e+00
ITEM: ATOMS id type xs ys zs fx fy fz
1 1 0.981229 0.337751 0.593597 0 0.00017488 7.15256e-07
2 1 0.481229 0.337751 0.593597 0 0.000174999 7.15256e-07
3 1 0.23588 0.296401 0.0935971 0 0.0001719 -4.76837e-07
4 1 0.73588 0.296401 0.0935971 0 0.0001719 -4.76837e-07
5 1 0.217283 0.461763 0.593597 0 -0.00015831 2.38419e-07
6 1 0.717283 0.461763 0.593597 0 -0.00015831 2.38419e-07
7 1 0.971903 0.420683 0.0935971 0 -4.58956e-05 -4.76837e-07
8 1 0.471903 0.420683 0.0935971 0 -4.55379e-05 -7.15256e-07
9 1 0.953323 0.585891 0.593597 0 4.58956e-05 2.38419e-07
10 1 0.453323 0.585891 0.593597 0 4.55379e-05 0
11 1 0.189346 0.710173 0.593597 0 -0.000171781 -3.57628e-07
12 1 0.689346 0.710173 0.593597 0 -0.0001719 -2.38419e-07
13 1 0.943996 0.668823 0.0935971 0 -0.000174999 1.19209e-07
14 1 0.207943 0.544812 0.0935971 0 0.000158072 -1.19209e-07
15 1 0.707943 0.544812 0.0935971 0 0.000158548 0
16 1 0.443996 0.668823 0.0935971 0 -0.000175238 0
17 1 0.925303 0.835039 0.593597 0 0.000121713 -3.57628e-07
18 1 0.425303 0.835039 0.593597 0 0.000121951 -1.19209e-07
19 1 0.161168 0.960725 0.593597 0 -0.000217557 -1.19209e-07
20 1 0.661168 0.960725 0.593597 0 -0.000217676 -7.15256e-07
21 1 0.18007 0.792653 0.0935971 0 -0.000137091 4.76837e-07
22 1 0.68007 0.792653 0.0935971 0 -0.000137687 2.38419e-07
23 1 0.916238 0.915642 0.093597 0 -0.000273466 4.76837e-07
24 1 0.416238 0.915642 0.0935971 0 -0.000273347 3.57628e-07
25 1 0.0089874 0.0909325 0.593597 0 0.000273228 -1.19209e-07
26 1 0.508987 0.0909325 0.593597 0 0.000273347 0
27 1 0.264058 0.0458491 0.093597 0 0.000217915 2.38419e-07
28 1 0.764058 0.0458491 0.093597 0 0.000217676 2.38419e-07
29 1 0.245156 0.213922 0.593597 0 0.00013721 1.19209e-07
30 1 0.745156 0.213922 0.593597 0 0.000137687 2.38419e-07
31 1 -7.74321e-05 0.171535 0.0935971 0 -0.00012207 -2.38419e-07
32 1 0.499922 0.171535 0.0935971 0 -0.000121593 -1.19209e-07
ITEM: TIMESTEP
9
ITEM: NUMBER OF ATOMS
32
ITEM: BOX BOUNDS xy xz yz pp pp pp
-2.1013021469116211e-03 7.1162734627723694e+00 7.1962314844131470e-01
-4.1524946689605713e-02 2.2124402940273285e+01 -0.0000000000000000e+00
-1.4066457748413086e-02 5.1965324282646179e+00 0.0000000000000000e+00
ITEM: ATOMS id type xs ys zs fx fy fz
1 1 0.981229 0.337757 0.593597 0 -8.41618e-05 -2.38419e-07
2 1 0.481229 0.337757 0.593597 0 -8.40425e-05 -2.38419e-07
3 1 0.235879 0.296405 0.0935971 0 5.72205e-05 2.38419e-07
4 1 0.735879 0.296405 0.0935971 0 5.71012e-05 4.76837e-07
5 1 0.217283 0.46176 0.593597 0 9.82285e-05 -2.38419e-07
6 1 0.717283 0.46176 0.593597 0 9.81092e-05 -2.38419e-07
7 1 0.971902 0.420686 0.0935971 0 -3.61204e-05 2.38419e-07
8 1 0.471902 0.420686 0.0935971 0 -3.51667e-05 2.38419e-07
9 1 0.953323 0.585888 0.593597 0 3.61204e-05 -2.38419e-07
10 1 0.453323 0.585888 0.593597 0 3.57628e-05 0
11 1 0.189346 0.710169 0.593597 0 -5.74589e-05 1.19209e-07
12 1 0.689346 0.710169 0.593597 0 -5.73397e-05 0
13 1 0.943997 0.668818 0.0935971 0 8.39233e-05 0
14 1 0.207942 0.544815 0.0935971 0 -9.78708e-05 1.19209e-07
15 1 0.707942 0.544815 0.0935971 0 -9.89437e-05 1.19209e-07
16 1 0.443997 0.668818 0.0935971 0 8.39233e-05 -1.19209e-07
17 1 0.925303 0.83504 0.593597 0 -9.2268e-05 0
18 1 0.425303 0.83504 0.593597 0 -9.20296e-05 2.38419e-07
19 1 0.161168 0.960723 0.593597 0 2.68221e-05 1.19209e-07
20 1 0.661168 0.960723 0.593597 0 2.65837e-05 0
21 1 0.18007 0.792649 0.0935971 0 -0.00016582 -1.19209e-07
22 1 0.68007 0.792649 0.0935971 0 -0.000166416 -1.19209e-07
23 1 0.916238 0.915638 0.0935971 0 -4.6134e-05 0
24 1 0.416238 0.915638 0.0935971 0 -4.673e-05 -1.19209e-07
25 1 0.00898696 0.0909364 0.593597 0 4.58956e-05 0
26 1 0.508987 0.0909364 0.593597 0 4.66108e-05 1.19209e-07
27 1 0.264057 0.0458513 0.0935971 0 -2.64645e-05 -1.19209e-07
28 1 0.764057 0.0458513 0.093597 0 -2.67029e-05 1.19209e-07
29 1 0.245155 0.213925 0.593597 0 0.000166059 0
30 1 0.745155 0.213925 0.593597 0 0.000166774 -3.57628e-07
31 1 -7.73461e-05 0.171534 0.0935971 0 9.21488e-05 1.19209e-07
32 1 0.499923 0.171534 0.0935971 0 9.23872e-05 -1.19209e-07
ITEM: TIMESTEP
10
ITEM: NUMBER OF ATOMS
32
ITEM: BOX BOUNDS xy xz yz pp pp pp
-2.1013021469116211e-03 7.1162734627723694e+00 7.1962314844131470e-01
-4.1524946689605713e-02 2.2124402940273285e+01 -0.0000000000000000e+00
-1.4066457748413086e-02 5.1965324282646179e+00 0.0000000000000000e+00
ITEM: ATOMS id type xs ys zs fx fy fz
1 1 0.981229 0.337756 0.593597 0 5.59092e-05 -3.57628e-07
2 1 0.481229 0.337756 0.593597 0 5.6386e-05 -1.19209e-07
3 1 0.235879 0.296408 0.0935971 0 2.26498e-06 3.57628e-07
4 1 0.735879 0.296408 0.0935971 0 2.6226e-06 0
5 1 0.217283 0.461761 0.593597 0 2.22921e-05 4.76837e-07
6 1 0.717283 0.461761 0.593597 0 2.25306e-05 0
7 1 0.971902 0.420686 0.0935971 0 -4.29153e-06 0
8 1 0.471902 0.420686 0.0935971 0 -4.88758e-06 -1.19209e-07
9 1 0.953323 0.585888 0.593597 0 4.05312e-06 0
10 1 0.453323 0.585888 0.593597 0 3.93391e-06 1.19209e-07
11 1 0.189346 0.710167 0.593597 0 -2.26498e-06 1.19209e-07
12 1 0.689346 0.710167 0.593597 0 -2.38419e-06 1.19209e-07
13 1 0.943997 0.668818 0.0935971 0 -5.59092e-05 -2.38419e-07
14 1 0.207943 0.544814 0.0935971 0 -2.22921e-05 -2.38419e-07
15 1 0.707943 0.544813 0.0935971 0 -2.18153e-05 -1.19209e-07
16 1 0.443997 0.668818 0.0935971 0 -5.57899e-05 0
17 1 0.925303 0.835038 0.593597 0 -7.98702e-05 2.38419e-07
18 1 0.425303 0.835038 0.593597 0 -7.96318e-05 -2.38419e-07
19 1 0.161168 0.960723 0.593597 0 4.68493e-05 2.38419e-07
20 1 0.661168 0.960723 0.593597 0 4.75645e-05 1.19209e-07
21 1 0.180071 0.792644 0.0935971 0 4.56572e-05 -1.19209e-07
22 1 0.680071 0.792644 0.0935971 0 4.6134e-05 1.19209e-07
23 1 0.916239 0.915636 0.0935971 0 -2.32458e-05 -4.76837e-07
24 1 0.416239 0.915636 0.0935971 0 -2.28882e-05 1.19209e-07
25 1 0.0089867 0.0909387 0.593597 0 2.39611e-05 -1.19209e-07
26 1 0.508987 0.0909387 0.593597 0 2.2769e-05 0
27 1 0.264057 0.0458514 0.0935971 0 -4.72069e-05 0
28 1 0.764057 0.0458514 0.0935971 0 -4.70877e-05 1.19209e-07
29 1 0.245155 0.21393 0.593597 0 -4.58956e-05 -1.19209e-07
30 1 0.745155 0.21393 0.593597 0 -4.673e-05 2.38419e-07
31 1 -7.75472e-05 0.171536 0.0935971 0 7.95126e-05 -1.19209e-07
32 1 0.499922 0.171536 0.0935971 0 7.9751e-05 0
ITEM: TIMESTEP
11
ITEM: NUMBER OF ATOMS
32
ITEM: BOX BOUNDS xy xz yz pp pp pp
-2.1013021469116211e-03 7.1162734627723694e+00 7.1962314844131470e-01
-4.1524946689605713e-02 2.2124402940273285e+01 -0.0000000000000000e+00
-1.4066457748413086e-02 5.1965324282646179e+00 0.0000000000000000e+00
ITEM: ATOMS id type xs ys zs fx fy fz
1 1 0.981229 0.337757 0.593597 0 1.89543e-05 1.19209e-07
2 1 0.481229 0.337757 0.593597 0 1.84774e-05 1.19209e-07
3 1 0.235879 0.296408 0.0935971 0 1.04904e-05 -1.19209e-07
4 1 0.735879 0.296408 0.0935971 0 1.04904e-05 -2.38419e-07
5 1 0.217283 0.461761 0.593597 0 -1.3113e-06 -4.76837e-07
6 1 0.717283 0.461761 0.593597 0 -1.54972e-06 0
7 1 0.971902 0.420686 0.0935971 0 6.67572e-06 0
8 1 0.471902 0.420686 0.0935971 0 6.31809e-06 2.38419e-07
9 1 0.953323 0.585888 0.593597 0 -6.55651e-06 -2.38419e-07
10 1 0.453323 0.585888 0.593597 0 -6.19888e-06 1.19209e-07
11 1 0.189346 0.710166 0.593597 0 -1.0848e-05 -1.19209e-07
12 1 0.689346 0.710166 0.593597 0 -1.06096e-05 0
13 1 0.943997 0.668817 0.0935971 0 -1.87159e-05 1.19209e-07
14 1 0.207943 0.544813 0.0935971 0 1.19209e-06 3.57628e-07
15 1 0.707943 0.544813 0.0935971 0 1.54972e-06 -1.19209e-07
16 1 0.443997 0.668817 0.0935971 0 -1.90735e-05 1.19209e-07
17 1 0.925303 0.835036 0.593597 0 7.7486e-06 -2.38419e-07
18 1 0.425303 0.835036 0.593597 0 7.03335e-06 -1.19209e-07
19 1 0.161168 0.960724 0.593597 0 -1.65701e-05 0
20 1 0.661168 0.960724 0.593597 0 -1.60933e-05 1.19209e-07
21 1 0.180071 0.792644 0.0935971 0 5.96046e-06 1.19209e-07
22 1 0.680071 0.792644 0.0935971 0 6.91414e-06 0
23 1 0.916239 0.915635 0.093597 0 -7.15256e-06 2.38419e-07
24 1 0.416239 0.915635 0.0935971 0 -6.19888e-06 -1.19209e-07
25 1 0.0089866 0.0909396 0.593597 0 7.15256e-06 2.38419e-07
26 1 0.508986 0.0909396 0.593597 0 5.96046e-06 -3.57628e-07
27 1 0.264057 0.0458506 0.0935971 0 1.66893e-05 1.19209e-07
28 1 0.764057 0.0458506 0.0935971 0 1.64509e-05 2.38419e-07
29 1 0.245155 0.21393 0.593597 0 -5.84126e-06 -1.19209e-07
30 1 0.745155 0.21393 0.593597 0 -6.67572e-06 1.19209e-07
31 1 -7.77421e-05 0.171538 0.0935971 0 -6.91414e-06 -1.19209e-07
32 1 0.499922 0.171538 0.0935971 0 -7.7486e-06 0
ITEM: TIMESTEP
12
ITEM: NUMBER OF ATOMS
32
ITEM: BOX BOUNDS xy xz yz pp pp pp
-2.1013021469116211e-03 7.1162734627723694e+00 7.1962314844131470e-01
-4.1524946689605713e-02 2.2124402940273285e+01 -0.0000000000000000e+00
-1.4066457748413086e-02 5.1965324282646179e+00 0.0000000000000000e+00
ITEM: ATOMS id type xs ys zs fx fy fz
1 1 0.981229 0.337758 0.593597 0 1.66893e-06 1.19209e-07
2 1 0.481229 0.337758 0.593597 0 1.54972e-06 0
3 1 0.235879 0.296408 0.0935971 0 2.6226e-06 -3.57628e-07
4 1 0.735879 0.296408 0.0935971 0 2.38419e-06 0
5 1 0.217283 0.461762 0.593597 0 2.38419e-06 1.19209e-07
6 1 0.717283 0.461761 0.593597 0 2.26498e-06 1.19209e-07
7 1 0.971902 0.420686 0.0935971 0 7.7486e-06 0
8 1 0.471902 0.420686 0.0935971 0 7.62939e-06 -2.38419e-07
9 1 0.953323 0.585888 0.593597 0 -7.7486e-06 1.19209e-07
10 1 0.453323 0.585888 0.593597 0 -7.86781e-06 0
11 1 0.189346 0.710166 0.593597 0 -2.86102e-06 0
12 1 0.689346 0.710166 0.593597 0 -2.6226e-06 0
13 1 0.943997 0.668817 0.0935971 0 -1.78814e-06 0
14 1 0.207943 0.544813 0.0935971 0 -2.26498e-06 0
15 1 0.707943 0.544813 0.0935971 0 -2.02656e-06 -1.19209e-07
16 1 0.443997 0.668817 0.0935971 0 -1.43051e-06 0
17 1 0.925303 0.835036 0.593597 0 -1.66893e-06 0
18 1 0.425303 0.835036 0.593597 0 -1.66893e-06 2.38419e-07
19 1 0.161168 0.960724 0.593597 0 -4.76837e-07 0
20 1 0.661168 0.960724 0.593597 0 -1.43051e-06 -1.19209e-07
21 1 0.180071 0.792644 0.0935971 0 -9.17912e-06 0
22 1 0.680071 0.792644 0.0935971 0 -9.65595e-06 0
23 1 0.916239 0.915635 0.0935971 0 7.39098e-06 2.38419e-07
24 1 0.416239 0.915635 0.0935971 0 7.03335e-06 -3.57628e-07
25 1 0.00898658 0.0909397 0.593597 0 -7.39098e-06 1.19209e-07
26 1 0.508986 0.0909397 0.593597 0 -5.72205e-06 1.19209e-07
27 1 0.264057 0.0458508 0.0935971 0 7.15256e-07 -2.38419e-07
28 1 0.764057 0.0458508 0.0935971 0 4.76837e-07 -1.19209e-07
29 1 0.245155 0.21393 0.593597 0 9.17912e-06 1.19209e-07
30 1 0.745155 0.21393 0.593597 0 1.00136e-05 -3.57628e-07
31 1 -7.77399e-05 0.171538 0.0935971 0 1.43051e-06 4.76837e-07
32 1 0.499922 0.171538 0.0935971 0 1.3113e-06 1.19209e-07
ITEM: TIMESTEP
13
ITEM: NUMBER OF ATOMS
32
ITEM: BOX BOUNDS xy xz yz pp pp pp
-2.1013021469116211e-03 7.1162734627723694e+00 7.1962314844131470e-01
-4.1524946689605713e-02 2.2124402940273285e+01 -0.0000000000000000e+00
-1.4066457748413086e-02 5.1965324282646179e+00 0.0000000000000000e+00
ITEM: ATOMS id type xs ys zs fx fy fz
1 1 0.981229 0.337758 0.593597 0 -1.19209e-07 0
2 1 0.481229 0.337758 0.593597 0 2.38419e-07 0
3 1 0.235879 0.296409 0.0935971 0 1.90735e-06 1.19209e-07
4 1 0.735879 0.296409 0.0935971 0 2.02656e-06 -2.38419e-07
5 1 0.217283 0.461762 0.593597 0 -1.90735e-06 2.38419e-07
6 1 0.717283 0.461762 0.593597 0 -1.19209e-06 0
7 1 0.971902 0.420687 0.0935971 0 -1.07288e-06 0
8 1 0.471902 0.420687 0.0935971 0 -4.76837e-07 -1.19209e-07
9 1 0.953323 0.585888 0.593597 0 8.34465e-07 0
10 1 0.453323 0.585888 0.593597 0 4.76837e-07 -1.19209e-07
11 1 0.189346 0.710166 0.593597 0 -1.07288e-06 0
12 1 0.689346 0.710166 0.593597 0 -1.78814e-06 0
13 1 0.943997 0.668817 0.0935971 0 0 0
14 1 0.207943 0.544813 0.0935971 0 1.78814e-06 -2.38419e-07
15 1 0.707943 0.544813 0.0935971 0 1.43051e-06 0
16 1 0.443997 0.668817 0.0935971 0 -2.38419e-07 1.19209e-07
17 1 0.925303 0.835036 0.593597 0 -4.64916e-06 0
18 1 0.425303 0.835036 0.593597 0 -4.41074e-06 -1.19209e-07
19 1 0.161168 0.960724 0.593597 0 8.34465e-07 -1.19209e-07
20 1 0.661168 0.960724 0.593597 0 2.6226e-06 0
21 1 0.180071 0.792644 0.0935971 0 -1.19209e-06 0
22 1 0.680071 0.792644 0.0935971 0 -1.19209e-06 0
23 1 0.916239 0.915635 0.0935971 0 -1.90735e-06 0
24 1 0.416239 0.915635 0.093597 0 -2.02656e-06 2.38419e-07
25 1 0.0089866 0.0909396 0.593597 0 1.66893e-06 0
26 1 0.508986 0.0909396 0.593597 0 9.53674e-07 1.19209e-07
27 1 0.264057 0.0458509 0.0935971 0 -1.66893e-06 0
28 1 0.764057 0.0458509 0.0935971 0 -1.19209e-06 -1.19209e-07
29 1 0.245155 0.21393 0.593597 0 1.3113e-06 1.19209e-07
30 1 0.745155 0.21393 0.593597 0 1.19209e-06 3.57628e-07
31 1 -7.77425e-05 0.171538 0.0935971 0 4.29153e-06 -2.38419e-07
32 1 0.499922 0.171538 0.0935971 0 4.52995e-06 0
ITEM: TIMESTEP
14
ITEM: NUMBER OF ATOMS
32
ITEM: BOX BOUNDS xy xz yz pp pp pp
-2.1013021469116211e-03 7.1162734627723694e+00 7.1962314844131470e-01
-4.1524946689605713e-02 2.2124402940273285e+01 -0.0000000000000000e+00