ITEM: TIMESTEP
0
ITEM: NUMBER OF ATOMS
32
ITEM: BOX BOUNDS xy xz yz pp pp pp
-4.7826766967773438e-03 9.3590226173400879e+00 2.9596909284591675e+00
-3.7661075592041016e-02 2.2120539069175720e+01 0.0000000000000000e+00
-1.1393904685974121e-02 5.1938598752021790e+00 0.0000000000000000e+00
ITEM: ATOMS id type xs ys zs fx fy fz
1 1 0.863679 0.336542 0.593597 0 0.000806808 5.72205e-06
2 1 0.363679 0.336542 0.593597 0 0.000802994 5.72205e-06
3 1 0.132863 0.295033 0.0935973 0 -0.00110245 -5.72205e-06
4 1 0.632863 0.295033 0.0935973 0 -0.00110245 -1.90735e-06
5 1 0.0559099 0.461543 0.593597 0 0.000993729 0
6 1 0.55591 0.461543 0.593597 0 0.000997543 5.72205e-06
7 1 0.825091 0.420037 0.0935973 0 -0.000972748 -7.62939e-06
8 1 0.325092 0.420037 0.0935973 0 -0.000972748 -3.8147e-06
9 1 0.74814 0.586543 0.593597 0 0.000905991 0
10 1 0.24814 0.586543 0.593597 0 0.000904083 0
11 1 0.940373 0.711539 0.593597 0 0.00119019 7.62939e-06
12 1 0.440373 0.711539 0.593597 0 0.00117874 3.8147e-06
13 1 0.70955 0.670042 0.0935972 0 -0.00104713 -3.8147e-06
14 1 0.01732 0.545043 0.0935972 0 -0.00109863 0
15 1 0.51732 0.545043 0.0935972 0 -0.00109482 0
16 1 0.209551 0.670042 0.0935972 0 -0.00105095 -7.62939e-06
17 1 0.632606 0.836533 0.593597 0 0.00363159 3.8147e-06
18 1 0.132606 0.836533 0.593597 0 0.00362778 0
19 1 0.824837 0.961533 0.593597 0 -0.0115471 0
20 1 0.324837 0.961533 0.593597 0 -0.0115414 0
21 1 0.901785 0.795035 0.0935971 0 -0.000488281 -1.90735e-06
22 1 0.401785 0.795035 0.0935971 0 -0.000469208 -1.90735e-06
23 1 0.594017 0.920032 0.0935971 0 -0.0255337 0
24 1 0.0940171 0.920032 0.0935971 0 -0.0255394 0
25 1 0.97922 0.0865377 0.593597 0 0.0254726 0
26 1 0.47922 0.0865377 0.593597 0 0.0254745 0
27 1 0.248403 0.045031 0.093597 0 0.011694 0
28 1 0.748403 0.045031 0.093597 0 0.0116901 0
29 1 0.171449 0.211541 0.593597 0 0.000478745 1.90735e-06
30 1 0.671449 0.211541 0.593597 0 0.000480652 0
31 1 0.940633 0.170031 0.093597 0 -0.00338364 0
32 1 0.440633 0.170031 0.093597 0 -0.00338554 0
ITEM: TIMESTEP
1
ITEM: NUMBER OF ATOMS
32
ITEM: BOX BOUNDS xy xz yz pp pp pp
-4.7826766967773438e-03 9.3590226173400879e+00 2.9596909284591675e+00
-3.7661075592041016e-02 2.2120539069175720e+01 0.0000000000000000e+00
-1.1393904685974121e-02 5.1938598752021790e+00 0.0000000000000000e+00
ITEM: ATOMS id type xs ys zs fx fy fz
1 1 0.863674 0.336554 0.593597 0 0.00053978 -7.62939e-06
2 1 0.363674 0.336554 0.593597 0 0.000541687 -3.8147e-06
3 1 0.132871 0.295017 0.0935969 0 -0.000860214 5.72205e-06
4 1 0.632871 0.295017 0.0935972 0 -0.000860214 1.90735e-06
5 1 0.0559034 0.461557 0.593597 0 0.000612259 -5.72205e-06
6 1 0.555903 0.461557 0.593597 0 0.000617981 -3.8147e-06
7 1 0.825098 0.420024 0.0935968 0 -0.000799179 7.62939e-06
8 1 0.325098 0.420024 0.0935971 0 -0.000799179 1.90735e-06
9 1 0.748134 0.586556 0.593597 0 0.000740051 0
10 1 0.248134 0.586556 0.593597 0 0.000741959 1.90735e-06
11 1 0.940365 0.711556 0.593597 0 0.000926971 -5.72205e-06
12 1 0.440365 0.711556 0.593597 0 0.000944138 0
13 1 0.709557 0.670027 0.093597 0 -0.000642776 3.8147e-06
14 1 0.0173272 0.545027 0.0935972 0 -0.000764847 -3.8147e-06
15 1 0.517327 0.545027 0.0935972 0 -0.000764847 3.8147e-06
16 1 0.209558 0.670027 0.0935967 0 -0.000640869 3.8147e-06
17 1 0.632582 0.836584 0.593597 0 -0.00466919 -5.72205e-06
18 1 0.132583 0.836584 0.593597 0 -0.00467682 1.90735e-06
19 1 0.824913 0.961368 0.593597 0 0.00594711 1.90735e-06
20 1 0.324913 0.961368 0.593597 0 0.00595474 3.8147e-06
21 1 0.901788 0.795028 0.093597 0 -0.00704956 3.8147e-06
22 1 0.401788 0.795028 0.093597 0 -0.00707054 1.90735e-06
23 1 0.594184 0.919669 0.0935971 0 -0.00264931 -1.90735e-06
24 1 0.0941848 0.919669 0.0935971 0 -0.00264168 -3.8147e-06
25 1 0.979053 0.0868997 0.593597 0 0.00271988 0
26 1 0.479053 0.0868997 0.593597 0 0.00272179 0
27 1 0.248326 0.0451972 0.093597 0 -0.00584412 0
28 1 0.748326 0.0451972 0.093597 0 -0.00585175 0
29 1 0.171446 0.211548 0.593597 0 0.00699997 -3.8147e-06
30 1 0.671446 0.211548 0.593597 0 0.00699997 0
31 1 0.940655 0.169983 0.093597 0 0.00478745 1.90735e-06
32 1 0.440656 0.169983 0.093597 0 0.00478935 0
ITEM: TIMESTEP
2
ITEM: NUMBER OF ATOMS
32
ITEM: BOX BOUNDS xy xz yz pp pp pp
-4.7826766967773438e-03 9.3590226173400879e+00 2.9596909284591675e+00
-3.7661075592041016e-02 2.2120539069175720e+01 0.0000000000000000e+00
-1.1393904685974121e-02 5.1938598752021790e+00 0.0000000000000000e+00
ITEM: ATOMS id type xs ys zs fx fy fz
1 1 0.863666 0.336572 0.593597 0 0.00335312 9.53674e-06
2 1 0.363666 0.336572 0.593597 0 0.00334549 0
3 1 0.132883 0.29499 0.0935975 0 0.00390434 -5.72205e-06
4 1 0.632883 0.29499 0.0935974 0 0.00390434 -5.72205e-06
5 1 0.055894 0.461577 0.593596 0 7.24792e-05 1.90735e-05
6 1 0.555894 0.461577 0.593597 0 6.48499e-05 3.8147e-06
7 1 0.825109 0.419998 0.0935976 0 -0.000120163 -1.33514e-05
8 1 0.32511 0.419998 0.0935972 0 -0.000116348 -5.72205e-06
9 1 0.748123 0.58658 0.593597 0 9.34601e-05 1.90735e-06
10 1 0.248124 0.58658 0.593597 0 9.15527e-05 0
11 1 0.940351 0.711586 0.593597 0 -0.00393105 1.90735e-06
12 1 0.440351 0.711586 0.593597 0 -0.00394249 -5.72205e-06
13 1 0.709567 0.670006 0.0935973 0 -0.00338173 -3.8147e-06
14 1 0.0173387 0.545002 0.0935968 0 -0.000154495 -1.90735e-06
15 1 0.517339 0.545002 0.0935976 0 -0.000154495 -7.62939e-06
16 1 0.209568 0.670006 0.093597 0 -0.00338745 3.8147e-06
17 1 0.632632 0.836476 0.593597 0 0.00143242 7.62939e-06
18 1 0.132633 0.836476 0.593597 0 0.00144577 0
19 1 0.824863 0.961478 0.593597 0 0.000583649 -3.8147e-06
20 1 0.324863 0.961478 0.593597 0 0.000570297 -7.62939e-06
21 1 0.901875 0.794839 0.0935974 0 -0.00115204 -5.72205e-06
22 1 0.401876 0.794839 0.0935972 0 -0.00114441 5.72205e-06
23 1 0.594266 0.919492 0.0935969 0 0.000457764 0
24 1 0.0942663 0.919493 0.0935967 0 0.000459671 5.72205e-06
25 1 0.97897 0.0870778 0.593597 0 -0.000391006 1.90735e-06
26 1 0.478971 0.0870778 0.593597 0 -0.000394821 0
27 1 0.248375 0.0450913 0.093597 0 -0.000478745 1.90735e-06
28 1 0.748375 0.0450911 0.093597 0 -0.000478745 0
29 1 0.17136 0.211735 0.593597 0 0.00114822 5.72205e-06
30 1 0.67136 0.211735 0.593597 0 0.00114441 3.8147e-06
31 1 0.940603 0.170096 0.0935972 0 -0.00142479 -3.8147e-06
32 1 0.440604 0.170096 0.093597 0 -0.00141907 -1.90735e-06
ITEM: TIMESTEP
3
ITEM: NUMBER OF ATOMS
32
ITEM: BOX BOUNDS xy xz yz pp pp pp
-4.7826766967773438e-03 9.3590226173400879e+00 2.9596909284591675e+00
-3.7661075592041016e-02 2.2120539069175720e+01 0.0000000000000000e+00
-1.1393904685974121e-02 5.1938598752021790e+00 0.0000000000000000e+00
ITEM: ATOMS id type xs ys zs fx fy fz
1 1 0.863625 0.336659 0.593597 0 0.000509262 -1.14441e-05
2 1 0.363626 0.336659 0.593597 0 0.000514984 0
3 1 0.132841 0.29508 0.093597 0 -0.000242233 0
4 1 0.632841 0.29508 0.0935968 0 -0.000247955 9.53674e-06
5 1 0.055891 0.461584 0.593598 0 0.00135422 -2.47955e-05
6 1 0.555891 0.461584 0.593597 0 0.00135803 -9.53674e-06
7 1 0.825113 0.41999 0.0935963 0 0.00265694 1.71661e-05
8 1 0.325114 0.41999 0.0935966 0 0.00264931 1.14441e-05
9 1 0.74812 0.586587 0.593597 0 -0.00272751 -3.8147e-06
10 1 0.24812 0.586587 0.593597 0 -0.00271797 -7.62939e-06
11 1 0.940393 0.711495 0.593597 0 0.000213623 1.90735e-06
12 1 0.440393 0.711495 0.593597 0 0.000217438 7.62939e-06
13 1 0.709608 0.669917 0.093597 0 -0.000518799 1.90735e-06
14 1 0.0173431 0.544993 0.0935965 0 -0.00136185 1.33514e-05
15 1 0.517343 0.544993 0.0935969 0 -0.00136185 9.53674e-06
16 1 0.209609 0.669917 0.0935975 0 -0.000511169 -7.62939e-06
17 1 0.632627 0.836487 0.593597 0 -0.000501633 -3.8147e-06
18 1 0.132628 0.836487 0.593597 0 -0.000499725 -3.8147e-06
19 1 0.824844 0.961517 0.593597 0 -0.00110435 0
20 1 0.324844 0.961517 0.593597 0 -0.00110435 5.72205e-06
21 1 0.901909 0.794767 0.0935969 0 -0.000440598 5.72205e-06
22 1 0.401909 0.794767 0.0935978 0 -0.000434875 -9.53674e-06
23 1 0.59428 0.919463 0.0935968 0 -7.62939e-06 3.8147e-06
24 1 0.0942799 0.919463 0.0935972 0 -1.33514e-05 0
25 1 0.978956 0.0871093 0.593597 0 5.34058e-05 0
26 1 0.478956 0.0871093 0.593597 0 5.34058e-05 0
27 1 0.248392 0.0450549 0.0935972 0 0.00111389 -1.90735e-06
28 1 0.748392 0.0450546 0.093597 0 0.00112152 -1.90735e-06
29 1 0.171327 0.211807 0.593597 0 0.000469208 0
30 1 0.671327 0.211807 0.593597 0 0.000476837 -5.72205e-06
31 1 0.940607 0.170086 0.0935969 0 0.000520706 0
32 1 0.440608 0.170086 0.0935968 0 0.000513077 3.8147e-06
ITEM: TIMESTEP
4
ITEM: NUMBER OF ATOMS
32
ITEM: BOX BOUNDS xy xz yz pp pp pp
-4.7826766967773438e-03 9.3590226173400879e+00 2.9596909284591675e+00
-3.7661075592041016e-02 2.2120539069175720e+01 0.0000000000000000e+00
-1.1393904685974121e-02 5.1938598752021790e+00 0.0000000000000000e+00
ITEM: ATOMS id type xs ys zs fx fy fz
1 1 0.863607 0.336699 0.593597 0 0.000204086 5.72205e-06
2 1 0.363607 0.336699 0.593597 0 0.000207901 3.8147e-06
3 1 0.13283 0.295105 0.0935968 0 0.000146866 0
4 1 0.63283 0.295105 0.0935975 0 0.000152588 -3.8147e-06
5 1 0.0558761 0.461616 0.593597 0 -0.000799179 1.14441e-05
6 1 0.555876 0.461616 0.593597 0 -0.000806808 1.14441e-05
7 1 0.825088 0.420046 0.0935975 0 5.72205e-05 -1.14441e-05
8 1 0.325088 0.420046 0.0935975 0 5.53131e-05 -7.62939e-06
9 1 0.748146 0.586529 0.593597 0 -6.10352e-05 3.8147e-06
10 1 0.248147 0.58653 0.593597 0 -7.43866e-05 7.62939e-06
11 1 0.940405 0.71147 0.593597 0 -0.000150681 -1.90735e-06
12 1 0.440405 0.71147 0.593597 0 -0.000160217 -1.90735e-06
13 1 0.709627 0.669876 0.0935971 0 -0.000230789 1.90735e-06
14 1 0.0173586 0.544959 0.0935976 0 0.000801086 -9.53674e-06
15 1 0.517359 0.544959 0.0935976 0 0.000802994 -9.53674e-06
16 1 0.209628 0.669876 0.0935969 0 -0.000219345 0
17 1 0.632631 0.836479 0.593597 0 -0.000930786 0
18 1 0.132631 0.836479 0.593597 0 -0.000932693 1.90735e-06
19 1 0.82485 0.961506 0.593597 0 -0.000314713 7.62939e-06
20 1 0.32485 0.961506 0.593597 0 -0.000303268 1.90735e-06
21 1 0.901924 0.794733 0.0935972 0 4.3869e-05 0
22 1 0.401924 0.794733 0.0935971 0 4.76837e-05 3.8147e-06
23 1 0.594284 0.919453 0.0935972 0 1.52588e-05 -3.8147e-06
24 1 0.0942845 0.919453 0.0935973 0 1.52588e-05 -5.72205e-06
25 1 0.97895 0.0871209 0.593597 0 -2.09808e-05 -5.72205e-06
26 1 0.478951 0.0871208 0.593597 0 -2.09808e-05 0
27 1 0.248386 0.0450677 0.0935971 0 0.000322342 0
28 1 0.748386 0.0450675 0.0935968 0 0.000328064 0
29 1 0.171311 0.211841 0.593597 0 -2.47955e-05 -9.53674e-06
30 1 0.671311 0.211841 0.593597 0 -3.05176e-05 3.8147e-06
31 1 0.940603 0.170095 0.0935967 0 0.000938416 5.72205e-06
32 1 0.440604 0.170095 0.0935971 0 0.00094223 0
ITEM: TIMESTEP
5
ITEM: NUMBER OF ATOMS
32
ITEM: BOX BOUNDS xy xz yz pp pp pp
-4.7826766967773438e-03 9.3590226173400879e+00 2.9596909284591675e+00
-3.7661075592041016e-02 2.2120539069175720e+01 0.0000000000000000e+00
-1.1393904685974121e-02 5.1938598752021790e+00 0.0000000000000000e+00
ITEM: ATOMS id type xs ys zs fx fy fz
1 1 0.863601 0.336711 0.593597 0 -0.000486374 -5.72205e-06
2 1 0.363602 0.336711 0.593597 0 -0.00047493 -9.53674e-06
3 1 0.132826 0.295113 0.0935968 0 0.000499725 5.72205e-06
4 1 0.632826 0.295113 0.0935972 0 0.000505447 1.90735e-06
5 1 0.0558827 0.461602 0.593597 0 8.39233e-05 -9.53674e-06
6 1 0.555883 0.461602 0.593598 0 8.7738e-05 -1.33514e-05
7 1 0.825082 0.420057 0.0935965 0 0 1.14441e-05
8 1 0.325083 0.420057 0.0935969 0 5.72205e-06 7.62939e-06
9 1 0.748152 0.586518 0.593597 0 9.53674e-06 -3.8147e-06
10 1 0.248152 0.586518 0.593597 0 1.90735e-05 -5.72205e-06
11 1 0.940409 0.711462 0.593597 0 -0.000488281 3.8147e-06
12 1 0.440409 0.711461 0.593597 0 -0.000473022 -1.90735e-06
13 1 0.709633 0.669864 0.0935973 0 0.000486374 -3.8147e-06
14 1 0.0173521 0.544973 0.0935968 0 -0.000106812 9.53674e-06
15 1 0.517352 0.544973 0.0935967 0 -0.000116348 1.14441e-05
16 1 0.209633 0.669864 0.0935968 0 0.000453949 3.8147e-06
17 1 0.632642 0.836454 0.593597 0 -5.53131e-05 0
18 1 0.132643 0.836455 0.593597 0 -7.05719e-05 0
19 1 0.824854 0.961496 0.593598 0 -0.000101089 -9.53674e-06
20 1 0.324854 0.961496 0.593597 0 -0.000108719 -3.8147e-06
21 1 0.901927 0.794729 0.0935973 0 -0.000102997 -1.90735e-06
22 1 0.401926 0.794729 0.0935974 0 -0.000114441 0
23 1 0.594285 0.919452 0.0935968 0 -4.19617e-05 1.90735e-06
24 1 0.0942851 0.919452 0.0935968 0 -4.19617e-05 7.62939e-06
25 1 0.97895 0.0871224 0.593597 0 5.34058e-05 3.8147e-06
26 1 0.47895 0.0871223 0.593597 0 6.48499e-05 -1.90735e-06
27 1 0.248381 0.0450779 0.0935971 0 0.000101089 -1.90735e-06
28 1 0.748381 0.0450779 0.0935968 0 9.72748e-05 5.72205e-06
29 1 0.171308 0.211846 0.593596 0 9.15527e-05 7.62939e-06
30 1 0.671308 0.211846 0.593597 0 8.7738e-05 0
31 1 0.940592 0.17012 0.0935973 0 7.24792e-05 -3.8147e-06
32 1 0.440592 0.17012 0.0935971 0 6.29425e-05 -5.72205e-06
ITEM: TIMESTEP
6
ITEM: NUMBER OF ATOMS
32
ITEM: BOX BOUNDS xy xz yz pp pp pp
-4.7826766967773438e-03 9.3590226173400879e+00 2.9596909284591675e+00
-3.7661075592041016e-02 2.2120539069175720e+01 0.0000000000000000e+00
-1.1393904685974121e-02 5.1938598752021790e+00 0.0000000000000000e+00
ITEM: ATOMS id type xs ys zs fx fy fz
1 1 0.863605 0.336703 0.593597 0 3.62396e-05 7.62939e-06
2 1 0.363605 0.336703 0.593597 0 1.71661e-05 1.14441e-05
3 1 0.13282 0.295126 0.0935974 0 3.8147e-05 -1.14441e-05
4 1 0.63282 0.295127 0.0935973 0 2.67029e-05 -7.62939e-06
5 1 0.0558837 0.461599 0.593597 0 -9.53674e-06 5.72205e-06
6 1 0.555884 0.461599 0.593597 0 -5.72205e-06 9.53674e-06
7 1 0.825081 0.42006 0.0935974 0 4.19617e-05 -7.62939e-06
8 1 0.325081 0.42006 0.0935974 0 4.57764e-05 -5.72205e-06
9 1 0.748153 0.586515 0.593597 0 -6.29425e-05 7.62939e-06
10 1 0.248154 0.586515 0.593597 0 -6.67572e-05 5.72205e-06
11 1 0.940415 0.711448 0.593597 0 -2.86102e-05 -1.90735e-06
12 1 0.440415 0.711448 0.593597 0 -2.86102e-05 7.62939e-06
13 1 0.70963 0.669871 0.093597 0 -2.67029e-05 0
14 1 0.0173514 0.544975 0.0935975 0 1.33514e-05 -1.14441e-05
15 1 0.517351 0.544975 0.0935976 0 1.71661e-05 -9.53674e-06
16 1 0.20963 0.669871 0.0935972 0 -5.72205e-06 -1.90735e-06
17 1 0.632646 0.836446 0.593597 0 5.72205e-06 -3.8147e-06
18 1 0.132647 0.836446 0.593597 0 9.53674e-06 1.90735e-06
19 1 0.824857 0.961491 0.593597 0 6.10352e-05 7.62939e-06
20 1 0.324856 0.961491 0.593597 0 6.10352e-05 -3.8147e-06
21 1 0.901928 0.794725 0.0935971 0 6.67572e-05 0
22 1 0.401928 0.794725 0.0935975 0 7.43866e-05 -5.72205e-06
23 1 0.594285 0.91945 0.0935969 0 -2.86102e-05 1.90735e-06
24 1 0.0942858 0.91945 0.0935973 0 -3.43323e-05 -1.90735e-06
25 1 0.978949 0.087124 0.593597 0 2.67029e-05 3.8147e-06
26 1 0.478949 0.0871243 0.593597 0 1.33514e-05 -1.90735e-06
27 1 0.248379 0.0450832 0.0935969 0 -4.57764e-05 3.8147e-06
28 1 0.748379 0.0450832 0.0935973 0 -4.95911e-05 -7.62939e-06
29 1 0.171307 0.21185 0.593597 0 -8.01086e-05 5.72205e-06
30 1 0.671307 0.21185 0.593597 0 -7.05719e-05 -5.72205e-06
31 1 0.940588 0.170128 0.0935971 0 -7.62939e-06 0
32 1 0.440588 0.170128 0.0935966 0 -3.8147e-06 7.62939e-06
ITEM: TIMESTEP
7
ITEM: NUMBER OF ATOMS
32
ITEM: BOX BOUNDS xy xz yz pp pp pp
-4.7826766967773438e-03 9.3590226173400879e+00 2.9596909284591675e+00
-3.7661075592041016e-02 2.2120539069175720e+01 0.0000000000000000e+00
-1.1393904685974121e-02 5.1938598752021790e+00 0.0000000000000000e+00
ITEM: ATOMS id type xs ys zs fx fy fz
1 1 0.863605 0.336703 0.593597 0 3.62396e-05 7.62939e-06
2 1 0.363605 0.336703 0.593597 0 1.71661e-05 1.14441e-05
3 1 0.13282 0.295126 0.0935974 0 3.8147e-05 -1.14441e-05
4 1 0.63282 0.295127 0.0935973 0 2.67029e-05 -7.62939e-06
5 1 0.0558837 0.461599 0.593597 0 -9.53674e-06 5.72205e-06
6 1 0.555884 0.461599 0.593597 0 -5.72205e-06 9.53674e-06
7 1 0.825081 0.42006 0.0935974 0 4.19617e-05 -7.62939e-06
8 1 0.325081 0.42006 0.0935974 0 4.57764e-05 -5.72205e-06
9 1 0.748153 0.586515 0.593597 0 -6.29425e-05 7.62939e-06
10 1 0.248154 0.586515 0.593597 0 -6.67572e-05 5.72205e-06
11 1 0.940415 0.711448 0.593597 0 -2.86102e-05 -1.90735e-06
12 1 0.440415 0.711448 0.593597 0 -2.86102e-05 7.62939e-06
13 1 0.70963 0.669871 0.093597 0 -2.67029e-05 0
14 1 0.0173514 0.544975 0.0935975 0 1.33514e-05 -1.14441e-05
15 1 0.517351 0.544975 0.0935976 0 1.71661e-05 -9.53674e-06
16 1 0.20963 0.669871 0.0935972 0 -5.72205e-06 -1.90735e-06
17 1 0.632646 0.836446 0.593597 0 5.72205e-06 -3.8147e-06
18 1 0.132647 0.836446 0.593597 0 9.53674e-06 1.90735e-06
19 1 0.824857 0.961491 0.593597 0 6.10352e-05 7.62939e-06
20 1 0.324856 0.961491 0.593597 0 6.10352e-05 -3.8147e-06
21 1 0.901928 0.794725 0.0935971 0 6.67572e-05 0
22 1 0.401928 0.794725 0.0935975 0 7.43866e-05 -5.72205e-06
23 1 0.594285 0.91945 0.0935969 0 -2.86102e-05 1.90735e-06
24 1 0.0942858 0.91945 0.0935973 0 -3.43323e-05 -1.90735e-06
25 1 0.978949 0.087124 0.593597 0 2.67029e-05 3.8147e-06
26 1 0.478949 0.0871243 0.593597 0 1.33514e-05 -1.90735e-06
27 1 0.248379 0.0450832 0.0935969 0 -4.57764e-05 3.8147e-06
28 1 0.748379 0.0450832 0.0935973 0 -4.95911e-05 -7.62939e-06
29 1 0.171307 0.21185 0.593597 0 -8.01086e-05 5.72205e-06
30 1 0.671307 0.21185 0.593597 0 -7.05719e-05 -5.72205e-06
31 1 0.940588 0.170128 0.0935971 0 -7.62939e-06 0
32 1 0.440588 0.170128 0.0935966 0 -3.8147e-06 7.62939e-06
