ITEM: TIMESTEP
0
ITEM: NUMBER OF ATOMS
32
ITEM: BOX BOUNDS xy xz yz pp pp pp
-4.7826766967773438e-03 7.8391813039779663e+00 1.4398496150970459e+00
-3.7661075592041016e-02 2.2120539069175720e+01 0.0000000000000000e+00
-1.1393904685974121e-02 5.1938598752021790e+00 0.0000000000000000e+00
ITEM: ATOMS id type xs ys zs fx fy fz
1 1 0.943548 0.336542 0.593597 0 0.000801086 5.72205e-06
2 1 0.443548 0.336542 0.593597 0 0.000797272 5.72205e-06
3 1 0.202881 0.295033 0.0935973 0 -0.0021286 -5.72205e-06
4 1 0.702881 0.295033 0.0935973 0 -0.0021286 -3.8147e-06
5 1 0.165444 0.461543 0.593597 0 0.000881195 0
6 1 0.665444 0.461543 0.593597 0 0.00088501 5.72205e-06
7 1 0.924776 0.420037 0.0935973 0 -0.00147438 -7.62939e-06
8 1 0.424776 0.420037 0.0935973 0 -0.00147438 -3.8147e-06
9 1 0.88734 0.586543 0.593597 0 0.00140762 0
10 1 0.38734 0.586543 0.593597 0 0.00140572 0
11 1 0.109237 0.711539 0.593597 0 0.00221825 7.62939e-06
12 1 0.609237 0.711539 0.593597 0 0.00221634 3.8147e-06
13 1 0.868567 0.670042 0.0935972 0 -0.00104332 -3.8147e-06
14 1 0.146671 0.545043 0.0935972 0 -0.000988007 0
15 1 0.646671 0.545043 0.0935972 0 -0.000984192 0
16 1 0.368567 0.670042 0.0935972 0 -0.00104713 -7.62939e-06
17 1 0.831134 0.836533 0.593597 0 0.0122833 3.8147e-06
18 1 0.331135 0.836533 0.593597 0 0.0122833 1.90735e-06
19 1 0.0530308 0.961533 0.593597 0 -0.401232 1.90735e-06
20 1 0.553031 0.961533 0.593597 0 -0.401232 1.90735e-06
21 1 0.0904648 0.795035 0.0935971 0 0.00375938 -1.90735e-06
22 1 0.590465 0.795035 0.0935971 0 0.00374985 -1.90735e-06
23 1 0.812361 0.920032 0.0935971 0 -0.658726 -5.72205e-06
24 1 0.312361 0.920032 0.0935971 0 -0.658728 0
25 1 0.999757 0.0865377 0.593597 0 0.65843 0
26 1 0.499758 0.0865377 0.593597 0 0.658434 0
27 1 0.25909 0.045031 0.093597 0 0.40163 0
28 1 0.75909 0.045031 0.093597 0 0.40163 0
29 1 0.221653 0.211541 0.593597 0 -0.00374413 1.90735e-06
30 1 0.721653 0.211541 0.593597 0 -0.00374413 1.90735e-06
31 1 0.980985 0.170031 0.093597 0 -0.0120678 0
32 1 0.480986 0.170031 0.093597 0 -0.0120716 0
ITEM: TIMESTEP
1
ITEM: NUMBER OF ATOMS
32
ITEM: BOX BOUNDS xy xz yz pp pp pp
-4.7826766967773438e-03 7.8391813039779663e+00 1.4398496150970459e+00
-3.7661075592041016e-02 2.2120539069175720e+01 0.0000000000000000e+00
-1.1393904685974121e-02 5.1938598752021790e+00 0.0000000000000000e+00
ITEM: ATOMS id type xs ys zs fx fy fz
1 1 0.943547 0.336548 0.593597 0 -1.14441e-05 0
2 1 0.443547 0.336548 0.593597 0 -2.09808e-05 1.90735e-06
3 1 0.202884 0.295018 0.0935971 0 0.00038147 0
4 1 0.702884 0.295018 0.0935972 0 0.000392914 0
5 1 0.165443 0.461549 0.593597 0 0.0013504 0
6 1 0.665443 0.461549 0.593597 0 0.0013504 0
7 1 0.924778 0.420027 0.0935971 0 -0.00195694 -1.90735e-06
8 1 0.424778 0.420027 0.0935972 0 -0.00195694 0
9 1 0.887338 0.586553 0.593597 0 0.00192261 0
10 1 0.387338 0.586553 0.593597 0 0.00192261 1.90735e-06
11 1 0.109234 0.711554 0.593597 0 -0.000305176 -1.90735e-06
12 1 0.609234 0.711554 0.593597 0 -0.00030899 -1.90735e-06
13 1 0.868568 0.670035 0.0935971 0 -0.000164032 1.90735e-06
14 1 0.146673 0.545036 0.0935972 0 -0.00148964 0
15 1 0.646673 0.545036 0.0935972 0 -0.00149345 -1.90735e-06
16 1 0.368569 0.670035 0.093597 0 -0.000164032 0
17 1 0.831115 0.836617 0.593597 0 -0.0948181 -7.62939e-06
18 1 0.331116 0.836617 0.593597 0 -0.0948181 0
19 1 0.0536488 0.958784 0.593597 0 0.0320129 0
20 1 0.553649 0.958784 0.593597 0 0.0320225 -3.8147e-06
21 1 0.090459 0.79506 0.093597 0 -0.10626 5.72205e-06
22 1 0.590459 0.79506 0.093597 0 -0.10626 1.90735e-06
23 1 0.813376 0.915519 0.0935969 0 -0.129473 5.72205e-06
24 1 0.313376 0.915519 0.0935971 0 -0.129467 0
25 1 0.998743 0.0910487 0.593597 0 0.129635 0
26 1 0.498743 0.0910487 0.593597 0 0.129623 0
27 1 0.258471 0.0477826 0.093597 0 -0.0319862 0
28 1 0.758471 0.0477826 0.093597 0 -0.0319843 0
29 1 0.221659 0.211515 0.593597 0 0.10614 0
30 1 0.721659 0.211515 0.593597 0 0.106134 0
31 1 0.981004 0.169948 0.093597 0 0.0950222 0
32 1 0.481004 0.169948 0.093597 0 0.0950279 0
ITEM: TIMESTEP
2
ITEM: NUMBER OF ATOMS
32
ITEM: BOX BOUNDS xy xz yz pp pp pp
-4.7826766967773438e-03 7.8391813039779663e+00 1.4398496150970459e+00
-3.7661075592041016e-02 2.2120539069175720e+01 0.0000000000000000e+00
-1.1393904685974121e-02 5.1938598752021790e+00 0.0000000000000000e+00
ITEM: ATOMS id type xs ys zs fx fy fz
1 1 0.943547 0.336548 0.593597 0 0.0619469 1.90735e-06
2 1 0.443547 0.336547 0.593597 0 0.0619621 -3.8147e-06
3 1 0.202882 0.295029 0.0935971 0 0.0780582 -1.90735e-06
4 1 0.702882 0.295029 0.0935972 0 0.0780411 -3.8147e-06
5 1 0.165435 0.461586 0.593597 0 5.14984e-05 -1.90735e-06
6 1 0.665435 0.461586 0.593597 0 4.95911e-05 0
7 1 0.92479 0.419974 0.0935968 0 0.0010128 1.90735e-06
8 1 0.42479 0.419974 0.0935972 0 0.00101471 1.90735e-06
9 1 0.887326 0.586606 0.593597 0 -0.00110817 -1.90735e-06
10 1 0.387326 0.586606 0.593597 0 -0.00111389 -1.90735e-06
11 1 0.109236 0.711546 0.593597 0 -0.0780678 1.90735e-06
12 1 0.609236 0.711546 0.593597 0 -0.0780621 7.62939e-06
13 1 0.868569 0.670031 0.0935973 0 -0.0620308 -3.8147e-06
14 1 0.146682 0.544995 0.0935972 0 -0.00012207 -1.90735e-06
15 1 0.646682 0.544995 0.093597 0 -0.000123978 3.8147e-06
16 1 0.36857 0.670031 0.093597 0 -0.0620327 1.90735e-06
17 1 0.8317 0.834017 0.593596 0 0.022274 1.71661e-05
18 1 0.3317 0.834017 0.593597 0 0.0222721 3.8147e-06
19 1 0.0534514 0.959661 0.593597 0 0.026886 5.72205e-06
20 1 0.553451 0.959662 0.593597 0 0.0268726 1.14441e-05
21 1 0.0911142 0.792146 0.0935977 0 -0.0343666 -1.14441e-05
22 1 0.591114 0.792146 0.0935973 0 -0.0343647 -7.62939e-06
23 1 0.814174 0.911968 0.0935976 0 0.0178337 -1.33514e-05
24 1 0.314174 0.911968 0.0935971 0 0.0178242 -9.53674e-06
25 1 0.997944 0.0946035 0.593597 0 -0.0179863 0
26 1 0.497944 0.0946032 0.593597 0 -0.0179634 0
27 1 0.258668 0.0469055 0.093597 0 -0.0266228 -1.90735e-06
28 1 0.758668 0.0469055 0.093597 0 -0.0266323 0
29 1 0.221004 0.214426 0.593597 0 0.0345154 1.90735e-06
30 1 0.721004 0.214426 0.593597 0 0.0345287 1.90735e-06
31 1 0.980418 0.172554 0.093597 0 -0.0222683 0
32 1 0.480418 0.172554 0.093597 0 -0.0222778 1.90735e-06
ITEM: TIMESTEP
3
ITEM: NUMBER OF ATOMS
32
ITEM: BOX BOUNDS xy xz yz pp pp pp
-4.7826766967773438e-03 7.8391813039779663e+00 1.4398496150970459e+00
-3.7661075592041016e-02 2.2120539069175720e+01 0.0000000000000000e+00
-1.1393904685974121e-02 5.1938598752021790e+00 0.0000000000000000e+00
ITEM: ATOMS id type xs ys zs fx fy fz
1 1 0.943196 0.33811 0.593597 0 0.0206528 -7.62939e-06
2 1 0.443196 0.33811 0.593597 0 0.0206528 1.90735e-06
3 1 0.202439 0.297001 0.0935969 0 -0.00360107 3.8147e-06
4 1 0.702439 0.297001 0.0935968 0 -0.00360489 5.72205e-06
5 1 0.165432 0.461598 0.593597 0 0.0278873 5.72205e-06
6 1 0.665432 0.461598 0.593597 0 0.0278912 1.90735e-06
7 1 0.924788 0.419983 0.093597 0 0.0529957 0
8 1 0.424788 0.419983 0.0935974 0 0.0529957 -3.8147e-06
9 1 0.887329 0.586594 0.593597 0 -0.0530281 3.8147e-06
10 1 0.387329 0.586594 0.593597 0 -0.0530186 1.90735e-06
11 1 0.109679 0.709574 0.593597 0 0.00358772 0
12 1 0.609679 0.709574 0.593598 0 0.00359344 -9.53674e-06
13 1 0.868921 0.668464 0.093597 0 -0.0205498 0
14 1 0.146685 0.54498 0.093597 0 -0.027977 0
15 1 0.646685 0.544979 0.0935973 0 -0.0279732 -7.62939e-06
16 1 0.368922 0.668464 0.0935972 0 -0.0205479 0
17 1 0.831751 0.833791 0.593598 0 -0.000888824 -1.14441e-05
18 1 0.331751 0.833791 0.593597 0 -0.000886917 -1.52588e-05
19 1 0.0532391 0.960606 0.593598 0 -0.0230675 -1.33514e-05
20 1 0.553239 0.960606 0.593598 0 -0.0230618 -1.33514e-05
21 1 0.0915075 0.790397 0.0935967 0 0.00493813 7.62939e-06
22 1 0.591508 0.790397 0.0935965 0 0.00493622 1.90735e-05
23 1 0.814315 0.911343 0.0935964 0 -0.0117626 1.52588e-05
24 1 0.314315 0.911343 0.0935961 0 -0.0117531 1.33514e-05
25 1 0.997804 0.0952266 0.593597 0 0.012104 0
26 1 0.497804 0.0952267 0.593597 0 0.0121002 1.90735e-06
27 1 0.258879 0.0459682 0.0935968 0 0.0228863 3.8147e-06
28 1 0.758879 0.0459681 0.093597 0 0.0228996 1.90735e-06
29 1 0.22061 0.216178 0.593597 0 -0.00510216 -3.8147e-06
30 1 0.72061 0.216178 0.593597 0 -0.00510597 -5.72205e-06
31 1 0.980367 0.172782 0.093597 0 0.000900269 3.8147e-06
32 1 0.480367 0.172782 0.0935972 0 0.000907898 0
ITEM: TIMESTEP
4
ITEM: NUMBER OF ATOMS
32
ITEM: BOX BOUNDS xy xz yz pp pp pp
-4.7826766967773438e-03 7.8391813039779663e+00 1.4398496150970459e+00
-3.7661075592041016e-02 2.2120539069175720e+01 0.0000000000000000e+00
-1.1393904685974121e-02 5.1938598752021790e+00 0.0000000000000000e+00
ITEM: ATOMS id type xs ys zs fx fy fz
1 1 0.942995 0.339001 0.593597 0 0.00360489 7.62939e-06
2 1 0.442996 0.339002 0.593597 0 0.0036068 0
3 1 0.202322 0.297519 0.0935972 0 -9.34601e-05 -7.62939e-06
4 1 0.702322 0.297519 0.0935971 0 -8.96454e-05 -3.8147e-06
5 1 0.165303 0.462172 0.593597 0 -0.00739479 0
6 1 0.665303 0.462172 0.593597 0 -0.0073967 -3.8147e-06
7 1 0.924544 0.421069 0.093597 0 0.0054245 -1.90735e-06
8 1 0.424544 0.421069 0.0935971 0 0.00542259 1.90735e-06
9 1 0.887573 0.585506 0.593597 0 -0.00542831 -1.90735e-06
10 1 0.387573 0.585506 0.593597 0 -0.00543022 -5.72205e-06
11 1 0.109796 0.709055 0.593597 0 7.82013e-05 0
12 1 0.609796 0.709056 0.593597 0 7.24792e-05 1.90735e-06
13 1 0.869122 0.667574 0.0935969 0 -0.00370026 1.90735e-06
14 1 0.146815 0.544403 0.0935969 0 0.00741386 1.90735e-06
15 1 0.646815 0.544403 0.0935968 0 0.00741768 9.53674e-06
16 1 0.369122 0.667574 0.0935972 0 -0.00369835 -1.90735e-06
17 1 0.83177 0.833705 0.593597 0 -0.0154057 5.72205e-06
18 1 0.33177 0.833705 0.593596 0 -0.0154018 1.52588e-05
19 1 0.0532814 0.960418 0.593597 0 -0.00201607 0
20 1 0.553281 0.960418 0.593597 0 -0.00200272 1.90735e-06
21 1 0.0916029 0.789972 0.093597 0 -0.00519943 -1.90735e-06
22 1 0.591603 0.789972 0.0935979 0 -0.0051899 -1.14441e-05
23 1 0.814411 0.910915 0.0935973 0 0.0135746 -7.62939e-06
24 1 0.314411 0.910915 0.0935969 0 0.0135708 -5.72205e-06
25 1 0.997706 0.095661 0.593597 0 -0.0137882 3.8147e-06
26 1 0.497706 0.0956613 0.593597 0 -0.0138111 0
27 1 0.258837 0.0461546 0.0935971 0 0.00215721 0
28 1 0.758837 0.0461546 0.0935972 0 0.00215149 -1.90735e-06
29 1 0.220515 0.2166 0.593597 0 0.00536156 3.8147e-06
30 1 0.720515 0.2166 0.593597 0 0.00535202 9.53674e-06
31 1 0.980347 0.172868 0.0935973 0 0.0154171 -5.72205e-06
32 1 0.480348 0.172868 0.0935973 0 0.0154209 -3.8147e-06
ITEM: TIMESTEP
5
ITEM: NUMBER OF ATOMS
32
ITEM: BOX BOUNDS xy xz yz pp pp pp
-4.7826766967773438e-03 7.8391813039779663e+00 1.4398496150970459e+00
-3.7661075592041016e-02 2.2120539069175720e+01 0.0000000000000000e+00
-1.1393904685974121e-02 5.1938598752021790e+00 0.0000000000000000e+00
ITEM: ATOMS id type xs ys zs fx fy fz
1 1 0.942964 0.339142 0.593597 0 -0.0010891 -7.62939e-06
2 1 0.442964 0.339142 0.593597 0 -0.00109863 -3.8147e-06
3 1 0.202312 0.297565 0.0935967 0 0.0079689 7.62939e-06
4 1 0.702312 0.297565 0.0935969 0 0.00797844 5.72205e-06
5 1 0.165319 0.462101 0.593597 0 -0.00360107 -1.90735e-06
6 1 0.665319 0.462101 0.593597 0 -0.00360107 -1.90735e-06
7 1 0.924502 0.421257 0.0935969 0 -0.000768661 3.8147e-06
8 1 0.424502 0.421257 0.0935972 0 -0.000768661 1.90735e-06
9 1 0.887615 0.585318 0.593597 0 0.000757217 5.72205e-06
10 1 0.387616 0.585318 0.593597 0 0.000753403 9.53674e-06
11 1 0.109806 0.70901 0.593597 0 -0.00794601 -5.72205e-06
12 1 0.609806 0.70901 0.593597 0 -0.00795364 1.90735e-06
13 1 0.869153 0.667433 0.093597 0 0.00112343 1.90735e-06
14 1 0.146799 0.544474 0.0935971 0 0.00358009 -3.8147e-06
15 1 0.646799 0.544474 0.0935974 0 0.00357628 -7.62939e-06
16 1 0.369154 0.667433 0.0935971 0 0.00112915 -1.90735e-06
17 1 0.831829 0.833442 0.593598 0 -0.00228691 -5.72205e-06
18 1 0.331829 0.833442 0.593597 0 -0.00228119 -3.8147e-06
19 1 0.0532927 0.960367 0.593597 0 -0.00837708 1.90735e-06
20 1 0.553293 0.960368 0.593597 0 -0.00838852 -1.90735e-06
21 1 0.0916309 0.789848 0.0935969 0 0.0030899 3.8147e-06
22 1 0.591631 0.789848 0.0935973 0 0.00307465 -3.8147e-06
23 1 0.814369 0.911101 0.0935969 0 -0.00540733 5.72205e-06
24 1 0.314369 0.911101 0.0935966 0 -0.00541115 3.8147e-06
25 1 0.997748 0.0954719 0.593597 0 0.00555229 -5.72205e-06
26 1 0.497749 0.0954718 0.593597 0 0.00556564 -1.90735e-06
27 1 0.258825 0.0462071 0.0935971 0 0.00830841 0
28 1 0.758825 0.0462071 0.093597 0 0.0083065 1.90735e-06
29 1 0.220487 0.216727 0.593597 0 -0.00317383 -3.8147e-06
30 1 0.720487 0.216727 0.593597 0 -0.00317574 -9.53674e-06
31 1 0.980288 0.173132 0.093597 0 0.002285 9.53674e-06
32 1 0.480288 0.173132 0.093597 0 0.00227928 5.72205e-06
ITEM: TIMESTEP
6
ITEM: NUMBER OF ATOMS
32
ITEM: BOX BOUNDS xy xz yz pp pp pp
-4.7826766967773438e-03 7.8391813039779663e+00 1.4398496150970459e+00
-3.7661075592041016e-02 2.2120539069175720e+01 0.0000000000000000e+00
-1.1393904685974121e-02 5.1938598752021790e+00 0.0000000000000000e+00
ITEM: ATOMS id type xs ys zs fx fy fz
1 1 0.942953 0.339188 0.593597 0 -0.00504875 3.8147e-06
2 1 0.442954 0.339188 0.593597 0 -0.00504303 5.72205e-06
3 1 0.202269 0.297757 0.0935971 0 0.00326347 0
4 1 0.702269 0.297757 0.0935973 0 0.00325775 -1.14441e-05
5 1 0.165344 0.461989 0.593597 0 0.00276375 1.90735e-06
6 1 0.665344 0.461989 0.593597 0 0.00276566 5.72205e-06
7 1 0.924484 0.421334 0.0935972 0 0.00180626 -7.62939e-06
8 1 0.424485 0.421334 0.0935975 0 0.00180817 -7.62939e-06
9 1 0.887633 0.585241 0.593597 0 -0.00181389 -9.53674e-06
10 1 0.387633 0.585241 0.593597 0 -0.00180244 -7.62939e-06
11 1 0.109849 0.708817 0.593597 0 -0.00328255 5.72205e-06
12 1 0.609849 0.708817 0.593597 0 -0.00327301 -9.53674e-06
13 1 0.869164 0.667386 0.0935972 0 0.00504875 -3.8147e-06
14 1 0.146774 0.544586 0.0935968 0 -0.00276756 1.14441e-05
15 1 0.646774 0.544585 0.093597 0 -0.00276947 1.14441e-05
16 1 0.369164 0.667386 0.0935969 0 0.00505257 3.8147e-06
17 1 0.83187 0.833263 0.593597 0 -0.000553131 -1.90735e-06
18 1 0.33187 0.833263 0.593597 0 -0.000566483 -9.53674e-06
19 1 0.0533386 0.960163 0.593597 0 0.00174522 1.90735e-06
20 1 0.553339 0.960163 0.593597 0 0.00174713 1.90735e-06
21 1 0.09163 0.789852 0.0935972 0 -0.00131226 5.72205e-06
22 1 0.59163 0.789852 0.0935966 0 -0.00130844 3.8147e-06
23 1 0.814374 0.911078 0.0935972 0 -0.000232697 -3.8147e-06
24 1 0.314375 0.911078 0.0935968 0 -0.000219345 3.8147e-06
25 1 0.997743 0.0954963 0.593597 0 0.000221252 5.72205e-06
26 1 0.497743 0.0954963 0.593597 0 0.000226974 1.90735e-06
27 1 0.258779 0.0464107 0.0935971 0 -0.00174141 -1.90735e-06
28 1 0.758779 0.0464106 0.0935972 0 -0.00172997 0
29 1 0.220488 0.216722 0.593597 0 0.00131226 9.53674e-06
30 1 0.720488 0.216722 0.593597 0 0.00131416 9.53674e-06
31 1 0.980248 0.173311 0.0935976 0 0.000566483 -1.14441e-05
32 1 0.480248 0.173311 0.0935974 0 0.000564575 -7.62939e-06
ITEM: TIMESTEP
7
ITEM: NUMBER OF ATOMS
32
ITEM: BOX BOUNDS xy xz yz pp pp pp
-4.7826766967773438e-03 7.8391813039779663e+00 1.4398496150970459e+00
-3.7661075592041016e-02 2.2120539069175720e+01 0.0000000000000000e+00
-1.1393904685974121e-02 5.1938598752021790e+00 0.0000000000000000e+00
ITEM: ATOMS id type xs ys zs fx fy fz
1 1 0.942969 0.339117 0.593597 0 0.000379562 -1.90735e-06
2 1 0.44297 0.339118 0.593597 0 0.000377655 -5.72205e-06
3 1 0.202249 0.297844 0.0935972 0 0.000469208 -1.90735e-06
4 1 0.702249 0.297844 0.0935966 0 0.0004673 9.53674e-06
5 1 0.165339 0.462012 0.593597 0 -0.00106621 -5.72205e-06
6 1 0.665339 0.462012 0.593597 0 -0.00106621 -3.8147e-06
7 1 0.924475 0.421376 0.0935967 0 0.000337601 9.53674e-06
8 1 0.424475 0.421376 0.093597 0 0.000335693 5.72205e-06
9 1 0.887642 0.585198 0.593597 0 -0.000337601 5.72205e-06
10 1 0.387643 0.585198 0.593597 0 -0.000343323 -1.90735e-06
11 1 0.109869 0.708731 0.593597 0 -0.000480652 3.8147e-06
12 1 0.609869 0.708731 0.593597 0 -0.000480652 3.8147e-06
13 1 0.869148 0.667457 0.093597 0 -0.000366211 -3.8147e-06
14 1 0.146779 0.544563 0.0935975 0 0.00105667 0
15 1 0.646779 0.544562 0.0935977 0 0.00106239 -5.72205e-06
16 1 0.369148 0.667457 0.0935971 0 -0.000379562 -1.90735e-06
17 1 0.831879 0.833221 0.593597 0 -0.000364304 -3.8147e-06
18 1 0.331879 0.833221 0.593597 0 -0.000364304 3.8147e-06
19 1 0.0533408 0.960153 0.593597 0 0.00169563 3.8147e-06
20 1 0.553341 0.960154 0.593597 0 0.001688 3.8147e-06
21 1 0.0916345 0.789832 0.0935977 0 0.000261307 -7.62939e-06
22 1 0.591634 0.789832 0.0935967 0 0.000268936 1.90735e-06
23 1 0.814376 0.91107 0.093597 0 -0.000305176 0
24 1 0.314376 0.91107 0.0935971 0 -0.000314713 -3.8147e-06
25 1 0.997741 0.0955043 0.593597 0 0.000286102 -1.90735e-06
26 1 0.497742 0.0955044 0.593597 0 0.000289917 0
27 1 0.258777 0.0464206 0.093597 0 -0.00167274 3.8147e-06
28 1 0.758777 0.0464206 0.0935972 0 -0.00168228 0
29 1 0.220483 0.216742 0.593598 0 -0.000249863 -5.72205e-06
30 1 0.720483 0.216742 0.593597 0 -0.000238419 -7.62939e-06
31 1 0.980238 0.173353 0.093597 0 0.000366211 3.8147e-06
32 1 0.480239 0.173353 0.093597 0 0.000370026 3.8147e-06
ITEM: TIMESTEP
8
ITEM: NUMBER OF ATOMS
32
ITEM: BOX BOUNDS xy xz yz pp pp pp
-4.7826766967773438e-03 7.8391813039779663e+00 1.4398496150970459e+00
-3.7661075592041016e-02 2.2120539069175720e+01 0.0000000000000000e+00
-1.1393904685974121e-02 5.1938598752021790e+00 0.0000000000000000e+00
ITEM: ATOMS id type xs ys zs fx fy fz
1 1 0.942969 0.339117 0.593597 0 0.0001297 3.8147e-06
2 1 0.44297 0.339117 0.593597 0 0.000123978 7.62939e-06
3 1 0.202245 0.297862 0.093597 0 -7.82013e-05 -3.8147e-06
4 1 0.702245 0.297862 0.0935973 0 -7.62939e-05 -7.62939e-06
5 1 0.165343 0.461994 0.593597 0 -0.000156403 1.33514e-05
6 1 0.665343 0.461994 0.593597 0 -0.000162125 1.33514e-05
7 1 0.924472 0.421387 0.0935975 0 0.00047493 -1.14441e-05
8 1 0.424473 0.421387 0.0935974 0 0.000469208 -9.53674e-06
9 1 0.887645 0.585187 0.593597 0 -0.000484467 -1.90735e-06
10 1 0.387645 0.585187 0.593597 0 -0.000480652 5.72205e-06
11 1 0.109873 0.708712 0.593597 0 8.2016e-05 -3.8147e-06
12 1 0.609873 0.708712 0.593597 0 8.39233e-05 0
13 1 0.869148 0.667457 0.0935967 0 -0.0001297 5.72205e-06
14 1 0.146775 0.54458 0.0935976 0 0.000164032 -9.53674e-06
15 1 0.646775 0.54458 0.0935973 0 0.000167847 -3.8147e-06
16 1 0.369148 0.667457 0.0935969 0 -0.00012207 -1.90735e-06
17 1 0.831881 0.83321 0.593597 0 0.000293732 3.8147e-06
18 1 0.331882 0.83321 0.593597 0 0.000286102 0
19 1 0.0533337 0.960185 0.593597 0 -0.000267029 -7.62939e-06
20 1 0.553334 0.960185 0.593597 0 -0.000263214 -3.8147e-06
21 1 0.0916338 0.789835 0.0935971 0 -0.000211716 -1.90735e-06
22 1 0.591634 0.789835 0.0935969 0 -0.000219345 0
23 1 0.814377 0.911063 0.0935969 0 -0.000656128 0
24 1 0.314378 0.911063 0.0935968 0 -0.000652313 5.72205e-06
25 1 0.99774 0.0955106 0.593597 0 0.00069046 5.72205e-06
26 1 0.49774 0.0955108 0.593597 0 0.000679016 1.90735e-06
27 1 0.258784 0.0463895 0.0935973 0 0.00025177 1.90735e-06
28 1 0.758784 0.0463894 0.0935972 0 0.000257492 0
29 1 0.220484 0.216739 0.593597 0 0.000202179 0
30 1 0.720484 0.216739 0.593597 0 0.00019455 7.62939e-06
31 1 0.980236 0.173365 0.0935972 0 -0.000291824 -3.8147e-06
32 1 0.480236 0.173365 0.0935972 0 -0.000299454 -5.72205e-06
ITEM: TIMESTEP
9
ITEM: NUMBER OF ATOMS
32
ITEM: BOX BOUNDS xy xz yz pp pp pp
-4.7826766967773438e-03 7.8391813039779663e+00 1.4398496150970459e+00
-3.7661075592041016e-02 2.2120539069175720e+01 0.0000000000000000e+00
-1.1393904685974121e-02 5.1938598752021790e+00 0.0000000000000000e+00
ITEM: ATOMS id type xs ys zs fx fy fz
1 1 0.942969 0.339119 0.593597 0 6.48499e-05 -3.8147e-06
2 1 0.442969 0.339119 0.593597 0 7.43866e-05 1.90735e-06
3 1 0.202245 0.297864 0.0935968 0 -3.8147e-06 -1.90735e-06
4 1 0.702245 0.297864 0.0935969 0 -9.53674e-06 7.62939e-06
5 1 0.165344 0.461988 0.593598 0 7.05719e-05 -1.14441e-05
6 1 0.665344 0.461988 0.593598 0 7.43866e-05 -1.14441e-05
7 1 0.92447 0.421397 0.0935968 0 0.000108719 7.62939e-06
8 1 0.42447 0.421397 0.0935968 0 0.000112534 7.62939e-06
9 1 0.887647 0.585177 0.593597 0 -0.000108719 1.90735e-06
10 1 0.387647 0.585177 0.593597 0 -0.000104904 -3.8147e-06
11 1 0.109873 0.70871 0.593597 0 0 0
12 1 0.609873 0.70871 0.593597 0 3.8147e-06 5.72205e-06
13 1 0.869148 0.667455 0.093597 0 -6.48499e-05 0
14 1 0.146774 0.544586 0.0935969 0 -7.43866e-05 5.72205e-06
15 1 0.646774 0.544586 0.093597 0 -7.62939e-05 5.72205e-06
16 1 0.369149 0.667455 0.0935968 0 -7.05719e-05 0
17 1 0.831881 0.833213 0.593597 0 -1.71661e-05 -5.72205e-06
18 1 0.331881 0.833213 0.593597 0 -1.14441e-05 1.90735e-06
19 1 0.0533335 0.960186 0.593597 0 2.86102e-05 -1.90735e-06
20 1 0.553333 0.960186 0.593597 0 1.90735e-05 -1.90735e-06
21 1 0.0916345 0.789832 0.0935969 0 -0.000379562 0
22 1 0.591634 0.789832 0.0935969 0 -0.000385284 0
23 1 0.81438 0.911051 0.0935969 0 0.000188828 3.8147e-06
24 1 0.314381 0.911051 0.0935971 0 0.000188828 -5.72205e-06
25 1 0.997737 0.0955231 0.593597 0 -0.000202179 -1.90735e-06
26 1 0.497737 0.0955231 0.593597 0 -0.00019455 0
27 1 0.258784 0.0463882 0.0935975 0 -1.90735e-05 0
28 1 0.758784 0.0463881 0.0935972 0 -1.52588e-05 1.90735e-06
29 1 0.220483 0.216742 0.593597 0 0.000391006 -7.62939e-06
30 1 0.720483 0.216742 0.593597 0 0.000389099 0
31 1 0.980236 0.173362 0.093597 0 3.8147e-06 1.90735e-06
32 1 0.480237 0.173362 0.0935969 0 1.90735e-05 3.8147e-06
ITEM: TIMESTEP
10
ITEM: NUMBER OF ATOMS
32
ITEM: BOX BOUNDS xy xz yz pp pp pp
-4.7826766967773438e-03 7.8391813039779663e+00 1.4398496150970459e+00
-3.7661075592041016e-02 2.2120539069175720e+01 0.0000000000000000e+00
-1.1393904685974121e-02 5.1938598752021790e+00 0.0000000000000000e+00
ITEM: ATOMS id type xs ys zs fx fy fz
1 1 0.942968 0.339121 0.593597 0 0.000169754 1.90735e-06
2 1 0.442969 0.339121 0.593597 0 0.000169754 -3.8147e-06
3 1 0.202245 0.297864 0.0935966 0 0.000123978 3.8147e-06
4 1 0.702245 0.297864 0.0935973 0 0.000127792 -1.90735e-06
5 1 0.165344 0.461988 0.593597 0 5.72205e-05 0
6 1 0.665344 0.461988 0.593597 0 5.53131e-05 1.90735e-06
7 1 0.924469 0.421401 0.0935971 0 -4.76837e-05 0
8 1 0.42447 0.421401 0.0935972 0 -4.19617e-05 -1.90735e-06
9 1 0.887648 0.585173 0.593597 0 4.95911e-05 -3.8147e-06
10 1 0.387648 0.585173 0.593597 0 4.76837e-05 0
11 1 0.109873 0.70871 0.593597 0 -0.00012207 1.90735e-06
12 1 0.609873 0.70871 0.593597 0 -0.000125885 -7.62939e-06
13 1 0.869149 0.667454 0.0935971 0 -0.000177383 -1.90735e-06
14 1 0.146774 0.544586 0.0935971 0 -5.34058e-05 1.90735e-06
15 1 0.646774 0.544586 0.0935973 0 -6.10352e-05 3.8147e-06
16 1 0.369149 0.667454 0.0935968 0 -0.000171661 3.8147e-06
17 1 0.831881 0.833213 0.593597 0 -2.67029e-05 3.8147e-06
18 1 0.331881 0.833213 0.593597 0 -2.86102e-05 0
19 1 0.0533333 0.960187 0.593597 0 -3.62396e-05 1.90735e-06
20 1 0.553333 0.960187 0.593597 0 -2.67029e-05 1.90735e-06
21 1 0.091636 0.789826 0.0935968 0 -1.71661e-05 1.90735e-06
22 1 0.591636 0.789825 0.0935969 0 -5.72205e-06 0
23 1 0.81438 0.911052 0.0935972 0 -2.09808e-05 -3.8147e-06
24 1 0.31438 0.911052 0.0935968 0 -1.90735e-05 -3.8147e-06
25 1 0.997737 0.0955228 0.593597 0 1.71661e-05 -3.8147e-06
26 1 0.497737 0.0955229 0.593597 0 7.62939e-06 1.90735e-06
27 1 0.258785 0.0463876 0.0935975 0 3.62396e-05 -1.90735e-06
28 1 0.758785 0.0463876 0.0935973 0 3.43323e-05 1.90735e-06
29 1 0.220482 0.216749 0.593597 0 5.72205e-06 5.72205e-06
30 1 0.720482 0.216749 0.593597 0 1.14441e-05 -1.90735e-06
31 1 0.980236 0.173361 0.0935971 0 3.8147e-05 -3.8147e-06
32 1 0.480237 0.173361 0.093597 0 3.05176e-05 1.90735e-06
ITEM: TIMESTEP
11
ITEM: NUMBER OF ATOMS
32
ITEM: BOX BOUNDS xy xz yz pp pp pp
-4.7826766967773438e-03 7.8391813039779663e+00 1.4398496150970459e+00
-3.7661075592041016e-02 2.2120539069175720e+01 0.0000000000000000e+00
-1.1393904685974121e-02 5.1938598752021790e+00 0.0000000000000000e+00
ITEM: ATOMS id type xs ys zs fx fy fz
1 1 0.942968 0.339121 0.593597 0 0.000169754 1.90735e-06
2 1 0.442969 0.339121 0.593597 0 0.000169754 -3.8147e-06
3 1 0.202245 0.297864 0.0935966 0 0.000123978 3.8147e-06
4 1 0.702245 0.297864 0.0935973 0 0.000127792 -1.90735e-06
5 1 0.165344 0.461988 0.593597 0 5.72205e-05 0
6 1 0.665344 0.461988 0.593597 0 5.53131e-05 1.90735e-06
7 1 0.924469 0.421401 0.0935971 0 -4.76837e-05 0
8 1 0.42447 0.421401 0.0935972 0 -4.19617e-05 -1.90735e-06
9 1 0.887648 0.585173 0.593597 0 4.95911e-05 -3.8147e-06
10 1 0.387648 0.585173 0.593597 0 4.76837e-05 0
11 1 0.109873 0.70871 0.593597 0 -0.00012207 1.90735e-06
12 1 0.609873 0.70871 0.593597 0 -0.000125885 -7.62939e-06
13 1 0.869149 0.667454 0.0935971 0 -0.000177383 -1.90735e-06
14 1 0.146774 0.544586 0.0935971 0 -5.34058e-05 1.90735e-06
15 1 0.646774 0.544586 0.0935973 0 -6.10352e-05 3.8147e-06
16 1 0.369149 0.667454 0.0935968 0 -0.000171661 3.8147e-06
17 1 0.831881 0.833213 0.593597 0 -2.67029e-05 3.8147e-06
18 1 0.331881 0.833213 0.593597 0 -2.86102e-05 0
19 1 0.0533333 0.960187 0.593597 0 -3.62396e-05 1.90735e-06
20 1 0.553333 0.960187 0.593597 0 -2.67029e-05 1.90735e-06
21 1 0.091636 0.789826 0.0935968 0 -1.71661e-05 1.90735e-06
22 1 0.591636 0.789825 0.0935969 0 -5.72205e-06 0
23 1 0.81438 0.911052 0.0935972 0 -2.09808e-05 -3.8147e-06
24 1 0.31438 0.911052 0.0935968 0 -1.90735e-05 -3.8147e-06
25 1 0.997737 0.0955228 0.593597 0 1.71661e-05 -3.8147e-06
26 1 0.497737 0.0955229 0.593597 0 7.62939e-06 1.90735e-06
27 1 0.258785 0.0463876 0.0935975 0 3.62396e-05 -1.90735e-06
28 1 0.758785 0.0463876 0.0935973 0 3.43323e-05 1.90735e-06
29 1 0.220482 0.216749 0.593597 0 5.72205e-06 5.72205e-06
30 1 0.720482 0.216749 0.593597 0 1.14441e-05 -1.90735e-06
31 1 0.980236 0.173361 0.0935971 0 3.8147e-05 -3.8147e-06
32 1 0.480237 0.173361 0.093597 0 3.05176e-05 1.90735e-06
