ITEM: TIMESTEP
0
ITEM: NUMBER OF ATOMS
32
ITEM: BOX BOUNDS xy xz yz pp pp pp
-4.7826766967773438e-03 7.0392648577690125e+00 6.3993316888809204e-01
-3.7661075592041016e-02 2.2120539069175720e+01 0.0000000000000000e+00
-1.1393904685974121e-02 5.1938598752021790e+00 0.0000000000000000e+00
ITEM: ATOMS id type xs ys zs fx fy fz
1 1 0.985584 0.336542 0.593597 0 0.000793457 5.72205e-06
2 1 0.485585 0.336542 0.593597 0 0.000793457 5.72205e-06
3 1 0.239733 0.295033 0.0935973 0 -0.00126076 -5.72205e-06
4 1 0.739733 0.295033 0.0935973 0 -0.00126266 -3.8147e-06
5 1 0.223094 0.461543 0.593597 0 0.000965118 0
6 1 0.723094 0.461543 0.593597 0 0.000968933 5.72205e-06
7 1 0.977241 0.420037 0.0935973 0 -0.0011425 -7.62939e-06
8 1 0.477242 0.420037 0.0935973 0 -0.0011425 -3.8147e-06
9 1 0.960603 0.586543 0.593597 0 0.00107574 0
10 1 0.460603 0.586543 0.593597 0 0.00107384 0
11 1 0.198113 0.711539 0.593597 0 0.00135422 7.62939e-06
12 1 0.698113 0.711539 0.593597 0 0.00135231 3.8147e-06
13 1 0.952259 0.670042 0.0935972 0 -0.0010376 -3.8147e-06
14 1 0.21475 0.545043 0.0935972 0 -0.00107193 0
15 1 0.71475 0.545043 0.0935972 0 -0.00106812 0
16 1 0.45226 0.670042 0.0935972 0 -0.00104141 -7.62939e-06
17 1 0.935623 0.836533 0.593597 0 0.0105019 1.90735e-06
18 1 0.435623 0.836533 0.593597 0 0.0105038 1.90735e-06
19 1 0.173133 0.961533 0.593597 0 -0.118462 0
20 1 0.673133 0.961533 0.593597 0 -0.118465 1.90735e-06
21 1 0.18977 0.795035 0.0935971 0 0.000480652 0
22 1 0.68977 0.795035 0.0935971 0 0.000478745 0
23 1 0.927279 0.920032 0.0935971 0 -0.215502 -3.8147e-06
24 1 0.42728 0.920032 0.0935971 0 -0.215502 -1.90735e-06
25 1 0.0105663 0.0865377 0.593597 0 0.215363 0
26 1 0.510567 0.0865377 0.593597 0 0.215368 0
27 1 0.264714 0.045031 0.093597 0 0.118692 0
28 1 0.764714 0.045031 0.093597 0 0.118692 0
29 1 0.248076 0.211541 0.593597 0 -0.000488281 1.90735e-06
30 1 0.748076 0.211541 0.593597 0 -0.000482559 1.90735e-06
31 1 0.00222319 0.170031 0.093597 0 -0.0102634 0
32 1 0.502224 0.170031 0.093597 0 -0.0102654 0
ITEM: TIMESTEP
1
ITEM: NUMBER OF ATOMS
32
ITEM: BOX BOUNDS xy xz yz pp pp pp
-4.7826766967773438e-03 7.0392648577690125e+00 6.3993316888809204e-01
-3.7661075592041016e-02 2.2120539069175720e+01 0.0000000000000000e+00
-1.1393904685974121e-02 5.1938598752021790e+00 0.0000000000000000e+00
ITEM: ATOMS id type xs ys zs fx fy fz
1 1 0.985584 0.336551 0.593597 0 0.000457764 -3.8147e-06
2 1 0.485584 0.336551 0.593597 0 0.000457764 -5.72205e-06
3 1 0.239734 0.295018 0.093597 0 -0.000310898 1.90735e-06
4 1 0.739734 0.295018 0.0935971 0 -0.000312805 1.90735e-06
5 1 0.223093 0.461554 0.593597 0 0.000974655 1.90735e-06
6 1 0.723093 0.461554 0.593597 0 0.000974655 -3.8147e-06
7 1 0.977243 0.420024 0.0935969 0 -0.00137329 3.8147e-06
8 1 0.477243 0.420024 0.0935971 0 -0.0013752 3.8147e-06
9 1 0.960602 0.586556 0.593597 0 0.00132561 1.90735e-06
10 1 0.460602 0.586556 0.593597 0 0.00133324 1.90735e-06
11 1 0.198112 0.711555 0.593597 0 0.000385284 -9.53674e-06
12 1 0.698112 0.711555 0.593597 0 0.000394821 -7.62939e-06
13 1 0.952261 0.67003 0.093597 0 -0.000587463 3.8147e-06
14 1 0.214752 0.54503 0.0935972 0 -0.00112152 -3.8147e-06
15 1 0.714752 0.54503 0.0935972 0 -0.00112152 0
16 1 0.452261 0.67003 0.0935968 0 -0.000583649 5.72205e-06
17 1 0.935611 0.836652 0.593597 0 -0.043499 -1.90735e-06
18 1 0.435611 0.836652 0.593597 0 -0.043499 -1.90735e-06
19 1 0.173267 0.960185 0.593597 0 0.0426483 1.90735e-06
20 1 0.673267 0.960185 0.593597 0 0.0426598 -3.8147e-06
21 1 0.189769 0.79504 0.0935971 0 -0.0521717 3.8147e-06
22 1 0.689769 0.79504 0.0935971 0 -0.0521641 5.72205e-06
23 1 0.927524 0.91758 0.0935969 0 -0.01441 1.90735e-06
24 1 0.427524 0.91758 0.093597 0 -0.01441 1.90735e-06
25 1 0.0103215 0.0889876 0.593597 0 0.0145226 0
26 1 0.510322 0.0889877 0.593597 0 0.0145226 0
27 1 0.264579 0.0463812 0.093597 0 -0.0425835 0
28 1 0.764579 0.0463812 0.093597 0 -0.0425873 0
29 1 0.248076 0.211535 0.593597 0 0.0520802 -3.8147e-06
30 1 0.748076 0.211535 0.593597 0 0.0520782 0
31 1 0.00223486 0.169914 0.093597 0 0.0436497 1.90735e-06
32 1 0.502235 0.169914 0.093597 0 0.0436459 1.90735e-06
ITEM: TIMESTEP
2
ITEM: NUMBER OF ATOMS
32
ITEM: BOX BOUNDS xy xz yz pp pp pp
-4.7826766967773438e-03 7.0392648577690125e+00 6.3993316888809204e-01
-3.7661075592041016e-02 2.2120539069175720e+01 0.0000000000000000e+00
-1.1393904685974121e-02 5.1938598752021790e+00 0.0000000000000000e+00
ITEM: ATOMS id type xs ys zs fx fy fz
1 1 0.985582 0.336566 0.593597 0 0.0250854 0
2 1 0.485583 0.336566 0.593597 0 0.0250816 5.72205e-06
3 1 0.239735 0.295006 0.0935971 0 0.030138 -5.72205e-06
4 1 0.739735 0.295006 0.0935972 0 0.0301418 -7.62939e-06
5 1 0.22309 0.461581 0.593597 0 0.000396729 -3.8147e-06
6 1 0.72309 0.461581 0.593597 0 0.000400543 7.62939e-06
7 1 0.977246 0.419986 0.0935972 0 0.000902176 1.90735e-06
8 1 0.477247 0.419986 0.0935974 0 0.000909805 -5.72205e-06
9 1 0.960598 0.586592 0.593597 0 -0.000951767 -1.90735e-06
10 1 0.460599 0.586592 0.593597 0 -0.000959396 1.90735e-06
11 1 0.19811 0.711569 0.593596 0 -0.0301685 1.14441e-05
12 1 0.69811 0.711569 0.593596 0 -0.0301666 1.71661e-05
13 1 0.952262 0.670012 0.0935973 0 -0.0251465 -9.53674e-06
14 1 0.214755 0.544999 0.0935968 0 -0.000482559 5.72205e-06
15 1 0.714755 0.544999 0.0935972 0 -0.000480652 -1.90735e-06
16 1 0.452263 0.670012 0.0935973 0 -0.0251408 -9.53674e-06
17 1 0.935714 0.835618 0.593597 0 0.0101166 7.62939e-06
18 1 0.435715 0.835618 0.593597 0 0.0101223 7.62939e-06
19 1 0.173206 0.9608 0.593597 0 0.00867462 -3.8147e-06
20 1 0.673206 0.960801 0.593597 0 0.00866318 5.72205e-06
21 1 0.189898 0.793754 0.0935975 0 -0.00995827 -1.14441e-05
22 1 0.689898 0.793754 0.0935977 0 -0.00996971 -1.52588e-05
23 1 0.927639 0.91643 0.0935971 0 0.00649261 -3.8147e-06
24 1 0.427639 0.91643 0.0935972 0 0.00650406 0
25 1 0.0102063 0.0901404 0.593597 0 -0.00645638 0
26 1 0.510207 0.0901405 0.593597 0 -0.00645828 -1.90735e-06
27 1 0.264641 0.0457682 0.093597 0 -0.00856209 0
28 1 0.764641 0.0457681 0.093597 0 -0.00855827 1.90735e-06
29 1 0.247948 0.212819 0.593597 0 0.010004 7.62939e-06
30 1 0.747948 0.212819 0.593597 0 0.0100098 7.62939e-06
31 1 0.00213101 0.170954 0.0935972 0 -0.0100937 -1.90735e-06
32 1 0.502131 0.170954 0.0935972 0 -0.0100899 -5.72205e-06
ITEM: TIMESTEP
3
ITEM: NUMBER OF ATOMS
32
ITEM: BOX BOUNDS xy xz yz pp pp pp
-4.7826766967773438e-03 7.0392648577690125e+00 6.3993316888809204e-01
-3.7661075592041016e-02 2.2120539069175720e+01 0.0000000000000000e+00
-1.1393904685974121e-02 5.1938598752021790e+00 0.0000000000000000e+00
ITEM: ATOMS id type xs ys zs fx fy fz
1 1 0.98552 0.337189 0.593597 0 0.00572395 -3.8147e-06
2 1 0.48552 0.337189 0.593597 0 0.00572777 -1.14441e-05
3 1 0.239661 0.295749 0.0935965 0 -0.00152016 9.53674e-06
4 1 0.739661 0.295749 0.0935965 0 -0.00152588 1.14441e-05
5 1 0.223089 0.461597 0.593597 0 0.0102158 3.8147e-06
6 1 0.723089 0.461597 0.593598 0 0.0102119 -9.53674e-06
7 1 0.977245 0.42 0.0935975 0 0.0195293 -1.90735e-06
8 1 0.477245 0.42 0.0935969 0 0.0195179 7.62939e-06
9 1 0.9606 0.586577 0.593597 0 -0.0195808 -3.8147e-06
10 1 0.4606 0.586577 0.593597 0 -0.0195827 -5.72205e-06
11 1 0.198184 0.710826 0.593598 0 0.00151062 -1.71661e-05
12 1 0.698184 0.710826 0.593598 0 0.00150299 -2.09808e-05
13 1 0.952325 0.669386 0.0935964 0 -0.00570107 1.52588e-05
14 1 0.214757 0.54498 0.0935973 0 -0.0102501 -1.90735e-06
15 1 0.714757 0.54498 0.093597 0 -0.0102654 1.14441e-05
16 1 0.452325 0.669386 0.0935964 0 -0.00570869 1.52588e-05
17 1 0.935713 0.835633 0.593598 0 -0.000530243 -1.90735e-05
18 1 0.435713 0.835633 0.593598 0 -0.000537872 -1.71661e-05
19 1 0.17317 0.961155 0.593597 0 -0.0118256 0
20 1 0.67317 0.961155 0.593597 0 -0.0118256 -1.90735e-06
21 1 0.189952 0.793216 0.0935964 0 -0.00127602 1.71661e-05
22 1 0.689952 0.793216 0.0935962 0 -0.00126648 2.28882e-05
23 1 0.927649 0.916329 0.0935967 0 -0.0067749 3.8147e-06
24 1 0.427649 0.91633 0.0935972 0 -0.00678825 5.72205e-06
25 1 0.0101961 0.0902422 0.593597 0 0.00684738 1.90735e-06
26 1 0.510197 0.0902422 0.593597 0 0.00684547 1.90735e-06
27 1 0.264676 0.0454173 0.093597 0 0.0118484 0
28 1 0.764676 0.0454173 0.0935972 0 0.0118446 -1.90735e-06
29 1 0.247894 0.213357 0.593597 0 0.00128555 -1.33514e-05
30 1 0.747894 0.213358 0.593598 0 0.00128174 -1.33514e-05
31 1 0.0021324 0.17094 0.093597 0 0.00053215 5.72205e-06
32 1 0.502133 0.17094 0.0935966 0 0.000534058 9.53674e-06
ITEM: TIMESTEP
4
ITEM: NUMBER OF ATOMS
32
ITEM: BOX BOUNDS xy xz yz pp pp pp
-4.7826766967773438e-03 7.0392648577690125e+00 6.3993316888809204e-01
-3.7661075592041016e-02 2.2120539069175720e+01 0.0000000000000000e+00
-1.1393904685974121e-02 5.1938598752021790e+00 0.0000000000000000e+00
ITEM: ATOMS id type xs ys zs fx fy fz
1 1 0.985487 0.337517 0.593597 0 0.000841141 7.62939e-06
2 1 0.485488 0.337517 0.593596 0 0.000844955 1.14441e-05
3 1 0.23964 0.295964 0.0935972 0 -0.00139809 -9.53674e-06
4 1 0.73964 0.295964 0.0935972 0 -0.00139999 -5.72205e-06
5 1 0.223067 0.461817 0.593597 0 -0.0036087 3.8147e-06
6 1 0.723067 0.461817 0.593597 0 -0.0036087 5.72205e-06
7 1 0.977204 0.420414 0.0935974 0 0.00180817 -1.90735e-06
8 1 0.477204 0.420414 0.0935974 0 0.00181389 -7.62939e-06
9 1 0.960641 0.586161 0.593597 0 -0.00184059 3.8147e-06
10 1 0.460642 0.586161 0.593597 0 -0.00183678 3.8147e-06
11 1 0.198206 0.710611 0.593596 0 0.00138855 1.71661e-05
12 1 0.698206 0.710611 0.593597 0 0.00138092 7.62939e-06
13 1 0.952358 0.669058 0.0935975 0 -0.00084877 -9.53674e-06
14 1 0.214779 0.544758 0.0935973 0 0.0036068 -1.90735e-06
15 1 0.714779 0.544758 0.0935979 0 0.00362396 -9.53674e-06
16 1 0.452358 0.669058 0.0935975 0 -0.0008564 -9.53674e-06
17 1 0.935713 0.835627 0.593596 0 -0.00872993 1.52588e-05
18 1 0.435714 0.835627 0.593596 0 -0.00873566 1.52588e-05
19 1 0.173183 0.961024 0.593597 0 7.43866e-05 1.90735e-06
20 1 0.673183 0.961024 0.593597 0 8.39233e-05 -1.90735e-06
21 1 0.189972 0.793011 0.0935975 0 -0.00236893 -1.14441e-05
22 1 0.689972 0.793011 0.0935978 0 -0.00237083 -1.33514e-05
23 1 0.927667 0.916154 0.0935969 0 0.00249863 1.90735e-06
24 1 0.427667 0.916154 0.0935977 0 0.00249672 -1.52588e-05
25 1 0.0101784 0.0904197 0.593597 0 -0.00249672 1.90735e-06
26 1 0.510179 0.0904197 0.593597 0 -0.00249481 5.72205e-06
27 1 0.264662 0.0455493 0.093597 0 -7.05719e-05 -1.90735e-06
28 1 0.764662 0.0455492 0.0935971 0 -7.24792e-05 -1.90735e-06
29 1 0.247874 0.213563 0.593596 0 0.00238228 1.14441e-05
30 1 0.747874 0.213564 0.593597 0 0.00238037 1.90735e-06
31 1 0.00213174 0.170946 0.0935975 0 0.00875664 -7.62939e-06
32 1 0.502132 0.170946 0.0935973 0 0.00875664 -7.62939e-06
ITEM: TIMESTEP
5
ITEM: NUMBER OF ATOMS
32
ITEM: BOX BOUNDS xy xz yz pp pp pp
-4.7826766967773438e-03 7.0392648577690125e+00 6.3993316888809204e-01
-3.7661075592041016e-02 2.2120539069175720e+01 0.0000000000000000e+00
-1.1393904685974121e-02 5.1938598752021790e+00 0.0000000000000000e+00
ITEM: ATOMS id type xs ys zs fx fy fz
1 1 0.985481 0.337578 0.593597 0 -0.000732422 -3.8147e-06
2 1 0.485481 0.337578 0.593597 0 -0.000736237 -5.72205e-06
3 1 0.239639 0.295968 0.0935965 0 0.00401497 1.14441e-05
4 1 0.739639 0.295968 0.0935969 0 0.00402069 1.90735e-06
5 1 0.22307 0.46178 0.593597 0 -0.00187302 1.90735e-06
6 1 0.72307 0.461781 0.593597 0 -0.00187683 -5.72205e-06
7 1 0.977194 0.420506 0.0935972 0 -0.0015583 1.90735e-06
8 1 0.477195 0.420506 0.0935969 0 -0.00155258 5.72205e-06
9 1 0.960651 0.586069 0.593597 0 0.0015583 1.90735e-06
10 1 0.460651 0.586069 0.593597 0 0.0015583 -5.72205e-06
11 1 0.198206 0.710607 0.593597 0 -0.00401115 -7.62939e-06
12 1 0.698206 0.710607 0.593597 0 -0.00401115 0
13 1 0.952364 0.668996 0.0935969 0 0.00071907 3.8147e-06
14 1 0.214775 0.544795 0.0935972 0 0.00187302 1.90735e-06
15 1 0.714775 0.544795 0.0935973 0 0.00186729 -5.72205e-06
16 1 0.452364 0.668996 0.0935969 0 0.00071907 5.72205e-06
17 1 0.93573 0.835464 0.593597 0 -0.000806808 -3.8147e-06
18 1 0.43573 0.835464 0.593597 0 -0.000806808 -5.72205e-06
19 1 0.173185 0.961007 0.593597 0 -0.00222588 1.90735e-06
20 1 0.673185 0.961007 0.593597 0 -0.00223541 -3.8147e-06
21 1 0.189979 0.792938 0.0935968 0 0.000518799 5.72205e-06
22 1 0.689979 0.792938 0.0935969 0 0.000514984 0
23 1 0.927664 0.916176 0.0935971 0 -0.00160599 0
24 1 0.427665 0.916176 0.0935966 0 -0.0016098 7.62939e-06
25 1 0.0101806 0.090398 0.593597 0 0.00161552 -9.53674e-06
26 1 0.510181 0.090398 0.593597 0 0.00161934 -7.62939e-06
27 1 0.264661 0.0455665 0.0935968 0 0.00223923 7.62939e-06
28 1 0.764661 0.0455663 0.0935969 0 0.00224495 7.62939e-06
29 1 0.247866 0.213637 0.593597 0 -0.000524521 -5.72205e-06
30 1 0.747866 0.213637 0.593597 0 -0.000528336 -1.90735e-06
31 1 0.00211533 0.171111 0.093597 0 0.000802994 1.90735e-06
32 1 0.502116 0.171111 0.0935968 0 0.000808716 3.8147e-06
ITEM: TIMESTEP
6
ITEM: NUMBER OF ATOMS
32
ITEM: BOX BOUNDS xy xz yz pp pp pp
-4.7826766967773438e-03 7.0392648577690125e+00 6.3993316888809204e-01
-3.7661075592041016e-02 2.2120539069175720e+01 0.0000000000000000e+00
-1.1393904685974121e-02 5.1938598752021790e+00 0.0000000000000000e+00
ITEM: ATOMS id type xs ys zs fx fy fz
1 1 0.98548 0.337584 0.593597 0 -0.00151062 9.53674e-06
2 1 0.485481 0.337584 0.593597 0 -0.00150299 3.8147e-06
3 1 0.239631 0.296054 0.0935973 0 0.00114059 -9.53674e-06
4 1 0.739631 0.296054 0.0935969 0 0.00114059 -1.90735e-06
5 1 0.223076 0.461728 0.593598 0 0.00131989 -9.53674e-06
6 1 0.723076 0.461729 0.593597 0 0.00132561 -3.8147e-06
7 1 0.977195 0.420504 0.0935973 0 0.00118065 0
8 1 0.477195 0.420504 0.0935972 0 0.00117493 1.90735e-06
9 1 0.96065 0.586071 0.593597 0 -0.0011673 -3.8147e-06
10 1 0.460651 0.586071 0.593597 0 -0.00117111 1.90735e-06
11 1 0.198215 0.71052 0.593597 0 -0.00113869 0
12 1 0.698215 0.71052 0.593597 0 -0.00113678 -9.53674e-06
13 1 0.952364 0.668991 0.093597 0 0.00150871 7.62939e-06
14 1 0.21477 0.544846 0.0935973 0 -0.00134468 1.90735e-06
15 1 0.71477 0.544846 0.0935966 0 -0.00134468 5.72205e-06
16 1 0.452365 0.668991 0.0935972 0 0.00151634 1.90735e-06
17 1 0.935737 0.835392 0.593597 0 4.00543e-05 -3.8147e-06
18 1 0.435737 0.835391 0.593597 0 4.76837e-05 -3.8147e-06
19 1 0.17319 0.960955 0.593597 0 0.000297546 3.8147e-06
20 1 0.67319 0.960955 0.593597 0 0.000307083 7.62939e-06
21 1 0.189981 0.792924 0.0935971 0 -0.000396729 1.90735e-06
22 1 0.689981 0.792924 0.0935967 0 -0.000394821 5.72205e-06
23 1 0.927667 0.916149 0.0935971 0 0.000228882 -3.8147e-06
24 1 0.427667 0.916149 0.0935969 0 0.000236511 1.90735e-06
25 1 0.0101779 0.0904249 0.593597 0 -0.000221252 9.53674e-06
26 1 0.510178 0.090425 0.593597 0 -0.000232697 3.8147e-06
27 1 0.264655 0.0456196 0.0935975 0 -0.000303268 -9.53674e-06
28 1 0.764655 0.0456196 0.0935976 0 -0.000299454 -9.53674e-06
29 1 0.247865 0.21365 0.593597 0 0.000398636 0
30 1 0.747865 0.21365 0.593597 0 0.000394821 1.90735e-06
31 1 0.00210812 0.171183 0.093597 0 -4.57764e-05 -3.8147e-06
32 1 0.502108 0.171183 0.093597 0 -4.76837e-05 1.90735e-06
ITEM: TIMESTEP
7
ITEM: NUMBER OF ATOMS
32
ITEM: BOX BOUNDS xy xz yz pp pp pp
-4.7826766967773438e-03 7.0392648577690125e+00 6.3993316888809204e-01
-3.7661075592041016e-02 2.2120539069175720e+01 0.0000000000000000e+00
-1.1393904685974121e-02 5.1938598752021790e+00 0.0000000000000000e+00
ITEM: ATOMS id type xs ys zs fx fy fz
1 1 0.985483 0.33756 0.593598 0 0.00031662 -5.72205e-06
2 1 0.485483 0.337561 0.593597 0 0.000310898 0
3 1 0.239627 0.296087 0.0935968 0 9.15527e-05 3.8147e-06
4 1 0.739627 0.296087 0.0935968 0 9.34601e-05 5.72205e-06
5 1 0.223074 0.461741 0.593597 0 -0.000190735 5.72205e-06
6 1 0.723074 0.461741 0.593597 0 -0.00019455 1.33514e-05
7 1 0.977193 0.420522 0.0935974 0 0.0004673 -1.90735e-06
8 1 0.477193 0.420522 0.0935974 0 0.000461578 -5.72205e-06
9 1 0.960652 0.586052 0.593597 0 -0.000480652 1.90735e-06
10 1 0.460653 0.586052 0.593597 0 -0.000469208 3.8147e-06
11 1 0.198218 0.710488 0.593597 0 -8.7738e-05 0
12 1 0.698218 0.710488 0.593597 0 -8.7738e-05 7.62939e-06
13 1 0.952362 0.669014 0.0935975 0 -0.00030899 -5.72205e-06
14 1 0.214771 0.544834 0.0935974 0 0.000188828 -1.14441e-05
15 1 0.714771 0.544834 0.0935969 0 0.000183105 -1.90735e-06
16 1 0.452363 0.669014 0.0935974 0 -0.000312805 -3.8147e-06
17 1 0.935738 0.83538 0.593597 0 -5.34058e-05 -3.8147e-06
18 1 0.435738 0.83538 0.593597 0 -5.34058e-05 3.8147e-06
19 1 0.173191 0.96095 0.593597 0 0.000314713 -1.90735e-06
20 1 0.673191 0.96095 0.593597 0 0.000314713 -1.90735e-06
21 1 0.189982 0.792916 0.0935972 0 0.00015831 0
22 1 0.689982 0.792916 0.093597 0 0.000162125 -1.90735e-06
23 1 0.927667 0.916148 0.0935969 0 8.2016e-05 7.62939e-06
24 1 0.427668 0.916148 0.0935971 0 8.01086e-05 -3.8147e-06
25 1 0.0101778 0.0904259 0.593597 0 -8.01086e-05 -5.72205e-06
26 1 0.510178 0.0904258 0.593597 0 -7.82013e-05 0
27 1 0.264655 0.0456238 0.0935969 0 -0.000310898 0
28 1 0.764655 0.0456238 0.093597 0 -0.000320435 1.90735e-06
29 1 0.247864 0.213659 0.593597 0 -0.000154495 0
30 1 0.747864 0.213659 0.593597 0 -0.000148773 -3.8147e-06
31 1 0.00210698 0.171194 0.0935967 0 5.53131e-05 5.72205e-06
32 1 0.502107 0.171194 0.0935971 0 5.14984e-05 -1.90735e-06
ITEM: TIMESTEP
8
ITEM: NUMBER OF ATOMS
32
ITEM: BOX BOUNDS xy xz yz pp pp pp
-4.7826766967773438e-03 7.0392648577690125e+00 6.3993316888809204e-01
-3.7661075592041016e-02 2.2120539069175720e+01 0.0000000000000000e+00
-1.1393904685974121e-02 5.1938598752021790e+00 0.0000000000000000e+00
ITEM: ATOMS id type xs ys zs fx fy fz
1 1 0.985482 0.337565 0.593597 0 0.000116348 1.90735e-06
2 1 0.485483 0.337565 0.593597 0 0.000120163 0
3 1 0.239627 0.296092 0.0935971 0 9.15527e-05 0
4 1 0.739627 0.296092 0.0935973 0 8.58307e-05 -3.8147e-06
5 1 0.223075 0.461738 0.593598 0 -0.000143051 -7.62939e-06
6 1 0.723075 0.461738 0.593598 0 -0.000148773 -1.14441e-05
7 1 0.977192 0.420533 0.0935972 0 8.7738e-05 1.90735e-06
8 1 0.477192 0.420533 0.0935969 0 9.34601e-05 7.62939e-06
9 1 0.960653 0.586041 0.593597 0 -7.82013e-05 -7.62939e-06
10 1 0.460654 0.586041 0.593597 0 -9.53674e-05 -5.72205e-06
11 1 0.198219 0.710483 0.593597 0 -9.72748e-05 0
12 1 0.698219 0.710483 0.593597 0 -9.72748e-05 -3.8147e-06
13 1 0.952363 0.66901 0.0935971 0 -0.000133514 1.90735e-06
14 1 0.214771 0.544836 0.0935965 0 0.000148773 1.14441e-05
15 1 0.714771 0.544836 0.0935967 0 0.000154495 9.53674e-06
16 1 0.452363 0.66901 0.0935971 0 -0.000123978 1.90735e-06
17 1 0.935738 0.835378 0.593597 0 9.34601e-05 9.53674e-06
18 1 0.435739 0.835378 0.593597 0 9.34601e-05 -1.90735e-06
19 1 0.17319 0.960956 0.593597 0 -0.000114441 -7.62939e-06
20 1 0.67319 0.960956 0.593597 0 -0.000110626 1.90735e-06
21 1 0.189981 0.792918 0.0935973 0 -5.53131e-05 -3.8147e-06
22 1 0.689981 0.792918 0.0935969 0 -6.10352e-05 0
23 1 0.927667 0.91615 0.0935975 0 -0.000118256 -7.62939e-06
24 1 0.427667 0.91615 0.0935968 0 -0.000114441 5.72205e-06
25 1 0.0101779 0.0904244 0.593597 0 0.000112534 5.72205e-06
26 1 0.510178 0.0904244 0.593597 0 0.000123978 1.90735e-06
27 1 0.264656 0.045618 0.0935969 0 0.000118256 3.8147e-06
28 1 0.764656 0.0456178 0.0935971 0 0.000116348 -5.72205e-06
29 1 0.247864 0.213656 0.593597 0 6.10352e-05 0
30 1 0.747864 0.213656 0.593597 0 5.91278e-05 5.72205e-06
31 1 0.00210677 0.171196 0.0935972 0 -9.15527e-05 -3.8147e-06
32 1 0.502107 0.171196 0.093597 0 -9.34601e-05 0
