ITEM: TIMESTEP
0
ITEM: NUMBER OF ATOMS
56
ITEM: BOX BOUNDS xy xz yz pp pp pp
-6.5884793996810913e+00 1.2203788340091705e+01 0.0000000000000000e+00
-8.4733366966247559e-03 5.5348814725875854e+00 -6.5697908997535706e+00
-2.9168844223022461e-02 1.9049128890037537e+01 0.0000000000000000e+00
ITEM: ATOMS id type xs ys zs fx fy fz
1 1 0.62122 4.41887e-05 0.132366 0 -0.000352859 -0.000249863
2 1 0.371221 0.166624 0.132366 0 0.000326157 -0.000247955
3 1 0.335419 2.39879e-05 0.275225 0 4.3869e-05 -0.000102997
4 1 0.0854182 0.166644 0.275225 0 -6.10352e-05 -9.91821e-05
5 1 0.0495622 1.9421e-05 0.418082 0 8.96454e-05 0
6 1 0.121221 4.41295e-05 0.132366 0 -0.000341415 -0.000240326
7 1 0.0140957 0.500074 0.0609403 0 0.00168419 0.000268936
8 1 0.871222 0.166623 0.132366 0 0.000341415 -0.000238419
9 1 0.764097 0.666593 0.0609403 0 -0.00166893 0.000272751
10 1 0.83542 2.39872e-05 0.275225 0 4.57764e-05 -9.53674e-05
11 1 0.799561 0.166647 0.418082 0 -8.39233e-05 -7.62939e-06
12 1 0.763695 2.47556e-05 0.560942 0 -2.09808e-05 -1.14441e-05
13 1 0.513696 0.166643 0.560942 0 1.14441e-05 -1.33514e-05
14 1 0.477838 2.39811e-05 0.703801 0 -2.28882e-05 -0.000137329
15 1 0.227838 0.166644 0.703801 0 -7.62939e-06 -0.000143051
16 1 0.19199 2.63435e-05 0.846651 0 0.000101089 0.000368118
17 1 0.728339 0.500026 0.203802 0 0.000114441 -0.000362396
18 1 0.585418 0.166645 0.275225 0 -7.05719e-05 -9.34601e-05
19 1 0.47834 0.66664 0.203802 0 -9.53674e-05 -0.000354767
20 1 0.549563 2.01694e-05 0.418082 0 7.24792e-05 -3.8147e-06
21 1 0.44249 0.500023 0.346651 0 1.90735e-06 0.000154495
22 1 0.299562 0.166648 0.418082 0 -8.7738e-05 0
23 1 0.192491 0.666642 0.346651 0 3.24249e-05 0.000135422
24 1 0.263696 2.49573e-05 0.560941 0 -2.47955e-05 -3.8147e-06
25 1 0.156632 0.500025 0.489511 0 -1.71661e-05 -1.90735e-06
26 1 0.0136971 0.166643 0.560941 0 1.14441e-05 1.90735e-06
27 1 0.906633 0.666642 0.489511 0 2.28882e-05 2.09808e-05
28 1 0.514095 0.500073 0.0609404 0 0.00170326 0.000247955
29 1 0.264096 0.666593 0.0609403 0 -0.00166893 0.000255585
30 1 0.22834 0.500026 0.203802 0 0.000112534 -0.000354767
31 1 0.97834 0.666641 0.203802 0 -0.000112534 -0.000352859
32 1 0.942491 0.500024 0.346651 0 -2.47955e-05 0.000135422
33 1 0.941989 0.166641 0.846652 0 -0.000101089 0.000339508
34 1 0.906233 7.47473e-05 0.989512 0 0.0016613 -0.000257492
35 1 0.656233 0.166594 0.989513 0 -0.0016861 -0.000253677
36 1 0.977837 2.44315e-05 0.703801 0 -2.86102e-05 -0.000141144
37 1 0.870765 0.50002 0.632371 0 8.58307e-05 -1.71661e-05
38 1 0.727838 0.166643 0.703801 0 3.8147e-06 -0.000135422
39 1 0.620766 0.666647 0.632371 0 -8.01086e-05 1.90735e-06
40 1 0.691989 2.63314e-05 0.846651 0 0.000101089 0.000349045
41 1 0.58491 0.500023 0.775228 0 5.34058e-05 0.000108719
42 1 0.441989 0.166641 0.846651 0 -0.000110626 0.000350952
43 1 0.33491 0.666644 0.775228 0 -4.76837e-05 8.58307e-05
44 1 0.406233 7.37033e-05 0.989512 0 0.00168228 -0.000259399
45 1 0.299108 0.500043 0.918087 0 -0.000329971 0.000263214
46 1 0.69249 0.666643 0.346651 0 3.24249e-05 0.000144958
47 1 0.656632 0.500025 0.489511 0 -1.33514e-05 1.90735e-06
48 1 0.406632 0.666642 0.489511 0 2.67029e-05 1.90735e-06
49 1 0.370766 0.500019 0.632371 0 9.91821e-05 5.72205e-06
50 1 0.120767 0.666647 0.63237 0 -6.86646e-05 2.28882e-05
51 1 0.084911 0.500022 0.775228 0 6.86646e-05 9.53674e-05
52 1 0.156231 0.166594 0.989513 0 -0.00168991 -0.000270844
53 1 0.049107 0.666624 0.918087 0 0.000335693 0.000225067
54 1 0.83491 0.666643 0.775228 0 -4.76837e-05 0.000101089
55 1 0.799107 0.500044 0.918087 0 -0.000328064 0.000236511
56 1 0.549107 0.666624 0.918087 0 0.000328064 0.000253677
ITEM: TIMESTEP
1
ITEM: NUMBER OF ATOMS
56
ITEM: BOX BOUNDS xy xz yz pp pp pp
-6.5884793996810913e+00 1.2203788340091705e+01 0.0000000000000000e+00
-8.4733366966247559e-03 5.5348814725875854e+00 -6.5697908997535706e+00
-2.9168844223022461e-02 1.9049128890037537e+01 0.0000000000000000e+00
ITEM: ATOMS id type xs ys zs fx fy fz
1 1 0.621217 1.46377e-05 0.13236 0 0.000558853 -9.34601e-05
2 1 0.371218 0.166651 0.13236 0 -0.000528336 -9.72748e-05
3 1 0.335417 2.76618e-05 0.275223 0 3.05176e-05 -0.00012207
4 1 0.0854169 0.166639 0.275223 0 -9.53674e-06 -0.000133514
5 1 0.0495622 2.69285e-05 0.418082 0 -1.52588e-05 -1.71661e-05
6 1 0.121218 1.5537e-05 0.13236 0 0.000543594 -9.72748e-05
7 1 0.0140992 0.500215 0.0609468 0 0.000192642 -0.000291824
8 1 0.871219 0.166652 0.13236 0 -0.00053978 -8.96454e-05
9 1 0.764101 0.666453 0.0609469 0 -0.000211716 -0.000291824
10 1 0.835418 2.78208e-05 0.275223 0 1.90735e-05 -0.000127792
11 1 0.799561 0.16664 0.418082 0 2.28882e-05 -2.28882e-05
12 1 0.763695 2.29985e-05 0.560941 0 1.14441e-05 -4.00543e-05
13 1 0.513696 0.166644 0.560941 0 -7.62939e-06 -3.24249e-05
14 1 0.477836 2.20643e-05 0.703798 0 7.24792e-05 0.000139236
15 1 0.227836 0.166644 0.703798 0 -5.14984e-05 0.000141144
16 1 0.191995 3.48094e-05 0.84666 0 -0.000106812 -0.000267029
17 1 0.728334 0.500036 0.203793 0 -0.000123978 0.000270844
18 1 0.585417 0.166639 0.275223 0 -1.14441e-05 -0.000135422
19 1 0.478335 0.666632 0.203793 0 0.000108719 0.000270844
20 1 0.549562 2.62393e-05 0.418082 0 1.90735e-06 -2.28882e-05
21 1 0.442492 0.500023 0.346655 0 5.34058e-05 -0.000139236
22 1 0.299562 0.166641 0.418082 0 1.33514e-05 -3.05176e-05
23 1 0.192492 0.666645 0.346655 0 -6.86646e-05 -0.000137329
24 1 0.263696 2.28807e-05 0.560941 0 2.09808e-05 -3.24249e-05
25 1 0.156632 0.500023 0.489511 0 1.33514e-05 3.8147e-05
26 1 0.0136971 0.166644 0.560941 0 -9.53674e-06 -3.05176e-05
27 1 0.906633 0.666644 0.489512 0 -9.53674e-06 3.05176e-05
28 1 0.514099 0.500216 0.0609464 0 0.000175476 -0.000274658
29 1 0.264099 0.666453 0.0609465 0 -0.000205994 -0.000289917
30 1 0.228335 0.500036 0.203793 0 -0.0001297 0.000267029
31 1 0.978335 0.666632 0.203793 0 0.000120163 0.000268936
32 1 0.942493 0.500022 0.346655 0 6.10352e-05 -0.000139236
33 1 0.941993 0.166632 0.84666 0 0.000120163 -0.000270844
34 1 0.90623 0.000213876 0.989506 0 0.00021553 0.000282288
35 1 0.65623 0.166452 0.989506 0 -0.00018692 0.000284195
36 1 0.977835 2.20355e-05 0.703798 0 7.05719e-05 0.000148773
37 1 0.870765 0.500027 0.632371 0 -1.90735e-05 3.24249e-05
38 1 0.727836 0.166644 0.703798 0 -5.34058e-05 0.000135422
39 1 0.620766 0.666641 0.632371 0 5.72205e-06 1.71661e-05
40 1 0.691994 3.47973e-05 0.84666 0 -0.000114441 -0.000259399
41 1 0.584911 0.500028 0.77523 0 1.52588e-05 0.000120163
42 1 0.441993 0.166632 0.84666 0 0.00012207 -0.000267029
43 1 0.334911 0.66664 0.77523 0 -2.86102e-05 0.000146866
44 1 0.40623 0.000214589 0.989506 0 0.000213623 0.000293732
45 1 0.299111 0.500016 0.918093 0 0.000541687 8.7738e-05
46 1 0.692492 0.666645 0.346655 0 -8.01086e-05 -0.000143051
47 1 0.656632 0.500023 0.489511 0 7.62939e-06 3.05176e-05
48 1 0.406632 0.666644 0.489511 0 -1.52588e-05 3.62396e-05
49 1 0.370766 0.500027 0.632371 0 -2.86102e-05 2.67029e-05
50 1 0.120767 0.666641 0.632371 0 3.8147e-06 1.14441e-05
51 1 0.0849122 0.500028 0.77523 0 -3.8147e-06 0.000127792
52 1 0.156228 0.166452 0.989506 0 -0.000188828 0.00028038
53 1 0.0491099 0.666652 0.918093 0 -0.000551224 8.7738e-05
54 1 0.834911 0.666639 0.77523 0 -2.47955e-05 0.000114441
55 1 0.799111 0.500016 0.918093 0 0.000530243 0.000106812
56 1 0.549111 0.666651 0.918093 0 -0.000541687 9.91821e-05
ITEM: TIMESTEP
2
ITEM: NUMBER OF ATOMS
56
ITEM: BOX BOUNDS xy xz yz pp pp pp
-6.5884793996810913e+00 1.2203788340091705e+01 0.0000000000000000e+00
-8.4733366966247559e-03 5.5348814725875854e+00 -6.5697908997535706e+00
-2.9168844223022461e-02 1.9049128890037537e+01 0.0000000000000000e+00
ITEM: ATOMS id type xs ys zs fx fy fz
1 1 0.621216 5.19602e-05 0.132357 0 0.000139236 6.67572e-05
2 1 0.371216 0.166616 0.132357 0 -0.000160217 7.05719e-05
3 1 0.335416 3.05316e-05 0.275219 0 -5.72205e-06 -5.72205e-06
4 1 0.0854151 0.166638 0.275219 0 -1.14441e-05 5.72205e-06
5 1 0.049562 2.69635e-05 0.418082 0 1.90735e-06 -6.86646e-05
6 1 0.121216 5.18643e-05 0.132357 0 0.000150681 6.48499e-05
7 1 0.0140963 0.500252 0.0609415 0 -2.28882e-05 0.000118256
8 1 0.871217 0.166616 0.132357 0 -0.000160217 7.05719e-05
9 1 0.764098 0.666415 0.0609416 0 5.34058e-05 0.000120163
10 1 0.835417 2.98563e-05 0.275219 0 -3.8147e-06 0
11 1 0.799561 0.166641 0.418081 0 -9.53674e-06 -6.67572e-05
12 1 0.763695 2.35816e-05 0.56094 0 1.33514e-05 3.8147e-05
13 1 0.513696 0.166643 0.560941 0 -1.33514e-05 3.24249e-05
14 1 0.477838 2.72061e-05 0.703801 0 -1.90735e-06 -1.90735e-05
15 1 0.227838 0.16664 0.7038 0 -7.62939e-06 -1.71661e-05
16 1 0.191993 2.81194e-05 0.846656 0 0.000118256 5.91278e-05
17 1 0.728336 0.500028 0.203797 0 0.00012207 -5.91278e-05
18 1 0.585415 0.166637 0.275219 0 -1.14441e-05 5.72205e-06
19 1 0.478338 0.666639 0.203797 0 -0.000112534 -5.91278e-05
20 1 0.549562 2.73374e-05 0.418082 0 1.90735e-06 -7.24792e-05
21 1 0.442491 0.500027 0.346653 0 5.72205e-06 7.62939e-06
22 1 0.299562 0.16664 0.418081 0 -1.90735e-06 -6.48499e-05
23 1 0.192491 0.66664 0.346652 0 0 1.52588e-05
24 1 0.263696 2.41298e-05 0.560941 0 1.33514e-05 2.09808e-05
25 1 0.156632 0.500024 0.489512 0 5.72205e-06 -2.67029e-05
26 1 0.0136968 0.166643 0.560941 0 -7.62939e-06 2.86102e-05
27 1 0.906634 0.666643 0.489512 0 -1.14441e-05 -4.3869e-05
28 1 0.514096 0.500251 0.0609414 0 -2.28882e-05 0.00012207
29 1 0.264096 0.666415 0.0609412 0 4.19617e-05 0.000120163
30 1 0.228337 0.500027 0.203797 0 0.0001297 -5.53131e-05
31 1 0.978337 0.666639 0.203797 0 -0.000125885 -6.10352e-05
32 1 0.942492 0.500027 0.346652 0 9.53674e-06 2.09808e-05
33 1 0.941991 0.16664 0.846655 0 -0.000135422 6.10352e-05
34 1 0.906233 0.000251948 0.989511 0 -4.3869e-05 -0.000114441
35 1 0.656232 0.166416 0.989512 0 2.09808e-05 -0.000118256
36 1 0.977836 2.69586e-05 0.703801 0 -9.53674e-06 -1.71661e-05
37 1 0.870765 0.500027 0.632371 0 9.53674e-06 7.05719e-05
38 1 0.727838 0.16664 0.703801 0 -9.53674e-06 -2.47955e-05
39 1 0.620767 0.66664 0.632371 0 -1.90735e-06 6.86646e-05
40 1 0.691991 2.75343e-05 0.846655 0 0.000127792 6.48499e-05
41 1 0.584913 0.500029 0.775233 0 1.33514e-05 1.90735e-06
42 1 0.441991 0.166639 0.846655 0 -0.000131607 6.29425e-05
43 1 0.334913 0.666637 0.775233 0 -1.90735e-06 1.90735e-06
44 1 0.406233 0.000252795 0.989511 0 -4.76837e-05 -0.000123978
45 1 0.299113 0.500052 0.918096 0 0.000150681 -6.48499e-05
46 1 0.692491 0.66664 0.346652 0 9.53674e-06 2.28882e-05
47 1 0.656632 0.500024 0.489512 0 1.71661e-05 -2.28882e-05
48 1 0.406633 0.666643 0.489512 0 -1.52588e-05 -3.05176e-05
49 1 0.370766 0.500026 0.632371 0 1.14441e-05 6.48499e-05
50 1 0.120767 0.666641 0.632371 0 -1.90735e-06 7.24792e-05
51 1 0.0849139 0.500029 0.775233 0 2.09808e-05 -3.8147e-06
52 1 0.15623 0.166416 0.989511 0 2.47955e-05 -0.000116348
53 1 0.0491114 0.666615 0.918095 0 -0.000139236 -7.43866e-05
54 1 0.834913 0.666637 0.775233 0 -3.8147e-06 5.72205e-06
55 1 0.799112 0.500052 0.918096 0 0.000154495 -8.2016e-05
56 1 0.549112 0.666615 0.918096 0 -0.000135422 -7.24792e-05
ITEM: TIMESTEP
3
ITEM: NUMBER OF ATOMS
56
ITEM: BOX BOUNDS xy xz yz pp pp pp
-6.5884793996810913e+00 1.2203788340091705e+01 0.0000000000000000e+00
-8.4733366966247559e-03 5.5348814725875854e+00 -6.5697908997535706e+00
-2.9168844223022461e-02 1.9049128890037537e+01 0.0000000000000000e+00
ITEM: ATOMS id type xs ys zs fx fy fz
1 1 0.621216 5.19602e-05 0.132357 0 0.000139236 6.67572e-05
2 1 0.371216 0.166616 0.132357 0 -0.000160217 7.05719e-05
3 1 0.335416 3.05316e-05 0.275219 0 -5.72205e-06 -5.72205e-06
4 1 0.0854151 0.166638 0.275219 0 -1.14441e-05 5.72205e-06
5 1 0.049562 2.69635e-05 0.418082 0 1.90735e-06 -6.86646e-05
6 1 0.121216 5.18643e-05 0.132357 0 0.000150681 6.48499e-05
7 1 0.0140963 0.500252 0.0609415 0 -2.28882e-05 0.000118256
8 1 0.871217 0.166616 0.132357 0 -0.000160217 7.05719e-05
9 1 0.764098 0.666415 0.0609416 0 5.34058e-05 0.000120163
10 1 0.835417 2.98563e-05 0.275219 0 -3.8147e-06 0
11 1 0.799561 0.166641 0.418081 0 -9.53674e-06 -6.67572e-05
12 1 0.763695 2.35816e-05 0.56094 0 1.33514e-05 3.8147e-05
13 1 0.513696 0.166643 0.560941 0 -1.33514e-05 3.24249e-05
14 1 0.477838 2.72061e-05 0.703801 0 -1.90735e-06 -1.90735e-05
15 1 0.227838 0.16664 0.7038 0 -7.62939e-06 -1.71661e-05
16 1 0.191993 2.81194e-05 0.846656 0 0.000118256 5.91278e-05
17 1 0.728336 0.500028 0.203797 0 0.00012207 -5.91278e-05
18 1 0.585415 0.166637 0.275219 0 -1.14441e-05 5.72205e-06
19 1 0.478338 0.666639 0.203797 0 -0.000112534 -5.91278e-05
20 1 0.549562 2.73374e-05 0.418082 0 1.90735e-06 -7.24792e-05
21 1 0.442491 0.500027 0.346653 0 5.72205e-06 7.62939e-06
22 1 0.299562 0.16664 0.418081 0 -1.90735e-06 -6.48499e-05
23 1 0.192491 0.66664 0.346652 0 0 1.52588e-05
24 1 0.263696 2.41298e-05 0.560941 0 1.33514e-05 2.09808e-05
25 1 0.156632 0.500024 0.489512 0 5.72205e-06 -2.67029e-05
26 1 0.0136968 0.166643 0.560941 0 -7.62939e-06 2.86102e-05
27 1 0.906634 0.666643 0.489512 0 -1.14441e-05 -4.3869e-05
28 1 0.514096 0.500251 0.0609414 0 -2.28882e-05 0.00012207
29 1 0.264096 0.666415 0.0609412 0 4.19617e-05 0.000120163
30 1 0.228337 0.500027 0.203797 0 0.0001297 -5.53131e-05
31 1 0.978337 0.666639 0.203797 0 -0.000125885 -6.10352e-05
32 1 0.942492 0.500027 0.346652 0 9.53674e-06 2.09808e-05
33 1 0.941991 0.16664 0.846655 0 -0.000135422 6.10352e-05
34 1 0.906233 0.000251948 0.989511 0 -4.3869e-05 -0.000114441
35 1 0.656232 0.166416 0.989512 0 2.09808e-05 -0.000118256
36 1 0.977836 2.69586e-05 0.703801 0 -9.53674e-06 -1.71661e-05
37 1 0.870765 0.500027 0.632371 0 9.53674e-06 7.05719e-05
38 1 0.727838 0.16664 0.703801 0 -9.53674e-06 -2.47955e-05
39 1 0.620767 0.66664 0.632371 0 -1.90735e-06 6.86646e-05
40 1 0.691991 2.75343e-05 0.846655 0 0.000127792 6.48499e-05
41 1 0.584913 0.500029 0.775233 0 1.33514e-05 1.90735e-06
42 1 0.441991 0.166639 0.846655 0 -0.000131607 6.29425e-05
43 1 0.334913 0.666637 0.775233 0 -1.90735e-06 1.90735e-06
44 1 0.406233 0.000252795 0.989511 0 -4.76837e-05 -0.000123978
45 1 0.299113 0.500052 0.918096 0 0.000150681 -6.48499e-05
46 1 0.692491 0.66664 0.346652 0 9.53674e-06 2.28882e-05
47 1 0.656632 0.500024 0.489512 0 1.71661e-05 -2.28882e-05
48 1 0.406633 0.666643 0.489512 0 -1.52588e-05 -3.05176e-05
49 1 0.370766 0.500026 0.632371 0 1.14441e-05 6.48499e-05
50 1 0.120767 0.666641 0.632371 0 -1.90735e-06 7.24792e-05
51 1 0.0849139 0.500029 0.775233 0 2.09808e-05 -3.8147e-06
52 1 0.15623 0.166416 0.989511 0 2.47955e-05 -0.000116348
53 1 0.0491114 0.666615 0.918095 0 -0.000139236 -7.43866e-05
54 1 0.834913 0.666637 0.775233 0 -3.8147e-06 5.72205e-06
55 1 0.799112 0.500052 0.918096 0 0.000154495 -8.2016e-05
56 1 0.549112 0.666615 0.918096 0 -0.000135422 -7.24792e-05
