ITEM: TIMESTEP
0
ITEM: NUMBER OF ATOMS
32
ITEM: BOX BOUNDS xy xz yz pp pp pp
2.3402176666958421e-03 8.5495792463707936e+00 2.1573704640374900e+00
-1.8700970345103249e-02 2.2101578970345098e+01 0.0000000000000000e+00
8.6472273715375633e-03 5.1738187726284668e+00 0.0000000000000000e+00
ITEM: ATOMS id type xs ys zs fx fy fz
1 1 0.905594 0.336531 0.593597 0 0.00261298 -9.16746e-06
2 1 0.405593 0.336531 0.593597 0 0.00261469 -9.10204e-06
3 1 0.169599 0.295047 0.0935968 0 -0.0018972 7.57739e-06
4 1 0.669599 0.295047 0.0935968 0 -0.00189365 8.5316e-06
5 1 0.113389 0.461534 0.593597 0 0.00203394 -9.7675e-06
6 1 0.613389 0.461534 0.593597 0 0.00202882 -9.16094e-06
7 1 0.877396 0.420048 0.0935968 0 -0.00213608 9.22208e-06
8 1 0.377396 0.420048 0.0935968 0 -0.00213858 9.1326e-06
9 1 0.821188 0.586531 0.593597 0 0.00206532 -7.80663e-06
10 1 0.321187 0.586531 0.593597 0 0.00206533 -8.57804e-06
11 1 0.0289852 0.711528 0.593597 0 0.00192279 -6.24779e-06
12 1 0.528985 0.711528 0.593597 0 0.00191794 -6.26706e-06
13 1 0.792991 0.670045 0.0935969 0 -0.00249806 6.1936e-06
14 1 0.0851931 0.545047 0.0935968 0 -0.00220121 8.88301e-06
15 1 0.585193 0.545047 0.0935968 0 -0.00219603 9.59232e-06
16 1 0.292991 0.670045 0.0935969 0 -0.00249816 6.66304e-06
17 1 0.736782 0.836529 0.593597 0 0.0099062 -3.84585e-06
18 1 0.236782 0.836529 0.593597 0 0.00990643 -3.75856e-06
19 1 0.944579 0.961528 0.593597 0 -0.28443 -2.54068e-06
20 1 0.444579 0.961528 0.593597 0 -0.284442 -2.88801e-06
21 1 0.0007869 0.795048 0.0935969 0 0.0035074 4.56781e-06
22 1 0.500787 0.795048 0.0935969 0 0.00351032 4.87524e-06
23 1 0.708586 0.920043 0.0935969 0 -0.53081 4.21691e-06
24 1 0.208586 0.920043 0.0935969 0 -0.530805 3.34773e-06
25 1 0.990001 0.0865253 0.593597 0 0.531083 -2.02955e-06
26 1 0.490001 0.0865253 0.593597 0 0.53109 -3.56073e-07
27 1 0.254007 0.0450412 0.093597 0 0.284464 9.38747e-07
28 1 0.754007 0.0450411 0.0935969 0 0.284473 1.00199e-06
29 1 0.197797 0.211528 0.593597 0 -0.0036692 -4.16992e-06
30 1 0.697797 0.211528 0.593597 0 -0.00367253 -5.17201e-06
31 1 0.961804 0.170044 0.0935969 0 -0.00995662 3.46083e-06
32 1 0.461803 0.170044 0.093597 0 -0.00995777 2.80623e-06
ITEM: TIMESTEP
11
ITEM: NUMBER OF ATOMS
32
ITEM: BOX BOUNDS xy xz yz pp pp pp
2.3402176666958421e-03 8.5495792463707936e+00 2.1573704640374900e+00
-1.8700970345103249e-02 2.2101578970345098e+01 0.0000000000000000e+00
8.6472273715375633e-03 5.1738187726284668e+00 0.0000000000000000e+00
ITEM: ATOMS id type xs ys zs fx fy fz
1 1 0.904912 0.338549 0.593597 0 9.64915e-05 1.32542e-07
2 1 0.404912 0.338549 0.593597 0 9.50214e-05 -2.43241e-07
3 1 0.168786 0.297454 0.0935971 0 5.47073e-05 -1.57881e-07
4 1 0.668786 0.297454 0.0935971 0 5.33783e-05 -5.23975e-07
5 1 0.113285 0.461843 0.593597 0 3.06036e-05 -1.33253e-07
6 1 0.613285 0.461843 0.593597 0 2.88548e-05 -1.01475e-06
7 1 0.876989 0.421253 0.0935971 0 -1.62497e-05 5.74159e-07
8 1 0.376989 0.421253 0.093597 0 -1.58873e-05 8.37939e-07
9 1 0.821596 0.585322 0.593597 0 1.39377e-05 3.76444e-07
10 1 0.321595 0.585322 0.593597 0 1.72313e-05 1.48983e-07
11 1 0.0297979 0.709121 0.593597 0 -5.34039e-05 4.37907e-07
12 1 0.529798 0.709121 0.593597 0 -5.32501e-05 1.71733e-06
13 1 0.793673 0.668026 0.0935971 0 -9.44293e-05 -5.506e-07
14 1 0.0852997 0.544731 0.0935971 0 -3.02088e-05 -2.69831e-07
15 1 0.5853 0.544731 0.0935971 0 -3.05602e-05 -2.36891e-07
16 1 0.293672 0.668026 0.0935971 0 -9.43924e-05 -5.78719e-07
17 1 0.73769 0.833841 0.593597 0 -5.07723e-05 4.19077e-07
18 1 0.237689 0.833841 0.593597 0 -4.53703e-05 5.75124e-07
19 1 0.944913 0.960539 0.593597 0 -4.05451e-05 -2.78151e-08
20 1 0.444913 0.960539 0.593597 0 -4.1386e-05 1.39284e-07
21 1 0.00216109 0.790978 0.0935971 0 4.01672e-05 -6.32152e-07
22 1 0.502161 0.790978 0.0935971 0 4.23532e-05 -1.33759e-06
23 1 0.711136 0.91249 0.0935971 0 -1.51364e-05 -2.25305e-07
24 1 0.211136 0.91249 0.0935971 0 -2.50049e-05 8.2232e-08
25 1 0.987449 0.0940848 0.593597 0 2.20212e-05 9.12942e-08
26 1 0.487448 0.0940848 0.593597 0 2.07863e-05 -1.53952e-07
27 1 0.253671 0.0460357 0.093597 0 4.23293e-05 1.45276e-07
28 1 0.753671 0.0460358 0.0935971 0 3.72644e-05 8.60859e-08
29 1 0.196423 0.215597 0.593597 0 -4.35788e-05 4.64193e-07
30 1 0.696423 0.215597 0.593597 0 -4.33435e-05 2.21982e-07
31 1 0.960895 0.172734 0.0935971 0 4.87415e-05 -2.67327e-07
32 1 0.460895 0.172734 0.0935971 0 4.93919e-05 -1.0349e-07
