ITEM: TIMESTEP
0
ITEM: NUMBER OF ATOMS
48
ITEM: BOX BOUNDS xy xz yz pp pp pp
-1.4596629738807678e+00 8.5902721881866455e+00 2.5049497485160828e+00
0.0000000000000000e+00 9.2428106069564819e+00 -1.4596629738807678e+00
0.0000000000000000e+00 1.9517127633094788e+01 0.0000000000000000e+00
ITEM: ATOMS id type xs ys zs fx fy fz
1 1 0.918114 0.167011 0.0319649 0.0790997 0.00492668 -0.003088
2 1 0.460041 0.0749164 0.0533944 0.0558128 -0.00530052 -0.000999451
3 1 0.183785 0.12472 0.656965 0.00117111 0.00434113 8.58307e-05
4 1 0.231937 0.948865 0.927865 -0.0791035 -0.00492859 0.003088
5 1 0.978834 0.157171 0.8026 0.00374794 -0.00485039 -0.000839233
6 1 0.69001 0.04096 0.906436 -0.055809 0.00530052 0.000999451
7 1 0.436917 0.249555 0.781869 -0.00355721 0.00445938 -0.000471115
8 1 0.677499 0.208207 0.407109 0.00137901 0.00492096 0.000509262
9 1 0.725732 0.0324994 0.677648 -0.00171852 -0.00481033 -0.000133514
10 1 0.472552 0.241003 0.552721 -0.00137901 -0.00491714 -0.000509262
11 1 0.713134 0.199655 0.177961 0.00355339 -0.00445366 0.000469208
12 1 0.424319 0.083377 0.282182 0.00172043 0.00481987 0.000131607
13 1 0.171217 0.292039 0.15723 -0.00374413 0.00484848 0.000837326
14 1 0.219419 0.116069 0.427789 -0.00146294 -0.00455093 -0.000312805
15 1 0.918114 0.500344 0.0319649 0.0791035 0.00492859 -0.00308609
16 1 0.460041 0.40825 0.0533945 0.0558109 -0.00530434 -0.000999451
17 1 0.183785 0.458053 0.656965 0.00117111 0.00433922 8.01086e-05
18 1 0.231937 0.282199 0.927865 -0.0791016 -0.00492859 0.0030899
19 1 0.978834 0.490504 0.8026 0.00374603 -0.00484848 -0.000841141
20 1 0.69001 0.374293 0.906436 -0.0558128 0.00530434 0.000995636
21 1 0.436917 0.582888 0.781869 -0.00355721 0.00445938 -0.000473022
22 1 0.930632 0.33314 0.532041 0.00146294 0.00454903 0.000312805
23 1 0.677499 0.54154 0.407109 0.00137329 0.00492096 0.000505447
24 1 0.725732 0.365833 0.677648 -0.00172043 -0.00481606 -0.000131607
25 1 0.472552 0.574336 0.552721 -0.00137138 -0.00491524 -0.000507355
26 1 0.966266 0.32449 0.302865 -0.00117302 -0.00434303 -7.82013e-05
27 1 0.713134 0.532988 0.177961 0.0035553 -0.00445366 0.000465393
28 1 0.424319 0.41671 0.282182 0.00172234 0.00481224 0.000135422
29 1 0.171217 0.625372 0.15723 -0.00374603 0.00484848 0.000841141
30 1 0.219419 0.449403 0.427789 -0.00146294 -0.00455284 -0.00030899
31 1 0.918114 0.833678 0.0319649 0.0790997 0.00492668 -0.003088
32 1 0.460041 0.741583 0.0533944 0.0558128 -0.00530434 -0.00100136
33 1 0.183785 0.791386 0.656965 0.0011692 0.00434113 8.01086e-05
34 1 0.231937 0.615532 0.927865 -0.0791016 -0.00492859 0.00309181
35 1 0.978834 0.823838 0.8026 0.00374603 -0.0048542 -0.000841141
36 1 0.69001 0.707627 0.906436 -0.0558071 0.00530052 0.000997543
37 1 0.436917 0.916222 0.781869 -0.00356102 0.00445747 -0.0004673
38 1 0.930632 0.666474 0.532041 0.00146103 0.00454903 0.000312805
39 1 0.677499 0.874873 0.407109 0.00137329 0.00491905 0.000509262
40 1 0.725732 0.699166 0.677648 -0.00171661 -0.00481606 -0.000131607
41 1 0.472552 0.90767 0.552721 -0.0013752 -0.00491714 -0.000507355
42 1 0.966266 0.657823 0.302865 -0.00117111 -0.00434113 -8.2016e-05
43 1 0.713134 0.866321 0.177961 0.00355911 -0.00445557 0.000465393
44 1 0.424319 0.750044 0.282182 0.00172234 0.00480843 0.000127792
45 1 0.171217 0.958706 0.15723 -0.00374794 0.00484848 0.000841141
46 1 0.219419 0.782736 0.427789 -0.00146294 -0.00454712 -0.00030899
47 1 0.930632 0.999807 0.532041 0.00146484 0.00455284 0.000310898
48 1 0.966266 0.991157 0.302865 -0.00117493 -0.00434494 -7.62939e-05
ITEM: TIMESTEP
1
ITEM: NUMBER OF ATOMS
48
ITEM: BOX BOUNDS xy xz yz pp pp pp
-1.4601132273674011e+00 8.5908269882202148e+00 2.5052002668380737e+00
-4.6211481094360352e-04 9.2432727217674255e+00 -1.4598089456558228e+00
-9.7584724426269531e-04 1.9518103480339050e+01 0.0000000000000000e+00
ITEM: ATOMS id type xs ys zs fx fy fz
1 1 0.918114 0.167011 0.0319649 0.0790672 0.00490761 -0.0030632
2 1 0.460041 0.0749164 0.0533944 0.0557976 -0.0052948 -0.000984192
3 1 0.183785 0.12472 0.656965 0.00115585 0.0043354 8.01086e-05
4 1 0.231936 0.948865 0.927865 -0.0790672 -0.00491524 0.00306511
5 1 0.978834 0.157171 0.8026 0.00371933 -0.00484848 -0.000850677
6 1 0.69001 0.04096 0.906436 -0.0557957 0.00529671 0.000982285
7 1 0.436917 0.249555 0.781869 -0.00354767 0.00445175 -0.000473022
8 1 0.677499 0.208207 0.407109 0.00136757 0.00490379 0.000509262
9 1 0.725732 0.0324994 0.677648 -0.00171852 -0.00480843 -0.000125885
10 1 0.472552 0.241003 0.552721 -0.00136948 -0.0049057 -0.000509262
11 1 0.713134 0.199655 0.177961 0.00354767 -0.00444794 0.000469208
12 1 0.424319 0.083377 0.282182 0.00172043 0.00480843 0.000125885
13 1 0.171217 0.292039 0.15723 -0.00372124 0.00485039 0.000852585
14 1 0.219419 0.116069 0.427789 -0.0014534 -0.00455475 -0.000299454
15 1 0.918114 0.500344 0.0319649 0.0790672 0.00491333 -0.0030632
16 1 0.460041 0.40825 0.0533945 0.0557957 -0.00529861 -0.000984192
17 1 0.183785 0.458053 0.656965 0.00115395 0.0043354 7.82013e-05
18 1 0.231936 0.282199 0.927865 -0.0790691 -0.00491333 0.00306511
19 1 0.978834 0.490504 0.8026 0.00371933 -0.00484848 -0.000850677
20 1 0.69001 0.374293 0.906436 -0.0557938 0.0052948 0.00097847
21 1 0.436917 0.582888 0.781869 -0.00354958 0.00445175 -0.00047493
22 1 0.930632 0.33314 0.532041 0.0014534 0.00455856 0.000301361
23 1 0.677499 0.54154 0.407109 0.00136948 0.00490952 0.000509262
24 1 0.725732 0.365833 0.677648 -0.00172043 -0.00480461 -0.000123978
25 1 0.472552 0.574336 0.552721 -0.00136757 -0.0049057 -0.000509262
26 1 0.966266 0.32449 0.302865 -0.00115013 -0.00433922 -8.2016e-05
27 1 0.713134 0.532988 0.177961 0.00354576 -0.00445175 0.000471115
28 1 0.424319 0.41671 0.282182 0.00171661 0.00480652 0.000125885
29 1 0.171217 0.625372 0.15723 -0.00371742 0.00485039 0.000850677
30 1 0.219419 0.449403 0.427789 -0.0014534 -0.00455856 -0.000297546
31 1 0.918114 0.833678 0.0319649 0.0790672 0.00491524 -0.0030632
32 1 0.460041 0.741583 0.0533944 0.0557957 -0.00529861 -0.000982285
33 1 0.183785 0.791386 0.656965 0.00115585 0.00433731 7.82013e-05
34 1 0.231936 0.615532 0.927865 -0.079071 -0.00491142 0.00306511
35 1 0.978834 0.823838 0.8026 0.00371933 -0.00485039 -0.000850677
36 1 0.69001 0.707627 0.906436 -0.0557938 0.00529861 0.000984192
37 1 0.436917 0.916222 0.781869 -0.00354767 0.00445366 -0.000471115
38 1 0.930632 0.666474 0.532041 0.00145531 0.00455856 0.000303268
39 1 0.677499 0.874873 0.407109 0.00136757 0.0049057 0.000507355
40 1 0.725732 0.699166 0.677648 -0.00172043 -0.00480843 -0.000127792
41 1 0.472552 0.90767 0.552721 -0.00136948 -0.0049057 -0.000507355
42 1 0.966266 0.657823 0.302865 -0.00115013 -0.0043354 -8.39233e-05
43 1 0.713134 0.866321 0.177961 0.00354958 -0.00445557 0.000473022
44 1 0.424319 0.750044 0.282182 0.00171471 0.00480652 0.000127792
45 1 0.171217 0.958706 0.15723 -0.00372124 0.00484848 0.000850677
46 1 0.219419 0.782736 0.427789 -0.0014534 -0.00456047 -0.000295639
47 1 0.930632 0.999807 0.532041 0.0014534 0.00455475 0.000299454
48 1 0.966266 0.991157 0.302865 -0.00115395 -0.00433159 -8.01086e-05
ITEM: TIMESTEP
2
ITEM: NUMBER OF ATOMS
48
ITEM: BOX BOUNDS xy xz yz pp pp pp
-1.4605634808540344e+00 8.5913817286491394e+00 2.5054507255554199e+00
-9.2422962188720703e-04 9.2437348365783691e+00 -1.4599549174308777e+00
-1.9516944885253906e-03 1.9519079327583313e+01 0.0000000000000000e+00
ITEM: ATOMS id type xs ys zs fx fy fz
1 1 0.918115 0.167011 0.0319649 0.079031 0.00489235 -0.00305176
2 1 0.460041 0.0749164 0.0533944 0.0557728 -0.00529671 -0.000984192
3 1 0.183785 0.12472 0.656965 0.00115395 0.00433731 8.7738e-05
4 1 0.231936 0.948865 0.927865 -0.0790329 -0.00489426 0.00305176
5 1 0.978834 0.157171 0.8026 0.00370216 -0.00484848 -0.000854492
6 1 0.690009 0.0409601 0.906436 -0.055769 0.00529671 0.000980377
7 1 0.436917 0.249555 0.781869 -0.00355339 0.00444031 -0.000484467
8 1 0.677499 0.208207 0.407109 0.00137138 0.00491333 0.000514984
9 1 0.725732 0.0324993 0.677648 -0.00171852 -0.00479889 -0.000131607
10 1 0.472552 0.241003 0.552721 -0.00137138 -0.00491333 -0.000513077
11 1 0.713134 0.199655 0.177961 0.00355339 -0.00444221 0.000484467
12 1 0.424319 0.083377 0.282182 0.0017128 0.00479126 0.0001297
13 1 0.171217 0.292039 0.15723 -0.00370216 0.00484276 0.000850677
14 1 0.219419 0.116069 0.427789 -0.00144768 -0.00455093 -0.000305176
15 1 0.918115 0.500344 0.0319649 0.079031 0.00489426 -0.00305557
16 1 0.460041 0.40825 0.0533945 0.055769 -0.00529671 -0.000982285
17 1 0.183785 0.458053 0.656965 0.00115585 0.00433922 8.39233e-05
18 1 0.231936 0.282199 0.927865 -0.079031 -0.00489235 0.00305176
19 1 0.978834 0.490504 0.8026 0.00370407 -0.00484276 -0.000850677
20 1 0.690009 0.374293 0.906436 -0.055769 0.00529671 0.000984192
21 1 0.436917 0.582888 0.781869 -0.00355721 0.0044384 -0.000484467
22 1 0.930632 0.33314 0.532041 0.00144958 0.00455093 0.000305176
23 1 0.677499 0.54154 0.407109 0.00136757 0.00491333 0.000513077
24 1 0.725732 0.365833 0.677648 -0.00171661 -0.00479317 -0.0001297
25 1 0.472552 0.574336 0.552721 -0.00136948 -0.00491333 -0.000511169
26 1 0.966266 0.32449 0.302865 -0.00115585 -0.00433731 -8.2016e-05
27 1 0.713134 0.532988 0.177961 0.0035553 -0.00444221 0.000484467
28 1 0.424319 0.41671 0.282182 0.00171471 0.00479889 0.000127792
29 1 0.171217 0.625372 0.15723 -0.00369835 0.00484657 0.000852585
30 1 0.219419 0.449403 0.427789 -0.00144958 -0.00454712 -0.000299454
31 1 0.918115 0.833678 0.0319649 0.0790329 0.00489235 -0.00305176
32 1 0.460041 0.741583 0.0533944 0.0557671 -0.00529671 -0.000986099
33 1 0.183785 0.791386 0.656965 0.00115967 0.00433731 8.2016e-05
34 1 0.231936 0.615532 0.927865 -0.0790329 -0.00489044 0.00305176
35 1 0.978834 0.823838 0.8026 0.00370407 -0.00484276 -0.000852585
36 1 0.690009 0.707627 0.906436 -0.055769 0.00529671 0.000984192
37 1 0.436917 0.916222 0.781869 -0.00355911 0.00444031 -0.000484467
38 1 0.930632 0.666474 0.532041 0.00144958 0.00454712 0.000301361
39 1 0.677499 0.874873 0.407109 0.00136948 0.00491333 0.000516891
40 1 0.725732 0.699166 0.677648 -0.00171471 -0.00479507 -0.0001297
41 1 0.472552 0.90767 0.552721 -0.00136948 -0.00491142 -0.000514984
42 1 0.966266 0.657823 0.302865 -0.00115204 -0.0043354 -8.39233e-05
43 1 0.713134 0.866321 0.177961 0.0035553 -0.00444031 0.000484467
44 1 0.424319 0.750044 0.282182 0.00171471 0.00479889 0.000125885
45 1 0.171217 0.958706 0.15723 -0.00370216 0.00484276 0.000852585
46 1 0.219419 0.782736 0.427789 -0.00144768 -0.00455093 -0.000303268
47 1 0.930632 0.999807 0.532041 0.00144768 0.00455093 0.000305176
48 1 0.966266 0.991157 0.302865 -0.00115585 -0.00433922 -8.01086e-05
ITEM: TIMESTEP
3
ITEM: NUMBER OF ATOMS
48
ITEM: BOX BOUNDS xy xz yz pp pp pp
-1.4610137343406677e+00 8.5919364690780640e+00 2.5057011842727661e+00
-1.3863444328308105e-03 9.2441969513893127e+00 -1.4601008892059326e+00
-2.9275417327880859e-03 1.9520055174827576e+01 0.0000000000000000e+00
ITEM: ATOMS id type xs ys zs fx fy fz
1 1 0.918115 0.167011 0.0319649 0.0789928 0.00487137 -0.0030117
2 1 0.460041 0.0749163 0.0533944 0.0557652 -0.00530052 -0.000976562
3 1 0.183785 0.12472 0.656965 0.00115204 0.00433922 8.58307e-05
4 1 0.231936 0.948865 0.927865 -0.0789948 -0.00487328 0.0030117
5 1 0.978834 0.157171 0.8026 0.00368309 -0.00485229 -0.000860214
6 1 0.690009 0.0409601 0.906436 -0.0557652 0.00530243 0.000972748
7 1 0.436917 0.249555 0.781869 -0.00356865 0.00444031 -0.000459671
8 1 0.677499 0.208207 0.407109 0.00136566 0.00490761 0.000520706
9 1 0.725732 0.0324993 0.677648 -0.00170326 -0.00478745 -0.000123978
10 1 0.472552 0.241003 0.552721 -0.00136375 -0.0049057 -0.000518799
11 1 0.713134 0.199655 0.177961 0.00357246 -0.00444031 0.000461578
12 1 0.424319 0.083377 0.282182 0.00170326 0.00478554 0.000127792
13 1 0.171217 0.292039 0.15723 -0.0036869 0.00485039 0.000862122
14 1 0.219419 0.116069 0.427789 -0.00144196 -0.00453949 -0.000291824
15 1 0.918115 0.500344 0.0319649 0.0789948 0.00486755 -0.0030098
16 1 0.460041 0.40825 0.0533945 0.0557671 -0.00529861 -0.000976562
17 1 0.183785 0.458053 0.656965 0.00115013 0.00433922 8.39233e-05
18 1 0.231936 0.282199 0.927865 -0.0789928 -0.00486946 0.0030117
19 1 0.978834 0.490504 0.8026 0.00369072 -0.00485039 -0.000862122
20 1 0.690009 0.374293 0.906436 -0.0557671 0.00530052 0.000972748
21 1 0.436917 0.582888 0.781869 -0.00357246 0.0044384 -0.000459671
22 1 0.930632 0.33314 0.532041 0.00144005 0.00453758 0.000289917
23 1 0.677499 0.54154 0.407109 0.00136757 0.0049057 0.000522614
24 1 0.725732 0.365833 0.677648 -0.00170326 -0.00478363 -0.000123978
25 1 0.472552 0.574336 0.552721 -0.00136566 -0.00490379 -0.000520706
26 1 0.966266 0.32449 0.302865 -0.00115013 -0.00434113 -8.7738e-05
27 1 0.713134 0.532988 0.177961 0.00356674 -0.0044384 0.000461578
28 1 0.424319 0.41671 0.282182 0.00170326 0.00478363 0.000125885
29 1 0.171217 0.625372 0.15723 -0.00368881 0.00485229 0.000862122
30 1 0.219419 0.449403 0.427789 -0.00143814 -0.00453758 -0.000293732
31 1 0.918115 0.833678 0.0319649 0.0789948 0.00486755 -0.0030117
32 1 0.460041 0.741583 0.0533944 0.055769 -0.00529861 -0.000974655
33 1 0.183785 0.791386 0.656965 0.00115204 0.00433922 8.58307e-05
34 1 0.231936 0.615532 0.927865 -0.0789948 -0.00487328 0.0030098
35 1 0.978834 0.823838 0.8026 0.00368881 -0.00485039 -0.000860214
36 1 0.690009 0.707627 0.906436 -0.0557671 0.00530434 0.000972748
37 1 0.436917 0.916222 0.781869 -0.00357056 0.00444031 -0.000461578
38 1 0.930632 0.666474 0.532041 0.00143814 0.00453758 0.000291824
39 1 0.677499 0.874873 0.407109 0.00136757 0.0049057 0.000520706
40 1 0.725732 0.699166 0.677648 -0.00170326 -0.00478554 -0.000123978
41 1 0.472552 0.90767 0.552721 -0.00136375 -0.00490379 -0.000520706
42 1 0.966266 0.657823 0.302865 -0.00115395 -0.00433922 -8.7738e-05
43 1 0.713134 0.866321 0.177961 0.00356865 -0.00444031 0.000463486
44 1 0.424319 0.750044 0.282182 0.00170326 0.00478554 0.000125885
45 1 0.171217 0.958706 0.15723 -0.00368881 0.00485039 0.000862122
46 1 0.219419 0.782736 0.427789 -0.00144196 -0.00453758 -0.000293732
47 1 0.930632 0.999807 0.532041 0.00144005 0.00453949 0.000293732
48 1 0.966266 0.991157 0.302865 -0.00115013 -0.00434113 -8.7738e-05
ITEM: TIMESTEP
4
ITEM: NUMBER OF ATOMS
48
ITEM: BOX BOUNDS xy xz yz pp pp pp
-1.4614639878273010e+00 8.5924912691116333e+00 2.5059517025947571e+00
-1.8484592437744141e-03 9.2446590662002563e+00 -1.4602468609809875e+00
-3.9033889770507812e-03 1.9521031022071838e+01 0.0000000000000000e+00
ITEM: ATOMS id type xs ys zs fx fy fz
1 1 0.918115 0.167011 0.0319649 0.0789566 0.00485992 -0.00299835
2 1 0.460042 0.0749163 0.0533944 0.0557346 -0.00529671 -0.000968933
3 1 0.183785 0.12472 0.656965 0.00114822 0.00431252 7.62939e-05
4 1 0.231936 0.948865 0.927865 -0.0789528 -0.00486755 0.00300217
5 1 0.978834 0.157171 0.8026 0.00368118 -0.00481987 -0.000850677
6 1 0.690009 0.0409601 0.906436 -0.0557346 0.00529861 0.000961304
7 1 0.436917 0.249555 0.781869 -0.00357246 0.00442886 -0.000484467
8 1 0.677499 0.208207 0.407109 0.00136566 0.00489998 0.000516891
9 1 0.725732 0.0324993 0.677648 -0.00170708 -0.004776 -0.000135422
10 1 0.472552 0.241003 0.552721 -0.00136757 -0.00489998 -0.000514984
11 1 0.713134 0.199655 0.177961 0.00357056 -0.00442314 0.000480652
12 1 0.424319 0.083377 0.282182 0.00170898 0.00477409 0.000137329
13 1 0.171217 0.292039 0.15723 -0.00368118 0.00482368 0.0008564
14 1 0.219419 0.116069 0.427789 -0.00143433 -0.00453568 -0.000301361
15 1 0.918115 0.500344 0.0319649 0.0789509 0.00486565 -0.00300217
16 1 0.460042 0.40825 0.0533945 0.0557404 -0.0052948 -0.000965118
17 1 0.183785 0.458053 0.656965 0.00115013 0.00431442 8.7738e-05
18 1 0.231936 0.282199 0.927865 -0.0789547 -0.00486565 0.00300407
19 1 0.978834 0.490504 0.8026 0.00368118 -0.00482178 -0.000854492
20 1 0.690009 0.374293 0.906436 -0.0557384 0.00529289 0.000965118
21 1 0.436917 0.582888 0.781869 -0.00357056 0.00442696 -0.000484467
22 1 0.930632 0.33314 0.532041 0.00143051 0.00452995 0.000303268
23 1 0.677499 0.54154 0.407109 0.00136757 0.00489998 0.000516891
24 1 0.725732 0.365833 0.677648 -0.00170898 -0.00477791 -0.000137329
25 1 0.472552 0.574336 0.552721 -0.00136566 -0.00490379 -0.000514984
26 1 0.966266 0.32449 0.302865 -0.00115204 -0.00431061 -8.01086e-05
27 1 0.713134 0.532988 0.177961 0.00357246 -0.00442696 0.000480652
28 1 0.424319 0.41671 0.282182 0.00170898 0.00477409 0.000139236
29 1 0.171217 0.625372 0.15723 -0.00367928 0.00482559 0.000854492
30 1 0.219419 0.449403 0.427789 -0.00143433 -0.00453186 -0.000301361
31 1 0.918115 0.833678 0.0319649 0.0789547 0.00486374 -0.00300026
32 1 0.460042 0.741583 0.0533944 0.0557404 -0.00529099 -0.000967026
33 1 0.183785 0.791386 0.656965 0.00115013 0.00431633 8.2016e-05
34 1 0.231936 0.615532 0.927865 -0.0789528 -0.00486183 0.00299835
35 1 0.978834 0.823838 0.8026 0.00368309 -0.00482178 -0.000850677
36 1 0.690009 0.707627 0.906436 -0.0557404 0.00529671 0.000961304
37 1 0.436917 0.916222 0.781869 -0.00357246 0.00442314 -0.000484467
38 1 0.930632 0.666474 0.532041 0.00143623 0.00453186 0.000301361
39 1 0.677499 0.874873 0.407109 0.00136185 0.0049057 0.000513077
40 1 0.725732 0.699166 0.677648 -0.00170708 -0.00477409 -0.000137329
41 1 0.472552 0.90767 0.552721 -0.00136757 -0.00490379 -0.000514984
42 1 0.966266 0.657823 0.302865 -0.00115204 -0.00431252 -8.58307e-05
43 1 0.713134 0.866321 0.177961 0.00357056 -0.00442886 0.000480652
44 1 0.424319 0.750044 0.282182 0.00170708 0.00477791 0.000137329
45 1 0.171217 0.958706 0.15723 -0.00368118 0.00481415 0.0008564
46 1 0.219419 0.782736 0.427789 -0.00143242 -0.00452805 -0.000303268
47 1 0.930632 0.999807 0.532041 0.00143623 0.00453186 0.000301361
48 1 0.966266 0.991157 0.302865 -0.00114822 -0.00431442 -7.62939e-05
ITEM: TIMESTEP
5
ITEM: NUMBER OF ATOMS
48
ITEM: BOX BOUNDS xy xz yz pp pp pp
-1.4619141817092896e+00 8.5930460095405579e+00 2.5062021613121033e+00
-2.3105740547180176e-03 9.2451211810112000e+00 -1.4603927731513977e+00
-4.8792362213134766e-03 1.9522006869316101e+01 0.0000000000000000e+00
ITEM: ATOMS id type xs ys zs fx fy fz
1 1 0.918115 0.167011 0.0319648 0.078928 0.00485229 -0.00297928
2 1 0.460042 0.0749163 0.0533944 0.0557365 -0.00528908 -0.000957489
3 1 0.183785 0.12472 0.656965 0.00114632 0.00432205 8.01086e-05
4 1 0.231936 0.948865 0.927865 -0.0789318 -0.00485039 0.00298119
5 1 0.978834 0.157171 0.8026 0.00365829 -0.0048008 -0.0008564
6 1 0.690009 0.0409601 0.906436 -0.0557346 0.00528908 0.000955582
7 1 0.436917 0.249555 0.781869 -0.00357246 0.00442696 -0.000484467
8 1 0.677499 0.208207 0.407109 0.0013504 0.00489426 0.000513077
9 1 0.725732 0.0324993 0.677648 -0.00171089 -0.00477409 -0.000133514
10 1 0.472552 0.241003 0.552721 -0.0013504 -0.00489235 -0.000507355
11 1 0.713134 0.199655 0.177961 0.00357056 -0.00442886 0.000486374
12 1 0.424319 0.0833771 0.282182 0.00171089 0.00477219 0.000127792
13 1 0.171217 0.292039 0.15723 -0.00365639 0.00480461 0.000852585
14 1 0.219419 0.116069 0.427789 -0.00143814 -0.00452805 -0.000297546
15 1 0.918115 0.500344 0.0319649 0.0789299 0.0048542 -0.00297737
16 1 0.460042 0.40825 0.0533945 0.0557365 -0.00529671 -0.000957489
17 1 0.183785 0.458053 0.656965 0.0011425 0.00432014 8.01086e-05
18 1 0.231936 0.282199 0.927865 -0.0789299 -0.00485229 0.00297737
19 1 0.978834 0.490504 0.8026 0.00365639 -0.0048008 -0.000854492
20 1 0.690009 0.374293 0.906436 -0.0557365 0.00529099 0.000955582
21 1 0.436917 0.582888 0.781869 -0.00357437 0.00442696 -0.000486374
22 1 0.930632 0.33314 0.532041 0.00143242 0.00452232 0.000297546
23 1 0.677499 0.54154 0.407109 0.00135231 0.00489426 0.000511169
24 1 0.725732 0.365833 0.677648 -0.00170708 -0.00477409 -0.000131607
25 1 0.472552 0.574336 0.552721 -0.0013504 -0.00489426 -0.000507355
26 1 0.966266 0.32449 0.302865 -0.00114632 -0.00431061 -7.82013e-05
27 1 0.713134 0.532988 0.177961 0.00357056 -0.00442886 0.000482559
28 1 0.424319 0.41671 0.282182 0.00170898 0.00477219 0.0001297
29 1 0.171217 0.625372 0.15723 -0.00365067 0.0048008 0.000854492
30 1 0.219419 0.449403 0.427789 -0.00143623 -0.00452614 -0.000297546
31 1 0.918115 0.833678 0.0319649 0.0789299 0.00485039 -0.00298119
32 1 0.460042 0.741583 0.0533944 0.0557346 -0.00528908 -0.000955582
33 1 0.183785 0.791386 0.656965 0.00114632 0.00431824 8.01086e-05
34 1 0.231936 0.615532 0.927865 -0.078928 -0.00485039 0.00297737
35 1 0.978834 0.823837 0.8026 0.00365639 -0.0048008 -0.000854492
36 1 0.690009 0.707627 0.906436 -0.0557346 0.00528908 0.000959396
37 1 0.436917 0.916222 0.781869 -0.00357628 0.00442696 -0.000486374
38 1 0.930632 0.666474 0.532041 0.00143242 0.00452423 0.000297546
39 1 0.677499 0.874873 0.407109 0.0013504 0.00489426 0.000513077
40 1 0.725732 0.699166 0.677648 -0.00170517 -0.00477409 -0.000133514
41 1 0.472552 0.90767 0.552721 -0.00135231 -0.00489616 -0.000509262
42 1 0.966266 0.657823 0.302865 -0.00114441 -0.00432014 -7.82013e-05
43 1 0.713134 0.866321 0.177961 0.00356865 -0.00442696 0.000482559
44 1 0.424319 0.750044 0.282182 0.00170898 0.00477219 0.000127792
45 1 0.171217 0.958706 0.15723 -0.00365067 0.00479889 0.000858307
46 1 0.219419 0.782736 0.427789 -0.00143242 -0.00452042 -0.000295639
47 1 0.930632 0.999807 0.532041 0.00143623 0.00452232 0.000295639
48 1 0.966266 0.991157 0.302865 -0.00114441 -0.00431442 -7.62939e-05
ITEM: TIMESTEP
6
ITEM: NUMBER OF ATOMS
48
ITEM: BOX BOUNDS xy xz yz pp pp pp
-1.4623644351959229e+00 8.5936007499694824e+00 2.5064526200294495e+00
-2.7726888656616211e-03 9.2455832958221436e+00 -1.4605387449264526e+00
-5.8550834655761719e-03 1.9522982716560364e+01 0.0000000000000000e+00
ITEM: ATOMS id type xs ys zs fx fy fz
1 1 0.918116 0.167011 0.0319648 0.0788879 0.00484467 -0.00295258
2 1 0.460042 0.0749163 0.0533944 0.0557117 -0.00530052 -0.000946045
3 1 0.183785 0.12472 0.656965 0.00113487 0.00432396 6.86646e-05
4 1 0.231935 0.948865 0.927865 -0.0788879 -0.00484848 0.00295448
5 1 0.978834 0.157171 0.8026 0.00364304 -0.00479507 -0.000858307
6 1 0.690009 0.0409601 0.906436 -0.0557079 0.00530434 0.000944138
7 1 0.436917 0.249555 0.781869 -0.003582 0.00442314 -0.000486374
8 1 0.677499 0.208207 0.407109 0.00135612 0.00489426 0.000505447
9 1 0.725732 0.0324993 0.677648 -0.00169754 -0.00478363 -0.000131607
10 1 0.472552 0.241003 0.552721 -0.00135612 -0.00489616 -0.000499725
11 1 0.713134 0.199655 0.177961 0.00358009 -0.00442505 0.000482559
12 1 0.424319 0.0833771 0.282182 0.00170326 0.00477982 0.000125885
13 1 0.171217 0.292039 0.15723 -0.00364685 0.00479698 0.000862122
14 1 0.219419 0.116069 0.427789 -0.00143433 -0.00452805 -0.000282288
15 1 0.918116 0.500344 0.0319649 0.0788918 0.00484657 -0.00295067
16 1 0.460042 0.40825 0.0533945 0.055706 -0.00530052 -0.00094223
17 1 0.183785 0.458053 0.656965 0.00113297 0.00432777 6.48499e-05
18 1 0.231935 0.282199 0.927865 -0.0788879 -0.00484848 0.00295067
19 1 0.978834 0.490504 0.8026 0.00364685 -0.00479698 -0.000862122
20 1 0.690009 0.374293 0.906436 -0.0557079 0.00530052 0.000946045
21 1 0.436916 0.582888 0.781869 -0.00358009 0.00442314 -0.000480652
22 1 0.930632 0.33314 0.532041 0.0014267 0.00452805 0.000284195
23 1 0.677499 0.54154 0.407109 0.00135612 0.00489426 0.000505447
24 1 0.725732 0.365833 0.677648 -0.00170326 -0.00478363 -0.000127792
25 1 0.472552 0.574336 0.552721 -0.00135803 -0.00489235 -0.000501633
26 1 0.966266 0.32449 0.302865 -0.00113106 -0.00432205 -6.67572e-05
27 1 0.713134 0.532988 0.177961 0.00358009 -0.00441742 0.000482559
28 1 0.424319 0.41671 0.282182 0.00169945 0.00478172 0.00012207
29 1 0.171217 0.625372 0.15723 -0.00364494 0.00479126 0.000862122
30 1 0.219419 0.449403 0.427789 -0.00143433 -0.00452423 -0.000278473
31 1 0.918116 0.833678 0.0319649 0.0788898 0.00484848 -0.00295067
32 1 0.460042 0.741583 0.0533944 0.0557117 -0.00530052 -0.000944138
33 1 0.183785 0.791386 0.656965 0.00113297 0.00432396 6.67572e-05
34 1 0.231935 0.615532 0.927865 -0.0788879 -0.00484657 0.00295258
35 1 0.978834 0.823837 0.8026 0.00364685 -0.00479889 -0.000862122
36 1 0.690009 0.707627 0.906436 -0.0557098 0.00530243 0.000940323
37 1 0.436917 0.916222 0.781869 -0.00358582 0.00442505 -0.000482559
38 1 0.930632 0.666474 0.532041 0.00143051 0.00452423 0.000284195
39 1 0.677499 0.874873 0.407109 0.00135612 0.00489235 0.00050354
40 1 0.725732 0.699166 0.677648 -0.00169754 -0.00477982 -0.000127792
41 1 0.472552 0.90767 0.552721 -0.00135612 -0.00489426 -0.000501633
42 1 0.966266 0.657823 0.302865 -0.00112724 -0.00432396 -6.67572e-05
43 1 0.713134 0.866321 0.177961 0.00358391 -0.00442123 0.000482559
44 1 0.424319 0.750044 0.282182 0.00170135 0.00477791 0.00012207
45 1 0.171217 0.958706 0.15723 -0.00365067 0.00479507 0.000862122
46 1 0.219419 0.782736 0.427789 -0.00143433 -0.00452232 -0.000284195
47 1 0.930632 0.999807 0.532041 0.00143051 0.00452614 0.000278473
48 1 0.966266 0.991157 0.302865 -0.00113106 -0.00432587 -6.67572e-05
ITEM: TIMESTEP
7
ITEM: NUMBER OF ATOMS
48
ITEM: BOX BOUNDS xy xz yz pp pp pp
-1.4628146886825562e+00 8.5941555500030518e+00 2.5067031383514404e+00
-3.2348036766052246e-03 9.2460454106330872e+00 -1.4606847167015076e+00
-6.8309307098388672e-03 1.9523958563804626e+01 0.0000000000000000e+00
ITEM: ATOMS id type xs ys zs fx fy fz
1 1 0.918116 0.167011 0.0319648 0.0788574 0.00483322 -0.00292969
2 1 0.460042 0.0749163 0.0533944 0.0556984 -0.00529671 -0.000940323
3 1 0.183785 0.12472 0.656965 0.00113487 0.00430489 7.82013e-05
4 1 0.231935 0.948865 0.927865 -0.0788555 -0.00483894 0.00292587
5 1 0.978834 0.157171 0.8026 0.00362015 -0.00479889 -0.000869751
6 1 0.690009 0.0409601 0.906436 -0.0556984 0.00530052 0.00094223
7 1 0.436917 0.249555 0.781869 -0.00358582 0.00440598 -0.000490189
8 1 0.677499 0.208207 0.407109 0.00135422 0.00488281 0.000501633
9 1 0.725732 0.0324993 0.677648 -0.00169945 -0.00475693 -0.000133514
10 1 0.472552 0.241003 0.552721 -0.00135422 -0.00488091 -0.000501633
11 1 0.713134 0.199655 0.177961 0.00358391 -0.00440598 0.000494003
12 1 0.424319 0.0833771 0.282182 0.00170135 0.00475883 0.000133514
13 1 0.171217 0.292039 0.15723 -0.00362015 0.00479317 0.000869751
14 1 0.219419 0.116069 0.427789 -0.00141907 -0.00452232 -0.000289917
15 1 0.918116 0.500344 0.0319649 0.0788574 0.00483513 -0.00292778
16 1 0.460042 0.40825 0.0533945 0.0556984 -0.0052948 -0.00094223
17 1 0.183785 0.458053 0.656965 0.00113678 0.00430679 7.24792e-05
18 1 0.231935 0.282199 0.927865 -0.0788555 -0.00483704 0.00292587
19 1 0.978834 0.490504 0.8026 0.00362206 -0.00479698 -0.000865936
20 1 0.690009 0.374293 0.906436 -0.0556984 0.00529861 0.000940323
21 1 0.436916 0.582888 0.781869 -0.00358582 0.0044136 -0.000492096
22 1 0.930632 0.33314 0.532041 0.00142288 0.00452042 0.000291824
23 1 0.677499 0.54154 0.407109 0.00135231 0.004879 0.000505447
24 1 0.725732 0.365833 0.677648 -0.00169945 -0.00475883 -0.000131607
25 1 0.472552 0.574336 0.552721 -0.00135612 -0.00488281 -0.000505447
26 1 0.966266 0.32449 0.302865 -0.00113678 -0.00429916 -7.43866e-05
27 1 0.713134 0.532988 0.177961 0.00358582 -0.00440598 0.000494003
28 1 0.424319 0.41671 0.282182 0.00169373 0.00476265 0.000135422
29 1 0.171217 0.625372 0.15723 -0.00362015 0.00479317 0.000867844
30 1 0.219419 0.449403 0.427789 -0.00142097 -0.00452042 -0.00028801
31 1 0.918116 0.833678 0.0319649 0.0788574 0.00483513 -0.00292778
32 1 0.460042 0.741583 0.0533944 0.0556984 -0.00529861 -0.00094223
33 1 0.183785 0.791386 0.656965 0.00113869 0.00430107 7.62939e-05
34 1 0.231935 0.615532 0.927865 -0.0788555 -0.00483322 0.00292587
35 1 0.978834 0.823837 0.8026 0.00362015 -0.00479317 -0.000867844
36 1 0.690009 0.707627 0.906436 -0.0556984 0.00530243 0.000936508
37 1 0.436917 0.916222 0.781869 -0.00358772 0.00440407 -0.000492096
38 1 0.930632 0.666474 0.532041 0.00142097 0.00451851 0.000289917
39 1 0.677499 0.874873 0.407109 0.0013504 0.004879 0.000505447
40 1 0.725732 0.699166 0.677648 -0.00169945 -0.00476074 -0.000131607
41 1 0.472552 0.90767 0.552721 -0.0013504 -0.00488091 -0.000505447
42 1 0.966266 0.657823 0.302865 -0.00113678 -0.00430679 -7.62939e-05
43 1 0.713134 0.866321 0.177961 0.00358772 -0.00440598 0.000490189
44 1 0.424319 0.750044 0.282182 0.00169754 0.00475693 0.000127792
45 1 0.171217 0.958706 0.15723 -0.00362206 0.00479507 0.000869751
46 1 0.219419 0.782736 0.427789 -0.00141907 -0.00452232 -0.000289917
47 1 0.930632 0.999807 0.532041 0.00142288 0.00452232 0.000291824
48 1 0.966266 0.991157 0.302865 -0.00113869 -0.00430489 -7.62939e-05
ITEM: TIMESTEP
8
ITEM: NUMBER OF ATOMS
48
ITEM: BOX BOUNDS xy xz yz pp pp pp
-1.4632649421691895e+00 8.5947102904319763e+00 2.5069535970687866e+00
-3.6969184875488281e-03 9.2465075254440308e+00 -1.4608306884765625e+00
-7.8067779541015625e-03 1.9524934411048889e+01 0.0000000000000000e+00
ITEM: ATOMS id type xs ys zs fx fy fz
1 1 0.918116 0.167011 0.0319648 0.0788116 0.00481033 -0.00291061
2 1 0.460042 0.0749163 0.0533944 0.0556774 -0.00529861 -0.000926971
3 1 0.183785 0.12472 0.656965 0.00113106 0.00429726 7.05719e-05
4 1 0.231935 0.948865 0.927865 -0.0788136 -0.00481033 0.00291252
5 1 0.978834 0.157171 0.8026 0.00360298 -0.00477791 -0.000867844
6 1 0.690008 0.0409601 0.906436 -0.0556736 0.00529861 0.000926971
7 1 0.436917 0.249555 0.781869 -0.00359917 0.00439644 -0.000482559
8 1 0.677499 0.208207 0.407109 0.0013485 0.00488091 0.000513077
9 1 0.725732 0.0324993 0.677648 -0.0016861 -0.00476265 -0.0001297
10 1 0.472552 0.241003 0.552721 -0.0013485 -0.00487328 -0.000511169
11 1 0.713135 0.199655 0.177961 0.00359154 -0.00439835 0.000482559
12 1 0.424319 0.0833771 0.282182 0.00168419 0.00476074 0.000127792
13 1 0.171217 0.292039 0.15723 -0.00359917 0.00477409 0.000867844
14 1 0.219419 0.116069 0.427789 -0.00142479 -0.00450897 -0.000295639
15 1 0.918116 0.500345 0.0319649 0.0788174 0.00480843 -0.00291634
16 1 0.460042 0.40825 0.0533945 0.0556774 -0.00529861 -0.000926971
17 1 0.183785 0.458053 0.656965 0.00113297 0.00430107 6.86646e-05
18 1 0.231935 0.282199 0.927865 -0.0788136 -0.00481033 0.00291252
19 1 0.978834 0.490504 0.8026 0.00360489 -0.004776 -0.000867844
20 1 0.690008 0.374293 0.906436 -0.0556774 0.0052948 0.000926971
21 1 0.436916 0.582888 0.781869 -0.00359917 0.00439835 -0.000486374
22 1 0.930632 0.33314 0.532041 0.00142288 0.00450325 0.000295639
23 1 0.677499 0.54154 0.407109 0.0013485 0.00488281 0.000513077