ITEM: TIMESTEP
0
ITEM: NUMBER OF ATOMS
32
ITEM: BOX BOUNDS xy xz yz pp pp pp
-4.7826766967773438e-03 6.7192982435226440e+00 3.1996655464172363e-01
-3.7661075592041016e-02 2.2120539069175720e+01 0.0000000000000000e+00
-1.1393904685974121e-02 5.1938598752021790e+00 0.0000000000000000e+00
ITEM: ATOMS id type xs ys zs fx fy fz
1 1 0.00239906 0.336542 0.593597 0 0.000780106 5.72205e-06
2 1 0.502399 0.336542 0.593597 0 0.000774384 5.72205e-06
3 1 0.254473 0.295033 0.0935973 0 -0.00120354 -5.72205e-06
4 1 0.754473 0.295033 0.0935973 0 -0.00120163 -3.8147e-06
5 1 0.246154 0.461543 0.593597 0 0.000988007 0
6 1 0.746154 0.461543 0.593597 0 0.000991821 5.72205e-06
7 1 0.998227 0.420037 0.0935973 0 -0.000993729 -7.62939e-06
8 1 0.498228 0.420037 0.0935973 0 -0.000993729 -3.8147e-06
9 1 0.989908 0.586543 0.593597 0 0.000926971 0
10 1 0.489909 0.586543 0.593597 0 0.000925064 0
11 1 0.233664 0.711539 0.593597 0 0.00128174 7.62939e-06
12 1 0.733664 0.711539 0.593597 0 0.00127983 3.8147e-06
13 1 0.985737 0.670042 0.0935972 0 -0.00102234 -3.8147e-06
14 1 0.241982 0.545043 0.0935972 0 -0.00109482 0
15 1 0.741982 0.545043 0.0935972 0 -0.001091 0
16 1 0.485737 0.670042 0.0935972 0 -0.00102615 -7.62939e-06
17 1 0.977418 0.836533 0.593597 0 0.00486183 3.8147e-06
18 1 0.477419 0.836533 0.593597 0 0.00485611 0
19 1 0.221173 0.961533 0.593597 0 -0.024065 3.8147e-06
20 1 0.721173 0.961533 0.593597 0 -0.0240688 3.8147e-06
21 1 0.229492 0.795035 0.0935971 0 -0.000307083 -1.90735e-06
22 1 0.729492 0.795035 0.0935971 0 -0.000307083 -1.90735e-06
23 1 0.973246 0.920032 0.0935971 0 -0.0480957 -3.8147e-06
24 1 0.473247 0.920032 0.0935971 0 -0.0480919 -3.8147e-06
25 1 0.01489 0.0865377 0.593597 0 0.0480175 0
26 1 0.51489 0.0865377 0.593597 0 0.0480251 0
27 1 0.266964 0.045031 0.093597 0 0.0242195 0
28 1 0.766964 0.045031 0.093597 0 0.0242214 0
29 1 0.258645 0.211541 0.593597 0 0.000322342 1.90735e-06
30 1 0.758645 0.211541 0.593597 0 0.000326157 1.90735e-06
31 1 0.0107184 0.170031 0.093597 0 -0.00461388 0
32 1 0.510719 0.170031 0.093597 0 -0.00462151 0
ITEM: TIMESTEP
1
ITEM: NUMBER OF ATOMS
32
ITEM: BOX BOUNDS xy xz yz pp pp pp
-4.7826766967773438e-03 6.7192982435226440e+00 3.1996655464172363e-01
-3.7661075592041016e-02 2.2120539069175720e+01 0.0000000000000000e+00
-1.1393904685974121e-02 5.1938598752021790e+00 0.0000000000000000e+00
ITEM: ATOMS id type xs ys zs fx fy fz
1 1 0.00239852 0.336553 0.593597 0 0.000553131 -7.62939e-06
2 1 0.502399 0.336553 0.593597 0 0.000555038 0
3 1 0.254474 0.295016 0.093597 0 -0.000780106 3.8147e-06
4 1 0.754474 0.295016 0.0935971 0 -0.000782013 1.90735e-06
5 1 0.246153 0.461556 0.593597 0 0.00066185 1.90735e-06
6 1 0.746153 0.461556 0.593597 0 0.00066185 -3.8147e-06
7 1 0.998228 0.420024 0.0935968 0 -0.000917435 5.72205e-06
8 1 0.498228 0.420024 0.0935971 0 -0.00091362 1.90735e-06
9 1 0.989908 0.586556 0.593597 0 0.000864029 1.90735e-06
10 1 0.489908 0.586556 0.593597 0 0.000864029 1.90735e-06
11 1 0.233663 0.711557 0.593597 0 0.000852585 -1.14441e-05
12 1 0.733663 0.711557 0.593597 0 0.000858307 -3.8147e-06
13 1 0.985737 0.670028 0.093597 0 -0.000648499 3.8147e-06
14 1 0.241983 0.545028 0.0935972 0 -0.000827789 -3.8147e-06
15 1 0.741983 0.545028 0.0935972 0 -0.000825882 0
16 1 0.485738 0.670028 0.0935967 0 -0.000646591 7.62939e-06
17 1 0.977415 0.836599 0.593597 0 -0.00976372 -3.8147e-06
18 1 0.477415 0.836599 0.593597 0 -0.0097599 -1.90735e-06
19 1 0.22119 0.961203 0.593597 0 0.0103779 -1.90735e-06
20 1 0.72119 0.961203 0.593597 0 0.0103817 -5.72205e-06
21 1 0.229492 0.79503 0.093597 0 -0.012825 5.72205e-06
22 1 0.729492 0.79503 0.093597 0 -0.0128193 0
23 1 0.973279 0.919373 0.0935969 0 -0.00431061 1.90735e-06
24 1 0.47328 0.919373 0.0935969 0 -0.00430679 9.53674e-06
25 1 0.0148571 0.0871956 0.593597 0 0.00439072 0
26 1 0.514857 0.0871957 0.593597 0 0.00438118 -1.90735e-06
27 1 0.266948 0.0453629 0.093597 0 -0.0102482 0
28 1 0.766948 0.0453629 0.093597 0 -0.0102577 0
29 1 0.258645 0.211545 0.593597 0 0.0127487 -3.8147e-06
30 1 0.758645 0.211545 0.593597 0 0.0127506 0
31 1 0.0107216 0.169968 0.093597 0 0.00986099 -1.90735e-06
32 1 0.510722 0.169968 0.093597 0 0.00987053 3.8147e-06
ITEM: TIMESTEP
2
ITEM: NUMBER OF ATOMS
32
ITEM: BOX BOUNDS xy xz yz pp pp pp
-4.7826766967773438e-03 6.7192982435226440e+00 3.1996655464172363e-01
-3.7661075592041016e-02 2.2120539069175720e+01 0.0000000000000000e+00
-1.1393904685974121e-02 5.1938598752021790e+00 0.0000000000000000e+00
ITEM: ATOMS id type xs ys zs fx fy fz
1 1 0.00239764 0.336571 0.593597 0 0.00616074 9.53674e-06
2 1 0.502398 0.336571 0.593597 0 0.00615311 -1.90735e-06
3 1 0.254475 0.294991 0.0935973 0 0.0074482 -5.72205e-06
4 1 0.754475 0.294991 0.0935972 0 0.0074482 -1.90735e-06
5 1 0.246152 0.461578 0.593597 0 0.000160217 0
6 1 0.746152 0.461578 0.593597 0 0.000164032 1.90735e-06
7 1 0.99823 0.419996 0.0935973 0 6.10352e-05 -5.72205e-06
8 1 0.49823 0.419996 0.0935972 0 5.34058e-05 1.90735e-06
9 1 0.989906 0.586582 0.593597 0 -9.72748e-05 0
10 1 0.489907 0.586582 0.593597 0 -9.34601e-05 -3.8147e-06
11 1 0.233661 0.711584 0.593596 0 -0.00747871 1.90735e-05
12 1 0.733661 0.711584 0.593597 0 -0.00748444 7.62939e-06
13 1 0.985738 0.670007 0.0935973 0 -0.00621033 -7.62939e-06
14 1 0.241984 0.545002 0.0935968 0 -0.000221252 3.8147e-06
15 1 0.741984 0.545002 0.0935972 0 -0.000234604 0
16 1 0.485739 0.670007 0.0935975 0 -0.00621223 -1.14441e-05
17 1 0.977427 0.836366 0.593597 0 0.00236702 5.72205e-06
18 1 0.477427 0.836366 0.593597 0 0.00237274 7.62939e-06
19 1 0.221181 0.961373 0.593597 0 0.00152969 1.90735e-06
20 1 0.721181 0.961373 0.593597 0 0.00152206 9.53674e-06
21 1 0.229509 0.794695 0.0935976 0 -0.00231934 -1.14441e-05
22 1 0.729509 0.794695 0.093597 0 -0.00232697 -3.8147e-06
23 1 0.973295 0.91906 0.093597 0 0.00135422 -1.90735e-06
24 1 0.473295 0.91906 0.0935979 0 0.00134659 -1.52588e-05
25 1 0.0148414 0.0875098 0.593597 0 -0.00129318 1.90735e-06
26 1 0.514842 0.0875097 0.593597 0 -0.00127792 9.53674e-06
27 1 0.266956 0.0451969 0.093597 0 -0.00147057 -5.72205e-06
28 1 0.766956 0.0451967 0.093597 0 -0.0014534 -1.90735e-06
29 1 0.258628 0.211879 0.593597 0 0.00234032 3.8147e-06
30 1 0.758628 0.211879 0.593597 0 0.00233078 -1.90735e-06
31 1 0.0107097 0.170205 0.0935968 0 -0.00231743 1.90735e-06
32 1 0.51071 0.170206 0.0935974 0 -0.00232124 -5.72205e-06
ITEM: TIMESTEP
3
ITEM: NUMBER OF ATOMS
32
ITEM: BOX BOUNDS xy xz yz pp pp pp
-4.7826766967773438e-03 6.7192982435226440e+00 3.1996655464172363e-01
-3.7661075592041016e-02 2.2120539069175720e+01 0.0000000000000000e+00
-1.1393904685974121e-02 5.1938598752021790e+00 0.0000000000000000e+00
ITEM: ATOMS id type xs ys zs fx fy fz
1 1 0.00238955 0.336733 0.593597 0 0.00113106 -5.72205e-06
2 1 0.50239 0.336732 0.593597 0 0.00114632 0
3 1 0.254466 0.295175 0.0935967 0 -0.000514984 9.53674e-06
4 1 0.754466 0.295175 0.093597 0 -0.000516891 -1.90735e-06
5 1 0.246152 0.461587 0.593597 0 0.00253487 -5.72205e-06
6 1 0.746152 0.461587 0.593597 0 0.00252914 3.8147e-06
7 1 0.99823 0.419991 0.0935968 0 0.00507927 5.72205e-06
8 1 0.49823 0.419991 0.0935975 0 0.00507736 -3.8147e-06
9 1 0.989906 0.586586 0.593597 0 -0.0051403 -7.62939e-06
10 1 0.489907 0.586586 0.593597 0 -0.00514984 -1.90735e-06
11 1 0.233671 0.7114 0.593598 0 0.000513077 -2.47955e-05
12 1 0.733671 0.7114 0.593598 0 0.000511169 -1.33514e-05
13 1 0.985746 0.669843 0.0935966 0 -0.00115585 1.52588e-05
14 1 0.241985 0.54499 0.0935971 0 -0.00254059 3.8147e-06
15 1 0.741985 0.544989 0.0935972 0 -0.00252342 -1.90735e-06
16 1 0.485747 0.669843 0.0935964 0 -0.00115013 1.90735e-05
17 1 0.977426 0.83637 0.593597 0 -0.000501633 -9.53674e-06
18 1 0.477427 0.83637 0.593598 0 -0.000513077 -7.62939e-06
19 1 0.221177 0.961453 0.593597 0 -0.00258255 -9.53674e-06
20 1 0.721177 0.961453 0.593598 0 -0.00256729 -1.33514e-05
21 1 0.229516 0.794555 0.0935965 0 -0.000530243 1.71661e-05
22 1 0.729516 0.794555 0.0935965 0 -0.00053215 7.62939e-06
23 1 0.973297 0.91902 0.0935968 0 -0.000759125 7.62939e-06
24 1 0.473297 0.91902 0.0935964 0 -0.000764847 1.33514e-05
25 1 0.0148393 0.0875523 0.593597 0 0.000806808 -9.53674e-06
26 1 0.51484 0.0875525 0.593598 0 0.000789642 -1.33514e-05
27 1 0.26696 0.0451194 0.0935964 0 0.00260735 1.14441e-05
28 1 0.76696 0.0451196 0.0935968 0 0.00259781 7.62939e-06
29 1 0.258621 0.212018 0.593597 0 0.000545502 -3.8147e-06
30 1 0.758621 0.212018 0.593597 0 0.000553131 0
31 1 0.0107098 0.170203 0.0935969 0 0.000509262 3.8147e-06
32 1 0.51071 0.170203 0.0935969 0 0.000511169 7.62939e-06
ITEM: TIMESTEP
4
ITEM: NUMBER OF ATOMS
32
ITEM: BOX BOUNDS xy xz yz pp pp pp
-4.7826766967773438e-03 6.7192982435226440e+00 3.1996655464172363e-01
-3.7661075592041016e-02 2.2120539069175720e+01 0.0000000000000000e+00
-1.1393904685974121e-02 5.1938598752021790e+00 0.0000000000000000e+00
ITEM: ATOMS id type xs ys zs fx fy fz
1 1 0.00238564 0.336811 0.593597 0 0.000265121 -3.8147e-06
2 1 0.502386 0.336811 0.593597 0 0.000263214 -1.90735e-06
3 1 0.254464 0.295226 0.0935974 0 -4.95911e-05 -1.90735e-06
4 1 0.754464 0.295225 0.0935968 0 -4.3869e-05 5.72205e-06
5 1 0.246149 0.461645 0.593597 0 -0.00132179 3.8147e-06
6 1 0.746149 0.461645 0.593598 0 -0.00132561 -3.8147e-06
7 1 0.998224 0.420099 0.0935972 0 0.000207901 0
8 1 0.498225 0.420099 0.0935972 0 0.000217438 -3.8147e-06
9 1 0.989912 0.586476 0.593597 0 -0.00021553 1.33514e-05
10 1 0.489912 0.586476 0.593597 0 -0.000209808 1.71661e-05
11 1 0.233673 0.711349 0.593596 0 2.67029e-05 1.33514e-05
12 1 0.733673 0.711349 0.593597 0 3.8147e-05 1.14441e-05
13 1 0.98575 0.669764 0.0935977 0 -0.000261307 -1.33514e-05
14 1 0.241988 0.54493 0.0935975 0 0.00130653 -9.53674e-06
15 1 0.741988 0.544931 0.093597 0 0.00130272 -3.8147e-06
16 1 0.485751 0.669764 0.0935978 0 -0.000263214 -1.71661e-05
17 1 0.977427 0.83636 0.593597 0 -0.00187492 7.62939e-06
18 1 0.477427 0.83636 0.593597 0 -0.00187874 1.90735e-06
19 1 0.221179 0.961423 0.593596 0 -0.000354767 9.53674e-06
20 1 0.721179 0.961423 0.593597 0 -0.000364304 1.14441e-05
21 1 0.229519 0.794497 0.0935977 0 -0.000167847 -7.62939e-06
22 1 0.729519 0.794497 0.0935971 0 -0.000162125 -3.8147e-06
23 1 0.973298 0.91899 0.0935975 0 0.000177383 -1.14441e-05
24 1 0.473299 0.91899 0.0935972 0 0.000185013 -7.62939e-06
25 1 0.0148377 0.0875839 0.593596 0 -0.000171661 7.62939e-06
26 1 0.514838 0.0875838 0.593597 0 -0.000165939 9.53674e-06
27 1 0.266958 0.0451503 0.0935972 0 0.00037384 -1.14441e-05
28 1 0.766958 0.0451503 0.0935974 0 0.000366211 -9.53674e-06
29 1 0.258618 0.212077 0.593597 0 0.000175476 3.8147e-06
30 1 0.758618 0.212077 0.593597 0 0.000177383 3.8147e-06
31 1 0.0107093 0.170214 0.0935974 0 0.00187492 -3.8147e-06
32 1 0.51071 0.170214 0.0935974 0 0.00187302 -5.72205e-06
ITEM: TIMESTEP
5
ITEM: NUMBER OF ATOMS
32
ITEM: BOX BOUNDS xy xz yz pp pp pp
-4.7826766967773438e-03 6.7192982435226440e+00 3.1996655464172363e-01
-3.7661075592041016e-02 2.2120539069175720e+01 0.0000000000000000e+00
-1.1393904685974121e-02 5.1938598752021790e+00 0.0000000000000000e+00
ITEM: ATOMS id type xs ys zs fx fy fz
1 1 0.00238478 0.336828 0.593597 0 -0.000587463 1.33514e-05
2 1 0.502385 0.336828 0.593597 0 -0.000589371 9.53674e-06
3 1 0.254463 0.295231 0.0935973 0 0.0010128 -9.53674e-06
4 1 0.754463 0.295232 0.0935973 0 0.000993729 -5.72205e-06
5 1 0.24615 0.461623 0.593597 0 -5.91278e-05 0
6 1 0.74615 0.461623 0.593597 0 -5.91278e-05 -5.72205e-06
7 1 0.998223 0.420119 0.0935973 0 -0.000185013 -7.62939e-06
8 1 0.498224 0.420119 0.0935968 0 -0.000188828 -1.90735e-06
9 1 0.989913 0.586456 0.593598 0 0.000185013 -1.14441e-05
10 1 0.489913 0.586456 0.593598 0 0.000173569 -2.28882e-05
11 1 0.233673 0.711343 0.593597 0 -0.000989914 -1.14441e-05
12 1 0.733673 0.711343 0.593598 0 -0.000997543 -1.52588e-05
13 1 0.985751 0.669746 0.0935966 0 0.000587463 1.14441e-05
14 1 0.241987 0.544952 0.0935967 0 4.57764e-05 1.52588e-05
15 1 0.741987 0.544952 0.0935966 0 4.95911e-05 1.71661e-05
16 1 0.485752 0.669746 0.0935963 0 0.000587463 1.90735e-05
17 1 0.977429 0.836316 0.593597 0 -3.24249e-05 -5.72205e-06
18 1 0.477429 0.836316 0.593597 0 -3.24249e-05 -5.72205e-06
19 1 0.221179 0.961411 0.593597 0 -0.000335693 -1.33514e-05
20 1 0.721179 0.961411 0.593598 0 -0.000335693 -1.52588e-05
21 1 0.229519 0.794485 0.0935971 0 -7.62939e-06 1.90735e-06
22 1 0.729519 0.794485 0.0935968 0 -5.72205e-06 7.62939e-06
23 1 0.973298 0.91899 0.0935965 0 -0.000221252 1.33514e-05
24 1 0.473299 0.91899 0.0935966 0 -0.000213623 9.53674e-06
25 1 0.0148377 0.0875844 0.593597 0 0.00022316 -5.72205e-06
26 1 0.514838 0.0875845 0.593598 0 0.000217438 -1.14441e-05
27 1 0.266958 0.0451631 0.0935962 0 0.000339508 1.33514e-05
28 1 0.766958 0.045163 0.0935966 0 0.000343323 1.33514e-05
29 1 0.258617 0.212089 0.593597 0 5.72205e-06 0
30 1 0.758617 0.212089 0.593597 0 3.8147e-06 -1.90735e-06
31 1 0.0107071 0.170258 0.093597 0 4.00543e-05 0
32 1 0.510707 0.170258 0.093597 0 3.24249e-05 5.72205e-06
ITEM: TIMESTEP
6
ITEM: NUMBER OF ATOMS
32
ITEM: BOX BOUNDS xy xz yz pp pp pp
-4.7826766967773438e-03 6.7192982435226440e+00 3.1996655464172363e-01
-3.7661075592041016e-02 2.2120539069175720e+01 0.0000000000000000e+00
-1.1393904685974121e-02 5.1938598752021790e+00 0.0000000000000000e+00
ITEM: ATOMS id type xs ys zs fx fy fz
1 1 0.00238521 0.33682 0.593598 0 -0.000164032 -1.52588e-05
2 1 0.502386 0.33682 0.593598 0 -0.000162125 -1.90735e-05
3 1 0.254462 0.295256 0.0935964 0 4.76837e-05 1.90735e-05
4 1 0.754462 0.295256 0.0935969 0 5.91278e-05 7.62939e-06
5 1 0.24615 0.461615 0.593597 0 0.000202179 -3.8147e-06
6 1 0.74615 0.461615 0.593597 0 0.000205994 0
7 1 0.998223 0.420121 0.0935965 0 0.000263214 7.62939e-06
8 1 0.498224 0.420121 0.0935965 0 0.000267029 7.62939e-06
9 1 0.989913 0.586454 0.593597 0 -0.00028038 1.33514e-05
10 1 0.489913 0.586454 0.593596 0 -0.000261307 2.09808e-05
11 1 0.233675 0.711318 0.593597 0 -5.72205e-05 1.14441e-05
12 1 0.733675 0.711319 0.593596 0 -5.34058e-05 1.33514e-05
13 1 0.985751 0.669755 0.0935974 0 0.000160217 -1.33514e-05
14 1 0.241986 0.544959 0.0935979 0 -0.000196457 -7.62939e-06
15 1 0.741986 0.544959 0.0935982 0 -0.000202179 -1.71661e-05
16 1 0.485751 0.669755 0.0935978 0 0.000160217 -1.33514e-05
17 1 0.97743 0.836303 0.593597 0 -5.34058e-05 7.62939e-06
18 1 0.47743 0.836303 0.593597 0 -4.19617e-05 1.14441e-05
19 1 0.22118 0.9614 0.593596 0 0.000173569 1.52588e-05
20 1 0.72118 0.9614 0.593596 0 0.000181198 1.33514e-05
21 1 0.22952 0.794482 0.0935972 0 -5.72205e-06 -9.53674e-06
22 1 0.72952 0.794482 0.0935975 0 -1.33514e-05 -9.53674e-06
23 1 0.973299 0.918985 0.0935975 0 8.2016e-05 -1.71661e-05
24 1 0.473299 0.918985 0.0935973 0 6.48499e-05 -1.14441e-05
25 1 0.0148374 0.0875896 0.593597 0 -7.43866e-05 7.62939e-06
26 1 0.514838 0.0875896 0.593597 0 -7.82013e-05 7.62939e-06
27 1 0.266957 0.0451744 0.0935973 0 -0.000177383 -5.72205e-06
28 1 0.766957 0.0451744 0.0935976 0 -0.000179291 -1.33514e-05
29 1 0.258617 0.212093 0.593597 0 9.53674e-06 -3.8147e-06
30 1 0.758617 0.212093 0.593597 0 9.53674e-06 -1.90735e-06
31 1 0.0107064 0.170271 0.0935969 0 5.14984e-05 3.8147e-06
32 1 0.510707 0.170271 0.0935974 0 6.29425e-05 -5.72205e-06
ITEM: TIMESTEP
7
ITEM: NUMBER OF ATOMS
32
ITEM: BOX BOUNDS xy xz yz pp pp pp
-4.7826766967773438e-03 6.7192982435226440e+00 3.1996655464172363e-01
-3.7661075592041016e-02 2.2120539069175720e+01 0.0000000000000000e+00
-1.1393904685974121e-02 5.1938598752021790e+00 0.0000000000000000e+00
ITEM: ATOMS id type xs ys zs fx fy fz
1 1 0.00238535 0.336817 0.593597 0 6.86646e-05 1.90735e-06
2 1 0.502386 0.336817 0.593597 0 7.43866e-05 7.62939e-06
3 1 0.254462 0.295258 0.0935974 0 2.28882e-05 -5.72205e-06
4 1 0.754462 0.295258 0.0935973 0 2.67029e-05 -5.72205e-06
5 1 0.24615 0.461618 0.593597 0 -3.62396e-05 3.8147e-06
6 1 0.74615 0.461618 0.593597 0 -4.95911e-05 7.62939e-06
7 1 0.998223 0.420124 0.0935969 0 5.34058e-05 0
8 1 0.498223 0.420124 0.0935969 0 5.34058e-05 0
9 1 0.989913 0.58645 0.593598 0 -5.34058e-05 -5.72205e-06
10 1 0.489913 0.58645 0.593597 0 -6.10352e-05 -5.72205e-06
11 1 0.233675 0.711316 0.593597 0 -2.67029e-05 -5.72205e-06
12 1 0.733675 0.711316 0.593597 0 -3.05176e-05 -1.90735e-06
13 1 0.985751 0.669758 0.0935967 0 -7.43866e-05 7.62939e-06
14 1 0.241987 0.544957 0.0935976 0 4.3869e-05 -1.90735e-06
15 1 0.741987 0.544957 0.0935973 0 5.14984e-05 -3.8147e-06
16 1 0.485751 0.669758 0.0935971 0 -6.86646e-05 0
17 1 0.97743 0.836302 0.593597 0 7.62939e-06 -7.62939e-06
18 1 0.47743 0.836302 0.593597 0 1.52588e-05 -5.72205e-06
19 1 0.22118 0.961402 0.593597 0 4.00543e-05 -1.90735e-06
20 1 0.72118 0.961402 0.593597 0 4.00543e-05 -1.90735e-06
21 1 0.22952 0.794481 0.0935966 0 4.3869e-05 9.53674e-06
22 1 0.72952 0.794481 0.093597 0 4.3869e-05 3.8147e-06
23 1 0.973299 0.918985 0.0935966 0 -1.33514e-05 7.62939e-06
24 1 0.473299 0.918985 0.0935967 0 -7.62939e-06 1.90735e-06
25 1 0.0148374 0.087589 0.593597 0 1.90735e-06 1.90735e-06
26 1 0.514838 0.0875889 0.593597 0 1.52588e-05 0
27 1 0.266957 0.0451728 0.093597 0 -3.62396e-05 0
28 1 0.766957 0.0451727 0.093597 0 -3.62396e-05 0
29 1 0.258617 0.212093 0.593597 0 -4.19617e-05 5.72205e-06
30 1 0.758617 0.212093 0.593597 0 -4.19617e-05 3.8147e-06
31 1 0.0107063 0.170273 0.0935972 0 -1.33514e-05 -5.72205e-06
32 1 0.510707 0.170273 0.0935971 0 -1.14441e-05 -3.8147e-06
ITEM: TIMESTEP
8
ITEM: NUMBER OF ATOMS
32
ITEM: BOX BOUNDS xy xz yz pp pp pp
-4.7826766967773438e-03 6.7192982435226440e+00 3.1996655464172363e-01
-3.7661075592041016e-02 2.2120539069175720e+01 0.0000000000000000e+00
-1.1393904685974121e-02 5.1938598752021790e+00 0.0000000000000000e+00
ITEM: ATOMS id type xs ys zs fx fy fz
1 1 0.00238535 0.336817 0.593597 0 6.86646e-05 1.90735e-06
2 1 0.502386 0.336817 0.593597 0 7.43866e-05 7.62939e-06
3 1 0.254462 0.295258 0.0935974 0 2.28882e-05 -5.72205e-06
4 1 0.754462 0.295258 0.0935973 0 2.67029e-05 -5.72205e-06
5 1 0.24615 0.461618 0.593597 0 -3.62396e-05 3.8147e-06
6 1 0.74615 0.461618 0.593597 0 -4.95911e-05 7.62939e-06
7 1 0.998223 0.420124 0.0935969 0 5.34058e-05 0
8 1 0.498223 0.420124 0.0935969 0 5.34058e-05 0
9 1 0.989913 0.58645 0.593598 0 -5.34058e-05 -5.72205e-06
10 1 0.489913 0.58645 0.593597 0 -6.10352e-05 -5.72205e-06
11 1 0.233675 0.711316 0.593597 0 -2.67029e-05 -5.72205e-06
12 1 0.733675 0.711316 0.593597 0 -3.05176e-05 -1.90735e-06
13 1 0.985751 0.669758 0.0935967 0 -7.43866e-05 7.62939e-06
14 1 0.241987 0.544957 0.0935976 0 4.3869e-05 -1.90735e-06
15 1 0.741987 0.544957 0.0935973 0 5.14984e-05 -3.8147e-06
16 1 0.485751 0.669758 0.0935971 0 -6.86646e-05 0
17 1 0.97743 0.836302 0.593597 0 7.62939e-06 -7.62939e-06
18 1 0.47743 0.836302 0.593597 0 1.52588e-05 -5.72205e-06
19 1 0.22118 0.961402 0.593597 0 4.00543e-05 -1.90735e-06
20 1 0.72118 0.961402 0.593597 0 4.00543e-05 -1.90735e-06
21 1 0.22952 0.794481 0.0935966 0 4.3869e-05 9.53674e-06
22 1 0.72952 0.794481 0.093597 0 4.3869e-05 3.8147e-06
23 1 0.973299 0.918985 0.0935966 0 -1.33514e-05 7.62939e-06
24 1 0.473299 0.918985 0.0935967 0 -7.62939e-06 1.90735e-06
25 1 0.0148374 0.087589 0.593597 0 1.90735e-06 1.90735e-06
26 1 0.514838 0.0875889 0.593597 0 1.52588e-05 0
27 1 0.266957 0.0451728 0.093597 0 -3.62396e-05 0
28 1 0.766957 0.0451727 0.093597 0 -3.62396e-05 0
29 1 0.258617 0.212093 0.593597 0 -4.19617e-05 5.72205e-06
30 1 0.758617 0.212093 0.593597 0 -4.19617e-05 3.8147e-06
31 1 0.0107063 0.170273 0.0935972 0 -1.33514e-05 -5.72205e-06
32 1 0.510707 0.170273 0.0935971 0 -1.14441e-05 -3.8147e-06
