ITEM: TIMESTEP
0
ITEM: NUMBER OF ATOMS
56
ITEM: BOX BOUNDS xy xz yz pp pp pp
-2.4244180321693420e+00 1.2156271994113922e+01 8.9406967163085938e-07
-8.2894563674926758e-03 5.5346975326538086e+00 -2.4532467722892761e+00
-4.5665502548217773e-03 1.9024526596069336e+01 -5.9604644775390625e-08
ITEM: ATOMS id type xs ys zs fx fy fz
1 1 0.578401 0.999993 0.132369 0 0.0272026 0.621042
2 1 0.328401 0.166674 0.132369 0 -0.0271854 0.621037
3 1 0.246304 1 0.275226 0 -0.00522423 0.00229263
4 1 0.996303 0.166667 0.275226 0 0.00523186 0.00229263
5 1 0.914178 1 0.418084 0 -9.15527e-05 2.86102e-05
6 1 0.0783996 0.999993 0.132369 0 0.0272026 0.621029
7 1 0.994434 0.500035 0.0609392 0 0.264961 0.738077
8 1 0.828399 0.166674 0.132369 0 -0.0272007 0.62101
9 1 0.744434 0.666632 0.0609392 0 -0.264975 0.738035
10 1 0.746303 1 0.275226 0 -0.00522614 0.00229836
11 1 0.66418 0.166667 0.418084 0 0.000101089 3.24249e-05
12 1 0.582058 3.67832e-07 0.560938 0 -0.000263214 0.00120163
13 1 0.332057 0.166667 0.560938 0 0.000270844 0.00120163
14 1 0.249925 1 0.703795 0 -0.00082016 0.00118637
15 1 0.999924 0.166667 0.703795 0 0.000825882 0.00118446
16 1 0.917812 0.999999 0.846658 0 -0.00881767 -0.0220261
17 1 0.66236 0.499999 0.203795 0 -0.00882721 0.0220222
18 1 0.496304 0.166667 0.275226 0 0.00523567 0.00229263
19 1 0.412359 0.666668 0.203795 0 0.00881767 0.0220299
20 1 0.41418 1 0.418084 0 -8.39233e-05 2.86102e-05
21 1 0.330247 0.5 0.346658 0 -0.000825882 -0.00119019
22 1 0.164179 0.166667 0.418084 0 8.58307e-05 2.47955e-05
23 1 0.080246 0.666667 0.346658 0 0.000827789 -0.00118065
24 1 0.0820565 3.50169e-07 0.560938 0 -0.000263214 0.00119972
25 1 0.998114 0.5 0.489515 0 -0.000267029 -0.00119972
26 1 0.832056 0.166667 0.560938 0 0.000270844 0.00119781
27 1 0.748113 0.666667 0.489515 0 0.000268936 -0.00120544
28 1 0.494436 0.500035 0.0609392 0 0.264938 0.73806
29 1 0.244435 0.666632 0.0609392 0 -0.264948 0.738075
30 1 0.162358 0.499999 0.203795 0 -0.00883675 0.022028
31 1 0.912358 0.666668 0.203795 0 0.00883293 0.0220127
32 1 0.830246 0.5 0.346658 0 -0.000831604 -0.00117874
33 1 0.667814 0.166668 0.846658 0 0.00882149 -0.0220222
34 1 0.585737 3.5121e-05 0.989514 0 0.264973 -0.738075
35 1 0.335737 0.166632 0.989514 0 -0.264944 -0.738071
36 1 0.749926 1 0.703795 0 -0.000829697 0.00118446
37 1 0.665993 0.5 0.632369 0 -0.000102997 -2.47955e-05
38 1 0.499926 0.166667 0.703795 0 0.000833511 0.00117874
39 1 0.415993 0.666668 0.632369 0 8.58307e-05 -3.05176e-05
40 1 0.417813 0.999999 0.846658 0 -0.00883484 -0.0220242
41 1 0.333868 0.5 0.775226 0 -0.00522423 -0.00229073
42 1 0.167812 0.166668 0.846658 0 0.0088253 -0.0220337
43 1 0.083867 0.666667 0.775226 0 0.00522804 -0.00229263
44 1 0.0857361 3.50854e-05 0.989514 0 0.264948 -0.738062
45 1 0.00177067 0.499993 0.918084 0 0.0271931 -0.621042
46 1 0.580247 0.666667 0.346658 0 0.000812531 -0.00118256
47 1 0.498115 0.5 0.489515 0 -0.000274658 -0.00119972
48 1 0.248114 0.666667 0.489515 0 0.000272751 -0.00120354
49 1 0.165992 0.5 0.632369 0 -9.15527e-05 -2.86102e-05
50 1 0.915991 0.666667 0.632369 0 8.7738e-05 -3.05176e-05
51 1 0.833867 0.5 0.775226 0 -0.00522423 -0.00229645
52 1 0.835738 0.166632 0.989514 0 -0.264971 -0.738031
53 1 0.751772 0.666674 0.918084 0 -0.0272007 -0.621004
54 1 0.583868 0.666667 0.775226 0 0.00523376 -0.00229263
55 1 0.501772 0.499993 0.918084 0 0.027195 -0.621023
56 1 0.251771 0.666674 0.918084 0 -0.0271988 -0.62104
ITEM: TIMESTEP
1
ITEM: NUMBER OF ATOMS
56
ITEM: BOX BOUNDS xy xz yz pp pp pp
-2.4244180321693420e+00 1.2156271994113922e+01 8.9406967163085938e-07
-8.2894563674926758e-03 5.5346975326538086e+00 -2.4532467722892761e+00
-4.5665502548217773e-03 1.9024526596069336e+01 -5.9604644775390625e-08
ITEM: ATOMS id type xs ys zs fx fy fz
1 1 0.579295 1.00066 0.13679 0 0.0343609 0.0850353
2 1 0.329295 0.16601 0.13679 0 -0.0343704 0.085043
3 1 0.246307 0.999872 0.275243 0 -0.0230885 0.100531
4 1 0.996306 0.166795 0.275243 0 0.0230904 0.100527
5 1 0.914179 0.999997 0.418084 0 -0.0004673 0.00119019
6 1 0.0792941 1.00066 0.13679 0 0.0343761 0.0850372
7 1 0.995497 0.506512 0.0661943 0 0.063364 0.0837612
8 1 0.829294 0.166009 0.13679 0 -0.0343647 0.0850391
9 1 0.745497 0.660155 0.066194 0 -0.0633717 0.0837555
10 1 0.746306 0.999872 0.275243 0 -0.0230865 0.100536
11 1 0.66418 0.16667 0.418084 0 0.000463486 0.00118065
12 1 0.582059 -6.06591e-06 0.560947 0 -0.000259399 0.000814438
13 1 0.332059 0.166673 0.560947 0 0.000249863 0.000804901
14 1 0.249926 0.99998 0.703803 0 -0.00297165 -0.00629425
15 1 0.999926 0.166687 0.703803 0 0.00298309 -0.00630569
16 1 0.91778 0.999784 0.846501 0 -0.0178299 -0.154154
17 1 0.662391 0.499784 0.203952 0 -0.0178318 0.154161
18 1 0.496308 0.166795 0.275243 0 0.0230923 0.100542
19 1 0.412391 0.666884 0.203952 0 0.0178356 0.154152
20 1 0.41418 0.999998 0.418084 0 -0.0004673 0.00117302
21 1 0.330245 0.49998 0.34665 0 -0.00297546 0.00629997
22 1 0.164179 0.166669 0.418084 0 0.00047493 0.00118256
23 1 0.0802443 0.666688 0.34665 0 0.00296783 0.00629807
24 1 0.0820582 -6.08357e-06 0.560947 0 -0.000253677 0.000812531
25 1 0.998112 0.499994 0.489506 0 -0.000253677 -0.000812531
26 1 0.832058 0.166673 0.560947 0 0.000255585 0.000808716
27 1 0.748111 0.666673 0.489506 0 0.00025177 -0.000810623
28 1 0.495499 0.506511 0.0661942 0 0.0633564 0.0837631
29 1 0.245498 0.660156 0.0661943 0 -0.0633583 0.083765
30 1 0.16239 0.499783 0.203952 0 -0.017828 0.15415
31 1 0.91239 0.666884 0.203952 0 0.0178299 0.154154
32 1 0.830244 0.49998 0.34665 0 -0.00297928 0.00630188
33 1 0.667782 0.166883 0.846501 0 0.0178299 -0.154142
34 1 0.584674 0.00651185 0.984259 0 0.0633717 -0.0837631
35 1 0.334673 0.160156 0.984259 0 -0.0633621 -0.0837688
36 1 0.749928 0.99998 0.703803 0 -0.00298309 -0.00629616
37 1 0.665993 0.499997 0.632368 0 -0.000459671 -0.00118256
38 1 0.499927 0.166688 0.703803 0 0.00297546 -0.00629807
39 1 0.415993 0.66667 0.632368 0 0.000463486 -0.00118256
40 1 0.417781 0.999783 0.846501 0 -0.0178223 -0.15415
41 1 0.333865 0.499872 0.77521 0 -0.0230942 -0.100533
42 1 0.167781 0.166883 0.846501 0 0.0178337 -0.15415
43 1 0.0838637 0.666795 0.77521 0 0.0230904 -0.100533
44 1 0.084673 0.0065112 0.984259 0 0.0633526 -0.083765
45 1 0.000876188 0.500658 0.913662 0 0.0343704 -0.0850391
46 1 0.580246 0.666687 0.34665 0 0.00298309 0.00630379
47 1 0.498113 0.499994 0.489506 0 -0.000249863 -0.000806808
48 1 0.248113 0.666673 0.489506 0 0.00025177 -0.000806808
49 1 0.165992 0.499998 0.632368 0 -0.000463486 -0.00117683
50 1 0.915991 0.66667 0.632368 0 0.000465393 -0.00118065
51 1 0.833863 0.499872 0.77521 0 -0.0230961 -0.100546
52 1 0.834675 0.160155 0.984259 0 -0.0633659 -0.0837612
53 1 0.750878 0.666009 0.913663 0 -0.03438 -0.0850391
54 1 0.583865 0.666795 0.77521 0 0.0230942 -0.100534
55 1 0.500878 0.500658 0.913662 0 0.0343723 -0.0850487
56 1 0.250877 0.66601 0.913662 0 -0.0343723 -0.085043
ITEM: TIMESTEP
2
ITEM: NUMBER OF ATOMS
56
ITEM: BOX BOUNDS xy xz yz pp pp pp
-2.4244180321693420e+00 1.2156271994113922e+01 8.9406967163085938e-07
-8.2894563674926758e-03 5.5346975326538086e+00 -2.4532467722892761e+00
-4.5665502548217773e-03 1.9024526596069336e+01 -5.9604644775390625e-08
ITEM: ATOMS id type xs ys zs fx fy fz
1 1 0.579701 1.00344 0.138798 0 0.00282669 -0.021347
2 1 0.329701 0.163225 0.138798 0 -0.00282097 -0.0213642
3 1 0.246787 0.998001 0.277616 0 0.00224876 0.0353889
4 1 0.996786 0.168666 0.277616 0 -0.00225067 0.0353928
5 1 0.914184 0.999959 0.418113 0 -0.00967216 0.0499115
6 1 0.0797001 1.00344 0.138798 0 0.00282478 -0.0213509
7 1 0.995897 0.511646 0.0681714 0 -0.00851822 -0.0443325
8 1 0.8297 0.163225 0.138798 0 -0.00284004 -0.0213509
9 1 0.745897 0.65502 0.068171 0 0.00853348 -0.0443211
10 1 0.746786 0.998001 0.277616 0 0.00223923 0.0353718
11 1 0.664186 0.166707 0.418112 0 0.00966454 0.0499325
12 1 0.582063 -2.7086e-05 0.560966 0 -0.0015583 -0.00360489
13 1 0.332063 0.166693 0.560966 0 0.00157356 -0.0036068
14 1 0.249896 0.999739 0.703655 0 -0.0148048 -0.0923347
15 1 0.999896 0.166929 0.703654 0 0.0147972 -0.0923252
16 1 0.917044 0.998339 0.842862 0 -0.00230408 -0.00602722
17 1 0.663128 0.498339 0.207591 0 -0.00229836 0.00601578
18 1 0.496788 0.168666 0.277616 0 -0.00224495 0.0353661
19 1 0.413127 0.668329 0.207591 0 0.00228882 0.00601196
20 1 0.414185 0.99996 0.418112 0 -0.00966454 0.0499306
21 1 0.330275 0.499739 0.346798 0 -0.014801 0.0923252
22 1 0.164185 0.166708 0.418112 0 0.00965881 0.0499134
23 1 0.0802744 0.666928 0.346798 0 0.0148144 0.0923309
24 1 0.0820621 -2.664e-05 0.560966 0 -0.00156975 -0.00361443
25 1 0.998108 0.499973 0.489487 0 -0.00156975 0.00361633
26 1 0.832062 0.166694 0.560966 0 0.00157356 -0.00361443
27 1 0.748108 0.666694 0.489487 0 0.00157547 0.0036087
28 1 0.495899 0.511645 0.0681713 0 -0.00854301 -0.0443325
29 1 0.245898 0.655022 0.0681715 0 0.00853539 -0.0443344
30 1 0.163126 0.498339 0.207591 0 -0.00229645 0.00601196
31 1 0.913126 0.668329 0.207591 0 0.00230789 0.00601578
32 1 0.830274 0.499738 0.346798 0 -0.0147953 0.0923233
33 1 0.667046 0.168328 0.842862 0 0.00229836 -0.00602531
34 1 0.584274 0.0116471 0.982281 0 -0.00852776 0.044342
35 1 0.334273 0.155021 0.982281 0 0.00854111 0.0443363
36 1 0.749898 0.999738 0.703655 0 -0.0147858 -0.0923367
37 1 0.665987 0.49996 0.632341 0 -0.00967789 -0.0499191
38 1 0.499897 0.166929 0.703654 0 0.0148029 -0.0923252
39 1 0.415987 0.666707 0.63234 0 0.00966454 -0.0499134
40 1 0.417045 0.998339 0.842862 0 -0.00230026 -0.0060215
41 1 0.333385 0.498001 0.772837 0 0.00225449 -0.0353928
42 1 0.167044 0.168329 0.842862 0 0.00229073 -0.00601196
43 1 0.0833837 0.668666 0.772837 0 -0.00224495 -0.0353851
44 1 0.0842731 0.0116449 0.982281 0 -0.00853539 0.0443306
45 1 0.000470136 0.503443 0.911655 0 0.00281906 0.0213547
46 1 0.580276 0.666929 0.346798 0 0.0147991 0.0923214
47 1 0.498109 0.499973 0.489487 0 -0.00158882 0.00361252
48 1 0.248109 0.666694 0.489487 0 0.00157547 0.00361633
49 1 0.165986 0.49996 0.632341 0 -0.00966454 -0.0499306
50 1 0.915986 0.666707 0.632341 0 0.00966072 -0.0499325
51 1 0.833383 0.498001 0.772837 0 0.00225449 -0.0353584
52 1 0.834275 0.15502 0.982282 0 0.00852585 0.0443325
53 1 0.750472 0.663224 0.911655 0 -0.00281715 0.0213528
54 1 0.583385 0.668667 0.772837 0 -0.00226021 -0.0353775
55 1 0.500471 0.503443 0.911655 0 0.00283432 0.0213642
56 1 0.250471 0.663224 0.911655 0 -0.0028286 0.0213604
ITEM: TIMESTEP
3
ITEM: NUMBER OF ATOMS
56
ITEM: BOX BOUNDS xy xz yz pp pp pp
-2.4244180321693420e+00 1.2156271994113922e+01 8.9406967163085938e-07
-8.2894563674926758e-03 5.5346975326538086e+00 -2.4532467722892761e+00
-4.5665502548217773e-03 1.9024526596069336e+01 -5.9604644775390625e-08
ITEM: ATOMS id type xs ys zs fx fy fz
1 1 0.57972 1.00453 0.138888 0 -0.0101662 0.0252705
2 1 0.329719 0.162135 0.138888 0 0.0101528 0.0252876
3 1 0.24711 0.997618 0.27921 0 0.00221062 -0.0077877
4 1 0.997109 0.169049 0.27921 0 -0.0022068 -0.00777245
5 1 0.914434 0.999133 0.419346 0 -0.00249672 0.0277195
6 1 0.0797184 1.00453 0.138888 0 -0.0101509 0.0252781
7 1 0.9958 0.5125 0.0676885 0 -0.000919342 0.0140686
8 1 0.829718 0.162133 0.138888 0 0.01017 0.0252819
9 1 0.745799 0.654167 0.0676884 0 0.000915527 0.0140686
10 1 0.747109 0.997617 0.27921 0 0.00222778 -0.00776482
11 1 0.664436 0.167533 0.419346 0 0.00250244 0.02771
12 1 0.582047 -0.000164802 0.560883 0 -0.0130825 -0.0289898
13 1 0.332046 0.166832 0.560883 0 0.0130672 -0.0289917
14 1 0.249429 0.998418 0.701343 0 -0.000495911 -0.00292015
15 1 0.999428 0.16825 0.701343 0 0.000501633 -0.00291252
16 1 0.916789 0.997703 0.841601 0 0.0183315 0.0167332
17 1 0.663383 0.497703 0.208852 0 0.0183296 -0.0167313
18 1 0.49711 0.16905 0.27921 0 -0.00221252 -0.00776291
19 1 0.413382 0.668964 0.208852 0 -0.0183182 -0.0167255
20 1 0.414435 0.999134 0.419346 0 -0.00250435 0.0277348
21 1 0.330743 0.498418 0.349109 0 -0.000495911 0.00292206
22 1 0.164434 0.167533 0.419346 0 0.00250244 0.02775
23 1 0.080742 0.66825 0.34911 0 0.000492096 0.00291061
24 1 0.0820453 -0.000165178 0.560883 0 -0.0130596 -0.0289936
25 1 0.998125 0.499835 0.48957 0 -0.013073 0.0289745
26 1 0.832045 0.166833 0.560883 0 0.0130577 -0.0289936
27 1 0.748124 0.666833 0.48957 0 0.0130634 0.0289936
28 1 0.495801 0.512496 0.0676884 0 -0.000905991 0.0140858
29 1 0.2458 0.65417 0.0676886 0 0.000905991 0.0140781
30 1 0.163381 0.497703 0.208852 0 0.0183258 -0.0167198
31 1 0.913381 0.668965 0.208852 0 -0.0183468 -0.0167236
32 1 0.830742 0.498418 0.34911 0 -0.000509262 0.00292015
33 1 0.666791 0.168964 0.841601 0 -0.0183296 0.0167198
34 1 0.584372 0.0125001 0.982764 0 -0.000911713 -0.01408
35 1 0.334371 0.15417 0.982764 0 0.000904083 -0.0140762
36 1 0.74943 0.998418 0.701343 0 -0.000509262 -0.00291061
37 1 0.665738 0.499133 0.631107 0 -0.00248718 -0.0277252
38 1 0.49943 0.16825 0.701343 0 0.000495911 -0.00291061
39 1 0.415737 0.667533 0.631107 0 0.00250816 -0.0277328
40 1 0.41679 0.997703 0.841601 0 0.0183258 0.0167313
41 1 0.333062 0.497618 0.771242 0 0.00221062 0.00778961
42 1 0.166789 0.168964 0.841601 0 -0.0183182 0.0167103
43 1 0.0830611 0.66905 0.771243 0 -0.00222206 0.00777245
44 1 0.0843707 0.0124968 0.982764 0 -0.000905991 -0.0140781
45 1 0.000451888 0.504533 0.911565 0 -0.0101662 -0.02528
46 1 0.580743 0.66825 0.34911 0 0.000490189 0.00292397
47 1 0.498126 0.499833 0.48957 0 -0.0130501 0.0289955
48 1 0.248126 0.666833 0.48957 0 0.0130653 0.0289879
49 1 0.165736 0.499134 0.631107 0 -0.00250435 -0.0277309
50 1 0.915736 0.667533 0.631107 0 0.00250626 -0.0277271
51 1 0.833061 0.497618 0.771243 0 0.00221062 0.00775719
52 1 0.834373 0.154167 0.982765 0 0.000919342 -0.0140743
53 1 0.750454 0.662134 0.911565 0 0.0101604 -0.0252666
54 1 0.583062 0.669049 0.771243 0 -0.00220871 0.00777626
55 1 0.500453 0.504534 0.911565 0 -0.0101585 -0.0252819
56 1 0.250452 0.662134 0.911565 0 0.0101624 -0.0252876
ITEM: TIMESTEP
4
ITEM: NUMBER OF ATOMS
56
ITEM: BOX BOUNDS xy xz yz pp pp pp
-2.4244180321693420e+00 1.2156271994113922e+01 8.9406967163085938e-07
-8.2894563674926758e-03 5.5346975326538086e+00 -2.4532467722892761e+00
-4.5665502548217773e-03 1.9024526596069336e+01 -5.9604644775390625e-08
ITEM: ATOMS id type xs ys zs fx fy fz
1 1 0.579792 1.00418 0.139247 0 -0.0026226 0.00314522
2 1 0.329792 0.162485 0.139247 0 0.00263596 0.00313759
3 1 0.247126 0.997677 0.279292 0 0.00337601 0.00761223
4 1 0.997126 0.16899 0.279293 0 -0.0033741 0.0076046
5 1 0.914541 0.998917 0.419874 0 -0.00427818 -0.0052681
6 1 0.079791 1.00418 0.139247 0 -0.00263023 0.00312424
7 1 0.995827 0.512558 0.067825 0 -0.00580788 -0.00516319
8 1 0.829791 0.162485 0.139247 0 0.00263214 0.00313377
9 1 0.745827 0.654109 0.0678249 0 0.00580978 -0.0051651
10 1 0.747125 0.997677 0.279293 0 0.00336647 0.00760269
11 1 0.664542 0.16775 0.419875 0 0.00428963 -0.00525856
12 1 0.581964 -0.000799966 0.560474 0 -0.0067482 -0.00105476
13 1 0.331963 0.167467 0.560474 0 0.00674438 -0.00103951
14 1 0.249365 0.998238 0.701028 0 0.00206757 0.00317955
15 1 0.999365 0.16843 0.701028 0 -0.00206566 0.00317383
16 1 0.916805 0.998494 0.841681 0 0.00637054 -0.000900269
17 1 0.663366 0.498494 0.208771 0 0.00636292 0.000898361
18 1 0.497127 0.168991 0.279292 0 -0.00338554 0.00761223
19 1 0.413366 0.668173 0.208771 0 -0.00637436 0.000921249
20 1 0.414542 0.998917 0.419875 0 -0.00427628 -0.00526047
21 1 0.330807 0.498238 0.349424 0 0.00206184 -0.00317574
22 1 0.164541 0.16775 0.419875 0 0.00427818 -0.00527763
23 1 0.0808056 0.66843 0.349424 0 -0.00206757 -0.00317383
24 1 0.0819625 -0.000799358 0.560474 0 -0.0067482 -0.00103951
25 1 0.998208 0.4992 0.489979 0 -0.00675011 0.00104332
26 1 0.831962 0.167467 0.560474 0 0.00674057 -0.00104523
27 1 0.748207 0.667467 0.489979 0 0.00674629 0.00104713
28 1 0.495828 0.512555 0.0678251 0 -0.00580025 -0.00517464
29 1 0.245828 0.654111 0.0678252 0 0.00580025 -0.00516701
30 1 0.163365 0.498494 0.208771 0 0.00637627 0.00091362
31 1 0.913365 0.668173 0.208771 0 -0.00638008 0.000905991
32 1 0.830805 0.498237 0.349424 0 0.00207138 -0.00318718
33 1 0.666807 0.168173 0.841682 0 -0.00637245 -0.000894547
34 1 0.584344 0.0125583 0.982628 0 -0.00580597 0.00516319
35 1 0.334344 0.154111 0.982628 0 0.00579643 0.00516701
36 1 0.749366 0.998237 0.701028 0 0.00205994 0.00318909
37 1 0.665631 0.498917 0.630578 0 -0.00428772 0.00527
38 1 0.499366 0.16843 0.701029 0 -0.00206947 0.00317192
39 1 0.41563 0.66775 0.630578 0 0.00428009 0.00526237
40 1 0.416807 0.998495 0.841682 0 0.00637245 -0.000907898
41 1 0.333045 0.497677 0.77116 0 0.00337601 -0.00761032
42 1 0.166806 0.168173 0.841682 0 -0.00637817 -0.000909805
43 1 0.0830445 0.66899 0.77116 0 -0.00337219 -0.00761032
44 1 0.0843431 0.0125551 0.982628 0 -0.00580215 0.00517082
45 1 0.000379261 0.504181 0.911206 0 -0.00263214 -0.00314903
46 1 0.580807 0.66843 0.349424 0 -0.00205994 -0.00317764
47 1 0.498209 0.4992 0.489979 0 -0.00673866 0.00104141
48 1 0.248208 0.667467 0.489979 0 0.00674248 0.00102615
49 1 0.16563 0.498918 0.630578 0 -0.004282 0.00527382
50 1 0.915629 0.667749 0.630578 0 0.00429344 0.0052681
51 1 0.833044 0.497677 0.77116 0 0.00337601 -0.00760841
52 1 0.834345 0.154109 0.982628 0 0.0058136 0.00516319
53 1 0.750381 0.662485 0.911206 0 0.00262642 -0.00313568
54 1 0.583046 0.66899 0.77116 0 -0.00337029 -0.00760841
55 1 0.500381 0.504183 0.911206 0 -0.00262642 -0.00312614
56 1 0.25038 0.662485 0.911206 0 0.00263977 -0.00313377
ITEM: TIMESTEP
5
ITEM: NUMBER OF ATOMS
56
ITEM: BOX BOUNDS xy xz yz pp pp pp
-2.4244180321693420e+00 1.2156271994113922e+01 8.9406967163085938e-07
-8.2894563674926758e-03 5.5346975326538086e+00 -2.4532467722892761e+00
-4.5665502548217773e-03 1.9024526596069336e+01 -5.9604644775390625e-08
ITEM: ATOMS id type xs ys zs fx fy fz
1 1 0.579813 1.00396 0.139347 0 0.000640869 0.00278473
2 1 0.329812 0.162705 0.139347 0 -0.000644684 0.00279999
3 1 0.24716 0.997919 0.279456 0 0.00180244 -0.00135803
4 1 0.997159 0.168748 0.279456 0 -0.00180435 -0.00136948
5 1 0.91453 0.998595 0.41982 0 -0.00178146 0.000692368
6 1 0.0798112 1.00396 0.139347 0 0.000640869 0.00281143
7 1 0.995809 0.512157 0.0677335 0 -0.000947952 0.000440598
8 1 0.829811 0.162704 0.139347 0 -0.000650406 0.00279427
9 1 0.745808 0.65451 0.0677333 0 0.000951767 0.000450134
10 1 0.747158 0.997919 0.279456 0 0.00180626 -0.00135994
11 1 0.664532 0.168072 0.419821 0 0.0017662 0.000677109
12 1 0.581951 -0.00133676 0.560411 0 -0.00107765 0.00246429
13 1 0.331951 0.168003 0.560411 0 0.00109673 0.00244904
14 1 0.249372 0.998364 0.701061 0 0.000553131 -0.00186539
15 1 0.999371 0.168304 0.701061 0 -0.000549316 -0.0018692
16 1 0.916803 0.99902 0.841671 0 -0.00187874 0.00101662
17 1 0.663368 0.49902 0.208781 0 -0.0018692 -0.00101662
18 1 0.49716 0.168748 0.279456 0 -0.00180054 -0.00135231
19 1 0.413368 0.667647 0.208782 0 0.00187492 -0.00102425
20 1 0.414531 0.998596 0.419821 0 -0.00177956 0.000680923
21 1 0.3308 0.498364 0.349391 0 0.000553131 0.00187111
22 1 0.16453 0.168071 0.419821 0 0.00178146 0.00069046
23 1 0.080799 0.668303 0.349391 0 -0.000556946 0.00186539
24 1 0.0819498 -0.00133605 0.560411 0 -0.00110245 0.00244141
25 1 0.99822 0.498663 0.490041 0 -0.00108337 -0.00244141
26 1 0.831949 0.168003 0.560411 0 0.00110245 0.00245857
27 1 0.74822 0.668004 0.490042 0 0.00108337 -0.00245094
28 1 0.49581 0.512155 0.0677334 0 -0.00094223 0.000453949
29 1 0.24581 0.654512 0.0677336 0 0.000951767 0.000448227
30 1 0.163367 0.499021 0.208782 0 -0.0018692 -0.00102234
31 1 0.913367 0.667646 0.208781 0 0.00187683 -0.00101662
32 1 0.830799 0.498364 0.349391 0 0.000555038 0.00187683
33 1 0.666805 0.167646 0.841672 0 0.00186729 0.00101089
34 1 0.584363 0.0121577 0.982719 0 -0.00094986 -0.000448227
35 1 0.334362 0.154511 0.982719 0 0.000953674 -0.00044632
36 1 0.749373 0.998363 0.701062 0 0.000555038 -0.00187874
37 1 0.665642 0.498595 0.630632 0 -0.00177574 -0.00069046
38 1 0.499373 0.168303 0.701061 0 -0.000555038 -0.00186348
39 1 0.415641 0.668071 0.630632 0 0.00177574 -0.000686646
40 1 0.416804 0.999021 0.841671 0 -0.00186348 0.00101662
41 1 0.333012 0.49792 0.770997 0 0.00180626 0.00136375
42 1 0.166804 0.167646 0.841671 0 0.00188065 0.00100899
43 1 0.0830114 0.668748 0.770997 0 -0.00180626 0.00135422
44 1 0.0843616 0.0121548 0.982719 0 -0.00094986 -0.000452042
45 1 0.000358917 0.503961 0.911105 0 0.000638962 -0.00278854
46 1 0.5808 0.668304 0.349391 0 -0.000551224 0.0018692
47 1 0.498222 0.498664 0.490042 0 -0.00109863 -0.00245857
48 1 0.248221 0.668004 0.490041 0 0.0010891 -0.00243568
49 1 0.16564 0.498596 0.630632 0 -0.00177574 -0.000694275
50 1 0.91564 0.668072 0.630632 0 0.00176048 -0.000682831
51 1 0.833011 0.497919 0.770997 0 0.00180054 0.00135803
52 1 0.834363 0.154511 0.98272 0 0.00094986 -0.00043869
53 1 0.750361 0.662704 0.911106 0 -0.000642776 -0.00279617
54 1 0.583013 0.668748 0.770997 0 -0.00180244 0.00136757
55 1 0.50036 0.503964 0.911106 0 0.000637054 -0.0028038
56 1 0.250359 0.662705 0.911106 0 -0.000642776 -0.00280571
ITEM: TIMESTEP
6
ITEM: NUMBER OF ATOMS
56
ITEM: BOX BOUNDS xy xz yz pp pp pp
-2.4244180321693420e+00 1.2156271994113922e+01 8.9406967163085938e-07
-8.2894563674926758e-03 5.5346975326538086e+00 -2.4532467722892761e+00
-4.5665502548217773e-03 1.9024526596069336e+01 -5.9604644775390625e-08
ITEM: ATOMS id type xs ys zs fx fy fz
1 1 0.579821 1.00397 0.139391 0 -0.000318527 -0.000339508
2 1 0.329821 0.162694 0.139391 0 0.000320435 -0.000333786
3 1 0.247159 0.998018 0.279451 0 -9.72748e-05 0.000278473
4 1 0.997158 0.168649 0.279451 0 9.34601e-05 0.000274658
5 1 0.914531 0.998491 0.419825 0 -3.43323e-05 0.00094986
6 1 0.0798202 1.00397 0.139391 0 -0.000322342 -0.000339508
7 1 0.995808 0.512084 0.067732 0 -0.000112534 -6.48499e-05
8 1 0.82982 0.162693 0.139391 0 0.000335693 -0.000335693
9 1 0.745808 0.654584 0.067732 0 0.000106812 -6.29425e-05
10 1 0.747157 0.998018 0.279451 0 -9.15527e-05 0.000272751
11 1 0.664532 0.168175 0.419825 0 3.62396e-05 0.000953674
12 1 0.581957 -0.00142665 0.560438 0 -0.000541687 0.000123978
13 1 0.331956 0.168094 0.560438 0 0.000537872 0.000125885
14 1 0.249367 0.998399 0.70104 0 -7.24792e-05 0.000312805
15 1 0.999367 0.16827 0.70104 0 6.48499e-05 0.000310898
16 1 0.916806 0.998978 0.841684 0 -0.000444412 -0.000394821
17 1 0.663366 0.498978 0.208769 0 -0.000444412 0.000404358
18 1 0.497159 0.168649 0.279451 0 9.53674e-05 0.000265121
19 1 0.413366 0.667689 0.208769 0 0.000452042 0.000398636
20 1 0.414532 0.998492 0.419825 0 -4.19617e-05 0.000959396
21 1 0.330804 0.498398 0.349413 0 -7.05719e-05 -0.000326157
22 1 0.164531 0.168176 0.419825 0 3.43323e-05 0.000967026
23 1 0.0808033 0.668269 0.349413 0 7.05719e-05 -0.000318527
24 1 0.0819552 -0.00142703 0.560438 0 -0.00053215 0.000112534
25 1 0.998215 0.498573 0.490015 0 -0.000543594 -0.000125885
26 1 0.831955 0.168094 0.560438 0 0.000535965 0.000116348
27 1 0.748214 0.668094 0.490015 0 0.000545502 -0.000118256
28 1 0.49581 0.512081 0.0677321 0 -0.000112534 -6.10352e-05
29 1 0.245809 0.654585 0.0677322 0 0.000114441 -7.24792e-05
30 1 0.163365 0.498979 0.208769 0 -0.000452042 0.000392914
31 1 0.913364 0.667688 0.208769 0 0.000452042 0.000389099
32 1 0.830803 0.498398 0.349413 0 -6.67572e-05 -0.000314713
33 1 0.666807 0.167688 0.841684 0 0.000448227 -0.000398636
34 1 0.584363 0.0120841 0.982721 0 -0.000110626 7.05719e-05
35 1 0.334362 0.154585 0.982721 0 0.000110626 6.48499e-05
36 1 0.749369 0.998398 0.70104 0 -4.95911e-05 0.000322342
37 1 0.665641 0.498491 0.630628 0 -4.00543e-05 -0.00094986
38 1 0.499368 0.168269 0.70104 0 6.67572e-05 0.000318527
39 1 0.41564 0.668175 0.630628 0 3.8147e-05 -0.000957489
40 1 0.416807 0.998979 0.841684 0 -0.000448227 -0.000389099
41 1 0.333013 0.498019 0.771002 0 -0.000101089 -0.000274658
42 1 0.166806 0.167688 0.841683 0 0.000450134 -0.000387192
43 1 0.0830123 0.668649 0.771001 0 0.000101089 -0.000268936
44 1 0.0843619 0.0120813 0.982721 0 -0.000110626 6.10352e-05
45 1 0.000350031 0.503972 0.911061 0 -0.000318527 0.000337601
46 1 0.580805 0.668269 0.349413 0 5.91278e-05 -0.000320435
47 1 0.498216 0.498573 0.490015 0 -0.00053978 -0.00012207
48 1 0.248216 0.668094 0.490015 0 0.000534058 -0.000118256
49 1 0.165639 0.498492 0.630628 0 -3.43323e-05 -0.000959396
50 1 0.915639 0.668175 0.630627 0 4.57764e-05 -0.000961304
51 1 0.833012 0.498018 0.771002 0 -9.72748e-05 -0.000272751
52 1 0.834364 0.154584 0.982721 0 0.000104904 7.05719e-05
53 1 0.750352 0.662693 0.911062 0 0.000322342 0.000329971
54 1 0.583014 0.668649 0.771002 0 8.39233e-05 -0.000274658
55 1 0.500351 0.503975 0.911062 0 -0.000335693 0.000339508
56 1 0.25035 0.662694 0.911061 0 0.000324249 0.000339508
ITEM: TIMESTEP
7
ITEM: NUMBER OF ATOMS
56
ITEM: BOX BOUNDS xy xz yz pp pp pp
-2.4244180321693420e+00 1.2156271994113922e+01 8.9406967163085938e-07
-8.2894563674926758e-03 5.5346975326538086e+00 -2.4532467722892761e+00
-4.5665502548217773e-03 1.9024526596069336e+01 -5.9604644775390625e-08
ITEM: ATOMS id type xs ys zs fx fy fz
1 1 0.579821 1.00395 0.139389 0 -0.000196457 1.33514e-05
2 1 0.329821 0.162716 0.139389 0 0.00019455 3.8147e-06
3 1 0.24716 0.998022 0.279457 0 -0.000154495 0.00037384
4 1 0.997159 0.168645 0.279457 0 0.000154495 0.00038147
5 1 0.914535 0.998477 0.419846 0 -1.52588e-05 -6.86646e-05
6 1 0.0798197 1.00395 0.139389 0 -0.000185013 1.52588e-05
7 1 0.995808 0.512067 0.0677305 0 4.76837e-05 0.000329971
8 1 0.829819 0.162716 0.139389 0 0.000171661 1.14441e-05
9 1 0.745808 0.6546 0.0677305 0 -4.19617e-05 0.000322342
10 1 0.747158 0.998022 0.279456 0 -0.000148773 0.000383377
11 1 0.664537 0.168189 0.419846 0 1.52588e-05 -7.62939e-05
12 1 0.581958 -0.00147598 0.560444 0 -2.28882e-05 0.000190735
13 1 0.331957 0.168143 0.560444 0 2.09808e-05 0.000185013
14 1 0.249368 0.998397 0.701044 0 -0.000146866 -0.000120163
15 1 0.999368 0.168271 0.701044 0 0.000152588 -0.000116348
16 1 0.916804 0.998941 0.841677 0 5.14984e-05 8.01086e-05
17 1 0.663367 0.498941 0.208776 0 5.72205e-05 -8.7738e-05
18 1 0.49716 0.168645 0.279457 0 0.000152588 0.000379562
19 1 0.413367 0.667726 0.208776 0 -5.34058e-05 -9.34601e-05
20 1 0.414536 0.998477 0.419846 0 -2.09808e-05 -8.58307e-05
21 1 0.330803 0.498397 0.349408 0 -0.000141144 0.0001297
22 1 0.164535 0.168189 0.419846 0 9.53674e-06 -8.96454e-05
23 1 0.0808024 0.66827 0.349409 0 0.000152588 0.000112534
24 1 0.0819563 -0.00147579 0.560443 0 -1.90735e-05 0.000200272
25 1 0.998214 0.498523 0.490009 0 -1.90735e-05 -0.00018692
26 1 0.831956 0.168143 0.560443 0 1.71661e-05 0.000179291
27 1 0.748213 0.668144 0.490009 0 1.14441e-05 -0.000202179
28 1 0.495809 0.512065 0.0677307 0 4.57764e-05 0.000318527
29 1 0.245809 0.654601 0.0677305 0 -5.14984e-05 0.000331879
30 1 0.163366 0.498942 0.208776 0 5.53131e-05 -8.39233e-05
31 1 0.913366 0.667726 0.208776 0 -4.19617e-05 -8.01086e-05
32 1 0.830802 0.498397 0.349409 0 -0.000154495 0.000131607
33 1 0.666806 0.167725 0.841677 0 -5.72205e-05 9.72748e-05
34 1 0.584364 0.0120681 0.982722 0 3.24249e-05 -0.000337601
35 1 0.334363 0.154601 0.982722 0 -4.57764e-05 -0.000314713
36 1 0.74937 0.998398 0.701044 0 -0.000171661 -0.000127792
37 1 0.665637 0.498477 0.630607 0 -1.90735e-06 7.43866e-05
38 1 0.499369 0.16827 0.701044 0 0.000150681 -0.000127792
39 1 0.415636 0.668189 0.630607 0 1.33514e-05 8.58307e-05
40 1 0.416806 0.998942 0.841677 0 4.76837e-05 7.62939e-05
41 1 0.333012 0.498022 0.770996 0 -0.000150681 -0.000377655
42 1 0.166805 0.167726 0.841677 0 -4.95911e-05 8.01086e-05
43 1 0.0830113 0.668646 0.770996 0 0.000146866 -0.000371933
44 1 0.0843622 0.0120652 0.982722 0 5.14984e-05 -0.000322342
45 1 0.000350525 0.50395 0.911064 0 -0.000196457 -7.62939e-06
46 1 0.580804 0.66827 0.349409 0 0.000160217 0.000131607
47 1 0.498215 0.498523 0.490009 0 -2.09808e-05 -0.000185013
48 1 0.248215 0.668143 0.490009 0 2.28882e-05 -0.000192642
49 1 0.165635 0.498478 0.630607 0 -2.09808e-05 8.01086e-05
50 1 0.915635 0.66819 0.630606 0 1.33514e-05 8.2016e-05
51 1 0.833011 0.498022 0.770996 0 -0.000135422 -0.000379562
52 1 0.834364 0.1546 0.982723 0 -5.34058e-05 -0.000337601
53 1 0.750352 0.662715 0.911064 0 0.000192642 7.62939e-06
54 1 0.583013 0.668644 0.770996 0 0.000164032 -0.000389099
55 1 0.500352 0.503952 0.911064 0 -0.000171661 -1.33514e-05
56 1 0.250351 0.662716 0.911064 0 0.000183105 -1.33514e-05
ITEM: TIMESTEP
8
ITEM: NUMBER OF ATOMS
56
ITEM: BOX BOUNDS xy xz yz pp pp pp
-2.4244180321693420e+00 1.2156271994113922e+01 8.9406967163085938e-07
-8.2894563674926758e-03 5.5346975326538086e+00 -2.4532467722892761e+00
-4.5665502548217773e-03 1.9024526596069336e+01 -5.9604644775390625e-08
ITEM: ATOMS id type xs ys zs fx fy fz
1 1 0.579821 1.00394 0.139389 0 3.8147e-06 9.72748e-05
2 1 0.329821 0.162727 0.139389 0 -1.90735e-06 9.34601e-05
3 1 0.247161 0.998016 0.279462 0 -6.86646e-05 4.76837e-05
4 1 0.99716 0.168652 0.279462 0 7.62939e-05 5.53131e-05
5 1 0.914535 0.998475 0.419847 0 -4.00543e-05 1.14441e-05
6 1 0.0798197 1.00394 0.139389 0 -5.72205e-06 0.000101089
7 1 0.995809 0.512068 0.0677346 0 -7.43866e-05 3.24249e-05
8 1 0.829819 0.162726 0.139389 0 1.14441e-05 9.53674e-05
9 1 0.745808 0.6546 0.0677345 0 6.67572e-05 4.3869e-05
10 1 0.747159 0.998016 0.279462 0 -8.01086e-05 6.67572e-05
11 1 0.664537 0.168192 0.419848 0 3.05176e-05 1.90735e-05
12 1 0.581958 -0.00148277 0.560447 0 4.19617e-05 -5.72205e-06
13 1 0.331958 0.16815 0.560447 0 -4.57764e-05 1.14441e-05
14 1 0.249368 0.99839 0.701043 0 -4.95911e-05 -5.53131e-05
15 1 0.999368 0.168278 0.701043 0 5.34058e-05 -5.53131e-05
16 1 0.916804 0.998939 0.841677 0 -1.33514e-05 -7.82013e-05
17 1 0.663367 0.498939 0.208776 0 -1.90735e-05 7.62939e-05
18 1 0.497161 0.168652 0.279462 0 7.43866e-05 6.10352e-05
19 1 0.413367 0.667728 0.208776 0 5.72205e-06 7.62939e-05
20 1 0.414537 0.998475 0.419848 0 -1.90735e-05 1.14441e-05
21 1 0.330804 0.49839 0.34941 0 -5.53131e-05 5.72205e-05
22 1 0.164536 0.168191 0.419848 0 3.8147e-05 1.33514e-05
23 1 0.0808026 0.668277 0.349409 0 4.76837e-05 4.95911e-05
24 1 0.0819569 -0.00148233 0.560446 0 4.19617e-05 1.33514e-05
25 1 0.998213 0.498517 0.490006 0 4.76837e-05 0
26 1 0.831957 0.16815 0.560446 0 -4.00543e-05 2.09808e-05
27 1 0.748213 0.66815 0.490006 0 -4.19617e-05 -3.8147e-06
28 1 0.49581 0.512065 0.0677346 0 -7.05719e-05 4.19617e-05