ITEM: TIMESTEP
0
ITEM: NUMBER OF ATOMS
56
ITEM: BOX BOUNDS xy xz yz pp pp pp
-2.9923772971122955e+00 1.2163911692441133e+01 1.5526132515564727e-08
-3.0061665652343075e-03 5.5294143007778995e+00 -3.0135654784973229e+00
7.7232233150646462e-04 1.9019187752468508e+01 2.1812666742635317e-08
ITEM: ATOMS id type xs ys zs fx fy fz
1 1 0.583318 3.09294e-05 0.132367 0 0.0242859 0.296508
2 1 0.333319 0.166637 0.132367 0 -0.0243057 0.296517
3 1 0.256605 1.50434e-05 0.275226 0 -0.00602701 0.0043864
4 1 0.00660528 0.166653 0.275226 0 0.00601714 0.00438758
5 1 0.929839 1.01858e-05 0.418082 0 -0.000962679 -0.000284454
6 1 0.0833186 3.06084e-05 0.132367 0 0.0242943 0.296514
7 1 0.996648 0.500062 0.06094 0 0.82936 0.786816
8 1 0.833319 0.166637 0.132367 0 -0.0242969 0.296526
9 1 0.746649 0.666605 0.06094 0 -0.829345 0.786855
10 1 0.756606 1.49384e-05 0.275226 0 -0.00602312 0.00439171
11 1 0.679838 0.166657 0.418083 0 0.000967514 -0.000285836
12 1 0.603062 1.60347e-05 0.560942 0 -0.00111972 0.000327604
13 1 0.353063 0.166652 0.560941 0 0.00110195 0.000341055
14 1 0.276293 1.61665e-05 0.703801 0 -0.0017443 0.00177499
15 1 0.0262934 0.166652 0.703801 0 0.00171771 0.00176526
16 1 0.949538 1.72772e-05 0.846652 0 -0.0163661 -0.0170586
17 1 0.669978 0.500017 0.203801 0 -0.0163535 0.0170688
18 1 0.506605 0.166653 0.275226 0 0.00599835 0.00438641
19 1 0.419979 0.66665 0.203801 0 0.0163696 0.0170705
20 1 0.429839 1.09165e-05 0.418082 0 -0.000983387 -0.000279308
21 1 0.343223 0.500016 0.346652 0 -0.00173054 -0.00176883
22 1 0.179839 0.166657 0.418082 0 0.000970174 -0.000281193
23 1 0.0932227 0.666651 0.346652 0 0.00174215 -0.00177656
24 1 0.103063 1.5722e-05 0.560941 0 -0.00110999 0.000344151
25 1 0.0164526 0.500016 0.489511 0 -0.00110717 -0.000342854
26 1 0.853064 0.166652 0.560941 0 0.00110277 0.00035775
27 1 0.766454 0.666651 0.489511 0 0.00111085 -0.000335175
28 1 0.496648 0.500061 0.0609401 0 0.829393 0.78684
29 1 0.246648 0.666605 0.06094 0 -0.829372 0.786842
30 1 0.169979 0.500017 0.203801 0 -0.0163541 0.017072
31 1 0.919979 0.66665 0.203801 0 0.0163506 0.017073
32 1 0.843224 0.500016 0.346652 0 -0.00174195 -0.00177678
33 1 0.699536 0.16665 0.846652 0 0.0163612 -0.0170857
34 1 0.622868 6.23935e-05 0.989513 0 0.829348 -0.786805
35 1 0.372868 0.166605 0.989513 0 -0.829385 -0.786848
36 1 0.776292 1.60929e-05 0.703801 0 -0.0017424 0.00176947
37 1 0.689676 0.50001 0.632371 0 -0.000968703 0.000261295
38 1 0.526293 0.166651 0.703801 0 0.00173537 0.00177798
39 1 0.439677 0.666656 0.63237 0 0.000976803 0.000276042
40 1 0.449537 1.72431e-05 0.846652 0 -0.0163646 -0.0170729
41 1 0.36291 0.500015 0.775227 0 -0.00601421 -0.00438463
42 1 0.199537 0.16665 0.846652 0 0.0163506 -0.0170705
43 1 0.11291 0.666652 0.775227 0 0.006029 -0.00438801
44 1 0.122868 6.17797e-05 0.989513 0 0.82938 -0.786839
45 1 0.036198 0.50003 0.918085 0 0.0242988 -0.296492
46 1 0.593222 0.666651 0.346652 0 0.00175096 -0.00176658
47 1 0.516453 0.500015 0.489511 0 -0.00108591 -0.000335558
48 1 0.266453 0.666651 0.489511 0 0.00111257 -0.000340556
49 1 0.189677 0.500011 0.63237 0 -0.000968146 0.000277377
50 1 0.939678 0.666656 0.63237 0 0.00098672 0.00028937
51 1 0.862911 0.500015 0.775227 0 -0.0060128 -0.00438039
52 1 0.872867 0.166605 0.989513 0 -0.829358 -0.786849
53 1 0.786196 0.666636 0.918086 0 -0.0242949 -0.296555
54 1 0.61291 0.666653 0.775227 0 0.00601192 -0.00437775
55 1 0.536197 0.50003 0.918085 0 0.0243052 -0.296515
56 1 0.286197 0.666636 0.918085 0 -0.0242932 -0.29652
ITEM: TIMESTEP
10
ITEM: NUMBER OF ATOMS
56
ITEM: BOX BOUNDS xy xz yz pp pp pp
-2.9923772971122955e+00 1.2163911692441133e+01 1.5526132515564727e-08
-3.0061665652343075e-03 5.5294143007778995e+00 -3.0135654784973229e+00
7.7232233150646462e-04 1.9019187752468508e+01 2.1812666742635317e-08
ITEM: ATOMS id type xs ys zs fx fy fz
1 1 0.584508 0.0143195 0.137163 0 0.000183771 -4.51588e-05
2 1 0.334509 0.152348 0.137163 0 -0.00018401 -4.82642e-05
3 1 0.257409 -0.000998328 0.278465 0 0.000167319 -0.000267814
4 1 0.00740926 0.167665 0.278465 0 -0.000167265 -0.000268753
5 1 0.930182 -0.00129942 0.419463 0 4.10177e-05 0.000138499
6 1 0.0845088 0.0143181 0.137163 0 0.00018137 -5.09756e-05
7 1 0.997541 0.540884 0.0645361 0 0.000120351 -0.000142989
8 1 0.83451 0.152348 0.137163 0 -0.000182816 -4.80223e-05
9 1 0.747542 0.625782 0.0645362 0 -0.000120508 -0.000145533
10 1 0.75741 -0.000998092 0.278465 0 0.00016598 -0.000269743
11 1 0.68018 0.167967 0.419463 0 -3.98653e-05 0.000137731
12 1 0.602967 -0.00126722 0.560557 0 -6.04571e-05 -0.00027119
13 1 0.352968 0.167934 0.560558 0 6.09441e-05 -0.00027077
14 1 0.275774 -0.00124053 0.701707 0 8.03563e-05 -0.000146916
15 1 0.0257739 0.167907 0.701707 0 -8.10045e-05 -0.000143707
16 1 0.948649 0.00224703 0.843069 0 0.00021088 0.000135113
17 1 0.670867 0.502247 0.207384 0 0.000213123 -0.000134836
18 1 0.507409 0.167665 0.278465 0 -0.000166494 -0.000270149
19 1 0.420869 0.66442 0.207384 0 -0.000211616 -0.000134901
20 1 0.430182 -0.0012997 0.419463 0 4.12225e-05 0.00013726
21 1 0.343742 0.49876 0.348746 0 7.97305e-05 0.000144453
22 1 0.180181 0.167967 0.419463 0 -4.13936e-05 0.000137362
23 1 0.0937422 0.667907 0.348746 0 -8.0211e-05 0.000146932
24 1 0.102968 -0.0012672 0.560558 0 -6.01466e-05 -0.000273577
25 1 0.0165479 0.498733 0.489895 0 -6.22114e-05 0.000268
26 1 0.852969 0.167934 0.560558 0 6.03576e-05 -0.000273896
27 1 0.766549 0.667935 0.489895 0 6.11912e-05 0.000271505
28 1 0.497541 0.540886 0.0645358 0 0.000118722 -0.000145304
29 1 0.247541 0.625781 0.064536 0 -0.000115735 -0.000147721
30 1 0.170868 0.502246 0.207384 0 0.000212584 -0.000135084
31 1 0.920869 0.66442 0.207384 0 -0.000212293 -0.000136995
32 1 0.843743 0.49876 0.348746 0 8.10127e-05 0.000148286
33 1 0.698647 0.164421 0.843069 0 -0.000213971 0.000138008
34 1 0.621976 0.040885 0.985917 0 0.000119411 0.000141628
35 1 0.371975 0.125781 0.985917 0 -0.000118116 0.000147278
36 1 0.775773 -0.0012405 0.701707 0 7.97475e-05 -0.000146523
37 1 0.689333 0.4987 0.63099 0 4.16383e-05 -0.000135724
38 1 0.525774 0.167907 0.701707 0 -8.15486e-05 -0.000147902
39 1 0.439334 0.667967 0.63099 0 -4.07728e-05 -0.000135876
40 1 0.448648 0.00224629 0.843069 0 0.00021057 0.00013759
41 1 0.362106 0.499002 0.771988 0 0.000167656 0.000269981
42 1 0.198648 0.16442 0.843069 0 -0.000212258 0.000132177
43 1 0.112106 0.667665 0.771988 0 -0.000166376 0.000267683
44 1 0.121976 0.0408868 0.985917 0 0.000116084 0.000150632
45 1 0.0350079 0.51432 0.91329 0 0.000185235 4.849e-05
46 1 0.593741 0.667907 0.348746 0 -8.16237e-05 0.000145573
47 1 0.516548 0.498733 0.489895 0 -6.19187e-05 0.000272202
48 1 0.266548 0.667935 0.489895 0 6.16446e-05 0.000272865
49 1 0.189334 0.4987 0.63099 0 4.10397e-05 -0.000135348
50 1 0.939335 0.667967 0.63099 0 -3.97984e-05 -0.000134211
51 1 0.862107 0.499002 0.771988 0 0.000168075 0.000266291
52 1 0.871974 0.125783 0.985916 0 -0.000120696 0.000144816
53 1 0.785006 0.652349 0.913289 0 -0.000181617 4.8478e-05
54 1 0.612106 0.667665 0.771988 0 -0.000165987 0.00026795
55 1 0.535007 0.514318 0.91329 0 0.000183281 4.52407e-05
56 1 0.285007 0.652348 0.91329 0 -0.000183595 4.57731e-05
