ITEM: TIMESTEP
0
ITEM: NUMBER OF ATOMS
32
ITEM: BOX BOUNDS xy xz yz pp pp pp
-4.0532350540161133e-03 6.4008854031562805e+00 0.0000000000000000e+00
-9.1640949249267578e-03 8.9855923056602478e+00 0.0000000000000000e+00
-4.7960281372070312e-02 2.0773346722126007e+01 3.4559970498085022e+00
ITEM: ATOMS id type xs ys zs fx fy fz
1 1 0.999986 0.628876 0.0597509 0 0 0.0255527
2 1 0.499986 0.628876 0.0597509 0 0 0.0255527
3 1 0.249986 0.128876 0.0597519 0 0 0.0254936
4 1 0.749986 0.128876 0.0597519 0 0 0.0254936
5 1 0.999986 0.472897 0.309753 0 0 0.000562668
6 1 0.249986 0.385235 0.184753 0 0 0.00546265
7 1 0.749986 0.385235 0.184753 0 0 0.00546265
8 1 0.499986 0.472897 0.309753 0 0 0.000562668
9 1 0.999986 0.885233 0.184753 0 0 0.00548363
10 1 0.249986 0.972897 0.309753 0 0 0.000513077
11 1 0.499986 0.885233 0.184753 0 0 0.00548363
12 1 0.749986 0.972897 0.309753 0 0 0.000513077
13 1 0.999986 0.316894 0.559749 0 0 6.10352e-05
14 1 0.499986 0.316894 0.559749 0 0 6.10352e-05
15 1 0.249986 0.816892 0.55975 0 0 4.95911e-05
16 1 0.749986 0.816892 0.55975 0 0 4.95911e-05
17 1 0.249986 0.229244 0.434752 0 0 -6.29425e-05
18 1 0.749986 0.229244 0.434752 0 0 -6.29425e-05
19 1 0.999986 0.729244 0.434752 0 0 -3.8147e-05
20 1 0.499986 0.729244 0.434752 0 0 -3.8147e-05
21 1 0.999986 0.160894 0.809748 0 0 -0.00547791
22 1 0.249986 0.0732364 0.684748 0 0 -0.000543594
23 1 0.499986 0.160894 0.809748 0 0 -0.00547791
24 1 0.749986 0.0732364 0.684748 0 0 -0.000543594
25 1 0.999986 0.573236 0.684749 0 0 -0.000566483
26 1 0.249986 0.660895 0.809748 0 0 -0.00546455
27 1 0.749986 0.660895 0.809748 0 0 -0.00546455
28 1 0.499986 0.573236 0.684749 0 0 -0.000566483
29 1 0.249986 0.917249 0.934749 0 0 -0.0254898
30 1 0.749986 0.917249 0.934749 0 0 -0.0254898
31 1 0.999986 0.41725 0.93475 0 0 -0.0255356
32 1 0.499986 0.41725 0.93475 0 0 -0.0255356
ITEM: TIMESTEP
1
ITEM: NUMBER OF ATOMS
32
ITEM: BOX BOUNDS xy xz yz pp pp pp
-4.0532350540161133e-03 6.4008854031562805e+00 0.0000000000000000e+00
-9.1640949249267578e-03 8.9855923056602478e+00 0.0000000000000000e+00
-4.7960281372070312e-02 2.0773346722126007e+01 3.4559970498085022e+00
ITEM: ATOMS id type xs ys zs fx fy fz
1 1 0.999986 0.628636 0.0601356 0 0 -0.00295258
2 1 0.499986 0.628636 0.0601356 0 0 -0.00295258
3 1 0.249986 0.128637 0.0601357 0 0 -0.00296211
4 1 0.749986 0.128637 0.0601357 0 0 -0.00296211
5 1 0.999986 0.472891 0.309761 0 0 0.00270271
6 1 0.249986 0.385183 0.184836 0 0 0.0105362
7 1 0.749986 0.385183 0.184836 0 0 0.0105362
8 1 0.499986 0.472891 0.309761 0 0 0.00270271
9 1 0.999986 0.885182 0.184836 0 0 0.01054
10 1 0.249986 0.972892 0.309761 0 0 0.00269699
11 1 0.499986 0.885182 0.184836 0 0 0.01054
12 1 0.749986 0.972892 0.309761 0 0 0.00269699
13 1 0.999986 0.316893 0.55975 0 0 -0.000274658
14 1 0.499986 0.316893 0.55975 0 0 -0.000274658
15 1 0.249986 0.816892 0.55975 0 0 -0.000291824
16 1 0.749986 0.816892 0.55975 0 0 -0.000291824
17 1 0.249986 0.229245 0.434751 0 0 0.000274658
18 1 0.749986 0.229245 0.434751 0 0 0.000274658
19 1 0.999986 0.729244 0.434751 0 0 0.000276566
20 1 0.499986 0.729244 0.434751 0 0 0.000276566
21 1 0.999986 0.160946 0.809666 0 0 -0.0105381
22 1 0.249986 0.0732415 0.68474 0 0 -0.00268555
23 1 0.499986 0.160946 0.809666 0 0 -0.0105381
24 1 0.749986 0.0732415 0.68474 0 0 -0.00268555
25 1 0.999986 0.573241 0.68474 0 0 -0.00269508
26 1 0.249986 0.660946 0.809666 0 0 -0.0105438
27 1 0.749986 0.660946 0.809666 0 0 -0.0105438
28 1 0.499986 0.573241 0.68474 0 0 -0.00269508
29 1 0.249986 0.917489 0.934366 0 0 0.00296402
30 1 0.749986 0.917489 0.934366 0 0 0.00296402
31 1 0.999986 0.41749 0.934366 0 0 0.00295258
32 1 0.499986 0.41749 0.934366 0 0 0.00295258
ITEM: TIMESTEP
2
ITEM: NUMBER OF ATOMS
32
ITEM: BOX BOUNDS xy xz yz pp pp pp
-4.0532350540161133e-03 6.4008854031562805e+00 0.0000000000000000e+00
-9.1640949249267578e-03 8.9855923056602478e+00 0.0000000000000000e+00
-4.7960281372070312e-02 2.0773346722126007e+01 3.4559970498085022e+00
ITEM: ATOMS id type xs ys zs fx fy fz
1 1 0.999986 0.628598 0.0601968 0 0 -0.000650406
2 1 0.499986 0.628598 0.0601968 0 0 -0.000650406
3 1 0.249986 0.128599 0.0601964 0 0 -0.000617981
4 1 0.749986 0.128599 0.0601964 0 0 -0.000617981
5 1 0.999986 0.472847 0.309832 0 0 0.00639534
6 1 0.249986 0.385 0.18513 0 0 -0.00143433
7 1 0.749986 0.385 0.18513 0 0 -0.00143433
8 1 0.499986 0.472847 0.309832 0 0 0.00639534
9 1 0.999986 0.884998 0.185131 0 0 -0.00145531
10 1 0.249986 0.972848 0.309832 0 0 0.00642014
11 1 0.499986 0.884998 0.185131 0 0 -0.00145531
12 1 0.749986 0.972848 0.309832 0 0 0.00642014
13 1 0.999986 0.316898 0.559744 0 0 -0.00185204
14 1 0.499986 0.316898 0.559744 0 0 -0.00185204
15 1 0.249986 0.816896 0.559743 0 0 -0.00183296
16 1 0.749986 0.816896 0.559743 0 0 -0.00183296
17 1 0.249986 0.229241 0.434758 0 0 0.00184631
18 1 0.749986 0.229241 0.434758 0 0 0.00184631
19 1 0.999986 0.72924 0.434758 0 0 0.00183678
20 1 0.499986 0.72924 0.434758 0 0 0.00183678
21 1 0.999986 0.16113 0.809371 0 0 0.00145721
22 1 0.249986 0.0732855 0.684669 0 0 -0.00642014
23 1 0.499986 0.16113 0.809371 0 0 0.00145721
24 1 0.749986 0.0732855 0.684669 0 0 -0.00642014
25 1 0.999986 0.573286 0.684669 0 0 -0.00641441
26 1 0.249986 0.66113 0.809371 0 0 0.0014534
27 1 0.749986 0.66113 0.809371 0 0 0.0014534
28 1 0.499986 0.573286 0.684669 0 0 -0.00641441
29 1 0.249986 0.917527 0.934305 0 0 0.000623703
30 1 0.749986 0.917527 0.934305 0 0 0.000623703
31 1 0.999986 0.417528 0.934305 0 0 0.000644684
32 1 0.499986 0.417528 0.934305 0 0 0.000644684
ITEM: TIMESTEP
3
ITEM: NUMBER OF ATOMS
32
ITEM: BOX BOUNDS xy xz yz pp pp pp
-4.0532350540161133e-03 6.4008854031562805e+00 0.0000000000000000e+00
-9.1640949249267578e-03 8.9855923056602478e+00 0.0000000000000000e+00
-4.7960281372070312e-02 2.0773346722126007e+01 3.4559970498085022e+00
ITEM: ATOMS id type xs ys zs fx fy fz
1 1 0.999986 0.628596 0.0602011 0 0 0.000795364
2 1 0.499986 0.628596 0.0602011 0 0 0.000795364
3 1 0.249986 0.128596 0.0602013 0 0 0.00079155
4 1 0.749986 0.128596 0.0602013 0 0 0.00079155
5 1 0.999986 0.472728 0.310023 0 0 -0.000692368
6 1 0.249986 0.384959 0.185195 0 0 7.24792e-05
7 1 0.749986 0.384959 0.185195 0 0 7.24792e-05
8 1 0.499986 0.472728 0.310023 0 0 -0.000692368
9 1 0.999986 0.884958 0.185195 0 0 7.05719e-05
10 1 0.249986 0.972729 0.310023 0 0 -0.00069809
11 1 0.499986 0.884958 0.185195 0 0 7.05719e-05
12 1 0.749986 0.972729 0.310023 0 0 -0.00069809
13 1 0.999986 0.316929 0.559693 0 0 -0.00247574
14 1 0.499986 0.316929 0.559693 0 0 -0.00247574
15 1 0.249986 0.816927 0.559693 0 0 -0.00247192
16 1 0.749986 0.816927 0.559693 0 0 -0.00247192
17 1 0.249986 0.229209 0.434808 0 0 0.00247002
18 1 0.749986 0.229209 0.434808 0 0 0.00247002
19 1 0.999986 0.729209 0.434808 0 0 0.00247192
20 1 0.499986 0.729209 0.434808 0 0 0.00247192
21 1 0.999986 0.16117 0.809307 0 0 -8.7738e-05
22 1 0.249986 0.0734048 0.684478 0 0 0.000705719
23 1 0.499986 0.16117 0.809307 0 0 -8.7738e-05
24 1 0.749986 0.0734048 0.684478 0 0 0.000705719
25 1 0.999986 0.573405 0.684478 0 0 0.000711441
26 1 0.249986 0.66117 0.809307 0 0 -8.01086e-05
27 1 0.749986 0.66117 0.809307 0 0 -8.01086e-05
28 1 0.499986 0.573405 0.684478 0 0 0.000711441
29 1 0.249986 0.91753 0.9343 0 0 -0.000789642
30 1 0.749986 0.91753 0.9343 0 0 -0.000789642
31 1 0.999986 0.41753 0.9343 0 0 -0.000793457
32 1 0.499986 0.41753 0.9343 0 0 -0.000793457
ITEM: TIMESTEP
4
ITEM: NUMBER OF ATOMS
32
ITEM: BOX BOUNDS xy xz yz pp pp pp
-4.0532350540161133e-03 6.4008854031562805e+00 0.0000000000000000e+00
-9.1640949249267578e-03 8.9855923056602478e+00 0.0000000000000000e+00
-4.7960281372070312e-02 2.0773346722126007e+01 3.4559970498085022e+00
ITEM: ATOMS id type xs ys zs fx fy fz
1 1 0.999986 0.628589 0.0602116 0 0 0.000160217
2 1 0.499986 0.628589 0.0602116 0 0 0.000160217
3 1 0.249986 0.128589 0.0602118 0 0 0.000150681
4 1 0.749986 0.128589 0.0602118 0 0 0.000150681
5 1 0.999986 0.472724 0.31003 0 0 -5.14984e-05
6 1 0.249986 0.384955 0.185201 0 0 0.000204086
7 1 0.749986 0.384955 0.185201 0 0 0.000204086
8 1 0.499986 0.472724 0.31003 0 0 -5.14984e-05
9 1 0.999986 0.884954 0.185201 0 0 0.000221252
10 1 0.249986 0.972724 0.31003 0 0 -5.34058e-05
11 1 0.499986 0.884954 0.185201 0 0 0.000221252
12 1 0.749986 0.972724 0.31003 0 0 -5.34058e-05
13 1 0.999986 0.316951 0.559657 0 0 7.62939e-05
14 1 0.499986 0.316951 0.559657 0 0 7.62939e-05
15 1 0.249986 0.81695 0.559658 0 0 7.24792e-05
16 1 0.749986 0.81695 0.559658 0 0 7.24792e-05
17 1 0.249986 0.229187 0.434844 0 0 -7.24792e-05
18 1 0.749986 0.229187 0.434844 0 0 -7.24792e-05
19 1 0.999986 0.729187 0.434844 0 0 -7.05719e-05
20 1 0.499986 0.729187 0.434844 0 0 -7.05719e-05
21 1 0.999986 0.161174 0.809301 0 0 -0.000205994
22 1 0.249986 0.0734089 0.684472 0 0 4.00543e-05
23 1 0.499986 0.161174 0.809301 0 0 -0.000205994
24 1 0.749986 0.0734089 0.684472 0 0 4.00543e-05
25 1 0.999986 0.573409 0.684472 0 0 4.76837e-05
26 1 0.249986 0.661174 0.809301 0 0 -0.000211716
27 1 0.749986 0.661174 0.809301 0 0 -0.000211716
28 1 0.499986 0.573409 0.684472 0 0 4.76837e-05
29 1 0.249986 0.917536 0.93429 0 0 -0.000148773
30 1 0.749986 0.917536 0.93429 0 0 -0.000148773
31 1 0.999986 0.417537 0.93429 0 0 -0.00015831
32 1 0.499986 0.417537 0.93429 0 0 -0.00015831
ITEM: TIMESTEP
5
ITEM: NUMBER OF ATOMS
32
ITEM: BOX BOUNDS xy xz yz pp pp pp
-4.0532350540161133e-03 6.4008854031562805e+00 0.0000000000000000e+00
-9.1640949249267578e-03 8.9855923056602478e+00 0.0000000000000000e+00
-4.7960281372070312e-02 2.0773346722126007e+01 3.4559970498085022e+00
ITEM: ATOMS id type xs ys zs fx fy fz
1 1 0.999986 0.628587 0.0602153 0 0 -4.00543e-05
2 1 0.499986 0.628587 0.0602153 0 0 -4.00543e-05
3 1 0.249986 0.128587 0.0602153 0 0 -3.05176e-05
4 1 0.749986 0.128587 0.0602153 0 0 -3.05176e-05
5 1 0.999986 0.472724 0.310029 0 0 0.000101089
6 1 0.249986 0.384953 0.185205 0 0 2.86102e-05
7 1 0.749986 0.384953 0.185205 0 0 2.86102e-05
8 1 0.499986 0.472724 0.310029 0 0 0.000101089
9 1 0.999986 0.884951 0.185206 0 0 1.71661e-05
10 1 0.249986 0.972725 0.310029 0 0 0.000110626
11 1 0.499986 0.884951 0.185206 0 0 1.71661e-05
12 1 0.749986 0.972725 0.310029 0 0 0.000110626
13 1 0.999986 0.316951 0.559658 0 0 1.52588e-05
14 1 0.499986 0.316951 0.559658 0 0 1.52588e-05
15 1 0.249986 0.816949 0.559658 0 0 1.14441e-05
16 1 0.749986 0.816949 0.559658 0 0 1.14441e-05
17 1 0.249986 0.229188 0.434843 0 0 -1.33514e-05
18 1 0.749986 0.229188 0.434843 0 0 -1.33514e-05
19 1 0.999986 0.729187 0.434843 0 0 -1.52588e-05
20 1 0.499986 0.729187 0.434843 0 0 -1.52588e-05
21 1 0.999986 0.161176 0.809296 0 0 -2.47955e-05
22 1 0.249986 0.0734085 0.684472 0 0 -9.72748e-05
23 1 0.499986 0.161176 0.809296 0 0 -2.47955e-05
24 1 0.749986 0.0734085 0.684472 0 0 -9.72748e-05
25 1 0.999986 0.573408 0.684473 0 0 -0.000101089
26 1 0.249986 0.661177 0.809296 0 0 -2.28882e-05
27 1 0.749986 0.661177 0.809296 0 0 -2.28882e-05
28 1 0.499986 0.573408 0.684473 0 0 -0.000101089
29 1 0.249986 0.917538 0.934286 0 0 2.47955e-05
30 1 0.749986 0.917538 0.934286 0 0 2.47955e-05
31 1 0.999986 0.417539 0.934286 0 0 3.62396e-05
32 1 0.499986 0.417539 0.934286 0 0 3.62396e-05
ITEM: TIMESTEP
6
ITEM: NUMBER OF ATOMS
32
ITEM: BOX BOUNDS xy xz yz pp pp pp
-4.0532350540161133e-03 6.4008854031562805e+00 0.0000000000000000e+00
-9.1640949249267578e-03 8.9855923056602478e+00 0.0000000000000000e+00
-4.7960281372070312e-02 2.0773346722126007e+01 3.4559970498085022e+00
ITEM: ATOMS id type xs ys zs fx fy fz
1 1 0.999986 0.628587 0.0602153 0 0 -4.00543e-05
2 1 0.499986 0.628587 0.0602153 0 0 -4.00543e-05
3 1 0.249986 0.128587 0.0602153 0 0 -3.05176e-05
4 1 0.749986 0.128587 0.0602153 0 0 -3.05176e-05
5 1 0.999986 0.472724 0.310029 0 0 0.000101089
6 1 0.249986 0.384953 0.185205 0 0 2.86102e-05
7 1 0.749986 0.384953 0.185205 0 0 2.86102e-05
8 1 0.499986 0.472724 0.310029 0 0 0.000101089
9 1 0.999986 0.884951 0.185206 0 0 1.71661e-05
10 1 0.249986 0.972725 0.310029 0 0 0.000110626
11 1 0.499986 0.884951 0.185206 0 0 1.71661e-05
12 1 0.749986 0.972725 0.310029 0 0 0.000110626
13 1 0.999986 0.316951 0.559658 0 0 1.52588e-05
14 1 0.499986 0.316951 0.559658 0 0 1.52588e-05
15 1 0.249986 0.816949 0.559658 0 0 1.14441e-05
16 1 0.749986 0.816949 0.559658 0 0 1.14441e-05
17 1 0.249986 0.229188 0.434843 0 0 -1.33514e-05
18 1 0.749986 0.229188 0.434843 0 0 -1.33514e-05
19 1 0.999986 0.729187 0.434843 0 0 -1.52588e-05
20 1 0.499986 0.729187 0.434843 0 0 -1.52588e-05
21 1 0.999986 0.161176 0.809296 0 0 -2.47955e-05
22 1 0.249986 0.0734085 0.684472 0 0 -9.72748e-05
23 1 0.499986 0.161176 0.809296 0 0 -2.47955e-05
24 1 0.749986 0.0734085 0.684472 0 0 -9.72748e-05
25 1 0.999986 0.573408 0.684473 0 0 -0.000101089
26 1 0.249986 0.661177 0.809296 0 0 -2.28882e-05
27 1 0.749986 0.661177 0.809296 0 0 -2.28882e-05
28 1 0.499986 0.573408 0.684473 0 0 -0.000101089
29 1 0.249986 0.917538 0.934286 0 0 2.47955e-05
30 1 0.749986 0.917538 0.934286 0 0 2.47955e-05
31 1 0.999986 0.417539 0.934286 0 0 3.62396e-05
32 1 0.499986 0.417539 0.934286 0 0 3.62396e-05
