LAMMPS (4 May 2022)
units 			metal
dimension		3
boundary		p    p    p				# Periodic boundary condition
atom_style		atomic					# Only the default values, coarse-grain liquids, solids, metals
box         	tilt large				# LAMMPS normally requires that no tilt factor can skew the box more than half the distance of the parallel box length, but tilt large allow.

neighbor 0.0 bin
neigh_modify    every 10 delay 0 check no		# Check no, rebuild anyway

read_data   	copper.lmp
Reading data file ...
  triclinic box = (0 0 0) to (117 117 117) with tilt (0 0 0)
  2 by 2 by 2 MPI processor grid
  reading atoms ...
  133333 atoms
  read_data CPU = 0.155 seconds
mass            1 63.54600000

pair_style 		nvnmd model.pb
# pair_style 		deepmd model.pb
# pair_style 	deepmd copper1.pb copper2.pb copper3.pb copper4.pb 100 model-devi.out
pair_coeff		* *				# Coefficient of petential function

variable        Ttarget equal 300.0			# Target tempture for annealing and MD

# compute		thermo_pe    all pe			# System potential energy
# compute 		thermo_temp  all temp
compute			mypress all  pressure thermo_temp
compute			myCNA   all cna/atom 3.10215312	# Common neighbor analysis

timestep		0.005  	# unit==psec==10^-12sec
thermo			100  	# 100==0.5psec			# Output frequency
thermo_style    custom step temp fmax fnorm c_thermo_temp c_thermo_pe press c_thermo_press[*] lx ly lz vol	# Box lengths in x,y,z

# no annealing?
# how to annealing though?

delete_atoms 	overlap 1.0 all all
System init for delete_atoms ...
Generated 0 of 0 mixed pair_coeff terms from geometric mixing rule
Neighbor list info ...
  update every 10 steps, delay 0 steps, check no
  max neighbors/atom: 2000, page size: 100000
  master list distance cutoff = 8
  ghost atom cutoff = 8
  binsize = 4, bins = 30 30 30
  3 neighbor lists, perpetual/occasional/extra = 1 2 0
  (1) command delete_atoms, occasional, copy from (2)
      attributes: full, newton on
      pair build: copy
      stencil: none
      bin: none
  (2) pair nvnmd, perpetual
      attributes: full, newton on
      pair build: full/bin/atomonly
      stencil: full/bin/3d
      bin: standard
  (3) compute cna/atom, occasional, copy from (2)
      attributes: full, newton on
      pair build: copy
      stencil: none
      bin: none
Deleted 620 atoms, new total = 132713

# dump          1 all custom 100 dump.relax id type xs ys zs fx fy fz c_atom_order[*]	# dump command, fx fy fz: forces on atoms
velocity        all create ${Ttarget} 9999 dist gaussian mom yes rot yes
velocity        all create 300 9999 dist gaussian mom yes rot yes
fix             5 all npt temp ${Ttarget} ${Ttarget} $(100.0*dt) iso 0.0 0.0 $(1000.0*dt)      # Tdamp = temperature damping parameter (time units)
fix             5 all npt temp 300 ${Ttarget} $(100.0*dt) iso 0.0 0.0 $(1000.0*dt)      
fix             5 all npt temp 300 300 $(100.0*dt) iso 0.0 0.0 $(1000.0*dt)      
fix             5 all npt temp 300 300 0.5 iso 0.0 0.0 $(1000.0*dt)      
fix             5 all npt temp 300 300 0.5 iso 0.0 0.0 5      
run             10000                                                                   # Pdamp = pressure damping parameter (time units)
Generated 0 of 0 mixed pair_coeff terms from geometric mixing rule
Neighbor list info ...
  update every 10 steps, delay 0 steps, check no
  max neighbors/atom: 2000, page size: 100000
  master list distance cutoff = 8
  ghost atom cutoff = 8
  binsize = 4, bins = 30 30 30
  2 neighbor lists, perpetual/occasional/extra = 1 1 0
  (1) pair nvnmd, perpetual
      attributes: full, newton on
      pair build: full/bin/atomonly
      stencil: full/bin/3d
      bin: standard
  (2) compute cna/atom, occasional, copy from (1)
      attributes: full, newton on
      pair build: copy
      stencil: none
      bin: none
Per MPI rank memory allocation (min/avg/max) = 18.72 | 18.72 | 18.72 Mbytes
   Step          Temp           Fmax          Fnorm      c_thermo_temp   c_thermo_pe       Press      c_thermo_press[1] c_thermo_press[2] c_thermo_press[3] c_thermo_press[4] c_thermo_press[5] c_thermo_press[6]       Lx             Ly             Lz           Volume    
         0   300            51.471416      1546.9957      300           -14016.226      66945.271      66992.271      67613.409      66230.133     -76.126646     -533.40953     -660.12105      117            117            117            1601613      
       100   992.05889      6.6530476      469.00803      992.05889     -32087.213      37303.58       37262.938      37072.782      37575.02       317.57654      213.63003     -402.27152      118.7282       118.7282       118.7282       1673638.4    
       200   830.64461      5.4040623      416.7887       830.64461     -34431.905      3960.3191      3571.1633      4379.4219      3930.3721      114.17681      200.63198      179.18384      119.42755      119.42755      119.42755      1703387.8    
       300   720.72578      4.322319       384.03897      720.72578     -36571.753     -3905.5019     -4439.7741     -3677.1259     -3599.6057     -156.64837     -223.30409     -152.30232      119.41388      119.41388      119.41388      1702802.9    
       400   641.89904      4.5607014      365.05724      641.89904     -38701.771     -3583.5105     -4025.2201     -3513.1535     -3212.158      -48.280153      124.3104       69.512416      119.12246      119.12246      119.12246      1690367      
       500   570.9985       3.529314       346.32558      570.9985      -40472.125     -2877.4051     -3188.628      -3130.3483     -2313.239      -144.76145      77.847791      208.33286      118.85936      118.85936      118.85936      1679191.1    
       600   509.03432      2.9672832      328.90187      509.03432     -41907.489     -2145.033      -2502.3107     -2458.3226     -1474.4656     -271.04069     -4.1301609      19.331209      118.65245      118.65245      118.65245      1670437.1    
       700   460.87825      3.1345863      312.03836      460.87825     -43168.97      -1807.7643     -2325.7714     -1953.7942     -1143.7273     -290.65625     -135.1532       183.11908      118.46641      118.46641      118.46641      1662591.8    
       800   415.23701      2.8306847      299.09356      415.23701     -44107.627     -1072.2927     -1488.7944     -1306.9915     -421.09238     -413.92141      51.69232      -132.71513      118.32678      118.32678      118.32678      1656720.1    
       900   379.86369      2.5427227      286.05539      379.86369     -44913.074     -857.67054     -1189.0632     -909.50486     -474.44351     -410.85792      234.2144      -7.5403422      118.20847      118.20847      118.20847      1651755.6    
      1000   350.08641      2.8334084      276.22615      350.08641     -45544.8       -573.58923     -844.0386      -780.2776      -96.451468     -447.16491      16.299465      50.853406      118.11847      118.11847      118.11847      1647985.6    
      1100   326.63908      2.7632599      267.02791      326.63908     -46048.526     -413.85402     -514.9713      -640.41901     -86.171762     -707.12574      70.951784     -60.53979       118.04687      118.04687      118.04687      1644990.4    
      1200   309.07377      2.4658661      259.79031      309.07377     -46434.143     -242.1813      -396.24464     -624.66408      294.36481     -638.68197      120.17527     -308.35785      117.98969      117.98969      117.98969      1642601.3    
      1300   296.90211      2.4315815      255.36954      296.90211     -46698.007     -58.438673     -356.39865     -281.23935      462.32197     -669.27086     -6.3274884     -11.815737      117.95316      117.95316      117.95316      1641076      
      1400   291.50568      2.3324089      252.87389      291.50568     -46842.551     -41.720936     -220.79747     -320.79493      416.4296      -422.21726     -98.996026     -8.7029441      117.93215      117.93215      117.93215      1640199.2    
      1500   293.74562      2.3818855      253.83772      293.74562     -46851.047      102.08722     -250.4075      -4.7575029      561.42667     -498.76796     -186.46441     -211.79078      117.92712      117.92712      117.92712      1639989.6    
      1600   300.40949      2.1419525      256.8352       300.40949     -46746.257      89.854165     -163.44817      74.164616      358.84604     -560.53858     -163.9122      -208.84845      117.93991      117.93991      117.93991      1640523.1    
      1700   306.77144      2.483675       258.61455      306.77144     -46672.936     -48.631007     -339.39828      24.51796       168.9873      -494.273       -78.337023     -121.3493       117.95231      117.95231      117.95231      1641040.5    
      1800   305.90188      2.4609966      259.33018      305.90188     -46673.536     -118.84249     -383.04485     -22.499454      49.01682      -600.4663      -137.9427      -111.62813      117.95538      117.95538      117.95538      1641168.9    
      1900   299.65901      2.4992523      257.5533       299.65901     -46765.576      7.7903998     -419.0104      -57.179038      499.56063     -393.44341     -124.92623     -187.0357       117.93713      117.93713      117.93713      1640407.4    
      2000   295.46709      2.4746437      255.39386      295.46709     -46891.497     -39.257276     -519.55974     -66.680005      468.46792     -624.03639     -133.46191     -180.02187      117.92567      117.92567      117.92567      1639929.2    
      2100   294.06977      2.7072849      254.91422      294.06977     -46923.505      94.325066     -244.24322      173.89442      353.324       -654.08054      29.077994     -71.319757      117.91553      117.91553      117.91553      1639506      
      2200   298.06582      2.1593761      256.4312       298.06582     -46884.481      59.40975      -209.27066     -51.747303      439.24721     -562.83859     -196.92227     -2.8170179      117.92371      117.92371      117.92371      1639847.4    
      2300   303.41079      2.2644405      258.34467      303.41079     -46812.78      -29.991394     -218.32722     -167.18081      295.53385     -661.1913      -200.8233      -111.43434      117.93618      117.93618      117.93618      1640367.5    
      2400   305.52912      2.9882011      258.38682      305.52912     -46778.726     -117.84171     -433.58646     -67.444985      147.5063      -642.98554     -240.71072     -75.910257      117.94092      117.94092      117.94092      1640565.2    
      2500   303.10118      2.336298       258.10314      303.10118     -46823.146     -68.399615     -415.36423      25.400159      184.76522     -517.36272     -19.553942     -129.65276      117.93745      117.93745      117.93745      1640420.6    
      2600   298.34183      2.2255917      256.71182      298.34183     -46908.285      1.4339918     -241.73057     -64.950331      310.98287     -423.0969      -36.282406     -236.76273      117.92154      117.92154      117.92154      1639756.9    
      2700   296.42845      2.4351196      254.56791      296.42845     -46977.057     -7.7729822     -377.06726      1.8645088      351.8838      -602.69218     -78.345474     -70.377176      117.91449      117.91449      117.91449      1639462.9    
      2800   297.01503      2.4722462      256.26645      297.01503     -46950.418      16.008177     -308.54283      9.4702965      347.09707     -625.06092      19.215227     -61.783387      117.91625      117.91625      117.91625      1639536.3    
      2900   300.68209      2.3729019      257.80708      300.68209     -46881.157      107.73265     -278.66441      141.27843      460.58393     -328.93205     -23.018363     -197.5335       117.92263      117.92263      117.92263      1639802.2    
      3000   303.69816      2.2097569      258.45985      303.69816     -46831.429     -99.008348     -315.77338     -245.80005      264.54838     -517.408       -41.545418     -126.96741      117.93508      117.93508      117.93508      1640321.8    
      3100   304.01869      2.5298176      258.08554      304.01869     -46856.99      -46.530998     -394.18353     -42.833715      297.42425     -800.53519     -171.83883     -140.97387      117.93009      117.93009      117.93009      1640113.4    
      3200   300.26158      2.2688065      256.96064      300.26158     -46921.275     -47.522253     -368.18724     -50.435923      276.05641     -655.99469     -27.670272      61.677893      117.9216       117.9216       117.9216       1639759.1    
      3300   295.85456      2.1600571      256.28398      295.85456     -46967.836      3.3944696     -284.86966     -128.40227      423.45534     -595.01325     -18.056544      19.705052      117.91318      117.91318      117.91318      1639408.1    
      3400   296.18616      2.3843956      255.88014      296.18616     -46991.583      72.845824     -43.34795      -91.024358      352.90978     -574.33        -70.294089     -53.919608      117.9084       117.9084       117.9084       1639208.5    
      3500   298.69004      2.1741962      256.97485      298.69004     -46943.822      61.237134     -11.361748     -91.107898      286.18105     -632.32869      13.262233     -138.79755      117.91626      117.91626      117.91626      1639536.5    
      3600   302.00703      2.4046879      258.25996      302.00703     -46887.782      59.237384     -123.55475     -147.45826      448.72516     -571.33252      47.243007     -59.064177      117.92122      117.92122      117.92122      1639743.5    
      3700   304.00454      2.3222713      258.2469       304.00454     -46890.59      -120.55723     -380.02008     -146.87523      165.22361     -510.07071     -25.123121     -144.63043      117.9281       117.9281       117.9281       1640030.4    
      3800   301.20232      2.1984921      257.8442       301.20232     -46919.276     -1.7846063     -371.69633     -0.70726847     367.04978     -498.36236     -5.7620482     -196.7722       117.91975      117.91975      117.91975      1639682.1    
      3900   298.04314      2.2401123      256.70084      298.04314     -46982.582     -7.1453177     -240.69369     -203.71334      422.97108     -482.90682     -23.883526     -278.60303      117.91362      117.91362      117.91362      1639426.3    
      4000   297.21153      2.137228       255.59703      297.21153     -47030.015      30.739693     -209.18036     -119.81711      421.21655     -516.34888      98.396557     -230.61683      117.90611      117.90611      117.90611      1639113.2    
      4100   298.5732       2.3054504      255.95292      298.5732      -47011.242     -16.043524     -244.0115       94.986537      100.89439     -430.72077      79.874052     -143.30699      117.90953      117.90953      117.90953      1639255.6    
      4200   300.61972      2.3402214      257.74903      300.61972     -46942.635      46.050189     -265.22853      136.90311      266.47599     -418.37031      41.108423     -336.39053      117.91556      117.91556      117.91556      1639507.3    
      4300   303.38057      2.0816174      258.15912      303.38057     -46919.996     -107.17764     -184.22936     -257.7402       120.43666     -472.52987      104.4298      -74.139341      117.92205      117.92205      117.92205      1639778      
      4400   302.8705       2.2495804      257.82876      302.8705      -46939.434     -20.14627      -265.63466     -127.24879      332.44464     -754.9313       112.85095     -167.75514      117.91867      117.91867      117.91867      1639637.1    
      4500   300.22429      2.1617413      257.17581      300.22429     -46995.608     -50.176554     -264.0421      -182.44866      295.9611      -529.69822      53.757151     -272.26935      117.91289      117.91289      117.91289      1639396.1    
      4600   297.29696      2.277956       256.65286      297.29696     -47028.663      38.628243     -64.478571     -267.91132      448.27462     -481.09217      120.63399     -230.6991       117.9043       117.9043       117.9043       1639037.9    
      4700   297.63647      2.3605347      255.94941      297.63647     -47031.947     -10.937718     -311.38071     -226.98326      505.55082     -512.59838      131.77964     -168.42047      117.90568      117.90568      117.90568      1639095.1    
      4800   300.14817      2.2614803      257.27796      300.14817     -46994.004      26.312287     -77.484467     -316.48848      472.90981     -671.81542      86.462408     -128.60287      117.90955      117.90955      117.90955      1639256.5    
      4900   302.46609      2.2422581      257.95943      302.46609     -46947.633     -58.972408     -260.12        -246.71071      329.91349     -772.53203      134.02796     -234.60222      117.91795      117.91795      117.91795      1639607.2    
      5000   303.22289      2.208519       258.06746      303.22289     -46946.691     -3.159028      -239.41729     -139.28927      369.22948     -451.49571      69.751924     -265.97669      117.91706      117.91706      117.91706      1639569.9    
      5100   300.64963      2.5406399      257.26232      300.64963     -46976.549     -70.976562     -142.51041     -264.09797      193.67869     -318.10093      83.474241     -262.20881      117.91464      117.91464      117.91464      1639469.1    
      5200   297.56942      2.345747       256.53605      297.56942     -47019.459      25.3795       -186.78187     -99.275666      362.19604     -366.45796      285.83863     -140.67805      117.90685      117.90685      117.90685      1639143.8    
      5300   296.90283      2.2181892      256.13367      296.90283     -47041.897      5.9089496     -133.19016     -192.09549      343.0125      -507.92218      112.91612     -238.84539      117.90301      117.90301      117.90301      1638984      
      5400   298.03751      2.1743507      256.70271      298.03751     -47007.568      32.609779     -252.83708     -129.36711      480.03353     -425.84755      50.25398      -56.974515      117.90678      117.90678      117.90678      1639140.9    
      5500   300.93141      2.483345       258.03224      300.93141     -46965.42       38.070665     -133.35267     -261.3583       508.92297     -334.20763     -10.267569     -23.221084      117.91315      117.91315      117.91315      1639407      
      5600   302.83797      2.7747765      258.54696      302.83797     -46952.26      -58.684781     -317.69257     -300.47584      442.11407     -457.99661      132.58479     -77.451184      117.91826      117.91826      117.91826      1639619.8    
      5700   301.51123      2.4512672      258.11832      301.51123     -46970.631     -1.6409674     -193.07461     -216.70343      404.85513     -439.37227      163.40808     -79.172108      117.91366      117.91366      117.91366      1639427.9    
      5800   299.90262      2.1305866      256.54073      299.90262     -47035.287     -64.852997     -365.0429      -183.8754       354.35931     -547.72359      36.386955     -223.2534       117.90749      117.90749      117.90749      1639170.9    
      5900   298.19636      2.2881203      255.75615      298.19636     -47068.418     -46.922994      32.817471     -383.18171      209.59526     -645.02145      6.318726      -101.97219      117.90368      117.90368      117.90368      1639011.7    
      6000   297.95944      2.3093987      256.48592      297.95944     -47045.652      10.093198     -150.47885     -197.69609      378.45454     -454.16471     -39.459567     -208.48214      117.90364      117.90364      117.90364      1639010.1    
      6100   300.79612      2.3309784      257.15108      300.79612     -47013.293     -20.279692     -256.17524     -221.5697       416.90586     -587.55626      291.58056     -158.23434      117.90974      117.90974      117.90974      1639264.5    
      6200   301.82288      2.232811       258.53805      301.82288     -46960.402      25.011742     -215.97477     -100.19515      391.20515     -405.01439     -44.817269     -298.71874      117.91468      117.91468      117.91468      1639470.5    
      6300   302.49241      2.2894077      257.41558      302.49241     -46976.421     -40.09295      -232.00544     -330.02974      441.75633     -359.30942      145.22393     -179.4571       117.9142       117.9142       117.9142       1639450.6    
      6400   299.65211      2.0178299      257.13483      299.65211     -47001.429      16.898063     -190.23479     -141.01513      381.94411     -516.75413      22.080073     -131.70774      117.90923      117.90923      117.90923      1639243.3    
      6500   298.11552      2.3120956      256.42524      298.11552     -47053.49       3.257196       9.8350065     -347.44522      347.3818      -402.45436     -82.489095     -198.64413      117.90343      117.90343      117.90343      1639001.2    
      6600   297.15174      2.0132751      256.49941      297.15174     -47053.966      13.342046     -148.31002     -126.60373      314.93989     -588.65588     -33.254491     -114.95924      117.90239      117.90239      117.90239      1638958      
      6700   298.53057      2.3176937      257.36753      298.53057     -47020.786      69.053154      82.179117     -9.7610287      134.74137     -493.79726      4.1794194     -189.47645      117.9054       117.9054       117.9054       1639083.4    
      6800   301.20022      2.6749401      257.92699      301.20022     -46987.28       26.676985     -106.75908     -53.72988       240.51991     -476.32112      108.36673     -222.44936      117.91165      117.91165      117.91165      1639344.4    
      6900   303.06648      2.1416664      257.96613      303.06648     -46988.146     -18.881326     -228.46855     -112.02449      283.84907     -391.15052      3.5332344     -134.11916      117.91332      117.91332      117.91332      1639413.9    
      7000   301.00747      2.4320679      257.63328      301.00747     -46995.925     -13.077808     -143.70819     -48.938955      153.41372     -415.29168      61.283656     -108.14043      117.91225      117.91225      117.91225      1639369.4    
      7100   299.34813      2.1670551      256.82813      299.34813     -47049.67      -11.727187     -44.807414     -250.95094      260.57679     -372.81272      52.513585     -88.790788      117.90562      117.90562      117.90562      1639092.9    
      7200   298.52769      2.2461224      256.056        298.52769     -47086.572     -3.2371417     -33.047864     -250.20018      273.53662     -442.98286      96.323773     -314.26082      117.89969      117.89969      117.89969      1638845.5    
      7300   299.67742      2.2260571      255.73949      299.67742     -47085.628     -89.134139     -225.43348     -276.08978      234.12084     -353.20581      131.28806     -211.32315      117.90369      117.90369      117.90369      1639012.2    
      7400   300.49492      2.2150135      257.46551      300.49492     -47028.355      63.228194      32.249506     -155.63193      313.067       -279.73079      112.34487     -226.51395      117.90558      117.90558      117.90558      1639090.9    
      7500   301.5428       2.5896339      258.20418      301.5428      -46989.588     -8.5739501     -177.29819     -40.917954      192.49429     -274.87144     -42.481729     -272.52384      117.91033      117.91033      117.91033      1639289.3    
      7600   301.31417      2.3156166      258.31462      301.31417     -46993.622     -20.573128     -196.17849     -270.85436      405.31346     -417.50801      35.505552     -164.5878       117.91191      117.91191      117.91191      1639354.9    
      7700   300.64402      2.6059151      257.2469       300.64402     -47048.179      9.3631112     -30.489551     -50.348495      108.92738     -316.50037      44.33724      -381.33239      117.90422      117.90422      117.90422      1639034.5    
      7800   298.06767      2.5541782      256.4981       298.06767     -47071.555     -57.903239      98.936721     -321.38732      48.740883     -418.35884      15.932549     -304.25599      117.90219      117.90219      117.90219      1638949.7    
      7900   298.7656       2.5276642      256.61708      298.7656      -47094.15      -6.257693      -0.7432964     -98.459404      80.429621     -396.29549      66.418819     -198.27821      117.89884      117.89884      117.89884      1638809.8    
      8000   299.38516      2.4322166      257.69359      299.38516     -47051.343      16.160814     -220.94391     -87.841326      357.26768     -508.95916     -71.45743      -192.66696      117.90351      117.90351      117.90351      1639004.6    
      8100   301.37485      2.4191551      258.15645      301.37485     -47018.828      4.001812       118.71433     -201.63544      94.926542     -497.73706      60.379094     -262.86012      117.90542      117.90542      117.90542      1639084.6    
      8200   302.19809      2.0999069      258.00344      302.19809     -47010.416     -53.830748     -23.454464     -260.73147      122.69369     -397.23953      43.995584     -286.33833      117.91047      117.91047      117.91047      1639294.8    
      8300   300.52183      2.1988754      257.93654      300.52183     -47023.67       18.21303      -75.62727      -187.62908      317.89544     -371.6393       38.908376     -213.67818      117.90602      117.90602      117.90602      1639109.4    
      8400   299.32756      2.3518219      256.91576      299.32756     -47074.133     -71.847721     -242.55416     -194.44537      221.45637     -562.72847      219.67102     -381.96179      117.90318      117.90318      117.90318      1638991.1    
      8500   298.29042      2.3477039      256.9376       298.29042     -47094.783      117.98971      73.448565      101.48938      179.03119     -497.16631      17.123383     -301.68429      117.89489      117.89489      117.89489      1638645.1    
      8600   299.58588      2.1357746      256.47888      299.58588     -47090.298     -191.19781     -359.50646     -169.85355     -44.233428     -400.35836      100.87425     -398.79785      117.90481      117.90481      117.90481      1639059.1    
      8700   300.38322      2.3925648      258.27141      300.38322     -47035.679      145.16768      138.36332     -87.87667       385.0164      -349.44482      158.31824     -350.832        117.90113      117.90113      117.90113      1638905.6    
      8800   302.2665       2.5072994      258.01309      302.2665      -47020.649     -128.71027     -66.749454     -419.15756      99.776203     -398.04858      54.213279     -262.70367      117.91185      117.91185      117.91185      1639352.7    
      8900   301.21789      2.1462822      258.27739      301.21789     -47016.487      96.034254      89.810577      35.269491      163.02269     -340.76669     -30.201232     -299.07357      117.90439      117.90439      117.90439      1639041.2    
      9000   299.9726       2.418745       257.2215       299.9726      -47060.879     -85.379293     -120.00393     -226.04219      89.908244     -311.44577     -147.79606     -277.75159      117.90489      117.90489      117.90489      1639062.2    
      9100   299.24186      2.3077183      256.12831      299.24186     -47106.602      19.970953     -173.05831     -79.210747      312.18192     -444.13124      4.5361154     -235.65629      117.89631      117.89631      117.89631      1638704.5    
      9200   298.47344      2.2134724      256.3664       298.47344     -47095.984     -27.760022     -18.813936     -316.4381       251.97197     -381.62263     -54.534339     -312.43347      117.89911      117.89911      117.89911      1638821.2    
      9300   299.26673      2.2137489      257.63049      299.26673     -47055.097      43.401049     -79.108093     -79.715586      289.02683     -359.47992     -32.089576     -103.83721      117.90069      117.90069      117.90069      1638887.2    
      9400   301.88455      2.3820705      258.11105      301.88455     -47036.835     -93.484909     -51.47382      -300.20786      71.226952     -574.39654      34.75296      -252.87692      117.90818      117.90818      117.90818      1639199.3    
      9500   301.93917      2.5486031      258.75352      301.93917     -47025.852      66.04977       44.244091     -133.5353       287.44052     -406.17736      35.180667     -310.12017      117.90502      117.90502      117.90502      1639067.8    
      9600   300.30248      2.1392155      257.70132      300.30248     -47047.088     -93.802762     -110.4786      -240.27861      69.348919     -414.65375      43.374302     -230.35725      117.90701      117.90701      117.90701      1639150.8    
      9700   298.77094      2.231739       257.17311      298.77094     -47088.543      134.80313     -37.337271      39.630246      402.11641     -325.94877     -54.756845     -251.96205      117.89545      117.89545      117.89545      1638668.6    
      9800   298.02785      2.4449062      256.57506      298.02785     -47104.88      -104.47763     -245.60456     -428.99988      361.17155     -458.82013     -24.933855     -264.38494      117.90025      117.90025      117.90025      1638868.7    
      9900   299.06787      2.2339897      257.26393      299.06787     -47085.33       113.69463     -49.928214     -78.806513      469.81862     -357.26318      52.508901     -265.96748      117.89582      117.89582      117.89582      1638683.9    
     10000   301.23422      2.0996361      257.49092      301.23422     -47057.395     -119.45962     -215.72046     -348.30905      205.65065     -308.54076      59.19195      -210.32672      117.90762      117.90762      117.90762      1639176.1    
Loop time of 609.808 on 8 procs for 10000 steps with 132713 atoms

Performance: 7.084 ns/day, 3.388 hours/ns, 16.399 timesteps/s
90.6% CPU use with 8 MPI tasks x no OpenMP threads

MPI task timing breakdown:
Section |  min time  |  avg time  |  max time  |%varavg| %total
---------------------------------------------------------------
Pair    | 513.32     | 529.37     | 546.69     |  47.6 | 86.81
Neigh   | 53.908     | 54.753     | 56.023     |   8.6 |  8.98
Comm    | 3.7064     | 20.394     | 37.304     | 243.7 |  3.34
Output  | 0.019268   | 0.019496   | 0.020499   |   0.3 |  0.00
Modify  | 4.8076     | 4.8368     | 4.88       |   1.1 |  0.79
Other   |            | 0.4349     |            |       |  0.07

Nlocal:        16589.1 ave       16614 max       16545 min
Histogram: 1 0 0 0 1 1 0 3 1 1
Nghost:        17512.8 ave       17552 max       17468 min
Histogram: 1 0 2 0 0 0 1 3 0 1
Neighs:              0 ave           0 max           0 min
Histogram: 8 0 0 0 0 0 0 0 0 0
FullNghs:   2.8747e+06 ave 2.88567e+06 max 2.85643e+06 min
Histogram: 1 0 0 0 1 1 1 2 0 2

Total # of neighbors = 22997564
Ave neighs/atom = 173.28795
Neighbor list builds = 1000
Dangerous builds not checked
unfix           5

min_style       cg
min_modify      dmax 0.01 norm max
fix             1 all box/relax iso 0.0
minimize        1.000000e-13 1.000000e+3 5000 5000
WARNING: Using 'neigh_modify every 1 delay 0 check yes' setting during minimization (../min.cpp:187)
Generated 0 of 0 mixed pair_coeff terms from geometric mixing rule
Per MPI rank memory allocation (min/avg/max) = 23.59 | 23.6 | 23.6 Mbytes
   Step          Temp           Fmax          Fnorm      c_thermo_temp   c_thermo_pe       Press      c_thermo_press[1] c_thermo_press[2] c_thermo_press[3] c_thermo_press[4] c_thermo_press[5] c_thermo_press[6]       Lx             Ly             Lz           Volume    
     10000   301.23422      2.0996361      257.49092      301.23422     -47057.395     -119.45962     -215.72046     -348.30905      205.65065     -308.54076      59.19195      -210.32672      117.90762      117.90762      117.90762      1639176.1    
     10009   301.23422      2.1182022      260.13403      301.23422     -47062.565      3055.8189      2958.7566      2823.8337      3384.8663     -310.74178      59.635699     -211.40351      117.8074       117.8074       117.8074       1634999.8    
Loop time of 1.36373 on 8 procs for 9 steps with 132713 atoms

95.2% CPU use with 8 MPI tasks x no OpenMP threads

Minimization stats:
  Stopping criterion = force tolerance
  Energy initial, next-to-last, final = 
     -47057.3948167562  -47062.5223778486  -47062.5649055243
  Force two-norm initial, final = 10704.72 1014.4538
  Force max component initial, final = 10701.623 980.53396
  Final line search alpha, max atom move = 3.2089197e-08 3.1464548e-05
  Iterations, force evaluations = 9 10

MPI task timing breakdown:
Section |  min time  |  avg time  |  max time  |%varavg| %total
---------------------------------------------------------------
Pair    | 0.54803    | 0.78362    | 0.83039    |  10.1 | 57.46
Neigh   | 0.51001    | 0.54617    | 0.77413    |  11.7 | 40.05
Comm    | 0.0068332  | 0.022717   | 0.038768   |   7.0 |  1.67
Output  | 0          | 0          | 0          |   0.0 |  0.00
Modify  | 0          | 0          | 0          |   0.0 |  0.00
Other   |            | 0.01122    |            |       |  0.82

Nlocal:        16589.1 ave       16614 max       16545 min
Histogram: 1 0 0 0 1 1 0 3 1 1
Nghost:        17528.4 ave       17567 max       17491 min
Histogram: 1 2 0 0 0 1 2 1 0 1
Neighs:              0 ave           0 max           0 min
Histogram: 8 0 0 0 0 0 0 0 0 0
FullNghs:  2.88104e+06 ave 2.89193e+06 max 2.86308e+06 min
Histogram: 1 0 0 0 1 1 1 2 0 2

Total # of neighbors = 23048352
Ave neighs/atom = 173.67064
Neighbor list builds = 10
Dangerous builds not checked
unfix           1
fix             1 all box/relax aniso 0.0
minimize        1.000000e-13 2.000000e+2 5000 5000
WARNING: Using 'neigh_modify every 1 delay 0 check yes' setting during minimization (../min.cpp:187)
Generated 0 of 0 mixed pair_coeff terms from geometric mixing rule
Per MPI rank memory allocation (min/avg/max) = 23.59 | 23.6 | 23.6 Mbytes
   Step          Temp           Fmax          Fnorm      c_thermo_temp   c_thermo_pe       Press      c_thermo_press[1] c_thermo_press[2] c_thermo_press[3] c_thermo_press[4] c_thermo_press[5] c_thermo_press[6]       Lx             Ly             Lz           Volume    
     10009   301.23422      2.1182022      260.13403      301.23422     -47062.565      3055.8189      2958.7566      2823.8337      3384.8663     -310.74178      59.635699     -211.40351      117.8074       117.8074       117.8074       1634999.8    
     10014   301.23422      2.1182404      260.13814      301.23422     -47062.57       3060.7964      2964.1051      2829.934       3388.35       -310.72267      59.680009     -211.46853      117.8072       117.80712      117.80741      1634993.3    
Loop time of 8.94063 on 8 procs for 5 steps with 132713 atoms

95.4% CPU use with 8 MPI tasks x no OpenMP threads

Minimization stats:
  Stopping criterion = quadratic factors are zero
  Energy initial, next-to-last, final = 
     -47062.5649055243  -47062.5703231096  -47062.5703231096
  Force two-norm initial, final = 760.65403 753.02753
  Force max component initial, final = 582.39713 576.18465
  Final line search alpha, max atom move = 3.310308e-13 1.9073486e-10
  Iterations, force evaluations = 5 67

MPI task timing breakdown:
Section |  min time  |  avg time  |  max time  |%varavg| %total
---------------------------------------------------------------
Pair    | 4.554      | 5.0465     | 5.3379     |  11.2 | 56.44
Neigh   | 3.4143     | 3.6825     | 4.0702     |  12.2 | 41.19
Comm    | 0.046497   | 0.15118    | 0.25526    |  17.6 |  1.69
Output  | 0          | 0          | 0          |   0.0 |  0.00
Modify  | 0          | 0          | 0          |   0.0 |  0.00
Other   |            | 0.06046    |            |       |  0.68

Nlocal:        16589.1 ave       16614 max       16545 min
Histogram: 1 0 0 0 1 1 0 3 1 1
Nghost:        17528.4 ave       17567 max       17491 min
Histogram: 1 2 0 0 0 1 2 1 0 1
Neighs:              0 ave           0 max           0 min
Histogram: 8 0 0 0 0 0 0 0 0 0
FullNghs:  2.88105e+06 ave 2.89194e+06 max 2.86308e+06 min
Histogram: 1 0 0 0 1 1 1 2 0 2

Total # of neighbors = 23048416
Ave neighs/atom = 173.67112
Neighbor list builds = 67
Dangerous builds not checked
unfix           1
fix             1 all box/relax tri 0.0
minimize        1.000000e-13 1.000000e+2 5000 5000
WARNING: Using 'neigh_modify every 1 delay 0 check yes' setting during minimization (../min.cpp:187)
Generated 0 of 0 mixed pair_coeff terms from geometric mixing rule
Per MPI rank memory allocation (min/avg/max) = 23.59 | 23.6 | 23.6 Mbytes
   Step          Temp           Fmax          Fnorm      c_thermo_temp   c_thermo_pe       Press      c_thermo_press[1] c_thermo_press[2] c_thermo_press[3] c_thermo_press[4] c_thermo_press[5] c_thermo_press[6]       Lx             Ly             Lz           Volume    
     10014   301.23422      2.1182404      260.13814      301.23422     -47062.57       3060.7964      2964.1051      2829.934       3388.35       -310.72267      59.680009     -211.46853      117.8072       117.80712      117.80741      1634993.3    
     10015   301.23422      2.1182404      260.13814      301.23422     -47062.57       3060.7964      2964.1051      2829.934       3388.35       -310.72267      59.680009     -211.46853      117.8072       117.80712      117.80741      1634993.3    
Loop time of 2.92986 on 8 procs for 1 steps with 132713 atoms

95.4% CPU use with 8 MPI tasks x no OpenMP threads

Minimization stats:
  Stopping criterion = quadratic factors are zero
  Energy initial, next-to-last, final = 
     -47062.5703231096  -47062.5703231096  -47062.5703231096
  Force two-norm initial, final = 852.79045 852.79045
  Force max component initial, final = 576.18328 576.18328
  Final line search alpha, max atom move = 3.3103158e-13 1.9073486e-10
  Iterations, force evaluations = 1 22

MPI task timing breakdown:
Section |  min time  |  avg time  |  max time  |%varavg| %total
---------------------------------------------------------------
Pair    | 1.4367     | 1.6482     | 1.7512     |   8.3 | 56.25
Neigh   | 1.116      | 1.2061     | 1.4316     |   9.8 | 41.17
Comm    | 0.015389   | 0.055693   | 0.10045    |  10.7 |  1.90
Output  | 0          | 0          | 0          |   0.0 |  0.00
Modify  | 0          | 0          | 0          |   0.0 |  0.00
Other   |            | 0.0199     |            |       |  0.68

Nlocal:        16589.1 ave       16614 max       16545 min
Histogram: 1 0 0 0 1 1 0 3 1 1
Nghost:        17528.4 ave       17567 max       17491 min
Histogram: 1 2 0 0 0 1 2 1 0 1
Neighs:              0 ave           0 max           0 min
Histogram: 8 0 0 0 0 0 0 0 0 0
FullNghs:  2.88105e+06 ave 2.89194e+06 max 2.86308e+06 min
Histogram: 1 0 0 0 1 1 1 2 0 2

Total # of neighbors = 23048416
Ave neighs/atom = 173.67112
Neighbor list builds = 22
Dangerous builds not checked
unfix           1

timestep        0.0005
min_style       quickmin
min_modify      dmax 0.01 norm max
fix             2 all viscous 0.2
minimize        0.0 100 5000 5000
WARNING: Using 'neigh_modify every 1 delay 0 check yes' setting during minimization (../min.cpp:187)
Generated 0 of 0 mixed pair_coeff terms from geometric mixing rule
Per MPI rank memory allocation (min/avg/max) = 20.22 | 20.22 | 20.22 Mbytes
   Step          Temp           Fmax          Fnorm      c_thermo_temp   c_thermo_pe       Press      c_thermo_press[1] c_thermo_press[2] c_thermo_press[3] c_thermo_press[4] c_thermo_press[5] c_thermo_press[6]       Lx             Ly             Lz           Volume    
     10015   0              2.1182404      260.13814      0             -47062.57      -315.04683     -400.42609     -564.61843      19.904037     -324.00892      69.018242     -209.9798       117.8072       117.80712      117.80741      1634993.3    
     10016   0.074871467    2.086078       256.18832      0.074871467   -47062.57      -314.20776     -399.58536     -563.78088      20.742954     -324.0101       69.020376     -209.9756       117.8072       117.80712      117.80741      1634993.3    
Loop time of 0.112587 on 8 procs for 1 steps with 132713 atoms

89.8% CPU use with 8 MPI tasks x no OpenMP threads

Minimization stats:
  Stopping criterion = force tolerance
  Energy initial, next-to-last, final = 
     -47062.5703231096  -47062.5703231096  -47062.5703231096
  Force two-norm initial, final = 260.13814 256.18832
  Force max component initial, final = 2.1182404 2.086078
  Final line search alpha, max atom move = 0 0
  Iterations, force evaluations = 1 1

MPI task timing breakdown:
Section |  min time  |  avg time  |  max time  |%varavg| %total
---------------------------------------------------------------
Pair    | 0.10592    | 0.1086     | 0.11126    |   0.5 | 96.45
Neigh   | 0          | 0          | 0          |   0.0 |  0.00
Comm    | 0.00046478 | 0.0031322  | 0.0058062  |   3.1 |  2.78
Output  | 0          | 0          | 0          |   0.0 |  0.00
Modify  | 0.00015918 | 0.00016206 | 0.00016553 |   0.0 |  0.14
Other   |            | 0.0006975  |            |       |  0.62

Nlocal:        16589.1 ave       16614 max       16545 min
Histogram: 1 0 0 0 1 1 0 3 1 1
Nghost:        17528.4 ave       17567 max       17491 min
Histogram: 1 2 0 0 0 1 2 1 0 1
Neighs:              0 ave           0 max           0 min
Histogram: 8 0 0 0 0 0 0 0 0 0
FullNghs:  2.88105e+06 ave 2.89194e+06 max 2.86308e+06 min
Histogram: 1 0 0 0 1 1 1 2 0 2

Total # of neighbors = 23048416
Ave neighs/atom = 173.67112
Neighbor list builds = 0
Dangerous builds not checked
unfix           2

min_style       cg
min_modify      dmax 0.01 norm max
fix             1 all box/relax tri 0.0
minimize        1.000000e-13 5.000000e+1 1000 10000
WARNING: Using 'neigh_modify every 1 delay 0 check yes' setting during minimization (../min.cpp:187)
Generated 0 of 0 mixed pair_coeff terms from geometric mixing rule
Per MPI rank memory allocation (min/avg/max) = 23.59 | 23.6 | 23.6 Mbytes
   Step          Temp           Fmax          Fnorm      c_thermo_temp   c_thermo_pe       Press      c_thermo_press[1] c_thermo_press[2] c_thermo_press[3] c_thermo_press[4] c_thermo_press[5] c_thermo_press[6]       Lx             Ly             Lz           Volume    
     10016   0.074871467    2.1182404      260.13814      0.074871467   -47062.57      -314.20776     -399.58536     -563.78088      20.742954     -324.0101       69.020376     -209.9756       117.8072       117.80712      117.80741      1634993.3    
     10017   0.074871467    2.1182404      260.13814      0.074871467   -47062.57      -314.20776     -399.58536     -563.78088      20.742954     -324.0101       69.020376     -209.9756       117.8072       117.80712      117.80741      1634993.3    
Loop time of 2.94695 on 8 procs for 1 steps with 132713 atoms

95.1% CPU use with 8 MPI tasks x no OpenMP threads

Minimization stats:
  Stopping criterion = quadratic factors are zero
  Energy initial, next-to-last, final = 
     -47062.5703231096  -47062.5703231096  -47062.5703231096
  Force two-norm initial, final = 852.79045 852.79045
  Force max component initial, final = 576.18328 576.18328
  Final line search alpha, max atom move = 3.3103158e-13 1.9073486e-10
  Iterations, force evaluations = 1 22

MPI task timing breakdown:
Section |  min time  |  avg time  |  max time  |%varavg| %total
---------------------------------------------------------------
Pair    | 1.5345     | 1.6435     | 1.7377     |   6.0 | 55.77
Neigh   | 1.1205     | 1.2084     | 1.3427     |   8.0 | 41.00
Comm    | 0.021341   | 0.074201   | 0.12142    |  11.0 |  2.52
Output  | 0          | 0          | 0          |   0.0 |  0.00
Modify  | 0          | 0          | 0          |   0.0 |  0.00
Other   |            | 0.02092    |            |       |  0.71

Nlocal:        16589.1 ave       16614 max       16545 min
Histogram: 1 0 0 0 1 1 0 3 1 1
Nghost:        17528.4 ave       17567 max       17491 min
Histogram: 1 2 0 0 0 1 2 1 0 1
Neighs:              0 ave           0 max           0 min
Histogram: 8 0 0 0 0 0 0 0 0 0
FullNghs:  2.88105e+06 ave 2.89194e+06 max 2.86308e+06 min
Histogram: 1 0 0 0 1 1 1 2 0 2

Total # of neighbors = 23048416
Ave neighs/atom = 173.67112
Neighbor list builds = 22
Dangerous builds not checked
unfix           1

timestep        0.0005
min_style       quickmin
min_modify      dmax 0.01 norm max
fix             2 all viscous 0.2
minimize        0.0 2.0e+1 10000 10000
WARNING: Using 'neigh_modify every 1 delay 0 check yes' setting during minimization (../min.cpp:187)
Generated 0 of 0 mixed pair_coeff terms from geometric mixing rule
Per MPI rank memory allocation (min/avg/max) = 20.22 | 20.22 | 20.22 Mbytes
   Step          Temp           Fmax          Fnorm      c_thermo_temp   c_thermo_pe       Press      c_thermo_press[1] c_thermo_press[2] c_thermo_press[3] c_thermo_press[4] c_thermo_press[5] c_thermo_press[6]       Lx             Ly             Lz           Volume    
     10017   0              2.1182404      260.13814      0             -47062.57      -315.04683     -400.42609     -564.61843      19.904037     -324.00892      69.018242     -209.9798       117.8072       117.80712      117.80741      1634993.3    
     10018   0.074871467    2.086078       256.18832      0.074871467   -47062.57      -314.20776     -399.58536     -563.78088      20.742954     -324.0101       69.020376     -209.9756       117.8072       117.80712      117.80741      1634993.3    
Loop time of 0.115394 on 8 procs for 1 steps with 132713 atoms

88.6% CPU use with 8 MPI tasks x no OpenMP threads

Minimization stats:
  Stopping criterion = force tolerance
  Energy initial, next-to-last, final = 
     -47062.5703231096  -47062.5703231096  -47062.5703231096
  Force two-norm initial, final = 260.13814 256.18832
  Force max component initial, final = 2.1182404 2.086078
  Final line search alpha, max atom move = 0 0
  Iterations, force evaluations = 1 1

MPI task timing breakdown:
Section |  min time  |  avg time  |  max time  |%varavg| %total
---------------------------------------------------------------
Pair    | 0.10874    | 0.11142    | 0.1141     |   0.5 | 96.56
Neigh   | 0          | 0          | 0          |   0.0 |  0.00
Comm    | 0.00045912 | 0.0031393  | 0.0058268  |   3.1 |  2.72
Output  | 0          | 0          | 0          |   0.0 |  0.00
Modify  | 0.00016277 | 0.0001659  | 0.00017165 |   0.0 |  0.14
Other   |            | 0.0006689  |            |       |  0.58

Nlocal:        16589.1 ave       16614 max       16545 min
Histogram: 1 0 0 0 1 1 0 3 1 1
Nghost:        17528.4 ave       17567 max       17491 min
Histogram: 1 2 0 0 0 1 2 1 0 1
Neighs:              0 ave           0 max           0 min
Histogram: 8 0 0 0 0 0 0 0 0 0
FullNghs:  2.88105e+06 ave 2.89194e+06 max 2.86308e+06 min
Histogram: 1 0 0 0 1 1 1 2 0 2

Total # of neighbors = 23048416
Ave neighs/atom = 173.67112
Neighbor list builds = 0
Dangerous builds not checked
unfix           2

min_style       cg
min_modify      dmax 0.01 norm max
fix             1 all box/relax tri 0.0
minimize        1.000000e-13 1.000000e+1 10000 10000
WARNING: Using 'neigh_modify every 1 delay 0 check yes' setting during minimization (../min.cpp:187)
Generated 0 of 0 mixed pair_coeff terms from geometric mixing rule
Per MPI rank memory allocation (min/avg/max) = 23.59 | 23.6 | 23.6 Mbytes
   Step          Temp           Fmax          Fnorm      c_thermo_temp   c_thermo_pe       Press      c_thermo_press[1] c_thermo_press[2] c_thermo_press[3] c_thermo_press[4] c_thermo_press[5] c_thermo_press[6]       Lx             Ly             Lz           Volume    
     10018   0.074871467    2.1182404      260.13814      0.074871467   -47062.57      -314.20776     -399.58536     -563.78088      20.742954     -324.0101       69.020376     -209.9756       117.8072       117.80712      117.80741      1634993.3    
     10019   0.074871467    2.1182404      260.13814      0.074871467   -47062.57      -314.20776     -399.58536     -563.78088      20.742954     -324.0101       69.020376     -209.9756       117.8072       117.80712      117.80741      1634993.3    
Loop time of 2.99876 on 8 procs for 1 steps with 132713 atoms

95.2% CPU use with 8 MPI tasks x no OpenMP threads

Minimization stats:
  Stopping criterion = quadratic factors are zero
  Energy initial, next-to-last, final = 
     -47062.5703231096  -47062.5703231096  -47062.5703231096
  Force two-norm initial, final = 852.79045 852.79045
  Force max component initial, final = 576.18328 576.18328
  Final line search alpha, max atom move = 3.3103158e-13 1.9073486e-10
  Iterations, force evaluations = 1 22

MPI task timing breakdown:
Section |  min time  |  avg time  |  max time  |%varavg| %total
---------------------------------------------------------------
Pair    | 1.3835     | 1.7076     | 1.8232     |  11.9 | 56.94
Neigh   | 1.1143     | 1.2153     | 1.5575     |  14.1 | 40.53
Comm    | 0.017123   | 0.055945   | 0.091827   |  10.5 |  1.87
Output  | 0          | 0          | 0          |   0.0 |  0.00
Modify  | 0          | 0          | 0          |   0.0 |  0.00
Other   |            | 0.01997    |            |       |  0.67

Nlocal:        16589.1 ave       16614 max       16545 min
Histogram: 1 0 0 0 1 1 0 3 1 1
Nghost:        17528.4 ave       17567 max       17491 min
Histogram: 1 2 0 0 0 1 2 1 0 1
Neighs:              0 ave           0 max           0 min
Histogram: 8 0 0 0 0 0 0 0 0 0
FullNghs:  2.88105e+06 ave 2.89194e+06 max 2.86308e+06 min
Histogram: 1 0 0 0 1 1 1 2 0 2

Total # of neighbors = 23048416
Ave neighs/atom = 173.67112
Neighbor list builds = 22
Dangerous builds not checked
unfix           1

min_style       quickmin
min_modify      dmax 0.01 norm max
fix             2 all viscous 0.1
minimize        0.0 1.0e-0 20000 20000
WARNING: Using 'neigh_modify every 1 delay 0 check yes' setting during minimization (../min.cpp:187)
Generated 0 of 0 mixed pair_coeff terms from geometric mixing rule
Per MPI rank memory allocation (min/avg/max) = 20.22 | 20.22 | 20.22 Mbytes
   Step          Temp           Fmax          Fnorm      c_thermo_temp   c_thermo_pe       Press      c_thermo_press[1] c_thermo_press[2] c_thermo_press[3] c_thermo_press[4] c_thermo_press[5] c_thermo_press[6]       Lx             Ly             Lz           Volume    
     10019   0              2.1182404      260.13814      0             -47062.57      -315.04683     -400.42609     -564.61843      19.904037     -324.00892      69.018242     -209.9798       117.8072       117.80712      117.80741      1634993.3    
     10062   81.5919        0.92268513     124.32684      81.5919       -48777.421     -5549.9051     -5624.3917     -5794.2865     -5231.037      -326.61837      69.126162     -223.66343      117.8072       117.80712      117.80741      1634993.3    
Loop time of 5.74027 on 8 procs for 43 steps with 132713 atoms

95.2% CPU use with 8 MPI tasks x no OpenMP threads

Minimization stats:
  Stopping criterion = force tolerance
  Energy initial, next-to-last, final = 
     -47062.5703231096  -48715.9193586111  -48777.4208687544
  Force two-norm initial, final = 260.13814 124.32684
  Force max component initial, final = 2.1182404 0.92268513
  Final line search alpha, max atom move = 0 0
  Iterations, force evaluations = 43 43

MPI task timing breakdown:
Section |  min time  |  avg time  |  max time  |%varavg| %total
---------------------------------------------------------------
Pair    | 2.6918     | 3.3114     | 3.5        |  14.0 | 57.69
Neigh   | 2.1337     | 2.3107     | 2.8764     |  15.0 | 40.25
Comm    | 0.030063   | 0.096985   | 0.16755    |  14.8 |  1.69
Output  | 0          | 0          | 0          |   0.0 |  0.00
Modify  | 0.0036565  | 0.0037355  | 0.003813   |   0.1 |  0.07
Other   |            | 0.01749    |            |       |  0.30

Nlocal:        16589.1 ave       16608 max       16548 min
Histogram: 1 0 0 1 0 0 1 0 2 3
Nghost:        17530.4 ave       17566 max       17493 min
Histogram: 2 1 0 0 0 0 1 3 0 1
Neighs:              0 ave           0 max           0 min
Histogram: 8 0 0 0 0 0 0 0 0 0
FullNghs:  2.88019e+06 ave 2.88959e+06 max 2.86331e+06 min
Histogram: 1 0 0 0 1 1 1 1 1 2

Total # of neighbors = 23041532
Ave neighs/atom = 173.61925
Neighbor list builds = 42
Dangerous builds not checked
unfix           2

min_style       cg
min_modify      dmax 0.01 norm max
fix             1 all box/relax tri 0.0
minimize        1.000000e-13 5.000000e-1 20000 20000
WARNING: Using 'neigh_modify every 1 delay 0 check yes' setting during minimization (../min.cpp:187)
Generated 0 of 0 mixed pair_coeff terms from geometric mixing rule
Per MPI rank memory allocation (min/avg/max) = 23.59 | 23.6 | 23.6 Mbytes
   Step          Temp           Fmax          Fnorm      c_thermo_temp   c_thermo_pe       Press      c_thermo_press[1] c_thermo_press[2] c_thermo_press[3] c_thermo_press[4] c_thermo_press[5] c_thermo_press[6]       Lx             Ly             Lz           Volume    
     10062   81.5919        1.4066067      189.52028      81.5919       -48777.421     -5549.9051     -5624.3917     -5794.2865     -5231.037      -326.61837      69.126162     -223.66343      117.8072       117.80712      117.80741      1634993.3    
     10084   81.5919        1.4334087      193.42059      81.5919       -48794.835      884.94107      858.13463      809.36683      987.32175     -176.08894      47.606209     -128.63171      117.601        117.58869      117.63167      1626675.2    
Loop time of 8.90256 on 8 procs for 22 steps with 132713 atoms

95.3% CPU use with 8 MPI tasks x no OpenMP threads

Minimization stats:
  Stopping criterion = quadratic factors are zero
  Energy initial, next-to-last, final = 
     -48777.4208687544  -48794.8352359533  -48794.8352359533
  Force two-norm initial, final = 11442.444 333.97134
  Force max component initial, final = 6845.093 178.66563
  Final line search alpha, max atom move = 2.6688801e-13 4.7683716e-11
  Iterations, force evaluations = 22 67

MPI task timing breakdown:
Section |  min time  |  avg time  |  max time  |%varavg| %total
---------------------------------------------------------------
Pair    | 4.2993     | 5.0007     | 5.3105     |  13.0 | 56.17
Neigh   | 3.4456     | 3.682      | 4.3957     |  15.1 | 41.36
Comm    | 0.048064   | 0.15199    | 0.25689    |  17.6 |  1.71
Output  | 0          | 0          | 0          |   0.0 |  0.00
Modify  | 0          | 0          | 0          |   0.0 |  0.00
Other   |            | 0.06789    |            |       |  0.76

Nlocal:        16589.1 ave       16608 max       16548 min
Histogram: 1 0 0 1 0 0 1 0 2 3
Nghost:        17565.4 ave       17593 max       17540 min
Histogram: 3 0 0 0 0 0 3 1 0 1
Neighs:              0 ave           0 max           0 min
Histogram: 8 0 0 0 0 0 0 0 0 0
FullNghs:  2.89233e+06 ave  2.9015e+06 max   2.876e+06 min
Histogram: 1 0 0 0 1 1 1 2 0 2

Total # of neighbors = 23138666
Ave neighs/atom = 174.35116
Neighbor list builds = 67
Dangerous builds not checked
unfix           1

min_style       quickmin
min_modify      dmax 0.01 norm max
fix             2 all viscous 0.2
minimize        0.0 4.0e-1 20000 20000
WARNING: Using 'neigh_modify every 1 delay 0 check yes' setting during minimization (../min.cpp:187)
Generated 0 of 0 mixed pair_coeff terms from geometric mixing rule
Per MPI rank memory allocation (min/avg/max) = 20.22 | 20.22 | 20.22 Mbytes
   Step          Temp           Fmax          Fnorm      c_thermo_temp   c_thermo_pe       Press      c_thermo_press[1] c_thermo_press[2] c_thermo_press[3] c_thermo_press[4] c_thermo_press[5] c_thermo_press[6]       Lx             Ly             Lz           Volume    
     10084   0              1.4334087      193.42059      0             -48794.835     -34.111024     -62.829602     -108.71921      69.21574      -175.64843      45.825531     -134.7273       117.601        117.58869      117.63167      1626675.2    
     10100   8.2785693      1.0758101      145.18452      8.2785693     -48950.792     -500.695       -528.31937     -576.16592     -397.59972     -176.56978      46.380035     -136.49249      117.601        117.58869      117.63167      1626675.2    
     10162   23.663812      0.34878768     46.640322      23.663812     -50497.597     -5856.3222     -5873.6591     -5936.0262     -5759.2814     -188.88269      50.706752     -165.61974      117.601        117.58869      117.63167      1626675.2    
Loop time of 10.3832 on 8 procs for 78 steps with 132713 atoms

95.4% CPU use with 8 MPI tasks x no OpenMP threads

Minimization stats:
  Stopping criterion = force tolerance
  Energy initial, next-to-last, final = 
     -48794.8352359533  -50476.8559302092  -50497.5973713398
  Force two-norm initial, final = 193.42059 46.640322
  Force max component initial, final = 1.4334087 0.34878768
  Final line search alpha, max atom move = 0 0
  Iterations, force evaluations = 78 78

MPI task timing breakdown:
Section |  min time  |  avg time  |  max time  |%varavg| %total
---------------------------------------------------------------
Pair    | 5.3733     | 5.9118     | 6.2743     |  14.0 | 56.94
Neigh   | 3.9586     | 4.2242     | 4.649      |  12.6 | 40.68
Comm    | 0.057699   | 0.20773    | 0.35951    |  21.3 |  2.00
Output  | 0.00018628 | 0.00018792 | 0.00019812 |   0.0 |  0.00
Modify  | 0.006616   | 0.0067738  | 0.0069295  |   0.1 |  0.07
Other   |            | 0.03257    |            |       |  0.31

Nlocal:        16589.1 ave       16618 max       16551 min
Histogram: 1 0 0 1 1 1 0 2 1 1
Nghost:        17568.1 ave       17588 max       17533 min
Histogram: 1 1 0 1 0 0 0 0 3 2
Neighs:              0 ave           0 max           0 min
Histogram: 8 0 0 0 0 0 0 0 0 0
FullNghs:  2.88923e+06 ave 2.89915e+06 max 2.87424e+06 min
Histogram: 1 0 0 0 2 1 0 2 1 1

Total # of neighbors = 23113818
Ave neighs/atom = 174.16393
Neighbor list builds = 77
Dangerous builds not checked
unfix           2

min_style       cg
min_modify      dmax 0.01 norm max
fix             1 all box/relax tri 0.0
minimize        1.000000e-13 2.000000e-1 20000 20000
WARNING: Using 'neigh_modify every 1 delay 0 check yes' setting during minimization (../min.cpp:187)
Generated 0 of 0 mixed pair_coeff terms from geometric mixing rule
Per MPI rank memory allocation (min/avg/max) = 23.59 | 23.6 | 23.6 Mbytes
   Step          Temp           Fmax          Fnorm      c_thermo_temp   c_thermo_pe       Press      c_thermo_press[1] c_thermo_press[2] c_thermo_press[3] c_thermo_press[4] c_thermo_press[5] c_thermo_press[6]       Lx             Ly             Lz           Volume    
     10162   23.663812      0.85149765     116.80335      23.663812     -50497.597     -5856.3222     -5873.6591     -5936.0262     -5759.2814     -188.88269      50.706752     -165.61974      117.601        117.58869      117.63167      1626675.2    
     10182   23.663812      0.8682518      118.8596       23.663812     -50511.537     -48.441731     -57.368883     -86.947696     -1.0086146     -125.92574      37.274167     -114.04343      117.42375      117.40781      117.46108      1619373.1    
Loop time of 11.4163 on 8 procs for 20 steps with 132713 atoms

95.3% CPU use with 8 MPI tasks x no OpenMP threads

Minimization stats:
  Stopping criterion = quadratic factors are zero
  Energy initial, next-to-last, final = 
     -50497.5973713398  -50511.5368344784  -50511.5368344784
  Force two-norm initial, final = 10771.884 597.56153
  Force max component initial, final = 6297.8704 359.51105
  Final line search alpha, max atom move = 5.3053965e-13 1.9073486e-10
  Iterations, force evaluations = 20 84

MPI task timing breakdown:
Section |  min time  |  avg time  |  max time  |%varavg| %total
---------------------------------------------------------------
Pair    | 5.7753     | 6.5002     | 6.9117     |  15.3 | 56.94
Neigh   | 4.2923     | 4.6284     | 5.4206     |  17.7 | 40.54
Comm    | 0.056543   | 0.20822    | 0.35549    |  21.8 |  1.82
Output  | 0          | 0          | 0          |   0.0 |  0.00
Modify  | 0          | 0          | 0          |   0.0 |  0.00
Other   |            | 0.07951    |            |       |  0.70

Nlocal:        16589.1 ave       16618 max       16551 min
Histogram: 1 0 0 1 1 1 0 2 1 1
Nghost:        17595.8 ave       17619 max       17561 min
Histogram: 2 0 0 1 0 0 0 1 1 3
Neighs:              0 ave           0 max           0 min
Histogram: 8 0 0 0 0 0 0 0 0 0
FullNghs:  2.89952e+06 ave 2.90906e+06 max  2.8851e+06 min
Histogram: 1 0 0 0 2 1 0 2 1 1

Total # of neighbors = 23196186
Ave neighs/atom = 174.78458
Neighbor list builds = 84
Dangerous builds not checked
unfix           1

timestep        0.0005
min_style       quickmin
min_modify      dmax 0.01 norm max
fix             2 all viscous 0.2
minimize        0.0 1.0e-1 40000 40000
WARNING: Using 'neigh_modify every 1 delay 0 check yes' setting during minimization (../min.cpp:187)
Generated 0 of 0 mixed pair_coeff terms from geometric mixing rule
Per MPI rank memory allocation (min/avg/max) = 20.22 | 20.22 | 20.22 Mbytes
   Step          Temp           Fmax          Fnorm      c_thermo_temp   c_thermo_pe       Press      c_thermo_press[1] c_thermo_press[2] c_thermo_press[3] c_thermo_press[4] c_thermo_press[5] c_thermo_press[6]       Lx             Ly             Lz           Volume    
     10182   0              0.8682518      118.8596       0             -50511.537     -316.19311     -325.44731     -355.14613     -267.98588     -126.37809      36.614355     -116.32249      117.42375      117.40781      117.46108      1619373.1    
     10200   3.8505688      0.63630422     86.892122      3.8505688     -50586.708     -538.57289     -546.97619     -578.31096     -490.43153     -127.26797      36.91534      -117.4843       117.42375      117.40781      117.46108      1619373.1    
     10300   3.6474095      0.32170504     39.769626      3.6474095     -51522.614     -3764.8197     -3760.4934     -3817.1401     -3716.8255     -140.85737      42.656603     -141.70846      117.42375      117.40781      117.46108      1619373.1    
     10400   2.8926826      0.21834721     20.686881      2.8926826     -51918.312     -5048.9885     -5038.0507     -5109.0672     -4999.8476     -146.6805       46.779357     -154.89523      117.42375      117.40781      117.46108      1619373.1    
     10500   1.3202359      0.27289088     16.368338      1.3202359     -52127.236     -5696.1897     -5680.8016     -5761.1467     -5646.621      -149.7319       50.677194     -162.18202      117.42375      117.40781      117.46108      1619373.1    
     10600   0.69621611     0.19657561     13.276505      0.69621611    -52258.092     -6074.7465     -6057.1056     -6142.1495     -6024.9843     -150.9547       53.316403     -166.83558      117.42375      117.40781      117.46108      1619373.1    
     10700   0.4729943      0.15446226     10.427358      0.4729943     -52346.489     -6317.3963     -6298.0808     -6386.5544     -6267.5537     -151.74981      55.886796     -171.68854      117.42375      117.40781      117.46108      1619373.1    
     10800   0.3385582      0.16226189     8.5364599      0.3385582     -52410.181     -6482.8193     -6462.8373     -6552.2309     -6433.3896     -151.53946      57.819624     -175.32614      117.42375      117.40781      117.46108      1619373.1    
     10900   0.24516964     0.16218123     7.3013404      0.24516964    -52456.865     -6597.0978     -6576.5133     -6666.7415     -6548.0386     -151.12048      59.660644     -178.41571      117.42375      117.40781      117.46108      1619373.1    
     11000   0.18455971     0.1427993      6.3622306      0.18455971    -52492.565     -6682.0338     -6661.2523     -6750.8266     -6634.0227     -151.0215       61.34319      -181.38162      117.42375      117.40781      117.46108      1619373.1    
     11100   0.14245052     0.10265285     5.6520701      0.14245052    -52519.92      -6744.6141     -6723.1446     -6812.8366     -6697.861      -150.27725      63.174565     -184.06166      117.42375      117.40781      117.46108      1619373.1    
     11200   0.11375601     0.11422248     5.0584241      0.11375601    -52541.966     -6789.1746     -6768.795      -6856.4263     -6742.3024     -150.68366      63.917418     -186.61541      117.42375      117.40781      117.46108      1619373.1    
     11300   0.093882588    0.10558971     4.5502402      0.093882588   -52559.894     -6825.7764     -6805.4918     -6891.4967     -6780.3406     -150.13655      64.934013     -188.92806      117.42375      117.40781      117.46108      1619373.1    
     11386   0.078367155    0.084409473    4.2475829      0.078367155   -52572.827     -6851.0828     -6831.5237     -6915.9663     -6805.7584     -149.46334      65.516189     -190.37415      117.42375      117.40781      117.46108      1619373.1    
Loop time of 162.035 on 8 procs for 1204 steps with 132713 atoms

95.4% CPU use with 8 MPI tasks x no OpenMP threads

Minimization stats:
  Stopping criterion = force tolerance
  Energy initial, next-to-last, final = 
     -50511.5368344784  -52572.6954702139  -52572.8273909092
  Force two-norm initial, final = 118.8596 4.2475829
  Force max component initial, final = 0.8682518 0.084409473
  Final line search alpha, max atom move = 0 0
  Iterations, force evaluations = 1204 1204

MPI task timing breakdown:
Section |  min time  |  avg time  |  max time  |%varavg| %total
---------------------------------------------------------------
Pair    | 88.473     | 92.231     | 94.745     |  20.3 | 56.92
Neigh   | 63.244     | 66.098     | 67.749     |  15.7 | 40.79
Comm    | 0.8884     | 3.0946     | 5.2016     |  80.3 |  1.91
Output  | 0.0023021  | 0.0023221  | 0.0024467  |   0.1 |  0.00
Modify  | 0.098782   | 0.10063    | 0.10271    |   0.4 |  0.06
Other   |            | 0.5082     |            |       |  0.31

Nlocal:        16589.1 ave       16621 max       16538 min
Histogram: 1 0 0 0 2 1 0 1 2 1
Nghost:        17599.9 ave       17649 max       17555 min
Histogram: 1 0 2 1 0 0 2 1 0 1
Neighs:              0 ave           0 max           0 min
Histogram: 8 0 0 0 0 0 0 0 0 0
FullNghs:  2.88947e+06 ave 2.89725e+06 max 2.87551e+06 min
Histogram: 1 0 0 0 0 3 0 1 1 2

Total # of neighbors = 23115768
Ave neighs/atom = 174.17863
Neighbor list builds = 1203
Dangerous builds not checked
unfix           2

min_style       cg
min_modify      dmax 0.01 norm max
fix             1 all box/relax tri 0.0
minimize        1.000000e-13 1.000000e-1 40000 40000
WARNING: Using 'neigh_modify every 1 delay 0 check yes' setting during minimization (../min.cpp:187)
Generated 0 of 0 mixed pair_coeff terms from geometric mixing rule
Per MPI rank memory allocation (min/avg/max) = 23.59 | 23.6 | 23.6 Mbytes
   Step          Temp           Fmax          Fnorm      c_thermo_temp   c_thermo_pe       Press      c_thermo_press[1] c_thermo_press[2] c_thermo_press[3] c_thermo_press[4] c_thermo_press[5] c_thermo_press[6]       Lx             Ly             Lz           Volume    
     11386   0.078367155    0.16459084     8.2537522      0.078367155   -52572.827     -6851.0828     -6831.5237     -6915.9663     -6805.7584     -149.46334      65.516189     -190.37415      117.42375      117.40781      117.46108      1619373.1    
     11400   0.078367155    0.16747665     8.4304118      0.078367155   -52601.301     -1517.163      -1501.5252     -1564.8582     -1485.1055     -117.50888      54.543156     -154.68808      117.26254      117.24344      117.30075      1612681.7    
     11409   0.078367155    0.16678429     8.4813098      0.078367155   -52603.857      28.004113      27.652908      27.768432      28.591001     -4.9636663      3.9943841     -9.5444453      117.21842      117.19248      117.25876      1610797.3    
Loop time of 17.1858 on 8 procs for 23 steps with 132713 atoms

95.5% CPU use with 8 MPI tasks x no OpenMP threads

Minimization stats:
  Stopping criterion = linesearch alpha is zero
  Energy initial, next-to-last, final = 
     -52572.8273909092  -52603.8566530943  -52603.8566530943
  Force two-norm initial, final = 11998.303 49.426503
  Force max component initial, final = 6991.0998 27.902283
  Final line search alpha, max atom move = 3.4702422e-12 9.682768e-11
  Iterations, force evaluations = 23 125

MPI task timing breakdown:
Section |  min time  |  avg time  |  max time  |%varavg| %total
---------------------------------------------------------------
Pair    | 8.2395     | 9.8883     | 10.499     |  21.4 | 57.54
Neigh   | 6.4829     | 6.8708     | 8.3431     |  22.0 | 39.98
Comm    | 0.088906   | 0.31219    | 0.55065    |  27.2 |  1.82
Output  | 0.00016997 | 0.00017117 | 0.00017593 |   0.0 |  0.00
Modify  | 0          | 0          | 0          |   0.0 |  0.00
Other   |            | 0.1143     |            |       |  0.67

Nlocal:        16589.1 ave       16621 max       16538 min
Histogram: 1 0 0 0 2 1 0 1 2 1
Nghost:        17639.4 ave       17684 max       17596 min
Histogram: 1 1 0 2 0 0 2 1 0 1
Neighs:              0 ave           0 max           0 min
Histogram: 8 0 0 0 0 0 0 0 0 0
FullNghs:  2.89914e+06 ave 2.90637e+06 max 2.88611e+06 min
Histogram: 1 0 0 0 0 3 0 2 0 2

Total # of neighbors = 23193098
Ave neighs/atom = 174.76131
Neighbor list builds = 125
Dangerous builds not checked
unfix           1

min_style       quickmin
min_modify      dmax 0.01 norm max
fix             2 all viscous 0.2
minimize        0.0 5.0e-2 40000 40000
WARNING: Using 'neigh_modify every 1 delay 0 check yes' setting during minimization (../min.cpp:187)
Generated 0 of 0 mixed pair_coeff terms from geometric mixing rule
Per MPI rank memory allocation (min/avg/max) = 20.22 | 20.22 | 20.22 Mbytes
   Step          Temp           Fmax          Fnorm      c_thermo_temp   c_thermo_pe       Press      c_thermo_press[1] c_thermo_press[2] c_thermo_press[3] c_thermo_press[4] c_thermo_press[5] c_thermo_press[6]       Lx             Ly             Lz           Volume    
     11409   0              0.16678429     8.4813098      0             -52603.857      27.112684      26.762074      26.870827      27.70515      -4.972197       3.9942495     -9.5415305      117.21842      117.19248      117.25876      1610797.3    
     11500   0.064467015    0.085879502    4.255434       0.064467015   -52612.954     -1.7286411     -1.7399476     -3.8053159      0.35934022    -8.8411936      6.870705      -16.587319      117.21842      117.19248      117.25876      1610797.3    
     11600   0.058494943    0.07802817     3.7853689      0.058494943   -52623.554     -33.610768     -32.917579     -36.803356     -31.11137      -12.306627      8.8784513     -22.944115      117.21842      117.19248      117.25876      1610797.3    
     11700   0.052310644    0.071225863    3.433922       0.052310644   -52632.209     -55.54329      -54.859315     -58.826096     -52.944459     -15.051812      10.630372     -27.238681      117.21842      117.19248      117.25876      1610797.3    
     11800   0.044661053    0.068592353    3.2182361      0.044661053   -52639.895     -75.342799     -74.784368     -78.505638     -72.738391     -17.150054      12.216527     -31.379107      117.21842      117.19248      117.25876      1610797.3    
     11900   0.037527896    0.067475817    3.0620388      0.037527896   -52646.627     -91.51519      -90.810445     -94.940403     -88.794723     -18.849641      13.070815     -34.771338      117.21842      117.19248      117.25876      1610797.3    
     12000   0.035358053    0.064647011    2.785242       0.035358053   -52652.238     -105.10822     -104.41688     -108.22854     -102.67923     -20.926838      13.810474     -37.342802      117.21842      117.19248      117.25876      1610797.3    
     12100   0.030798701    0.064079344    2.653914       0.030798701   -52657.44      -117.26362     -116.69739     -120.04107     -115.05242     -22.456165      14.589484     -40.241003      117.21842      117.19248      117.25876      1610797.3    
     12200   0.026502244    0.062823919    2.551298       0.026502244   -52662.126     -128.0121      -128.08305     -130.20565     -125.7476      -24.059582      14.999965     -42.898082      117.21842      117.19248      117.25876      1610797.3    
     12300   0.024172456    0.06017531     2.400746       0.024172456   -52665.878     -136.23254     -136.29372     -138.05371     -134.35019     -26.049283      15.596473     -45.430801      117.21842      117.19248      117.25876      1610797.3    
     12400   0.021754873    0.058244067    2.2885192      0.021754873   -52669.49      -143.28642     -143.9038      -144.65304     -141.30242     -27.354576      16.246149     -47.706709      117.21842      117.19248      117.25876      1610797.3    
     12500   0.020177517    0.055461955    2.1570186      0.020177517   -52672.962     -150.17031     -150.8488      -150.85881     -148.80332     -28.619396      16.902065     -49.6399        117.21842      117.19248      117.25876      1610797.3    
     12600   0.017109892    0.055376836    2.141686       0.017109892   -52676.026     -155.95991     -156.7183      -156.35898     -154.80243     -30.260665      17.286483     -51.756148      117.21842      117.19248      117.25876      1610797.3    
     12700   0.016771741    0.052429405    1.98465        0.016771741   -52678.841     -160.79449     -161.84071     -160.71016     -159.83259     -31.80174       17.307199     -53.692297      117.21842      117.19248      117.25876      1610797.3    
     12800   0.014936316    0.053546001    1.9319205      0.014936316   -52681.553     -165.9116      -167.45475     -165.38528     -164.89479     -33.547877      17.198057     -55.522194      117.21842      117.19248      117.25876      1610797.3    
     12900   0.013653209    0.053636381    1.8605719      0.013653209   -52683.998     -170.69539     -173.05877     -169.84087     -169.18654     -34.93308       17.274776     -57.251348      117.21842      117.19248      117.25876      1610797.3    
     13000   0.012611443    0.053006131    1.8004394      0.012611443   -52686.089     -174.21574     -176.88806     -172.85791     -172.90126     -35.842902      17.663523     -58.781351      117.21842      117.19248      117.25876      1610797.3    
     13100   0.011689024    0.053360439    1.7350029      0.011689024   -52687.942     -176.33377     -179.45332     -174.49033     -175.05766     -36.696574      17.965447     -60.434934      117.21842      117.19248      117.25876      1610797.3    
     13200   0.010594217    0.052699164    1.6905625      0.010594217   -52689.922     -180.19168     -183.68433     -177.99342     -178.89728     -37.675023      18.216107     -62.082224      117.21842      117.19248      117.25876      1610797.3    
     13300   0.010041203    0.051543684    1.620385       0.010041203   -52691.62      -181.6611      -185.28322     -179.18469     -180.51539     -38.920853      18.379516     -63.22558       117.21842      117.19248      117.25876      1610797.3    
     13400   0.0095602041   0.05011608     1.5580598      0.0095602041  -52693.281     -182.84185     -186.87357     -180.18426     -181.46772     -40.154583      18.370068     -64.823196      117.21842      117.19248      117.25876      1610797.3    
     13500   0.0086329778   0.049962444    1.5369516      0.0086329778  -52694.688     -184.57322     -189.01055     -181.62087     -183.08825     -41.533253      18.724301     -65.739599      117.21842      117.19248      117.25876      1610797.3    
     13600   0.0080538224   0.049626618    1.489582       0.0080538224  -52696.124     -186.8161      -191.71706     -183.38194     -185.34931     -43.039459      18.678107     -66.852695      117.21842      117.19248      117.25876      1610797.3    
     13700   0.0076360063   0.047878153    1.4407056      0.0076360063  -52697.306     -187.19838     -192.21587     -183.98837     -185.3909      -44.074202      18.575752     -67.908431      117.21842      117.19248      117.25876      1610797.3    
     13800   0.0068172589   0.048378457    1.4333922      0.0068172589  -52698.606     -189.62659     -195.06015     -186.14305     -187.67657     -45.38026       18.555309     -69.238451      117.21842      117.19248      117.25876      1610797.3    
     13900   0.0064465374   0.048139853    1.393084       0.0064465374  -52699.707     -191.05193     -196.65862     -187.46569     -189.03148     -46.557978      18.323431     -70.395346      117.21842      117.19248      117.25876      1610797.3    
     14000   0.0058748534   0.048113627    1.3763326      0.0058748534  -52700.54      -191.09327     -197.41497     -187.30791     -188.55691     -47.881384      18.320686     -71.371749      117.21842      117.19248      117.25876      1610797.3    
     14100   0.0056277475   0.047504932    1.3361278      0.0056277475  -52701.592     -191.99808     -198.81462     -187.96575     -189.21388     -48.917207      18.338401     -72.423217      117.21842      117.19248      117.25876      1610797.3    
     14200   0.0054296907   0.046695779    1.2944302      0.0054296907  -52702.722     -193.43741     -200.51322     -189.33066     -190.46834     -50.006978      18.286161     -73.13282       117.21842      117.19248      117.25876      1610797.3    
     14300   0.0050860795   0.046332156    1.270671       0.0050860795  -52703.732     -194.25037     -201.76722     -190.01143     -190.97247     -51.155354      18.211682     -74.247536      117.21842      117.19248      117.25876      1610797.3    
     14400   0.0048519063   0.045597661    1.2352848      0.0048519063  -52704.469     -193.76556     -201.59868     -189.40378     -190.29421     -52.056769      18.058832     -75.371928      117.21842      117.19248      117.25876      1610797.3    
     14500   0.0049622289   0.043371828    1.1725607      0.0049622289  -52705.321     -194.21828     -202.57879     -189.44921     -190.62683     -53.260014      17.972886     -76.05361       117.21842      117.19248      117.25876      1610797.3    
     14600   0.0045248424   0.043896413    1.1634133      0.0045248424  -52706.123     -195.15557     -203.98455     -190.23473     -191.24744     -54.475896      17.919709     -77.102072      117.21842      117.19248      117.25876      1610797.3    
     14700   0.0041036789   0.044328895    1.1632957      0.0041036789  -52706.834     -195.88386     -204.91395     -190.85066     -191.88697     -55.856333      17.679831     -77.683522      117.21842      117.19248      117.25876      1610797.3    
     14800   0.0038209783   0.043992162    1.1515641      0.0038209783  -52707.592     -196.66907     -206.41154     -191.29417     -192.30151     -56.745451      17.527934     -78.452374      117.21842      117.19248      117.25876      1610797.3    
     14900   0.0036535094   0.042907859    1.1272006      0.0036535094  -52708.294     -197.94178     -207.79417     -192.55642     -193.47475     -57.49574       17.465765     -79.280555      117.21842      117.19248      117.25876      1610797.3    
     15000   0.0036459457   0.041567556    1.0867838      0.0036459457  -52709.009     -198.30867     -208.4096      -192.76291     -193.75348     -58.566619      17.578874     -80.078727      117.21842      117.19248      117.25876      1610797.3    
     15100   0.0033942388   0.041346729    1.0775         0.0033942388  -52709.543     -198.03277     -208.35991     -192.3105      -193.4279      -59.504058      17.261928     -80.722625      117.21842      117.19248      117.25876      1610797.3    
     15200   0.0031904988   0.04084919     1.0648219      0.0031904988  -52710.163     -198.3225      -208.80665     -192.53211     -193.62874     -60.41052       17.233279     -81.531441      117.21842      117.19248      117.25876      1610797.3    
     15300   0.0030880358   0.040017635    1.0400402      0.0030880358  -52710.605     -197.8041      -208.50774     -191.93387     -192.97068     -61.58279       17.075176     -82.160623      117.21842      117.19248      117.25876      1610797.3    
[...]
    260200   299.5359       2.1811409      254.15517      299.5359      -46602.432     -6341.653      -1074.4345      543.86619     -18494.391      1.0551736     -456.96995     -38.49044       112.12914      112.10432      131.14731      1648542.8    
    260300   298.95427      2.1432152      254.37641      298.95427     -46601.213     -5777.6762     -613.20278      1290.7834     -18010.609     -24.164404     -340.29236     -74.307344      112.08896      112.06414      131.17679      1647731.7    
    260400   299.23942      2.1631947      253.97814      299.23942     -46603.823     -6364.4103     -1056.5411      547.54702     -18584.237      67.455499     -320.99443     -87.637636      112.10137      112.07655      131.20627      1648467.1    
    260500   300.03607      2.2012424      254.48804      300.03607     -46587.033     -5868.3605     -646.52564      1031.9162     -17990.472     -110.65972     -331.74849      10.934754      112.0702       112.04538      131.23575      1647920.5    
    260600   300.45973      2.4840164      254.88498      300.45973     -46577.359     -6221.891      -1108.0785      857.92437     -18415.519      88.630026     -326.42366     -88.297309      112.0742       112.04939      131.26523      1648408.4    
    260700   300.65472      2.343977       254.27751      300.65472     -46592.388     -6128.7082     -873.83024      811.67094     -18323.965      40.857553     -481.63443     -77.11202       112.05691      112.0321       131.2947       1648270      
    260800   300.71165      2.1854763      254.13461      300.71165     -46606.335     -5929.1092     -662.76563      962.00659     -18086.568      198.39658     -429.37673     -37.80195       112.03345      112.00864      131.32418      1647949.6    
    260900   299.93466      2.3520813      253.93226      299.93466     -46595.229     -6342.1903     -1276.943       698.69828     -18448.326      206.62135     -424.64832     -99.798995      112.04091      112.0161       131.35366      1648539.1    
    261000   299.76619      2.1717987      254.51891      299.76619     -46596.55      -5780.0823     -367.96266      1092.6604     -18064.945     -16.563011     -449.46896     -16.163146      112.0007       111.9759       131.38314      1647725.8    
    261100   299.45182      2.0948353      253.89168      299.45182     -46606.281     -6441.8853     -1064.5845      375.10999     -18636.181     -36.494022     -318.0868      -32.851745      112.0171       111.99229      131.41262      1648578.1    
    261200   299.50037      2.08358        254.69029      299.50037     -46612.321     -5832.3718     -658.44554      1210.0044     -18048.674     -33.100378     -442.1369      -28.842649      111.97583      111.95103      131.4421       1647733      
    261300   300.1569       2.3126163      253.60177      300.1569      -46639.457     -6319.6644     -1305.9931      703.90045     -18356.901      235.00232     -336.63447     -256.13959      111.98229      111.95749      131.47157      1648292.9    
    261400   299.14701      2.3315449      254.15893      299.14701     -46630.581     -5842.9774     -712.08499      1199.176      -18016.023     -15.2911       -260.75928     -181.01099      111.94926      111.92447      131.50105      1647690      
    261500   300.36196      2.2533607      253.60497      300.36196     -46628.494     -6210.03       -1100.6699      740.9223      -18270.343      202.34932     -355.9552      -55.105522      111.95412      111.92933      131.53053      1648202.5    
    261600   300.30345      2.2278252      254.16493      300.30345     -46600.941     -5981.8722     -569.89187      764.01608     -18139.741      137.75521     -372.93561     -97.09624       111.93717      111.91239      131.56001      1648072.8    
    261700   300.77885      2.5211411      254.17666      300.77885     -46606.673     -6015.5234     -798.42539      695.64047     -17943.785     -25.031678     -426.21632     -125.79944      111.92318      111.8984       131.58949      1648030      
    261800   300.16429      2.3069687      253.76698      300.16429     -46605.092     -6209.0897     -966.66784      577.93418     -18238.536      108.71217     -258.14188     -35.463942      111.91935      111.89457      131.61897      1648286.4    
    261900   300.85644      2.7179108      253.67633      300.85644     -46622.785     -5926.6563     -655.16442      1034.3096     -18159.114      97.682412     -357.95577     -13.12416       111.89054      111.86576      131.64845      1647806.7    
    262000   300.1117       2.0978737      253.73693      300.1117      -46608.143     -6442.1192     -1077.4604      459.84809     -18708.745      144.18283     -383.44515     -162.87505      111.9051       111.88032      131.67792      1648604.6    
    262100   300.36016      2.90695        254.60951      300.36016     -46609.417     -5827.7202     -759.94109      1420.4186     -18143.638      20.916646     -278.18662     -216.23534      111.86235      111.83758      131.7074       1647714.3    
    262200   299.81936      2.5340843      254.49459      299.81936     -46604.721     -6170.7455     -992.26966      803.46845     -18323.435      91.273802     -409.03787     -170.6764       111.8695       111.84473      131.73688      1648293.6    
    262300   300.54707      2.4074001      254.1052       300.54707     -46622.965     -6049.3805     -814.4254       956.19657     -18289.913      117.15164     -441.26028     -175.0449       111.84545      111.82068      131.76636      1647953.6    
    262400   299.58809      2.4778786      253.9607       299.58809     -46619.403     -6070.5239     -946.51067      850.47947     -18115.54       191.19698     -350.82361     -184.28538      111.8362       111.81144      131.79584      1648049.8    
    262500   298.64139      2.0793438      253.69165      298.64139     -46633.41      -6123.9567     -968.15115      914.88495     -18318.604     -90.481029     -453.04701     -197.78058      111.82401      111.79924      131.82532      1648058.9    
    262600   298.91997      2.3960438      254.26438      298.91997     -46625.353     -5807.8606     -863.74791      1261.5678     -17821.402      108.6069      -290.66252     -203.88685      111.79723      111.77247      131.85479      1647638      
    262700   300.69244      2.3015194      253.655        300.69244     -46630.025     -6245.5602     -1178.0172      584.79559     -18143.459      86.890466     -239.88808     -138.57095      111.80525      111.78049      131.88427      1648243      
    262800   300.00035      2.2118225      254.56266      300.00035     -46602.645     -5599.5332     -319.63239      1013.6694     -17492.637      156.69103     -284.50169     -130.9225       111.76497      111.74022      131.91375      1647423.8    
    262900   300.38429      2.5920448      253.89845      300.38429     -46617.041     -6318.0222     -1400.7424      416.33028     -17969.654      70.370219     -348.05498     -64.50035       111.78445      111.75969      131.94323      1648366.1    
    263000   300.19572      2.2417278      254.0379       300.19572     -46629.726     -5630.2599     -373.79707      1354.1741     -17871.157      261.22596     -183.48099     -134.13715      111.7397       111.71495      131.97271      1647414.7    
    263100   299.43641      2.1957188      253.92713      299.43641     -46615.839     -6335.2749     -1287.3019      478.85013     -18197.373      205.95864     -231.67837     -158.82312      111.76216      111.73741      132.00219      1648445.2    
    263200   301.24533      2.0589142      254.26029      301.24533     -46639.959     -5637.8035     -458.8946       1244.5142     -17699.03       154.13644     -106.98563     -364.52663      111.715        111.69026      132.03167      1647422.2    
    263300   299.67413      2.3324261      254.50432      299.67413     -46620.009     -6201.0506     -1421.6482      551.61263     -17733.116      119.8946      -34.152392     -247.82171      111.72981      111.70506      132.06114      1648226.8    
    263400   300.38495      2.1680241      254.2543       300.38495     -46650.817     -5659.4853     -520.85224      1072.3187     -17529.922      236.52157     -228.48498     -218.60288      111.68812      111.66338      132.09062      1647364.6    
    263500   300.09672      2.0513153      253.89895      300.09672     -46651.586     -6005.6826     -1053.4464      794.418       -17758.019      357.1536      -172.81244     -390.48506      111.69309      111.66836      132.1201       1647879.1    
    263600   300.66384      2.1984444      253.9218       300.66384     -46652.472     -6016.9161     -972.59012      734.56052     -17812.719      352.48466     -170.35436     -338.95852      111.68043      111.65569      132.14958      1647872.9    
    263700   300.93771      2.0740662      254.2498       300.93771     -46649.213     -5607.7046     -760.46727      1189.117      -17251.764      384.54924     -28.020127     -158.77997      111.64772      111.62299      132.17906      1647275.3    
    263800   299.54799      2.0928707      254.0101       299.54799     -46627.234     -6196.9965     -1195.9528      613.50471     -18008.541      303.61704      14.077673     -224.899        111.66502      111.64029      132.20854      1648153.2    
    263900   299.84584      2.1199322      254.42375      299.84584     -46651.331     -5524.048      -629.16527      1344.2534     -17287.232      437.14275     -10.816173     -409.62336      111.61961      111.59489      132.23801      1647180.3    
    264000   299.00107      2.3213711      253.80548      299.00107     -46655.409     -6054.1028     -1099.3881      635.43449     -17698.355      153.57343     -133.07651     -330.81655      111.62999      111.60526      132.26749      1647853.8    
    264100   300.0018       2.1668949      254.3697       300.0018      -46659.216     -5505.0049     -632.17894      1090.9183     -16973.754      349.74633      6.7785736     -207.97728      111.59241      111.56769      132.29697      1647111.5    
    264200   300.00185      2.1804829      254.42243      300.00185     -46645.006     -5888.2772     -1250.5446      946.75414     -17361.041      405.97436     -32.50097      -63.78361       111.60115      111.57644      132.32645      1647736.7    
    264300   300.84114      2.4787865      254.24321      300.84114     -46652.026     -5722.155      -1052.6651      1060.5487     -17174.349      293.80876      23.424742     -91.684664      111.57809      111.55338      132.35593      1647422.7    
    264400   299.8887       2.4682636      254.7606       299.8887      -46653.708     -5651.1153     -915.91091      1155.6302     -17193.065      360.21042     -54.54703      -98.102281      111.56213      111.53742      132.38541      1647318.2    
    264500   299.33714      2.4685707      254.09393      299.33714     -46658.342     -6047.8422     -1477.5718      855.25132     -17521.206      311.65201      3.3152684     -46.236352      111.567        111.54228      132.41489      1647828.8    
    264600   300.14243      2.4670067      254.28092      300.14243     -46667.364     -5493.2376     -846.91013      1545.2821     -17178.085      86.807024      112.38686     -138.57205      111.52938      111.50468      132.44436      1647084.4    
    264700   300.57448      2.3805161      254.12638      300.57448     -46664.321     -6181.0288     -1536.0979      703.69566     -17710.684      164.29896     -33.678267     -138.12679      111.54937      111.52467      132.47384      1648041.7    
    264800   301.09155      2.3037338      254.6724       301.09155     -46650.317     -5567.7084     -901.85365      1305.3788     -17106.65       163.22546     -59.24946      -205.54013      111.5095       111.4848       132.50332      1647230.1    
    264900   300.33724      2.58358        254.75628      300.33724     -46626.942     -6018.1329     -1280.9555      822.14827     -17595.592      230.33634      120.54975     -200.81142      111.5223       111.49761      132.5328       1647975.1    
    265000   300.62144      2.4312172      254.20486      300.62144     -46657.983     -5680.0107     -803.86245      1233.4657     -17469.635      215.6214      -88.870414     -13.596084      111.48869      111.464        132.56228      1647348.3    
    265100   299.55005      2.4135494      254.45096      299.55005     -46650.399     -5985.2784     -1358.5028      1168.0212     -17765.354      427.92335     -129.6338       2.2641338      111.49168      111.46699      132.59176      1647802.9    
    265200   299.5537       2.3817825      254.20399      299.5537      -46650.739     -5804.88       -1038.0908      1211.6212     -17588.17       301.1929       66.589182     -136.20449      111.47048      111.4458       132.62123      1647542.6    
    265300   298.9405       2.4608383      254.57287      298.9405      -46638.696     -5877.9985     -938.62781      1030.9605     -17726.328      199.4708       78.085122     -46.090059      111.46422      111.43953      132.65071      1647723.5    
    265400   300.34682      2.3831978      253.92592      300.34682     -46660.34      -5937.4746     -1166.8384      981.95636     -17627.542      222.65925      236.39415      27.624512      111.4518       111.42712      132.68019      1647722.6    
    265500   300.13584      2.4484119      254.20438      300.13584     -46657.806     -5731.1694     -862.87655      1210.8555     -17541.487      175.69949      186.07041      8.7800476      111.42942      111.40475      132.70967      1647426.8    
    265600   298.87946      2.5360107      254.18659      298.87946     -46645.674     -6037.1254     -1360.5479      1080.9698     -17831.798      55.596973      11.891306     -106.87118      111.43366      111.40898      132.73915      1647918      
    265700   299.74339      2.3542252      254.45309      299.74339     -46661.977     -5811.0406     -934.84899      1269.1553     -17767.428      257.09378      66.529823     -4.0163468      111.40673      111.38206      132.76863      1647487.5    
    265800   300.33178      2.3956604      253.80131      300.33178     -46664.066     -6134.3588     -1206.1905      835.24142     -18032.127      192.03814      58.984236     -23.450732      111.40833      111.38366      132.79811      1647900.8    
    265900   300.65497      2.1281109      254.43857      300.65497     -46643.667     -5887.0274     -810.24138      1115.5379     -17966.379      223.83276      106.73179     -153.41724      111.38841      111.36374      132.82758      1647677      
    266000   301.2428       2.1627617      254.30198      301.2428      -46641.577     -6090.6391     -1254.7036      913.85235     -17931.066      126.86607      33.797822     -95.328339      111.38654      111.36187      132.85706      1647987.4    
    266100   300.79655      2.1239605      254.08565      300.79655     -46654.694     -5873.2323     -711.35321      925.607       -17833.951     -43.985686      121.06137     -226.45266      111.36238      111.33773      132.88654      1647638.2    
    266200   299.54311      2.5709877      254.11625      299.54311     -46647.329     -6113.2725     -1056.0178      754.89738     -18038.697      21.455618      202.79022     -192.80802      111.36064      111.33599      132.91602      1647952.3    
    266300   299.98008      2.1629066      254.2378       299.98008     -46654.063     -5754.0685     -1179.0324      1267.11       -17350.283      119.34928     -61.031593     -166.74362      111.33116      111.30651      132.9455       1647444.9    
    266400   299.83671      2.5223351      253.95239      299.83671     -46658.283     -5948.5152     -1048.8471      968.48052     -17765.179      30.998778      59.102178     -79.98366       111.32645      111.3018       132.97498      1647671      
    266500   300.19073      2.1274567      253.6209       300.19073     -46677.825     -6023.5448     -1012.4338      766.02963     -17824.23       20.023527     -155.16743     -44.740877      111.31553      111.29088      133.00445      1647712.7    
    266600   299.56887      2.1241722      253.87141      299.56887     -46676.64      -5741.2208     -822.71949      1191.3143     -17592.257      98.094161     -31.550019     -200.48856      111.28858      111.26394      133.03393      1647280.2    
    266700   297.89068      2.2322712      253.85612      297.89068     -46662.537     -6134.0391     -1344.8695      718.05813     -17775.306      41.956743     -5.7534803     -222.54396      111.29608      111.27144      133.06341      1647867.3    
    266800   299.75554      2.3490372      253.9354       299.75554     -46697.706     -5494.0521     -692.33885      1442.2763     -17232.094     -65.149975     -70.433836     -367.61885      111.24987      111.22524      133.09289      1646864      
    266900   299.43507      2.392292       254.01529      299.43507     -46669.199     -6038.5474     -1166.8871      711.36427     -17660.119      82.244336     -125.06951     -300.12436      111.26763      111.24299      133.12237      1647754.6    
    267000   300.70039      2.39534        254.87149      300.70039     -46664.895     -5515.4863     -752.9167       1169.4507     -16962.993      167.22219     -83.799515     -258.83818      111.23201      111.20738      133.15185      1647064.4    
    267100   300.66476      2.3226719      254.13835      300.66476     -46668.815     -6001.0051     -989.32548      623.17168     -17636.862     -66.361394      9.8950704     -445.7115       111.24121      111.21658      133.18132      1647701.7    
    267200   299.93172      2.5895729      254.58788      299.93172     -46669.041     -5647.5693     -782.26299      908.41459     -17068.86      -13.981704      6.2230097     -364.23606      111.21188      111.18725      133.2108       1647197.2    
    267300   300.52752      2.1293564      254.37611      300.52752     -46686.352     -5680.6422     -744.87292      926.1831      -17223.237     -20.651759      129.78599     -252.92923      111.20124      111.17661      133.24028      1647246.6    
    267308   300.49041      2.2189751      254.03571      300.49041     -46686.764     -5825.1183     -918.46986      801.08577     -17357.971     -9.3560318      115.55601     -195.58304      111.20633      111.1817       133.24264      1647426.6    
Loop time of 2943.42 on 8 procs for 52000 steps with 132713 atoms

Performance: 7.632 ns/day, 3.145 hours/ns, 17.667 timesteps/s
91.9% CPU use with 8 MPI tasks x no OpenMP threads

MPI task timing breakdown:
Section |  min time  |  avg time  |  max time  |%varavg| %total
---------------------------------------------------------------
Pair    | 2194.7     | 2397.2     | 2596.8     | 270.8 | 81.44
Neigh   | 279.62     | 285.2      | 289.55     |  17.7 |  9.69
Comm    | 20.249     | 220.06     | 423.18     | 887.9 |  7.48
Output  | 0.73553    | 0.73626    | 0.73912    |   0.1 |  0.03
Modify  | 37.911     | 38.068     | 38.164     |   1.4 |  1.29
Other   |            | 2.148      |            |       |  0.07

Nlocal:        16589.1 ave       16627 max       16517 min
Histogram: 1 0 1 0 0 0 2 0 2 2
Nghost:        17555.8 ave       17581 max       17518 min
Histogram: 1 0 1 1 1 0 0 1 0 3
Neighs:              0 ave           0 max           0 min
Histogram: 8 0 0 0 0 0 0 0 0 0
FullNghs:  2.83905e+06 ave 2.85133e+06 max 2.82127e+06 min
Histogram: 2 0 0 0 0 0 2 2 1 1

Total # of neighbors = 22712434
Ave neighs/atom = 171.13948
Neighbor list builds = 5200
Dangerous builds not checked
unfix 			strainstress
unfix           10
unfix			11

write_restart	restart.npt.21
System init for write_restart ...
Generated 0 of 0 mixed pair_coeff terms from geometric mixing rule
Total wall time: 6:37:04
