ITEM: TIMESTEP
0
ITEM: NUMBER OF ATOMS
32
ITEM: BOX BOUNDS xy xz yz pp pp pp
-2.1013021469116211e-03 7.7559385299682617e+00 1.3592882156372070e+00
-4.1524946689605713e-02 2.2124402940273285e+01 -0.0000000000000000e+00
-1.4066457748413086e-02 5.1965324282646179e+00 0.0000000000000000e+00
ITEM: ATOMS id type xs ys zs fx fy fz
1 1 0.947705 0.336621 0.593597 0 0.0014168 -1.19209e-07
2 1 0.447706 0.336621 0.593597 0 0.00141752 -5.96046e-07
3 1 0.206557 0.294954 0.093597 0 0.00194705 7.15256e-07
4 1 0.706557 0.294954 0.0935971 0 0.00194573 3.57628e-07
5 1 0.171152 0.461621 0.593597 0 -4.56572e-05 3.57628e-07
6 1 0.671152 0.461621 0.593597 0 -4.6134e-05 1.19209e-07
7 1 0.930003 0.419954 0.0935971 0 -9.62019e-05 -4.76837e-07
8 1 0.430003 0.419954 0.0935971 0 -9.64403e-05 0
9 1 0.894598 0.586621 0.593597 0 9.14335e-05 -3.57628e-07
10 1 0.394598 0.586621 0.593597 0 9.11951e-05 -7.15256e-07
11 1 0.118044 0.711621 0.593597 0 -0.00194705 -1.3113e-06
12 1 0.618044 0.711621 0.593597 0 -0.00194693 -1.3113e-06
13 1 0.876895 0.669954 0.093597 0 -0.00142276 1.3113e-06
14 1 0.153449 0.544954 0.0935971 0 4.73261e-05 1.19209e-07
15 1 0.653449 0.544954 0.0935971 0 4.76837e-05 -1.19209e-07
16 1 0.376895 0.669954 0.093597 0 -0.00142252 1.43051e-06
17 1 0.84149 0.83662 0.593597 0 0.0105879 0
18 1 0.34149 0.83662 0.593597 0 0.0105869 -3.57628e-07
19 1 0.0649367 0.96162 0.593597 0 -0.390522 -2.38419e-07
20 1 0.564937 0.96162 0.593597 0 -0.390521 -1.19209e-07
21 1 0.100342 0.794954 0.093597 0 0.00402105 4.76837e-07
22 1 0.600342 0.794954 0.0935971 0 0.00402129 3.57628e-07
23 1 0.823788 0.919954 0.0935971 0 -0.633307 -1.19209e-07
24 1 0.323788 0.919954 0.093597 0 -0.633307 7.15256e-07
25 1 0.000813137 0.0866205 0.593597 0 0.633313 -1.07288e-06
26 1 0.500813 0.0866205 0.593597 0 0.633312 -8.34465e-07
27 1 0.259664 0.0449538 0.093597 0 0.390519 9.53674e-07
28 1 0.759664 0.0449538 0.093597 0 0.390519 7.15256e-07
29 1 0.224259 0.211621 0.593597 0 -0.00402009 -5.96046e-07
30 1 0.724259 0.211621 0.593597 0 -0.00402033 -4.76837e-07
31 1 0.983111 0.169954 0.093597 0 -0.0105821 1.07288e-06
32 1 0.483111 0.169954 0.0935971 0 -0.0105821 1.19209e-07
ITEM: TIMESTEP
1
ITEM: NUMBER OF ATOMS
32
ITEM: BOX BOUNDS xy xz yz pp pp pp
-2.1013021469116211e-03 7.7559385299682617e+00 1.3592882156372070e+00
-4.1524946689605713e-02 2.2124402940273285e+01 -0.0000000000000000e+00
-1.4066457748413086e-02 5.1965324282646179e+00 0.0000000000000000e+00
ITEM: ATOMS id type xs ys zs fx fy fz
1 1 0.947703 0.336631 0.593597 0 0.00282621 -1.19209e-07
2 1 0.447703 0.336631 0.593597 0 0.00282681 0
3 1 0.206554 0.294968 0.0935971 0 0.0128466 0
4 1 0.706554 0.294968 0.0935971 0 0.0128462 0
5 1 0.171152 0.46162 0.593597 0 0.000342965 2.38419e-07
6 1 0.671152 0.46162 0.593597 0 0.000342488 0
7 1 0.930003 0.419953 0.0935971 0 -0.00108695 -2.38419e-07
8 1 0.430003 0.419953 0.0935971 0 -0.00108707 -1.19209e-07
9 1 0.894598 0.586621 0.593597 0 0.00108337 0
10 1 0.394598 0.586621 0.593597 0 0.00108337 -1.19209e-07
11 1 0.118047 0.711607 0.593597 0 -0.0128468 -7.15256e-07
12 1 0.618047 0.711607 0.593597 0 -0.0128466 -7.15256e-07
13 1 0.876898 0.669944 0.0935971 0 -0.00282788 4.76837e-07
14 1 0.153449 0.544954 0.0935971 0 -0.000342965 0
15 1 0.653449 0.544954 0.0935971 0 -0.000343204 1.19209e-07
16 1 0.376898 0.669944 0.0935971 0 -0.00282776 5.96046e-07
17 1 0.841474 0.836696 0.593597 0 -0.101632 2.38419e-07
18 1 0.341474 0.836696 0.593597 0 -0.101632 -1.19209e-07
19 1 0.0655276 0.958839 0.593597 0 0.0478904 2.38419e-07
20 1 0.565528 0.958839 0.593597 0 0.0478905 0
21 1 0.100336 0.794982 0.0935971 0 -0.111237 2.38419e-07
22 1 0.600336 0.794982 0.0935971 0 -0.111237 1.19209e-07
23 1 0.824746 0.915442 0.0935971 0 -0.098711 -4.76837e-07
24 1 0.324746 0.915442 0.093597 0 -0.0987115 3.57628e-07
25 1 -0.000145227 0.0911319 0.593597 0 0.0987136 -3.57628e-07
26 1 0.499855 0.0911319 0.593597 0 0.0987133 -3.57628e-07
27 1 0.259073 0.0477357 0.093597 0 -0.0478897 5.96046e-07
28 1 0.759073 0.0477357 0.093597 0 -0.0478886 1.19209e-07
29 1 0.224265 0.211592 0.593597 0 0.111236 0
30 1 0.724265 0.211592 0.593597 0 0.111235 0
31 1 0.983127 0.169878 0.0935971 0 0.101635 1.19209e-07
32 1 0.483127 0.169878 0.0935971 0 0.101635 -1.19209e-07
ITEM: TIMESTEP
2
ITEM: NUMBER OF ATOMS
32
ITEM: BOX BOUNDS xy xz yz pp pp pp
-2.1013021469116211e-03 7.7559385299682617e+00 1.3592882156372070e+00
-4.1524946689605713e-02 2.2124402940273285e+01 -0.0000000000000000e+00
-1.4066457748413086e-02 5.1965324282646179e+00 0.0000000000000000e+00
ITEM: ATOMS id type xs ys zs fx fy fz
1 1 0.947687 0.336707 0.593597 0 0.0680835 1.19209e-07
2 1 0.447687 0.336707 0.593597 0 0.0680832 0
3 1 0.206481 0.295313 0.0935971 0 0.0784738 0
4 1 0.706481 0.295313 0.0935971 0 0.0784738 1.19209e-07
5 1 0.17115 0.461629 0.593597 0 0.00390434 -2.38419e-07
6 1 0.67115 0.461629 0.593597 0 0.0039047 -2.38419e-07
7 1 0.930009 0.419924 0.0935971 0 0.016906 1.19209e-07
8 1 0.430009 0.419924 0.0935971 0 0.0169067 3.57628e-07
9 1 0.894592 0.58665 0.593597 0 -0.0169054 2.38419e-07
10 1 0.394592 0.58665 0.593597 0 -0.0169055 1.19209e-07
11 1 0.11812 0.711262 0.593597 0 -0.078474 8.34465e-07
12 1 0.61812 0.711262 0.593597 0 -0.0784737 9.53674e-07
13 1 0.876914 0.669868 0.0935971 0 -0.0680861 -7.15256e-07
14 1 0.153451 0.544945 0.0935971 0 -0.00390756 0
15 1 0.653451 0.544945 0.0935971 0 -0.00390732 -2.38419e-07
16 1 0.376914 0.669868 0.0935971 0 -0.0680861 -9.53674e-07
17 1 0.842054 0.833967 0.593597 0 0.0405608 -4.76837e-07
18 1 0.342054 0.833967 0.593597 0 0.0405612 3.57628e-07
19 1 0.0652545 0.960124 0.593597 0 -0.0198616 -2.38419e-07
20 1 0.565254 0.960124 0.593597 0 -0.0198627 1.19209e-07
21 1 0.10097 0.791996 0.0935971 0 -0.000261068 -3.57628e-07
22 1 0.60097 0.791996 0.0935971 0 -0.000260711 -2.38419e-07
23 1 0.825309 0.912792 0.093597 0 -0.0360756 5.96046e-07
24 1 0.325309 0.912792 0.0935971 0 -0.0360763 -1.19209e-07
25 1 -0.000708257 0.0937823 0.593597 0 0.0360745 4.76837e-07
26 1 0.499292 0.0937823 0.593597 0 0.0360755 4.76837e-07
27 1 0.259347 0.0464499 0.0935971 0 0.019866 -2.38419e-07
28 1 0.759347 0.0464499 0.0935971 0 0.0198646 -3.57628e-07
29 1 0.223631 0.214579 0.593597 0 0.000263095 -1.19209e-07
30 1 0.723631 0.214579 0.593597 0 0.000263691 -2.38419e-07
31 1 0.982547 0.172607 0.0935971 0 -0.040561 -1.19209e-07
32 1 0.482547 0.172607 0.0935971 0 -0.0405607 0
ITEM: TIMESTEP
3
ITEM: NUMBER OF ATOMS
32
ITEM: BOX BOUNDS xy xz yz pp pp pp
-2.1013021469116211e-03 7.7559385299682617e+00 1.3592882156372070e+00
-4.1524946689605713e-02 2.2124402940273285e+01 -0.0000000000000000e+00
-1.4066457748413086e-02 5.1965324282646179e+00 0.0000000000000000e+00
ITEM: ATOMS id type xs ys zs fx fy fz
1 1 0.947406 0.338029 0.593597 0 0.0182157 0
2 1 0.447406 0.338029 0.593597 0 0.0182159 1.19209e-07
3 1 0.20614 0.296914 0.0935971 0 0.00602019 0
4 1 0.70614 0.296914 0.0935971 0 0.00602007 1.19209e-07
5 1 0.171133 0.461707 0.593597 0 0.0180455 -1.19209e-07
6 1 0.671133 0.461707 0.593597 0 0.0180454 3.57628e-07
7 1 0.929943 0.420238 0.0935971 0 0.0435061 0
8 1 0.429943 0.420238 0.0935971 0 0.0435052 -3.57628e-07
9 1 0.894658 0.586336 0.593597 0 -0.0435061 -2.38419e-07
10 1 0.394658 0.586336 0.593597 0 -0.0435059 0
11 1 0.118461 0.709661 0.593597 0 -0.00601947 -2.38419e-07
12 1 0.618461 0.709661 0.593597 0 -0.00601971 -2.38419e-07
13 1 0.877195 0.668546 0.0935971 0 -0.0182148 2.38419e-07
14 1 0.153468 0.544868 0.0935971 0 -0.0180475 -1.19209e-07
15 1 0.653468 0.544868 0.0935971 0 -0.0180475 0
16 1 0.377195 0.668546 0.0935971 0 -0.0182149 2.38419e-07
17 1 0.842064 0.833923 0.593597 0 -0.0105906 1.19209e-07
18 1 0.342064 0.833923 0.593597 0 -0.0105906 0
19 1 0.065253 0.960131 0.593597 0 0.0180972 -2.38419e-07
20 1 0.565253 0.960131 0.593597 0 0.0180986 0
21 1 0.101161 0.791095 0.0935971 0 -0.0280945 1.19209e-07
22 1 0.601161 0.791095 0.0935971 0 -0.0280946 1.19209e-07
23 1 0.825624 0.911308 0.0935971 0 0.053618 1.19209e-07
24 1 0.325624 0.911308 0.0935971 0 0.0536195 1.19209e-07
25 1 -0.00102341 0.0952659 0.593597 0 -0.0536156 2.38419e-07
26 1 0.498976 0.0952659 0.593597 0 -0.0536166 1.19209e-07
27 1 0.259348 0.0464433 0.0935971 0 -0.0180984 0
28 1 0.759348 0.0464433 0.093597 0 -0.0180975 0
29 1 0.22344 0.21548 0.593597 0 0.0280936 -2.38419e-07
30 1 0.72344 0.21548 0.593597 0 0.0280936 0
31 1 0.982537 0.172652 0.0935971 0 0.01059 -2.38419e-07
32 1 0.482537 0.172652 0.0935971 0 0.0105898 0
ITEM: TIMESTEP
4
ITEM: NUMBER OF ATOMS
32
ITEM: BOX BOUNDS xy xz yz pp pp pp
-2.1013021469116211e-03 7.7559385299682617e+00 1.3592882156372070e+00
-4.1524946689605713e-02 2.2124402940273285e+01 -0.0000000000000000e+00
-1.4066457748413086e-02 5.1965324282646179e+00 0.0000000000000000e+00
ITEM: ATOMS id type xs ys zs fx fy fz
1 1 0.947226 0.33888 0.593597 0 0.00173879 -2.38419e-07
2 1 0.447226 0.33888 0.593597 0 0.00173843 -4.76837e-07
3 1 0.205978 0.297678 0.0935971 0 -0.00554359 3.57628e-07
4 1 0.705978 0.297678 0.0935971 0 -0.00554287 0
5 1 0.171063 0.462038 0.593597 0 -0.0029552 1.19209e-07
6 1 0.671063 0.462038 0.593597 0 -0.00295532 -2.38419e-07
7 1 0.929762 0.42109 0.0935971 0 0.0125469 1.19209e-07
8 1 0.429762 0.42109 0.0935971 0 0.0125473 -1.19209e-07
9 1 0.894839 0.585484 0.593597 0 -0.0125483 -3.57628e-07
10 1 0.394839 0.585484 0.593597 0 -0.0125482 -2.38419e-07
11 1 0.118623 0.708896 0.593597 0 0.00554371 -1.19209e-07
12 1 0.618623 0.708896 0.593597 0 0.00554311 -3.57628e-07
13 1 0.877375 0.667695 0.0935971 0 -0.00173855 2.38419e-07
14 1 0.153538 0.544536 0.0935971 0 0.00295568 1.19209e-07
15 1 0.653538 0.544536 0.0935971 0 0.00295544 1.19209e-07
16 1 0.377375 0.667695 0.0935971 0 -0.00173867 4.76837e-07
17 1 0.842105 0.833728 0.593597 0 -0.0108231 3.57628e-07
18 1 0.342105 0.833728 0.593597 0 -0.0108234 1.19209e-07
19 1 0.0651887 0.960434 0.593597 0 -0.0146269 3.57628e-07
20 1 0.565189 0.960434 0.593597 0 -0.0146269 3.57628e-07
21 1 0.10134 0.790255 0.0935971 0 0.00599515 0
22 1 0.60134 0.790255 0.0935971 0 0.00599504 0
23 1 0.825566 0.911583 0.0935971 0 -0.00123751 -3.57628e-07
24 1 0.325566 0.911583 0.0935971 0 -0.00123787 -3.57628e-07
25 1 -0.000965147 0.0949916 0.593597 0 0.00123847 -1.19209e-07
26 1 0.499035 0.0949916 0.593597 0 0.00123918 1.19209e-07
27 1 0.259412 0.0461402 0.0935971 0 0.014626 -4.76837e-07
28 1 0.759412 0.0461402 0.093597 0 0.0146264 1.19209e-07
29 1 0.223261 0.21632 0.593597 0 -0.00599551 2.38419e-07
30 1 0.723261 0.21632 0.593597 0 -0.00599599 2.38419e-07
31 1 0.982496 0.172846 0.093597 0 0.0108242 1.19209e-07
32 1 0.482496 0.172846 0.0935971 0 0.0108241 -1.19209e-07
ITEM: TIMESTEP
5
ITEM: NUMBER OF ATOMS
32
ITEM: BOX BOUNDS xy xz yz pp pp pp
-2.1013021469116211e-03 7.7559385299682617e+00 1.3592882156372070e+00
-4.1524946689605713e-02 2.2124402940273285e+01 -0.0000000000000000e+00
-1.4066457748413086e-02 5.1965324282646179e+00 0.0000000000000000e+00
ITEM: ATOMS id type xs ys zs fx fy fz
1 1 0.947206 0.338971 0.593597 0 -0.0028528 2.38419e-07
2 1 0.447206 0.338971 0.593597 0 -0.00285268 0
3 1 0.205987 0.297637 0.0935971 0 0.00697875 -1.19209e-07
4 1 0.705987 0.297637 0.0935971 0 0.00697827 -1.19209e-07
5 1 0.171069 0.462011 0.593597 0 -0.00491047 0
6 1 0.671069 0.462011 0.593597 0 -0.00491035 3.57628e-07
7 1 0.929702 0.42137 0.0935971 0 -0.00355566 -1.19209e-07
8 1 0.429702 0.42137 0.0935971 0 -0.00355577 -1.19209e-07
9 1 0.894899 0.585204 0.593597 0 0.00355577 2.38419e-07
10 1 0.394899 0.585204 0.593597 0 0.00355577 2.38419e-07
11 1 0.118614 0.708937 0.593597 0 -0.00697863 2.38419e-07
12 1 0.618614 0.708937 0.593597 0 -0.00697887 3.57628e-07
13 1 0.877395 0.667603 0.0935971 0 0.00285244 -3.57628e-07
14 1 0.153532 0.544563 0.0935971 0 0.00490987 -2.38419e-07
15 1 0.653532 0.544563 0.0935971 0 0.00491035 -3.57628e-07
16 1 0.377395 0.667603 0.0935971 0 0.00285256 -3.57628e-07
17 1 0.842148 0.833526 0.593597 0 -0.00357127 -1.19209e-07
18 1 0.342148 0.833526 0.593597 0 -0.00357163 -2.38419e-07
19 1 0.065238 0.960202 0.593597 0 -0.00277436 0
20 1 0.565238 0.960202 0.593597 0 -0.00277412 -4.76837e-07
21 1 0.101331 0.790298 0.0935971 0 9.82285e-05 0
22 1 0.601331 0.790298 0.0935971 0 9.77516e-05 1.19209e-07
23 1 0.825567 0.911581 0.0935971 0 0.0043751 3.57628e-07
24 1 0.325567 0.911581 0.0935971 0 0.00437546 3.57628e-07
25 1 -0.000965501 0.0949933 0.593597 0 -0.00437617 -2.38419e-07
26 1 0.499034 0.0949933 0.593597 0 -0.00437737 -5.96046e-07
27 1 0.259363 0.0463725 0.093597 0 0.00277531 1.19209e-07
28 1 0.759363 0.0463725 0.093597 0 0.00277531 4.76837e-07
29 1 0.22327 0.216276 0.593597 0 -9.72748e-05 1.19209e-07
30 1 0.72327 0.216276 0.593597 0 -9.64403e-05 -2.38419e-07
31 1 0.982453 0.173048 0.0935971 0 0.00357127 1.19209e-07
32 1 0.482453 0.173048 0.0935971 0 0.00357163 3.57628e-07
ITEM: TIMESTEP
6
ITEM: NUMBER OF ATOMS
32
ITEM: BOX BOUNDS xy xz yz pp pp pp
-2.1013021469116211e-03 7.7559385299682617e+00 1.3592882156372070e+00
-4.1524946689605713e-02 2.2124402940273285e+01 -0.0000000000000000e+00
-1.4066457748413086e-02 5.1965324282646179e+00 0.0000000000000000e+00
ITEM: ATOMS id type xs ys zs fx fy fz
1 1 0.947214 0.338935 0.593597 0 -0.00298071 -1.19209e-07
2 1 0.447214 0.338935 0.593597 0 -0.00298071 3.57628e-07
3 1 0.205957 0.297779 0.0935971 0 0.00163698 -3.57628e-07
4 1 0.705957 0.297779 0.0935971 0 0.00163674 1.19209e-07
5 1 0.171094 0.461894 0.593597 0 0.00222719 -1.19209e-07
6 1 0.671094 0.461894 0.593597 0 0.00222731 -4.76837e-07
7 1 0.929701 0.421374 0.0935971 0 0.0014497 1.19209e-07
8 1 0.429701 0.421374 0.0935971 0 0.00144923 2.38419e-07
9 1 0.8949 0.5852 0.593597 0 -0.00144911 -1.19209e-07
10 1 0.3949 0.5852 0.593597 0 -0.00144958 -1.19209e-07
11 1 0.118644 0.708795 0.593597 0 -0.00163734 -3.57628e-07
12 1 0.618644 0.708795 0.593597 0 -0.00163651 -3.57628e-07
13 1 0.877387 0.667639 0.0935971 0 0.00298095 4.76837e-07
14 1 0.153507 0.54468 0.0935971 0 -0.00222719 0
15 1 0.653507 0.54468 0.0935971 0 -0.00222743 4.76837e-07
16 1 0.377387 0.667639 0.0935971 0 0.00298107 1.19209e-07
17 1 0.842177 0.833387 0.593597 0 -0.00014019 -1.19209e-07
18 1 0.342177 0.833387 0.593597 0 -0.000139952 3.57628e-07
19 1 0.0652657 0.960071 0.593597 0 0.000422239 -1.19209e-07
20 1 0.565266 0.960071 0.593597 0 0.000421286 3.57628e-07
21 1 0.101328 0.790313 0.0935971 0 0.000605226 2.38419e-07
22 1 0.601328 0.790313 0.0935971 0 0.000605702 0
23 1 0.825546 0.911678 0.0935971 0 -0.000644445 -3.57628e-07
24 1 0.325546 0.911678 0.0935971 0 -0.000644922 -4.76837e-07
25 1 -0.000944993 0.0948967 0.593597 0 0.000645757 2.38419e-07
26 1 0.499055 0.0948967 0.593597 0 0.000647187 3.57628e-07
27 1 0.259335 0.0465031 0.093597 0 -0.000422001 1.19209e-07
28 1 0.759335 0.0465031 0.0935971 0 -0.000423193 -2.38419e-07
29 1 0.223273 0.216261 0.593597 0 -0.000606418 0
30 1 0.723273 0.216261 0.593597 0 -0.000607014 0
31 1 0.982424 0.173188 0.0935971 0 0.000140429 0
32 1 0.482424 0.173188 0.0935971 0 0.000139713 -2.38419e-07
ITEM: TIMESTEP
7
ITEM: NUMBER OF ATOMS
32
ITEM: BOX BOUNDS xy xz yz pp pp pp
-2.1013021469116211e-03 7.7559385299682617e+00 1.3592882156372070e+00
-4.1524946689605713e-02 2.2124402940273285e+01 -0.0000000000000000e+00
-1.4066457748413086e-02 5.1965324282646179e+00 0.0000000000000000e+00
ITEM: ATOMS id type xs ys zs fx fy fz
1 1 0.947223 0.338891 0.593597 0 0.000133276 -3.57628e-07
2 1 0.447223 0.338891 0.593597 0 0.000133157 -2.38419e-07
3 1 0.205949 0.297815 0.0935971 0 0.000187516 3.57628e-07
4 1 0.705949 0.297815 0.0935971 0 0.000187993 2.38419e-07
5 1 0.171089 0.461914 0.593597 0 -0.000473857 1.19209e-07
6 1 0.671089 0.461914 0.593597 0 -0.000473857 1.19209e-07
7 1 0.929697 0.421395 0.0935971 0 0.00023222 -2.38419e-07
8 1 0.429697 0.421395 0.0935971 0 0.000232339 0
9 1 0.894904 0.58518 0.593597 0 -0.000232697 -1.19209e-07
10 1 0.394904 0.58518 0.593597 0 -0.000232339 0
11 1 0.118652 0.70876 0.593597 0 -0.000187755 2.38419e-07
12 1 0.618652 0.70876 0.593597 0 -0.000187397 4.76837e-07
13 1 0.877378 0.667683 0.0935971 0 -0.000133157 -4.76837e-07
14 1 0.153512 0.54466 0.0935971 0 0.000474095 1.19209e-07
15 1 0.653512 0.54466 0.0935971 0 0.000474095 0
16 1 0.377378 0.667683 0.0935971 0 -0.000133634 -2.38419e-07
17 1 0.84218 0.833372 0.593597 0 -9.36985e-05 1.19209e-07
18 1 0.34218 0.833372 0.593597 0 -9.33409e-05 -1.19209e-07
19 1 0.065267 0.960065 0.593597 0 0.000495076 0
20 1 0.565267 0.960065 0.593597 0 0.000495553 1.19209e-07
21 1 0.101325 0.790323 0.0935971 0 0.000525475 0
22 1 0.601325 0.790323 0.0935971 0 0.000525355 -1.19209e-07
23 1 0.825546 0.911677 0.0935971 0 -0.000377655 0
24 1 0.325546 0.911677 0.0935971 0 -0.000377178 1.19209e-07
25 1 -0.000945046 0.094897 0.593597 0 0.000377297 2.38419e-07
26 1 0.499055 0.094897 0.593597 0 0.00037694 5.96046e-07
27 1 0.259334 0.046509 0.0935971 0 -0.000495195 -2.38419e-07
28 1 0.759334 0.046509 0.0935971 0 -0.000494599 -3.57628e-07
29 1 0.223276 0.216251 0.593597 0 -0.000524879 -2.38419e-07
30 1 0.723276 0.216251 0.593597 0 -0.000525236 0
31 1 0.982421 0.173202 0.0935971 0 9.2864e-05 0
32 1 0.482421 0.173202 0.0935971 0 9.32217e-05 -1.19209e-07
ITEM: TIMESTEP
8
ITEM: NUMBER OF ATOMS
32
ITEM: BOX BOUNDS xy xz yz pp pp pp
-2.1013021469116211e-03 7.7559385299682617e+00 1.3592882156372070e+00
-4.1524946689605713e-02 2.2124402940273285e+01 -0.0000000000000000e+00
-1.4066457748413086e-02 5.1965324282646179e+00 0.0000000000000000e+00
ITEM: ATOMS id type xs ys zs fx fy fz
1 1 0.947223 0.338891 0.593597 0 -9.7394e-05 7.15256e-07
2 1 0.447223 0.338891 0.593597 0 -9.72748e-05 4.76837e-07
3 1 0.205948 0.29782 0.0935971 0 -4.20809e-05 -5.96046e-07
4 1 0.705948 0.29782 0.0935971 0 -4.24385e-05 -5.96046e-07
5 1 0.171091 0.461908 0.593597 0 -0.000157118 -2.38419e-07
6 1 0.671091 0.461908 0.593597 0 -0.000157475 0
7 1 0.929696 0.4214 0.0935971 0 0.000154018 -2.38419e-07
8 1 0.429696 0.4214 0.0935971 0 0.000153899 -1.19209e-07
9 1 0.894905 0.585175 0.593597 0 -0.000153661 -1.19209e-07
10 1 0.394905 0.585175 0.593597 0 -0.00015378 -2.38419e-07
11 1 0.118653 0.708754 0.593597 0 4.20809e-05 -1.19209e-07
12 1 0.618653 0.708754 0.593597 0 4.17233e-05 -7.15256e-07
13 1 0.877378 0.667684 0.0935971 0 9.7394e-05 3.57628e-07
14 1 0.15351 0.544667 0.0935971 0 0.000156999 2.38419e-07
15 1 0.65351 0.544667 0.0935971 0 0.000157118 -1.19209e-07
16 1 0.377378 0.667684 0.0935971 0 9.77516e-05 5.96046e-07
17 1 0.842181 0.83337 0.593597 0 1.00136e-05 0
18 1 0.342181 0.83337 0.593597 0 1.00136e-05 -1.19209e-07
19 1 0.0652654 0.960073 0.593597 0 0.000141501 -2.38419e-07
20 1 0.565265 0.960073 0.593597 0 0.000141144 1.19209e-07
21 1 0.101324 0.790332 0.0935971 0 -0.000240922 -1.19209e-07
22 1 0.601324 0.790332 0.0935971 0 -0.000240445 2.38419e-07
23 1 0.825547 0.911671 0.0935971 0 8.36849e-05 1.19209e-07
24 1 0.325547 0.911671 0.0935971 0 8.35657e-05 2.38419e-07
25 1 -0.000946329 0.094903 0.593597 0 -8.32081e-05 -2.38419e-07
26 1 0.499054 0.094903 0.593597 0 -8.33273e-05 0
27 1 0.259336 0.0465014 0.093597 0 -0.000141263 1.19209e-07
28 1 0.759336 0.0465015 0.093597 0 -0.000141501 2.38419e-07
29 1 0.223277 0.216243 0.593597 0 0.000240088 2.38419e-07
30 1 0.723277 0.216242 0.593597 0 0.000240922 1.19209e-07
31 1 0.98242 0.173204 0.0935971 0 -1.0252e-05 0
32 1 0.48242 0.173204 0.0935971 0 -9.77516e-06 0
ITEM: TIMESTEP
9
ITEM: NUMBER OF ATOMS
32
ITEM: BOX BOUNDS xy xz yz pp pp pp
-2.1013021469116211e-03 7.7559385299682617e+00 1.3592882156372070e+00
-4.1524946689605713e-02 2.2124402940273285e+01 -0.0000000000000000e+00
-1.4066457748413086e-02 5.1965324282646179e+00 0.0000000000000000e+00
ITEM: ATOMS id type xs ys zs fx fy fz
1 1 0.947224 0.338889 0.593597 0 9.17912e-06 -4.76837e-07
2 1 0.447224 0.338889 0.593597 0 9.65595e-06 -3.57628e-07
3 1 0.205948 0.29782 0.0935971 0 3.55244e-05 3.57628e-07
4 1 0.705948 0.29782 0.0935971 0 3.5882e-05 3.57628e-07
5 1 0.171091 0.461905 0.593597 0 -2.7895e-05 0
6 1 0.671091 0.461905 0.593597 0 -2.71797e-05 0
7 1 0.929695 0.421403 0.0935971 0 3.60012e-05 1.19209e-07
8 1 0.429695 0.421403 0.0935971 0 3.69549e-05 0
9 1 0.894906 0.585172 0.593597 0 -3.65973e-05 2.38419e-07
10 1 0.394906 0.585172 0.593597 0 -3.69549e-05 2.38419e-07
11 1 0.118653 0.708754 0.593597 0 -3.54052e-05 2.38419e-07
12 1 0.618653 0.708754 0.593597 0 -3.55244e-05 2.38419e-07
13 1 0.877377 0.667685 0.0935971 0 -9.77516e-06 -2.38419e-07
14 1 0.15351 0.54467 0.0935971 0 2.77758e-05 -1.19209e-07
15 1 0.65351 0.54467 0.0935971 0 2.7895e-05 -1.19209e-07
16 1 0.377377 0.667685 0.0935971 0 -9.53674e-06 -4.76837e-07
17 1 0.842181 0.83337 0.593597 0 6.49691e-05 1.19209e-07
18 1 0.342181 0.83337 0.593597 0 6.48499e-05 1.19209e-07
19 1 0.0652647 0.960076 0.593597 0 -7.47442e-05 1.19209e-07
20 1 0.565265 0.960076 0.593597 0 -7.45058e-05 -2.38419e-07
21 1 0.101324 0.79033 0.0935971 0 -4.30346e-05 0
22 1 0.601324 0.79033 0.0935971 0 -4.27961e-05 -2.38419e-07
23 1 0.825547 0.911672 0.0935971 0 -9.46522e-05 0
24 1 0.325547 0.911672 0.0935971 0 -9.47714e-05 0
25 1 -0.00094624 0.0949026 0.593597 0 9.41753e-05 0
26 1 0.499054 0.0949026 0.593597 0 9.44138e-05 0
27 1 0.259336 0.0464984 0.093597 0 7.51019e-05 1.19209e-07
28 1 0.759336 0.0464984 0.0935971 0 7.42674e-05 2.38419e-07
29 1 0.223277 0.216245 0.593597 0 4.39882e-05 -1.19209e-07
30 1 0.723277 0.216245 0.593597 0 4.25577e-05 0
31 1 0.98242 0.173205 0.0935971 0 -6.47306e-05 -1.19209e-07
32 1 0.48242 0.173205 0.0935971 0 -6.50883e-05 0
ITEM: TIMESTEP
10
ITEM: NUMBER OF ATOMS
32
ITEM: BOX BOUNDS xy xz yz pp pp pp
-2.1013021469116211e-03 7.7559385299682617e+00 1.3592882156372070e+00
-4.1524946689605713e-02 2.2124402940273285e+01 -0.0000000000000000e+00
-1.4066457748413086e-02 5.1965324282646179e+00 0.0000000000000000e+00
ITEM: ATOMS id type xs ys zs fx fy fz
1 1 0.947224 0.338889 0.593597 0 2.93255e-05 -1.19209e-07
2 1 0.447224 0.338889 0.593597 0 2.89679e-05 0
3 1 0.205948 0.297821 0.0935971 0 2.13385e-05 1.19209e-07
4 1 0.705948 0.297821 0.0935971 0 2.03848e-05 -2.38419e-07
5 1 0.171092 0.461904 0.593597 0 1.38283e-05 0
6 1 0.671092 0.461904 0.593597 0 1.41859e-05 0
7 1 0.929695 0.421404 0.0935971 0 7.51019e-06 0
8 1 0.429695 0.421404 0.0935971 0 7.15256e-06 0
9 1 0.894906 0.585171 0.593597 0 -7.51019e-06 1.19209e-07
10 1 0.394906 0.585171 0.593597 0 -7.39098e-06 0
11 1 0.118653 0.708754 0.593597 0 -2.11e-05 -2.38419e-07
12 1 0.618653 0.708754 0.593597 0 -2.03848e-05 -1.19209e-07
13 1 0.877377 0.667685 0.0935971 0 -2.89679e-05 0
14 1 0.153509 0.544671 0.0935971 0 -1.38283e-05 -2.38419e-07
15 1 0.653509 0.544671 0.0935971 0 -1.43051e-05 3.57628e-07
16 1 0.377377 0.667685 0.0935971 0 -2.89679e-05 1.19209e-07
17 1 0.842181 0.833371 0.593597 0 -1.74046e-05 0
18 1 0.342181 0.833371 0.593597 0 -1.74046e-05 -1.19209e-07
19 1 0.0652649 0.960075 0.593597 0 5.48363e-06 0
20 1 0.565265 0.960075 0.593597 0 5.24521e-06 0
21 1 0.101324 0.790329 0.0935971 0 -1.54972e-05 2.38419e-07
22 1 0.601324 0.790329 0.0935971 0 -1.62125e-05 0
23 1 0.825548 0.911671 0.0935971 0 4.76837e-07 0
24 1 0.325548 0.911671 0.0935971 0 7.15256e-07 0
25 1 -0.000946502 0.0949038 0.593597 0 -1.19209e-07 1.19209e-07
26 1 0.499053 0.0949038 0.593597 0 0 -2.38419e-07
27 1 0.259336 0.0464989 0.093597 0 -5.96046e-06 1.19209e-07
28 1 0.759336 0.0464989 0.0935971 0 -5.36442e-06 0
29 1 0.223277 0.216246 0.593597 0 1.4782e-05 -1.19209e-07
30 1 0.723277 0.216246 0.593597 0 1.56164e-05 0
31 1 0.98242 0.173204 0.0935971 0 1.7643e-05 0
32 1 0.48242 0.173204 0.0935971 0 1.77622e-05 2.38419e-07
ITEM: TIMESTEP
11
ITEM: NUMBER OF ATOMS
32
ITEM: BOX BOUNDS xy xz yz pp pp pp
-2.1013021469116211e-03 7.7559385299682617e+00 1.3592882156372070e+00
-4.1524946689605713e-02 2.2124402940273285e+01 -0.0000000000000000e+00
-1.4066457748413086e-02 5.1965324282646179e+00 0.0000000000000000e+00
ITEM: ATOMS id type xs ys zs fx fy fz
1 1 0.947223 0.33889 0.593597 0 -1.03712e-05 2.38419e-07
2 1 0.447223 0.33889 0.593597 0 -9.89437e-06 0
3 1 0.205948 0.297822 0.0935971 0 -5.00679e-06 -4.76837e-07
4 1 0.705948 0.297822 0.093597 0 -2.98023e-06 2.38419e-07
5 1 0.171092 0.461904 0.593597 0 1.43051e-06 -1.19209e-07
6 1 0.671092 0.461904 0.593597 0 9.53674e-07 3.57628e-07
7 1 0.929695 0.421404 0.0935971 0 7.15256e-07 0
8 1 0.429695 0.421404 0.0935971 0 8.34465e-07 1.19209e-07
9 1 0.894906 0.58517 0.593597 0 -1.19209e-07 -1.19209e-07
10 1 0.394906 0.58517 0.593597 0 -1.19209e-07 2.38419e-07
11 1 0.118653 0.708753 0.593597 0 4.41074e-06 5.96046e-07
12 1 0.618653 0.708753 0.593597 0 2.86102e-06 3.57628e-07
13 1 0.877378 0.667684 0.0935971 0 9.17912e-06 -2.38419e-07
14 1 0.153509 0.54467 0.0935971 0 -1.66893e-06 1.19209e-07
15 1 0.65351 0.54467 0.0935972 0 -1.07288e-06 -5.96046e-07
16 1 0.377378 0.667684 0.0935971 0 9.41753e-06 -3.57628e-07
17 1 0.842181 0.83337 0.593597 0 -1.69277e-05 1.19209e-07
18 1 0.342181 0.83337 0.593597 0 -1.71661e-05 5.96046e-07
19 1 0.0652648 0.960076 0.593597 0 -1.66893e-06 1.19209e-07
20 1 0.565265 0.960076 0.593597 0 -2.38419e-07 0
21 1 0.101324 0.790328 0.0935971 0 -4.17233e-06 -8.34465e-07
22 1 0.601324 0.790328 0.0935971 0 -1.54972e-06 -1.19209e-07
23 1 0.825548 0.91167 0.0935971 0 -9.17912e-06 0
24 1 0.325548 0.91167 0.0935971 0 -1.03712e-05 -3.57628e-07
25 1 -0.000946576 0.0949042 0.593597 0 7.51019e-06 1.19209e-07
26 1 0.499053 0.0949042 0.593597 0 7.03335e-06 4.76837e-07
27 1 0.259336 0.0464988 0.0935971 0 2.98023e-06 -1.19209e-07
28 1 0.759336 0.0464989 0.0935971 0 1.66893e-06 -2.38419e-07
29 1 0.223277 0.216247 0.593597 0 6.07967e-06 4.76837e-07
30 1 0.723277 0.216247 0.593597 0 4.64916e-06 0
31 1 0.98242 0.173204 0.0935971 0 1.63317e-05 0
32 1 0.48242 0.173204 0.0935971 0 1.64509e-05 -5.96046e-07
ITEM: TIMESTEP
12
ITEM: NUMBER OF ATOMS
32
ITEM: BOX BOUNDS xy xz yz pp pp pp
-2.1013021469116211e-03 7.7559385299682617e+00 1.3592882156372070e+00
-4.1524946689605713e-02 2.2124402940273285e+01 -0.0000000000000000e+00
-1.4066457748413086e-02 5.1965324282646179e+00 0.0000000000000000e+00
ITEM: ATOMS id type xs ys zs fx fy fz
1 1 0.947223 0.33889 0.593597 0 -5.96046e-07 1.19209e-07
2 1 0.447223 0.33889 0.593597 0 -7.15256e-07 2.38419e-07
3 1 0.205948 0.297822 0.0935971 0 4.76837e-06 0
4 1 0.705948 0.297822 0.0935971 0 5.00679e-06 1.19209e-07
5 1 0.171091 0.461904 0.593597 0 -4.88758e-06 -1.19209e-07
6 1 0.671092 0.461904 0.593597 0 -5.60284e-06 -1.19209e-07
7 1 0.929695 0.421404 0.0935971 0 -3.93391e-06 1.19209e-07
8 1 0.429695 0.421404 0.0935971 0 -3.8147e-06 -1.19209e-07
9 1 0.894906 0.58517 0.593597 0 3.45707e-06 -3.57628e-07
10 1 0.394906 0.58517 0.593597 0 3.69549e-06 -3.57628e-07
11 1 0.118653 0.708753 0.593597 0 -4.41074e-06 -2.38419e-07
12 1 0.618653 0.708753 0.593597 0 -4.64916e-06 -1.19209e-07
13 1 0.877378 0.667684 0.0935971 0 2.02656e-06 2.38419e-07
14 1 0.153509 0.54467 0.0935971 0 4.88758e-06 2.38419e-07
15 1 0.65351 0.54467 0.0935971 0 5.60284e-06 0
16 1 0.377378 0.667684 0.0935971 0 1.90735e-06 2.38419e-07
17 1 0.842181 0.83337 0.593597 0 -2.02656e-06 -3.57628e-07
18 1 0.342181 0.83337 0.593597 0 -2.26498e-06 -4.76837e-07
19 1 0.0652648 0.960076 0.593597 0 -2.02656e-06 -1.19209e-07
20 1 0.565265 0.960076 0.593597 0 -2.98023e-06 0
21 1 0.101324 0.790327 0.0935971 0 1.78814e-06 4.76837e-07
22 1 0.601324 0.790327 0.0935971 0 4.76837e-07 1.19209e-07
23 1 0.825548 0.91167 0.0935971 0 -8.34465e-07 1.19209e-07
24 1 0.325548 0.91167 0.0935971 0 -2.38419e-07 2.38419e-07
25 1 -0.000946612 0.0949044 0.593597 0 2.98023e-06 -4.76837e-07
26 1 0.499053 0.0949043 0.593597 0 3.33786e-06 0
27 1 0.259336 0.0464989 0.0935971 0 2.38419e-07 3.57628e-07
28 1 0.759336 0.0464989 0.0935971 0 1.54972e-06 1.19209e-07
29 1 0.223277 0.216247 0.593597 0 -3.45707e-06 -1.19209e-07
30 1 0.723277 0.216247 0.593597 0 -3.33786e-06 0
31 1 0.98242 0.173205 0.0935971 0 2.02656e-06 2.38419e-07
32 1 0.48242 0.173205 0.0935971 0 2.02656e-06 0
ITEM: TIMESTEP
13
ITEM: NUMBER OF ATOMS
32
ITEM: BOX BOUNDS xy xz yz pp pp pp
-2.1013021469116211e-03 7.7559385299682617e+00 1.3592882156372070e+00
-4.1524946689605713e-02 2.2124402940273285e+01 -0.0000000000000000e+00
-1.4066457748413086e-02 5.1965324282646179e+00 0.0000000000000000e+00
ITEM: ATOMS id type xs ys zs fx fy fz
1 1 0.947223 0.33889 0.593597 0 -2.26498e-06 -2.38419e-07
2 1 0.447223 0.33889 0.593597 0 -1.90735e-06 -4.76837e-07
3 1 0.205948 0.297822 0.0935971 0 1.19209e-07 2.38419e-07
4 1 0.705948 0.297822 0.0935971 0 0 4.76837e-07
5 1 0.171092 0.461904 0.593597 0 -7.15256e-07 1.19209e-07
6 1 0.671092 0.461904 0.593597 0 -5.96046e-07 -3.57628e-07
7 1 0.929695 0.421404 0.0935971 0 2.02656e-06 0
8 1 0.429695 0.421404 0.0935971 0 1.90735e-06 2.38419e-07
9 1 0.894906 0.58517 0.593597 0 -1.54972e-06 -1.19209e-07
10 1 0.394906 0.58517 0.593597 0 -1.54972e-06 -3.57628e-07
11 1 0.118653 0.708753 0.593597 0 -1.07288e-06 -3.57628e-07
12 1 0.618653 0.708753 0.593597 0 -7.15256e-07 2.38419e-07
13 1 0.877378 0.667684 0.0935971 0 1.66893e-06 4.76837e-07
14 1 0.153509 0.54467 0.0935971 0 9.53674e-07 1.19209e-07
15 1 0.65351 0.54467 0.0935971 0 7.15256e-07 -1.19209e-07
16 1 0.377378 0.667684 0.0935971 0 1.07288e-06 0
17 1 0.842181 0.83337 0.593597 0 -1.07288e-06 2.38419e-07
18 1 0.342181 0.83337 0.593597 0 -8.34465e-07 -1.19209e-07
19 1 0.0652649 0.960075 0.593597 0 5.96046e-07 0
20 1 0.565265 0.960075 0.593597 0 4.76837e-07 0
21 1 0.101324 0.790327 0.0935971 0 2.38419e-07 1.19209e-07
22 1 0.601324 0.790327 0.0935971 0 -2.38419e-07 0
23 1 0.825548 0.91167 0.0935971 0 1.90735e-06 -2.38419e-07
24 1 0.325548 0.91167 0.0935971 0 1.78814e-06 1.19209e-07
25 1 -0.000946624 0.0949044 0.593597 0 -2.74181e-06 0
26 1 0.499053 0.0949044 0.593597 0 -3.09944e-06 -1.19209e-07
27 1 0.259336 0.0464989 0.0935971 0 3.57628e-07 0
28 1 0.759336 0.0464989 0.0935971 0 -2.38419e-07 1.19209e-07
29 1 0.223277 0.216247 0.593597 0 9.53674e-07 -3.57628e-07
30 1 0.723277 0.216247 0.593597 0 1.3113e-06 0
31 1 0.98242 0.173205 0.0935971 0 1.43051e-06 2.38419e-07
32 1 0.48242 0.173205 0.0935971 0 1.07288e-06 1.19209e-07
ITEM: TIMESTEP
14
ITEM: NUMBER OF ATOMS
32
ITEM: BOX BOUNDS xy xz yz pp pp pp
-2.1013021469116211e-03 7.7559385299682617e+00 1.3592882156372070e+00
-4.1524946689605713e-02 2.2124402940273285e+01 -0.0000000000000000e+00
-1.4066457748413086e-02 5.1965324282646179e+00 0.0000000000000000e+00