LAMMPS (23 Jun 2022 - Update 1)
OMP_NUM_THREADS environment is not set. Defaulting to 1 thread. (src/comm.cpp:98)
  using 1 OpenMP thread(s) per MPI task
Loaded 1 plugins from /software/deepmd-kit/2.1.5/gpu/lib/deepmd_lmp
Loaded 0 plugins from 
Reading data file ...
  orthogonal box = (0 0 0) to (26.08221 26.08221 25.1988)
  1 by 1 by 1 MPI processor grid
  reading atoms ...
  900 atoms
  read_data CPU = 0.006 seconds
Summary of lammps deepmd module ...
  >>> Info of deepmd-kit:
  installed to:       /software/deepmd-kit/2.1.5/gpu
  source:             v2.1.5
  source branch:       HEAD
  source commit:      6e3d4a62
  source commit at:   2022-09-23 16:10:28 +0800
  surpport model ver.:1.1 
  build float prec:   double
  build variant:      cuda
  build with tf inc:  /software/deepmd-kit/2.1.5/gpu/include;/software/deepmd-kit/2.1.5/gpu/include
  build with tf lib:  /software/deepmd-kit/2.1.5/gpu/lib/libtensorflow_cc.so;/software/deepmd-kit/2.1.5/gpu/lib/libtensorflow_framework.so
  set tf intra_op_parallelism_threads: 0
  set tf inter_op_parallelism_threads: 0
  >>> Info of lammps module:
  use deepmd-kit at:  /software/deepmd-kit/2.1.5/gpuDeePMD-kit WARNING: Environmental variable TF_INTRA_OP_PARALLELISM_THREADS is not set. Tune TF_INTRA_OP_PARALLELISM_THREADS for the best performance.
DeePMD-kit WARNING: Environmental variable TF_INTER_OP_PARALLELISM_THREADS is not set. Tune TF_INTER_OP_PARALLELISM_THREADS for the best performance.
DeePMD-kit WARNING: Environmental variable OMP_NUM_THREADS is not set. Tune OMP_NUM_THREADS for the best performance.
2023-03-06 17:27:52.270587: I tensorflow/core/platform/cpu_feature_guard.cc:193] This TensorFlow binary is optimized with oneAPI Deep Neural Network Library (oneDNN) to use the following CPU instructions in performance-critical operations:  SSE4.1 SSE4.2 AVX
To enable them in other operations, rebuild TensorFlow with the appropriate compiler flags.
2023-03-06 17:27:52.867853: I tensorflow/core/common_runtime/gpu/gpu_device.cc:1532] Created device /job:localhost/replica:0/task:0/device:GPU:0 with 10058 MB memory:  -> device: 0, name: GeForce GTX 1080 Ti, pci bus id: 0000:04:00.0, compute capability: 6.1
2023-03-06 17:27:52.868145: I tensorflow/core/common_runtime/process_util.cc:146] Creating new thread pool with default inter op setting: 2. Tune using inter_op_parallelism_threads for best performance.
2023-03-06 17:27:52.914422: I tensorflow/compiler/mlir/mlir_graph_optimization_pass.cc:354] MLIR V1 optimization pass is not enabled
  >>> Info of model(s):
  using   1 model(s): model.pb 
  rcut in model:      6
  ntypes in model:    4

CITE-CITE-CITE-CITE-CITE-CITE-CITE-CITE-CITE-CITE-CITE-CITE-CITE

Your simulation uses code contributions which should be cited:
- USER-DEEPMD package:
The log file lists these citations in BibTeX format.

CITE-CITE-CITE-CITE-CITE-CITE-CITE-CITE-CITE-CITE-CITE-CITE-CITE

Generated 0 of 6 mixed pair_coeff terms from geometric mixing rule
Neighbor list info ...
  update every 10 steps, delay 0 steps, check no
  max neighbors/atom: 2000, page size: 100000
  master list distance cutoff = 7
  ghost atom cutoff = 7
  binsize = 3.5, bins = 8 8 8
  1 neighbor lists, perpetual/occasional/extra = 1 0 0
  (1) pair deepmd, perpetual
      attributes: full, newton on
      pair build: full/bin/atomonly
      stencil: full/bin/3d
      bin: standard
Setting up Verlet run ...
  Unit style    : metal
  Current step  : 0
  Time step     : 0.002
Per MPI rank memory allocation (min/avg/max) = 2.658 | 2.658 | 2.658 Mbytes
   Step          Temp          E_pair         E_mol          TotEng         Press     
         0   300           -3887.3361      0             -3852.4746      16807.284    
      2000   299.47914     -3857.5982      0             -3822.7973      15420.439    
Loop time of 116.029 on 1 procs for 2000 steps with 900 atoms

Performance: 2.979 ns/day, 8.058 hours/ns, 17.237 timesteps/s
55.8% CPU use with 1 MPI tasks x 1 OpenMP threads

MPI task timing breakdown:
Section |  min time  |  avg time  |  max time  |%varavg| %total
---------------------------------------------------------------
Pair    | 115.27     | 115.27     | 115.27     |   0.0 | 99.35
Neigh   | 0.65831    | 0.65831    | 0.65831    |   0.0 |  0.57
Comm    | 0.040536   | 0.040536   | 0.040536   |   0.0 |  0.03
Output  | 0.00042589 | 0.00042589 | 0.00042589 |   0.0 |  0.00
Modify  | 0.044434   | 0.044434   | 0.044434   |   0.0 |  0.04
Other   |            | 0.01436    |            |       |  0.01

Nlocal:            900 ave         900 max         900 min
Histogram: 1 0 0 0 0 0 0 0 0 0
Nghost:           2497 ave        2497 max        2497 min
Histogram: 1 0 0 0 0 0 0 0 0 0
Neighs:              0 ave           0 max           0 min
Histogram: 1 0 0 0 0 0 0 0 0 0
FullNghs:        67134 ave       67134 max       67134 min
Histogram: 1 0 0 0 0 0 0 0 0 0

Total # of neighbors = 67134
Ave neighs/atom = 74.593333
Neighbor list builds = 200
Dangerous builds not checked
Generated 0 of 6 mixed pair_coeff terms from geometric mixing rule
Setting up Verlet run ...
  Unit style    : metal
  Current step  : 0
  Time step     : 0.002
Per MPI rank memory allocation (min/avg/max) = 3.942 | 3.942 | 3.942 Mbytes
   Step          Time           Temp          KinEng         TotEng         Press     
         0   0              299.47914      34.800934     -3822.7973      15420.439    
       100   0.2            307.24863      35.703787     -3823.8911      15127.128    
       200   0.4            300.25819      34.891464     -3825.9733      15038.336    
       300   0.6            306.22746      35.585122     -3826.2279      14191.515    
       400   0.8            300.74728      34.948299     -3825.693       15302.192    
       500   1              293.55643      34.112687     -3825.4292      15921.979    
       600   1.2            303.18051      35.231052     -3825.2788      14222.708    
       700   1.4            294.6001       34.233967     -3825.9421      16188.403    
       800   1.6            294.09714      34.17552      -3827.0905      16195.614    
       900   1.8            291.05931      33.822509     -3827.4762      15448.615    
      1000   2              308.61038      35.862029     -3825.617       15832.482    
      1100   2.2            300.46638      34.915656     -3824.2557      15927.641    
      1200   2.4            296.99445      34.512202     -3824.9677      15213.727    
      1300   2.6            295.15322      34.298242     -3826.1206      16441.628    
      1400   2.8            305.59024      35.511075     -3826.6779      15089.31     
      1500   3              299.65987      34.821936     -3826.7222      14751.466    
      1600   3.2            305.34549      35.482633     -3826.6631      16319.91     
      1700   3.4            301.67621      35.056245     -3825.6721      15176.539    
      1800   3.6            318.52968      37.0147       -3823.6852      15329.44     
      1900   3.8            304.11834      35.340033     -3823.9233      17575.158    
      2000   4              293.92387      34.155386     -3826.3594      15257.41     
      2100   4.2            294.84876      34.262862     -3827.0793      17316.416    
      2200   4.4            300.90867      34.967053     -3827.2111      15398.755    
      2300   4.6            303.03109      35.213689     -3826.5285      15418.256    
      2400   4.8            309.00061      35.907376     -3824.6648      16489.401    
      2500   5              309.66822      35.984955     -3824.2122      15181.47     
      2600   5.2            298.50312      34.687516     -3826.8759      15493.568    
      2700   5.4            298.18617      34.650685     -3828.0285      16575.964    
      2800   5.6            291.06727      33.823434     -3827.5294      15225.02     
      2900   5.8            306.54777      35.622344     -3826.3867      15515.175    
      3000   6              302.97462      35.207126     -3825.1713      16894.475    
      3100   6.2            315.25104      36.633706     -3824.673       15396.867    
      3200   6.4            294.55282      34.228472     -3826.7268      15903.183    
      3300   6.6            287.9587       33.462203     -3828.3778      14885.875    
      3400   6.8            296.46006      34.450102     -3828.1873      16073.208    
      3500   7              314.12177      36.502479     -3826.5772      15131.068    
      3600   7.2            303.94937      35.320397     -3825.4145      15874.212    
      3700   7.4            306.32201      35.59611      -3825.9876      16181.969    
      3800   7.6            302.09115      35.104463     -3826.8652      16497.395    
      3900   7.8            302.59388      35.162883     -3827.0289      14945.037    
      4000   8              303.55413      35.274468     -3827.0238      15945.638    
      4100   8.2            305.15197      35.460145     -3826.2939      14916.334    
      4200   8.4            303.11312      35.223221     -3825.5456      14848.52     
      4300   8.6            304.84208      35.424135     -3826.0735      15488.603    
      4400   8.8            292.73026      34.016681     -3828.0413      15415.297    
      4500   9              291.12458      33.830094     -3828.9836      15262.59     
      4600   9.2            296.35926      34.43839      -3827.8793      14800.72     
      4700   9.4            313.49878      36.430085     -3825.9941      15153.053    
      4800   9.6            312.70407      36.337736     -3825.9507      14850.747    
      4900   9.8            290.68014      33.778448     -3826.8266      15856.972    
      5000   10             285.62823      33.191391     -3827.5749      14564.925    
      5100   10.2           291.54219      33.878622     -3827.8641      15465.356    
      5200   10.4           285.53095      33.180087     -3827.4356      15530.276    
      5300   10.6           293.21612      34.073141     -3826.2425      13766.163    
      5400   10.8           302.81369      35.188426     -3825.5904      17830.571    
      5500   11             310.61478      36.09495      -3826.7324      14459.566    
      5600   11.2           292.02702      33.934962     -3828.8117      14537.293    
      5700   11.4           303.49901      35.268063     -3828.7894      17044.513    
      5800   11.6           304.48678      35.382847     -3827.6335      15169.99     
      5900   11.8           299.5295       34.806787     -3826.7004      15109.048    
      6000   12             302.2985       35.128558     -3826.7015      16390.225    
      6100   12.2           292.49571      33.989426     -3826.785       14674.327    
      6200   12.4           290.42876      33.749236     -3826.8594      15007.487    
      6300   12.6           305.10715      35.454937     -3827.3806      15317.667    
      6400   12.8           288.08864      33.477303     -3828.6631      14605.694    
      6500   13             298.49575      34.686659     -3828.9453      14612.159    
      6600   13.2           297.21883      34.538275     -3827.6704      15198.421    
      6700   13.4           289.89496      33.687206     -3825.6936      15705.958    
      6800   13.6           300.28907      34.895052     -3825.8564      15562.024    
      6900   13.8           313.10221      36.384002     -3827.1477      15404.076    
      7000   14             288.0739       33.475591     -3827.751       13738.354    
      7100   14.2           295.30278      34.315621     -3827.7506      15560.29     
      7200   14.4           303.37333      35.253459     -3827.4882      15545.53     
      7300   14.6           308.46547      35.84519      -3826.8182      13554.277    
      7400   14.8           306.36235      35.600797     -3825.7658      15493.745    
      7500   15             302.50113      35.152104     -3824.5652      15724.321    
      7600   15.2           316.08971      36.731163     -3825.9353      13693.337    
      7700   15.4           301.88322      35.080301     -3827.9311      15231.467    
      7800   15.6           296.18693      34.418364     -3828.3722      15370.254    
      7900   15.8           298.47578      34.684339     -3828.2245      17331.804    
      8000   16             298.47563      34.684322     -3826.8727      15425.277    
      8100   16.2           299.63727      34.81931      -3825.2533      17253.124    
      8200   16.4           307.84515      35.773106     -3826.0559      15540.578    
      8300   16.6           293.41478      34.096226     -3828.7424      15571.666    
      8400   16.8           293.59922      34.11766      -3828.8289      15375.415    
      8500   17             302.54588      35.157304     -3827.4151      15284.061    
      8600   17.2           311.20706      36.163776     -3826.5824      14609.612    
      8700   17.4           309.0269       35.910431     -3826.345       15315.248    
      8800   17.6           306.63423      35.632391     -3828.4465      13344.798    
      8900   17.8           288.44161      33.51832      -3829.7674      14735.611    
      9000   18             291.33911      33.855023     -3828.9154      13482.328    
      9100   18.2           290.02699      33.702548     -3827.1089      15949.996    
      9200   18.4           302.26101      35.124201     -3826.7537      14455.83     
      9300   18.6           291.90054      33.920264     -3827.2151      14795.877    
      9400   18.8           299.30476      34.780671     -3827.8641      14808.52     
      9500   19             284.48038      33.058006     -3828.6266      13422.535    
      9600   19.2           284.68661      33.081971     -3830.7823      15011.455    
      9700   19.4           282.79801      32.862506     -3831.4992      14209.215    
      9800   19.6           300.13512      34.877162     -3829.3414      14966.453    
      9900   19.8           311.40459      36.18673      -3827.8634      14867.728    
     10000   20             294.34569      34.204403     -3827.15        14962.668    
     10100   20.2           308.31991      35.828275     -3826.7512      15346.586    
     10200   20.4           305.96571      35.554706     -3827.4507      15814.108    
     10300   20.6           291.65825      33.892109     -3829.588       15056.33     
     10400   20.8           282.00536      32.770396     -3829.6482      16347.19     
     10500   21             313.10421      36.384234     -3827.9823      14152.658    
     10600   21.2           299.10449      34.757398     -3826.9725      15080.956    
     10700   21.4           304.64706      35.401472     -3827.0552      15411.059    
     10800   21.6           300.8767       34.963338     -3827.666       16615.374    
     10900   21.8           287.92761      33.45859      -3828.5978      15224.301    
     11000   22             298.77136      34.718687     -3829.5254      16571.075    
     11100   22.2           283.8288       32.982289     -3830.0712      14424.267    
     11200   22.4           293.89585      34.15213      -3828.3153      15022.573    
     11300   22.6           311.22031      36.165316     -3826.6737      16695.314    
     11400   22.8           307.48943      35.731769     -3826.7849      15925.339    
     11500   23             290.34584      33.739601     -3828.3015      15825.911    
     11600   23.2           301.62107      35.049837     -3829.5814      14742.889    
     11700   23.4           293.14704      34.065114     -3829.5303      15949.578    
     11800   23.6           303.17226      35.230093     -3826.84        16240.583    
     11900   23.8           303.20423      35.233808     -3825.9847      14742.391    
     12000   24             311.72435      36.223888     -3827.198       15758.959    
     12100   24.2           294.41113      34.212008     -3828.8284      15134.139    
     12200   24.4           299.13147      34.760533     -3829.0609      15148.59     
     12300   24.6           299.46931      34.799792     -3828.3993      15475.412    
     12400   24.8           313.18093      36.393149     -3825.6479      16805.363    
     12500   25             298.34864      34.669566     -3825.8099      16229.584    
     12600   25.2           313.09382      36.383027     -3827.3507      15882.859    
     12700   25.4           291.33666      33.854739     -3828.3893      15362.496    
     12800   25.6           301.93204      35.085973     -3828.6316      14470.677    
     12900   25.8           303.99531      35.325736     -3828.3846      15411.424    
     13000   26             306.31877      35.595733     -3827.5703      15405.435    
     13100   26.2           319.45888      37.122678     -3825.2918      14607.152    
     13200   26.4           313.52019      36.432573     -3825.5719      16748.051    
     13300   26.6           290.25812      33.729407     -3827.7373      15514.001    
     13400   26.8           295.57636      34.347413     -3828.4801      16232.859    
     13500   27             290.23621      33.726861     -3828.5416      15241.903    
     13600   27.2           308.45572      35.844056     -3827.4373      15537.426    
     13700   27.4           315.24263      36.63273      -3825.0736      16224.478    
     13800   27.6           324.62784      37.723336     -3825.383       16093.169    
     13900   27.8           298.59508      34.698202     -3826.8175      16121.645    
     14000   28             304.08797      35.336503     -3827.7761      16884.695    
     14100   28.2           296.17912      34.417457     -3828.4518      15596.036    
     14200   28.4           308.45418      35.843878     -3828.8228      18101.156    
     14300   28.6           294.56657      34.23007      -3829.3154      14686.696    
     14400   28.8           289.23512      33.61053      -3828.7034      16062.129    
     14500   29             300.39337      34.907173     -3826.9088      16828.201    
     14600   29.2           292.0092       33.932892     -3826.3263      14705.951    
     14700   29.4           285.16111      33.137109     -3827.5604      17861.695    
     14800   29.6           292.81552      34.02659      -3829.7686      14746.442    
     14900   29.8           295.73991      34.366418     -3829.7949      16425.17     
     15000   30             284.36012      33.04403      -3828.8394      14307.537    
     15100   30.2           298.86594      34.729678     -3827.5964      15311.393    
     15200   30.4           308.01699      35.793075     -3826.8172      16239.089    
     15300   30.6           302.97839      35.207564     -3827.138       13665.237    
     15400   30.8           290.62624      33.772185     -3829.7196      15756.487    
     15500   31             287.81753      33.445799     -3830.8072      14829.078    
     15600   31.2           296.26724      34.427697     -3829.2279      14231.566    
     15700   31.4           294.86183      34.264381     -3827.7691      16089.227    
     15800   31.6           299.2347       34.772529     -3827.4747      15889.399    
     15900   31.8           312.22785      36.282397     -3827.6504      15740.244    
     16000   32             287.86119      33.450872     -3829.1828      15635.013    
     16100   32.2           296.99267      34.511994     -3830.7222      15677.246    
     16200   32.4           296.81202      34.491003     -3829.5107      15393.076    
     16300   32.6           306.76914      35.648068     -3827.7498      15450.97     
     16400   32.8           301.19444      35.00026      -3827.5625      15105.448    
     16500   33             307.94921      35.785198     -3827.5454      15590.624    
     16600   33.2           301.22547      35.003867     -3827.6927      15648.289    
     16700   33.4           294.56143      34.229473     -3828.7587      15843.73     
     16800   33.6           293.82931      34.144397     -3829.7407      15610.01     
     16900   33.8           297.36965      34.555802     -3828.9937      14836.72     
     17000   34             296.21396      34.421505     -3826.9059      16226.517    
     17100   34.2           301.94374      35.087333     -3826.509       16035.036    
     17200   34.4           306.7113       35.641347     -3827.2698      14923.823    
     17300   34.6           290.26794      33.730548     -3828.5566      16804.655    
     17400   34.8           292.24404      33.96018      -3828.7439      15157.561    
     17500   35             301.87075      35.078852     -3828.3795      15875.789    
     17600   35.2           298.80804      34.72295      -3827.9069      16412.976    
     17700   35.4           301.06807      34.985576     -3827.1816      15196.137    
     17800   35.6           309.39206      35.952864     -3826.6446      16309.489    
     17900   35.8           302.39804      35.140125     -3827.3416      15876.433    
     18000   36             299.14297      34.76187      -3829.2391      15249.622    
     18100   36.2           301.73955      35.063605     -3830.0402      15941.147    
     18200   36.4           281.52635      32.714733     -3828.9812      15628.737    
     18300   36.6           311.21758      36.164998     -3826.9113      14442.253    
     18400   36.8           307.53693      35.73729      -3826.9572      16008.456    
     18500   37             298.72297      34.713064     -3828.0115      14767.371    
     18600   37.2           297.23646      34.540325     -3829.2034      15489.299    
     18700   37.4           297.14792      34.530036     -3829.485       16069.364    
     18800   37.6           301.43806      35.028571     -3827.0668      14953.54     
     18900   37.8           310.92872      36.131431     -3825.9954      16389.452    
     19000   38             309.80376      36.000706     -3827.2443      16164.186    
     19100   38.2           302.59649      35.163186     -3828.7719      14914.793    
     19200   38.4           290.7206       33.78315      -3829.143       15746.236    
     19300   38.6           292.00422      33.932312     -3828.6869      15737.346    
     19400   38.8           297.04266      34.517804     -3828.0772      14041.041    
     19500   39             314.94484      36.598124     -3826.0757      16945.577    
     19600   39.2           320.50952      37.244767     -3824.4863      15148.673    
     19700   39.4           309.20902      35.931594     -3826.5694      16533.284    
     19800   39.6           300.98729      34.976189     -3828.0381      15693.827    
     19900   39.8           300.53668      34.923826     -3828.7699      16002.512    
     20000   40             296.19132      34.418874     -3828.9923      15198.313    
     20100   40.2           311.59989      36.209425     -3828.1232      15615.646    
     20200   40.4           312.13123      36.271169     -3826.2122      15975.605    
     20300   40.6           308.39953      35.837527     -3826.1029      15872.881    
     20400   40.8           301.60387      35.047838     -3828.3602      15041.185    
     20500   41             294.78567      34.25553      -3829.1742      16251.945    
     20600   41.2           296.95001      34.507038     -3828.5524      13887.039    
     20700   41.4           305.13141      35.457756     -3827.6044      16998.454    
     20800   41.6           304.61335      35.397555     -3826.3336      15821.552    
     20900   41.8           309.70582      35.989325     -3824.7353      16959.809    
     21000   42             320.84431      37.283672     -3824.6075      15062.879    
     21100   42.2           300.54172      34.924411     -3827.5489      16195.762    
     21200   42.4           288.68228      33.546287     -3828.625       15370.563    
     21300   42.6           288.79425      33.559298     -3829.1215      15114.881    
     21400   42.8           291.9857       33.93016      -3828.6745      15066.405    
     21500   43             298.90941      34.73473      -3826.9067      15842.793    
     21600   43.2           307.27134      35.706426     -3825.8619      15352.015    
     21700   43.4           318.53056      37.014803     -3826.9786      15134.909    
     21800   43.6           288.84166      33.564808     -3829.5746      15543.688    
     21900   43.8           293.48232      34.104074     -3829.4055      15089.618    
     22000   44             304.44363      35.377832     -3827.9685      16013.769    
     22100   44.2           297.74157      34.599021     -3826.8128      15383.465    
     22200   44.4           303.5097       35.269305     -3826.6332      16402.72     
     22300   44.6           300.51722      34.921564     -3828.9046      15019.674    
     22400   44.8           300.93425      34.970025     -3830.2385      14829.051    
     22500   45             287.50441      33.409413     -3829.3218      14733.692    
     22600   45.2           292.06604      33.939496     -3827.6021      15230.186    
     22700   45.4           301.72395      35.061793     -3827.2028      15345.049    
     22800   45.6           303.66498      35.28735      -3827.5778      15197.692    
     22900   45.8           297.6998       34.594167     -3828.2423      17059.544    
     23000   46             299.49513      34.802793     -3828.3227      14482.01     
     23100   46.2           310.33209      36.062101     -3828.3922      16037.133    
     23200   46.4           307.18194      35.696037     -3828.2435      15432.147    
     23300   46.6           305.67674      35.521126     -3827.8452      16173.674    
     23400   46.8           300.32717      34.89948      -3827.7598      16104.507    
     23500   47             297.48627      34.569353     -3828.1251      15666.787    
     23600   47.2           300.86787      34.962312     -3828.8486      14618.391    
     23700   47.4           288.86554      33.567582     -3829.5978      15516.237    
     23800   47.6           287.1774       33.371412     -3829.8558      14790.833    
     23900   47.8           302.18739      35.115646     -3827.7984      15032.01     
     24000   48             299.21641      34.770404     -3826.5516      15053.041    
     24100   48.2           291.44543      33.867378     -3827.0015      14266.281    
     24200   48.4           289.30725      33.618911     -3828.3511      15294.231    
     24300   48.6           301.4911       35.034735     -3828.8448      14266.725    
     24400   48.8           298.99647      34.744846     -3828.5873      15454.281    
     24500   49             298.15349      34.646888     -3828.3477      14709.018    
     24600   49.2           308.7515       35.878428     -3827.7751      15771.612    
     24700   49.4           306.8219       35.654199     -3826.6144      15772.086    
     24800   49.6           305.29597      35.476879     -3825.4357      15314.369    
     24900   49.8           297.82095      34.608244     -3826.8034      15342.703    
     25000   50             296.17962      34.417515     -3828.8709      14003.114    
     25100   50.2           307.55331      35.739192     -3828.9654      16316.46     
     25200   50.4           299.07876      34.754409     -3828.4338      14042.711    
     25300   50.6           307.64185      35.749482     -3826.496       13918.503    
     25400   50.8           312.56959      36.322109     -3825.3881      16632.188    
     25500   51             299.36817      34.788039     -3827.4093      14850.213    
     25600   51.2           292.69086      34.012104     -3829.3747      15268.608    
     25700   51.4           287.89905      33.455271     -3829.0811      14647.753    
     25800   51.6           295.01502      34.282183     -3827.8716      14381.914    
     25900   51.8           302.87336      35.19536      -3826.3977      14825.73     
     26000   52             307.76999      35.764372     -3826.2846      14568.588    
     26100   52.2           293.35552      34.089341     -3829.2089      15577.347    
     26200   52.4           288.14155      33.483452     -3829.6412      14500.504    
     26300   52.6           300.12431      34.875907     -3828.5924      14576.858    
     26400   52.8           298.50607      34.687859     -3827.1111      16772.836    
     26500   53             310.5588       36.088445     -3826.4606      15013.528    
     26600   53.2           294.76668      34.253324     -3828.0769      15841.452    
     26700   53.4           293.04724      34.053517     -3830.1283      16334.729    
     26800   53.6           301.46893      35.032158     -3829.6829      15298.915    
     26900   53.8           306.4576       35.611866     -3827.9462      15335.653    
     27000   54             309.19836      35.930355     -3826.838       15697.823    
     27100   54.2           312.20327      36.279541     -3827.1566      15506.85     
     27200   54.4           300.26404      34.892144     -3827.8476      13922.371    
     27300   54.6           295.8261       34.376434     -3828.2115      15451.138    
     27400   54.8           299.80445      34.838738     -3828.2478      15549.859    
     27500   55             305.15547      35.460552     -3828.3016      14956.671    
     27600   55.2           303.73341      35.295301     -3828.1322      16103.027    
     27700   55.4           304.04133      35.331083     -3827.7899      14130.63     
     27800   55.6           297.77428      34.602821     -3827.4929      16147.512    
     27900   55.8           302.22503      35.12002      -3827.6         14848.291    
     28000   56             299.033        34.749091     -3828.6116      16815.01     
     28100   56.2           295.91413      34.386663     -3829.8716      14754.938    
     28200   56.4           290.71648      33.782671     -3829.8809      14375.384    
     28300   56.6           293.29097      34.081839     -3827.562       16682.238    
     28400   56.8           300.50261      34.919867     -3826.1944      14025.235    
     28500   57             291.34382      33.85557      -3826.7132      16574.736    
     28600   57.2           299.83815      34.842653     -3828.5548      15933.776    
     28700   57.4           304.30365      35.361566     -3829.3328      14200.762    
     28800   57.6           300.93069      34.969612     -3828.9163      16135.616    
     28900   57.8           293.35521      34.089304     -3828.2464      15360.248    
     29000   58             294.82162      34.259708     -3827.2575      13709.77     
     29100   58.2           311.2213       36.16543      -3825.4461      16831.25     
     29200   58.4           319.5697       37.135556     -3823.9789      13936.617    
     29300   58.6           309.21387      35.932157     -3826.0855      15438.949    
     29400   58.8           305.52159      35.503097     -3827.4276      17309.393    
     29500   59             282.46911      32.824286     -3828.3301      14037.746    
     29600   59.2           301.1878       34.999489     -3829.0058      16910.675    
     29700   59.4           291.911        33.92148      -3829.1699      15901.092    
     29800   59.6           304.5682       35.392309     -3828.0264      14954.373    
     29900   59.8           303.05044      35.215937     -3826.4783      16320.11     
     30000   60             311.98357      36.254011     -3826.0989      16319.241    
     30100   60.2           300.45633      34.914489     -3828.4326      14030.979    
     30200   60.4           299.6208       34.817396     -3829.4472      15625.319    
     30300   60.6           295.85865      34.380216     -3828.7924      14697.367    
     30400   60.8           307.60268      35.744929     -3827.6303      13798.929    
     30500   61             312.91411      36.362144     -3826.8063      17906.446    
     30600   61.2           311.18265      36.16094      -3826.3418      14650.866    
     30700   61.4           303.61143      35.281126     -3827.7244      14746.06     
     30800   61.6           290.20014      33.72267      -3829.4707      15528.208    
     30900   61.8           299.8895       34.84862      -3829.7037      13945.167    
     31000   62             289.70312      33.664913     -3828.0913      15210.903    
     31100   62.2           310.74743      36.110364     -3826.4133      15527.287    
     31200   62.4           294.61285      34.235448     -3826.8691      13251.835    
     31300   62.6           304.42229      35.375353     -3827.8034      15546.308    
     31400   62.8           292.19442      33.954415     -3828.998       13720.515    
     31500   63             285.8534       33.217557     -3829.7895      14646.475    
     31600   63.2           294.84481      34.262402     -3829.767       15735.626    
     31700   63.4           293.92272      34.155252     -3828.0225      14223.964    
     31800   63.6           317.08663      36.847011     -3826.6468      15299.852    
     31900   63.8           303.57648      35.277065     -3827.0678      15723.649    
     32000   64             292.88364      34.034506     -3828.8528      12994.724    
     32100   64.2           287.29555      33.385142     -3829.9008      17263.978    
     32200   64.4           293.78757      34.139546     -3829.3375      14469.771    
     32300   64.6           298.98096      34.743043     -3827.602       14638.247    
     32400   64.8           310.18984      36.04557      -3825.3555      15750.947    
     32500   65             308.10905      35.803772     -3825.8939      14836.023    
     32600   65.2           298.03487      34.633103     -3827.5032      13787.008    
     32700   65.4           295.98166      34.39451      -3828.8109      14377.963    
     32800   65.6           304.0562       35.332811     -3828.9123      14659.444    
     32900   65.8           296.9046       34.501761     -3828.4117      15704.766    
     33000   66             304.76374      35.415031     -3826.4968      16186.948    
     33100   66.2           307.77128      35.764521     -3825.5708      15792.168    
     33200   66.4           306.01394      35.56031      -3827.4116      15242.695    
     33300   66.6           300.24435      34.889856     -3828.8935      14649.895    
     33400   66.8           303.46486      35.264095     -3828.7417      14529.302    
     33500   67             303.58778      35.278379     -3828.0671      14221.909    
     33600   67.2           306.43984      35.609801     -3826.5104      13778.558    
     33700   67.4           311.09019      36.150195     -3825.7719      14022.23     
     33800   67.6           305.75283      35.529967     -3826.7053      15821.556    
     33900   67.8           302.72901      35.178586     -3828.9451      14105.907    
     34000   68             287.41308      33.398799     -3829.5696      15980.19     
     34100   68.2           299.07521      34.753996     -3828.47        14960.205    
     34200   68.4           302.28504      35.126994     -3826.6971      14626.603    
     34300   68.6           306.84525      35.656912     -3826.4386      16888.372    
     34400   68.8           292.08538      33.941744     -3827.3216      14144.255    
     34500   69             296.29369      34.43077      -3827.7949      15279.259    
     34600   69.2           306.35335      35.599752     -3827.8399      14479.862    
     34700   69.4           306.06431      35.566164     -3828.099       15708.372    
     34800   69.6           300.5299       34.923039     -3828.5629      15069.851    
     34900   69.8           299.05311      34.751428     -3829.6484      16020.505    
     35000   70             294.48589      34.220694     -3830.0318      14366.934    
     35100   70.2           302.28152      35.126585     -3828.331       16849.291    
     35200   70.4           309.01742      35.909329     -3826.7116      15233.945    
     35300   70.6           302.25428      35.12342      -3826.9929      15739.961    
     35400   70.8           290.81689      33.794339     -3828.3524      14874.175    
     35500   71             293.25479      34.077635     -3830.0674      15077.041    
     35600   71.2           299.66508      34.822542     -3830.172       14835.301    
     35700   71.4           296.54327      34.459772     -3829.2241      15366.013    
     35800   71.6           300.11825      34.875202     -3828.8021      15571.722    
     35900   71.8           303.16374      35.229103     -3828.2907      15971.915    
     36000   72             295.19278      34.302839     -3827.9191      16828.357    
     36100   72.2           303.07887      35.21924      -3828.237       16689.812    
     36200   72.4           298.80198      34.722245     -3828.8396      16396.091    
     36300   72.6           294.04542      34.16951      -3829.7089      16311.893    
     36400   72.8           293.84612      34.14635      -3829.7965      14949.234    
     36500   73             309.33251      35.945944     -3827.8388      15359.005    
     36600   73.2           311.77255      36.229489     -3826.7604      16055.765    
     36700   73.4           295.63505      34.354232     -3827.4727      14918.908    
     36800   73.6           300.99504      34.97709      -3829.6387      15425.191    
     36900   73.8           294.71879      34.247759     -3830.0629      14425.569    
     37000   74             290.49428      33.756851     -3829.2659      14737.156    
     37100   74.2           305.20185      35.465942     -3827.9863      15537.392    
     37200   74.4           316.26901      36.752        -3827.2901      15353.38     
     37300   74.6           299.44049      34.796443     -3827.8644      15678.354    
     37400   74.8           292.78376      34.022899     -3830.2133      15040.779    
     37500   75             292.67903      34.010729     -3830.7748      15735.927    
     37600   75.2           307.6397       35.749232     -3829.0497      15104.046    
     37700   75.4           297.60314      34.582934     -3827.8211      16860.678    
     37800   75.6           298.816        34.723874     -3827.8668      14579.852    
     37900   75.8           298.6397       34.703387     -3828.2483      15256.162    
     38000   76             295.77143      34.37008      -3829.843       13682.933    
     38100   76.2           287.09477      33.36181      -3831.6434      16365.719    
     38200   76.4           296.30879      34.432524     -3830.6401      13737.353    
     38300   76.6           294.79677      34.256821     -3829.063       15329.378    
     38400   76.8           295.25505      34.310075     -3828.3821      15200.536    
     38500   77             316.34948      36.761351     -3827.4085      15762.418    
     38600   77.2           304.26224      35.356755     -3827.1041      16327.896    
     38700   77.4           295.35782      34.322017     -3828.5877      15668.303    
     38800   77.6           302.19158      35.116133     -3830.4015      16133.589    
     38900   77.8           301.87364      35.079187     -3830.0558      16415.063    
     39000   78             286.06662      33.242334     -3828.2036      15233.089    
     39100   78.2           303.40313      35.256921     -3827.6364      15468.444    
     39200   78.4           290.95674      33.81059      -3827.8189      16556.718    
     39300   78.6           302.19986      35.117096     -3828.6567      15222.56     
     39400   78.8           283.01672      32.887921     -3830.25        14788.204    
     39500   79             285.33681      33.157528     -3831.6763      14637.505    
     39600   79.2           297.74899      34.599883     -3830.4165      14891.797    
     39700   79.4           293.15089      34.065561     -3828.3011      14421.612    
     39800   79.6           304.21481      35.351242     -3827.7341      14652.278    
     39900   79.8           288.48082      33.522877     -3827.895       15970.589    
     40000   80             298.07182      34.637397     -3829.2025      14957.266    
     40100   80.2           283.45988      32.939419     -3830.5218      14828.713    
     40200   80.4           286.34247      33.274389     -3830.2508      14445.775    
     40300   80.6           311.63589      36.213609     -3827.5076      14198.152    
     40400   80.8           308.25217      35.820403     -3826.8386      14750.642    
     40500   81             296.59215      34.465453     -3827.5881      14694.342    
     40600   81.2           303.66178      35.286977     -3829.5671      14943.136    
     40700   81.4           302.52162      35.154486     -3829.7117      14802.848    
     40800   81.6           290.07104      33.707667     -3828.9675      15320.745    
     40900   81.8           294.71186      34.246954     -3828.3078      15563.666    
     41000   82             308.0635       35.798479     -3827.8441      15354.959    
     41100   82.2           295.85173      34.379412     -3828.1989      15370.465    
     41200   82.4           278.51814      32.365164     -3830.4495      15701.448    
     41300   82.6           289.30511      33.618663     -3831.2783      16264.491    
     41400   82.8           284.67314      33.080406     -3829.5782      14082.652    
     41500   83             296.71055      34.479212     -3828.0932      16778.8      
     41600   83.2           301.59279      35.046551     -3827.866       14436.775    
     41700   83.4           303.26921      35.241359     -3828.0174      15962.462    
     41800   83.6           302.57608      35.160815     -3829.0178      15497.758    
     41900   83.8           294.55806      34.229082     -3830.6933      14855.073    
     42000   84             295.47591      34.33574      -3830.5211      17062.504    
     42100   84.2           287.46782      33.405161     -3828.178       14075.476    
     42200   84.4           308.79402      35.883369     -3827.4394      15808.064    
     42300   84.6           307.21484      35.699861     -3827.7974      14178.248    
     42400   84.8           298.08852      34.639338     -3828.8203      14725.058    
     42500   85             292.78605      34.023165     -3830.4192      14467.587    
     42600   85.2           282.86618      32.870428     -3831.2552      14965.632    
     42700   85.4           294.05054      34.170105     -3828.9435      15063.973    
     42800   85.6           312.64074      36.330376     -3827.2968      15750.893    
     42900   85.8           300.4899       34.91839      -3827.2575      15660.283    
     43000   86             308.00849      35.792087     -3828.439       15336.882    
     43100   86.2           293.84904      34.14669      -3829.7972      16167.813    
     43200   86.4           292.409        33.97935      -3829.6511      15298.949    
     43300   86.6           301.88191      35.080148     -3826.7688      15851.004    
     43400   86.8           313.16862      36.391718     -3826.3827      14534.185    
     43500   87             303.07751      35.219083     -3827.6948      17069.255    
     43600   87.2           288.06768      33.474868     -3829.1935      13614.706    
     43700   87.4           304.04176      35.331133     -3829.2103      15631.561    
     43800   87.6           300.74088      34.947555     -3828.6966      16049.388    
     43900   87.8           310.38868      36.068676     -3828.1735      15191.922    
     44000   88             308.81173      35.885427     -3827.8802      15682.216    
     44100   88.2           293.29741      34.082588     -3828.1159      17622.207    
     44200   88.4           299.21249      34.769948     -3828.4487      15535.978    
     44300   88.6           300.15406      34.879364     -3828.4081      16773.434    
     44400   88.8           297.54548      34.576234     -3828.1919      15496.236    
     44500   89             310.05185      36.029535     -3826.9091      15751.34     
     44600   89.2           303.6602       35.286794     -3826.4089      16797.717    
     44700   89.4           293.82183      34.143528     -3827.4279      16099.909    
     44800   89.6           297.79183      34.604861     -3829.2994      15971.755    
     44900   89.8           295.69578      34.361289     -3829.849       14906.708    
     45000   90             303.62085      35.282222     -3829.2427      15643.056    
     45100   90.2           299.61445      34.816658     -3827.7442      15800.573    
     45200   90.4           311.23918      36.167509     -3825.5213      16066.518    
     45300   90.6           328.43348      38.165571     -3822.8423      15989.721    
     45400   90.8           315.89353      36.708367     -3824.7993      15996.265    
     45500   91             307.31701      35.711733     -3827.1335      16250.417    
     45600   91.2           294.65282      34.240093     -3828.746       15251.322    
     45700   91.4           304.27442      35.35817      -3829.8026      16372.145    
     45800   91.6           297.581        34.580362     -3829.7214      15126.522    
     45900   91.8           292.06566      33.939452     -3827.6699      15959.108    
     46000   92             302.26925      35.125159     -3826.5661      15900.621    
     46100   92.2           299.99118      34.860436     -3827.3203      15058.085    
     46200   92.4           299.36738      34.787948     -3828.3439      16046.789    
     46300   92.6           298.55019      34.692986     -3828.8462      16656.396    
     46400   92.8           288.58317      33.534769     -3828.7615      15516.748    
     46500   93             286.15829      33.252987     -3828.4044      16958.687    
     46600   93.2           296.26261      34.427158     -3828.073       15188.284    
     46700   93.4           296.76431      34.485459     -3828.1967      15341.608    
     46800   93.6           293.16872      34.067633     -3830.514       14854.588    
     46900   93.8           291.94591      33.925536     -3831.229       15341.305    
     47000   94             297.29379      34.546986     -3829.6434      14842.5      
     47100   94.2           303.43582      35.26072      -3827.7809      16549.474    
     47200   94.4           306.28762      35.592113     -3826.9236      14266.311    
     47300   94.6           304.49594      35.383912     -3827.3984      16202.699    
     47400   94.8           293.605        34.118331     -3829.5906      15784.336    
     47500   95             296.05226      34.402714     -3830.2457      14647.203    
     47600   95.2           301.43989      35.028784     -3829.524       14712.457    
     47700   95.4           295.12907      34.295435     -3828.7508      16094.038    
     47800   95.6           297.26548      34.543696     -3828.4704      14071.49     
     47900   95.8           308.81498      35.885804     -3828.2909      15435.875    
     48000   96             285.64628      33.193489     -3828.9657      15057.132    
     48100   96.2           295.43629      34.331135     -3830.2681      15284.118    
     48200   96.4           286.30673      33.270236     -3830.5171      16066.039    
     48300   96.6           294.43633      34.214936     -3828.5449      15775.644    
     48400   96.8           298.02034      34.631415     -3827.2915      15909.882    
     48500   97             302.95711      35.205092     -3827.6167      16119.052    
     48600   97.2           303.0515       35.21606      -3828.7505      14616.296    
     48700   97.4           283.18526      32.907507     -3830.3897      16357.686    
     48800   97.6           295.66912      34.358192     -3832.1499      15493.429    
     48900   97.8           288.0912       33.4776       -3833           15047.615    
     49000   98             296.82199      34.492161     -3830.5209      16538.737    
     49100   98.2           301.35007      35.018346     -3828.9997      14321.079    
     49200   98.4           308.71301      35.873956     -3827.942       15754.456    
     49300   98.6           302.64419      35.168729     -3827.3209      15808.192    
     49400   98.8           310.45223      36.076062     -3827.6234      15188.483    
     49500   99             292.78066      34.022539     -3829.7361      14346.386    
     49600   99.2           297.90258      34.617731     -3830.2786      14841.043    
     49700   99.4           300.8197       34.956714     -3829.0214      15281.978    
     49800   99.6           305.52119      35.50305      -3827.8503      16040.536    
     49900   99.8           313.43345      36.422494     -3827.755       15171.463    
     50000   100            300.13466      34.87711      -3828.0852      14776.139    
     50100   100.2          297.79779      34.605553     -3828.6498      16405.547    
     50200   100.4          291.4054       33.862726     -3829.7972      15740.61     
     50300   100.6          289.79603      33.67571      -3831.1079      15279.156    
     50400   100.8          285.73545      33.203851     -3830.8884      14385.596    
     50500   101            292.60334      34.001933     -3828.2269      15703.346    
     50600   101.2          300.95764      34.972743     -3827.4008      16238.277    
     50700   101.4          307.34131      35.714557     -3827.2496      14667.357    
     50800   101.6          304.55569      35.390854     -3827.6957      17399.035    
     50900   101.8          301.34754      35.018052     -3829.6406      15506.177    
     51000   102            294.43579      34.214873     -3830.3853      16294.361    
     51100   102.2          285.80679      33.212141     -3829.1059      16278.646    
     51200   102.4          303.80529      35.303654     -3826.9316      14799.355    
     51300   102.6          317.36203      36.879014     -3827.2569      16461.103    
     51400   102.8          306.33164      35.597228     -3828.5415      15116.565    
     51500   103            295.29491      34.314707     -3829.6004      15966.075    
     51600   103.2          300.47062      34.916149     -3829.8089      15675.678    
     51700   103.4          303.77934      35.300639     -3827.9053      14923.086    
     51800   103.6          312.41717      36.304396     -3826.356       14642.708    
     51900   103.8          311.48773      36.196391     -3826.9809      16438.887    
     52000   104            296.43073      34.446695     -3828.9456      14593.349    
     52100   104.2          305.64787      35.517771     -3829.6121      14250.663    
     52200   104.4          301.33453      35.01654      -3829.1721      16102.485    
     52300   104.6          294.08192      34.173752     -3828.4021      14030.443    
     52400   104.8          305.65064      35.518093     -3827.0942      14750.094    
     52500   105            314.32324      36.525891     -3824.9903      15901.47     
     52600   105.2          318.50172      37.011452     -3823.9201      15942.023    
     52700   105.4          302.49305      35.151166     -3826.6782      15483.91     
     52800   105.6          303.90681      35.315451     -3827.8367      16167.981    
     52900   105.8          297.26763      34.543947     -3828.8885      15649.195    
     53000   106            298.79397      34.721315     -3829.5515      15312.769    
     53100   106.2          281.84302      32.751531     -3829.5155      15011.049    
     53200   106.4          295.86345      34.380774     -3827.3923      16103.382    
     53300   106.6          289.64101      33.657696     -3826.654       15125.81     
     53400   106.8          312.94007      36.36516      -3827.4922      16288.37     
     53500   107            298.65907      34.705639     -3829.5005      15771.059    
     53600   107.2          303.37714      35.253901     -3830.1311      14717.74     
     53700   107.4          309.10915      35.919989     -3829.3906      15833.584    
     53800   107.6          295.54778      34.344091     -3828.3187      15504.428    
     53900   107.8          313.19043      36.394253     -3827.2183      14876.563    
     54000   108            302.0238       35.096637     -3826.7504      15230.27     
     54100   108.2          302.34764      35.134269     -3828.6435      16112.915    
     54200   108.4          294.59777      34.233696     -3830.191       14758.455    
     54300   108.6          294.13926      34.180415     -3830.0255      15073.789    
     54400   108.8          298.41885      34.677724     -3828.2729      15550.895    
     54500   109            294.62156      34.236461     -3827.0484      15875.405    
     54600   109.2          307.55444      35.739324     -3827.283       15537.513    
     54700   109.4          310.26962      36.054841     -3827.9855      15307.29     
     54800   109.6          304.34665      35.366562     -3828.6855      14479.684    
     54900   109.8          301.07637      34.98654      -3828.897       16065.168    
     55000   110            299.87181      34.846565     -3829.9877      15250.973    
     55100   110.2          288.08776      33.477201     -3831.8147      13520.17     
     55200   110.4          284.06088      33.009258     -3831.2227      15190.851    
     55300   110.6          304.20468      35.350065     -3828.765       15469.544    
     55400   110.8          307.65125      35.750574     -3828.2748      13727.192    
     55500   111            299.95727      34.856496     -3828.4784      15908.304    
     55600   111.2          303.08616      35.220088     -3829.0061      15653.436    
     55700   111.4          299.27009      34.776641     -3829.8698      15022.692    
     55800   111.6          300.27988      34.893984     -3830.3637      15786.532    
     55900   111.8          286.9945       33.350159     -3829.041       15371.344    
     56000   112            301.38942      35.022919     -3827.2721      15251.479    
     56100   112.2          306.03196      35.562405     -3827.3706      15714.479    
     56200   112.4          301.93469      35.086281     -3828.7599      15672.758    
     56300   112.6          305.24673      35.471156     -3830.5669      14828.196    
     56400   112.8          299.58716      34.813487     -3830.2584      14575.831    
     56500   113            292.95056      34.042282     -3829.6036      15929.692    
     56600   113.2          294.59826      34.233752     -3828.579       14517.169    
     56700   113.4          304.45512      35.379167     -3827.5603      15840.402    
     56800   113.6          308.16701      35.810507     -3827.2374      15790.216    
     56900   113.8          299.11148      34.75821      -3827.9861      13770.311    
     57000   114            294.03858      34.168715     -3829.8115      16342.954    
     57100   114.2          293.80854      34.141983     -3830.4812      15887.642    
     57200   114.4          295.15678      34.298655     -3829.5334      14951.252    
     57300   114.6          306.12646      35.573385     -3827.2526      15555.722    
     57400   114.8          309.37624      35.951026     -3827.2224      15639.024    
     57500   115            314.22354      36.514306     -3828.3917      15501.567    
     57600   115.2          294.45506      34.217112     -3829.0276      15657.581    
     57700   115.4          320.65596      37.261784     -3829.1646      15878.104    
     57800   115.6          297.93597      34.62161      -3828.5791      15011.501    
     57900   115.8          307.72614      35.759277     -3826.4876      18214.783    
     58000   116            312.63268      36.32944      -3826.5037      14488.426    
     58100   116.2          297.36126      34.554826     -3828.6278      16453.653    
     58200   116.4          297.48699      34.569437     -3829.6154      16941.939    
     58300   116.6          299.65454      34.821317     -3829.5447      14653.167    
     58400   116.8          302.39578      35.139862     -3828.6581      16702.143    
     58500   117            307.6268       35.747733     -3825.9417      14792.443    
     58600   117.2          309.82907      36.003647     -3826.2048      15223.835    
     58700   117.4          295.78772      34.371974     -3827.6966      14941.611    
     58800   117.6          293.91159      34.153959     -3828.6629      15135.776    
     58900   117.8          290.13605      33.715222     -3829.221       15451.813    
     59000   118            292.5691       33.997955     -3828.8928      14807.967    
     59100   118.2          316.12057      36.734749     -3826.3691      16464.055    
     59200   118.4          305.79726      35.535131     -3825.6905      16003.513    
     59300   118.6          312.71591      36.339112     -3827.3255      16050.439    
     59400   118.8          304.07912      35.335474     -3828.4648      15599.149    
     59500   119            305.25062      35.471609     -3829.1138      15312.391    
     59600   119.2          301.76877      35.067001     -3829.0934      15814.425    
     59700   119.4          304.03242      35.330048     -3827.5468      13491.794    
     59800   119.6          312.25291      36.285309     -3825.8831      17439.16     
     59900   119.8          294.74257      34.250522     -3826.8554      14065.817    
     60000   120            299.97947      34.859075     -3829.2872      14529.442    
     60100   120.2          287.76357      33.439529     -3829.6764      15225.885    
     60200   120.4          293.29337      34.082118     -3829.0775      14944.743    
     60300   120.6          307.42798      35.724628     -3827.6199      14810.32     
     60400   120.8          311.23117      36.166578     -3826.6073      16776.283    
     60500   121            302.63467      35.167623     -3827.709       14496.369    
     60600   121.2          290.40388      33.746346     -3830.0358      16308.508    
     60700   121.4          290.10317      33.711401     -3830.2445      15269.912    
     60800   121.6          306.56727      35.62461      -3828.8689      13937.233    
     60900   121.8          292.99164      34.047056     -3827.2091      16608.946    
     61000   122            303.7751       35.300146     -3827.016       14948.896    
     61100   122.2          300.51304      34.921079     -3827.6233      15237.63     
     61200   122.4          306.87519      35.660391     -3828.1113      16650.735    
     61300   122.6          295.23946      34.308263     -3828.8492      15433.555    
     61400   122.8          295.10673      34.29284      -3829.0606      16073.389    
     61500   123            297.89597      34.616963     -3828.1651      16920.686    
     61600   123.2          316.21234      36.745414     -3826.5701      14609.314    
     61700   123.4          319.57513      37.136186     -3826.6092      16384.387    
     61800   123.6          299.37497      34.78883      -3828.7339      16708.874    
     61900   123.8          302.65707      35.170225     -3829.5396      14935.66     
     62000   124            298.52248      34.689766     -3829.0639      16798.218    
     62100   124.2          307.79608      35.767403     -3828.1986      16553.356    
     62200   124.4          319.30872      37.105229     -3826.8179      15015.304    
     62300   124.6          317.18871      36.858873     -3824.0354      17162.345    
     62400   124.8          317.91916      36.943755     -3824.7078      15212.09     
     62500   125            305.7297       35.52728      -3826.7787      15232.406    
     62600   125.2          298.29057      34.662817     -3828.0992      15712.205    
     62700   125.4          303.11933      35.223942     -3829.2586      15650.74     
     62800   125.6          303.18728      35.231838     -3829.8183      15252.369    
     62900   125.8          302.79472      35.186221     -3828.9327      16178.874    
     63000   126            312.28811      36.289399     -3826.6479      14628.47     
     63100   126.2          309.05466      35.913656     -3826.4942      14996.38     
     63200   126.4          307.29059      35.708664     -3827.8933      17595.917    
     63300   126.6          296.54495      34.459967     -3828.6449      15375.705    
     63400   126.8          301.68157      35.056868     -3828.6805      16054.062    
     63500   127            294.47803      34.219781     -3828.5248      15331.971    
     63600   127.2          309.49004      35.96425      -3828.2225      15109.405    
     63700   127.4          302.49031      35.150847     -3827.2156      15478.555    
     63800   127.6          305.2667       35.473477     -3827.142       16104.312    
     63900   127.8          299.26501      34.776051     -3828.7804      15508.786    
     64000   128            296.26476      34.427408     -3829.8029      14723.053    
     64100   128.2          298.79385      34.721301     -3829.4137      15650.694    
     64200   128.4          305.74596      35.52917      -3826.7981      15249.132    
     64300   128.6          308.12109      35.805172     -3826.1573      15663.45     
     64400   128.8          302.73689      35.179501     -3827.5291      15512.015    
     64500   129            307.03947      35.679481     -3828.6394      14866.886    
     64600   129.2          303.19998      35.233315     -3829.1895      15492.215    
     64700   129.4          290.12241      33.713637     -3829.1627      15778.256    
     64800   129.6          303.12423      35.224511     -3827.8259      15519.223    
     64900   129.8          310.99583      36.13923      -3825.9525      14871.466    
     65000   130            309.00588      35.907989     -3826.7699      15426.925    
     65100   130.2          298.62728      34.701945     -3828.7457      17636.651    
     65200   130.4          293.85136      34.146959     -3829.0977      14894.427    
     65300   130.6          302.38303      35.138381     -3828.9373      16837.472    
     65400   130.8          299.64667      34.820402     -3828.7053      15508.298    
     65500   131            300.97838      34.975153     -3827.5216      15718.711    
     65600   131.2          303.73637      35.295645     -3826.7574      15326.3      
     65700   131.4          308.90634      35.896421     -3827.9869      15487.071    
     65800   131.6          303.68969      35.290221     -3829.8239      14828.12     
     65900   131.8          297.48808      34.569563     -3830.1399      15690.157    
     66000   132            299.38229      34.789681     -3829.3596      15423.289    
     66100   132.2          313.75825      36.460236     -3827.4497      16220.597    
     66200   132.4          319.93389      37.177876     -3825.3653      17323.32     
     66300   132.6          308.40893      35.83862      -3827.4326      13649.099    
     66400   132.8          288.6169       33.538689     -3829.7773      16250.653    
     66500   133            289.16316      33.602167     -3829.7782      16001.893    
     66600   133.2          294.15787      34.182577     -3828.8349      16795.316    
     66700   133.4          311.44797      36.191771     -3827.5084      15178.317    
     66800   133.6          308.81827      35.886187     -3827.0882      15626.798    
     66900   133.8          297.39074      34.558253     -3828.4806      15053.831    
     67000   134            300.49478      34.918957     -3830.3714      15498.109    
     67100   134.2          289.42228      33.632278     -3830.2708      14751.541    
     67200   134.4          288.58746      33.535269     -3829.0465      16301.591    
     67300   134.6          295.62957      34.353596     -3828.1857      15031.827    
     67400   134.8          304.11759      35.339946     -3828.4074      14242.271    
     67500   135            297.86918      34.613849     -3828.8286      15406.95     
     67600   135.2          299.91622      34.851726     -3829.7213      15145.352    
     67700   135.4          285.87714      33.220316     -3831.7339      15820.264    
     67800   135.6          288.11871      33.480797     -3831.953       15211.376    
     67900   135.8          304.71035      35.408827     -3829.1027      15341.803    
     68000   136            285.13201      33.133728     -3828.4602      16549.914    
     68100   136.2          313.40579      36.419279     -3828.3639      15079.283    
     68200   136.4          310.94261      36.133046     -3829.182       15153.518    
     68300   136.6          285.24183      33.14649      -3830.3726      14955.464    
     68400   136.8          305.21316      35.467256     -3830.47        14721.692    
     68500   137            312.90907      36.361558     -3828.4498      15634.208    
     68600   137.2          305.26765      35.473587     -3827.2787      17071.213    
     68700   137.4          303.41494      35.258294     -3828.105       14393.699    
     68800   137.6          303.13659      35.225948     -3829.8624      16679.442    
     68900   137.8          294.73298      34.249408     -3830.2343      15245.614    
     69000   138            296.42515      34.446046     -3829.7389      14438.436    
     69100   138.2          301.66931      35.055443     -3828.9222      16568.443    
     69200   138.4          298.6823       34.708338     -3828.4961      16361.006    
     69300   138.6          299.34927      34.785843     -3829.1606      14591.124    
     69400   138.8          297.56468      34.578465     -3831.272       17128.222    
     69500   139            280.13702      32.553286     -3831.277       15335.761    
     69600   139.2          294.46578      34.218358     -3829.1698      16415.48     
     69700   139.4          310.1072       36.035967     -3828.3892      16544.757    
     69800   139.6          305.97421      35.555694     -3828.4966      15264.931    
     69900   139.8          292.4985       33.98975      -3829.5882      16564.206    
     70000   140            294.04708      34.169703     -3831.1925      15424.474    
     70100   140.2          285.29815      33.153035     -3832.4002      15160.068    
     70200   140.4          297.40937      34.560418     -3830.7574      14291.025    
     70300   140.6          306.67049      35.636605     -3828.7818      16359.352    
     70400   140.8          302.20445      35.117629     -3828.2896      15759.989    
     70500   141            297.77119      34.602463     -3828.3691      16792.001    
     70600   141.2          304.5344       35.388381     -3829.6321      15032.068    
     70700   141.4          290.9744       33.812642     -3831.2555      16126.441    
     70800   141.6          290.72742      33.783942     -3830.6298      14513.484    
     70900   141.8          306.19717      35.581603     -3828.1984      16041.212    
     71000   142            299.25212      34.774553     -3827.9606      15172.854    
     71100   142.2          297.16989      34.532588     -3828.6201      14245.973    
     71200   142.4          298.48045      34.684883     -3829.8236      15617.235    
     71300   142.6          288.82237      33.562566     -3830.7021      13362.914    
     71400   142.8          295.58873      34.348849     -3830.9295      16098.154    
     71500   143            296.43654      34.447369     -3829.4238      15157.919    
     71600   143.2          309.0244       35.910141     -3827.8167      15727.772    
     71700   143.4          311.51072      36.199063     -3827.7441      14588.469    
     71800   143.6          303.05979      35.217024     -3829.4303      15731.315    
     71900   143.8          293.83463      34.145015     -3830.8643      16135.618    
     72000   144            293.80108      34.141117     -3830.6909      14957.577    
     72100   144.2          294.97445      34.277468     -3829.9051      15379.557    
     72200   144.4          290.81961      33.794655     -3829.1001      15618.612    
     72300   144.6          297.62189      34.585113     -3828.2685      16572.736    
     72400   144.8          304.98514      35.440759     -3828.0199      16239.469    
     72500   145            298.9868       34.743722     -3829.6179      14761.233    
     72600   145.2          288.67693      33.545666     -3831.2325      16130.075    
     72700   145.4          302.48549      35.150287     -3830.5278      15356.169    
     72800   145.6          310.92672      36.131199     -3828.6872      15398.33     
     72900   145.8          303.63506      35.283873     -3828.1717      16045.771    
     73000   146            301.9013       35.082401     -3828.4033      15847.103    
     73100   146.2          316.86244      36.820959     -3828.0004      15057.818    
     73200   146.4          299.82561      34.841196     -3827.6327      16806.819    
     73300   146.6          304.31503      35.362888     -3827.9361      15881.496    
     73400   146.8          285.51505      33.178239     -3829.4166      15829.581    
     73500   147            303.69985      35.291402     -3830.4348      16345.323    
     73600   147.2          291.86029      33.915588     -3830.0941      15311.373    
     73700   147.4          311.33327      36.178443     -3827.3905      15111.772    
     73800   147.6          298.66976      34.70688      -3827.0275      17543.923    
     73900   147.8          295.6803       34.359492     -3827.8004      13488.561    
     74000   148            301.08535      34.987584     -3829.5025      14688.143    
     74100   148.2          293.66895      34.125763     -3830.3082      14765.672    
     74200   148.4          304.74252      35.412565     -3829.7796      14906.106    
     74300   148.6          313.09027      36.382614     -3826.3704      15139.415    
     74400   148.8          310.15011      36.040953     -3826.3941      15562.888    
     74500   149            302.57081      35.160202     -3828.3825      15054.553    
     74600   149.2          293.05041      34.053885     -3829.6196      14704.629    
     74700   149.4          292.66791      34.009437     -3829.8846      16222.771    
     74800   149.6          307.39949      35.721318     -3828.9298      14906.811    
     74900   149.8          303.0125       35.211529     -3826.7305      16195.378    
     75000   150            310.86113      36.123577     -3826.4034      15260.802    
     75100   150.2          295.12683      34.295175     -3828.5825      16141.108    
     75200   150.4          297.834        34.609761     -3829.5054      16380.189    
     75300   150.6          298.72981      34.713859     -3829.3709      15875.478    
     75400   150.8          304.30639      35.361884     -3828.9426      16921.599    
     75500   151            296.54729      34.460239     -3827.8744      14955.692    
     75600   151.2          299.57719      34.812328     -3826.712       15459.086    
     75700   151.4          299.34275      34.785086     -3826.8044      15476.309    
     75800   151.6          302.35172      35.134743     -3829.2734      15214.179    
     75900   151.8          300.82897      34.957791     -3829.9746      14755.265    
     76000   152            297.27731      34.545072     -3829.2963      17135.147    
     76100   152.2          312.05226      36.261993     -3827.6687      13706.048    
     76200   152.4          306.82653      35.654737     -3826.3041      15998.117    
     76300   152.6          316.22744      36.747169     -3824.5556      14722.796    
     76400   152.8          310.26833      36.054691     -3826.1812      15090.369    
     76500   153            309.60169      35.977224     -3828.3822      16091.245    
     76600   153.2          309.10023      35.918952     -3829.54        14524.212    
     76700   153.4          306.33556      35.597684     -3830.0148      14688.236    
     76800   153.6          301.98922      35.092618     -3829.0929      14707.028    
     76900   153.8          321.47456      37.35691      -3827.1026      15682.259    
     77000   154            303.5463       35.273558     -3827.2018      15193.036    
     77100   154.2          286.02478      33.237472     -3829.9241      15067.769    
     77200   154.4          293.41917      34.096737     -3830.7152      15275.971    
     77300   154.6          297.41891      34.561525     -3829.7945      14891.137    
     77400   154.8          294.03608      34.168424     -3828.2845      15570.329    
     77500   155            310.28315      36.056413     -3827.5422      15246.604    
     77600   155.2          294.73829      34.250025     -3828.6074      15332.956    
     77700   155.4          289.74124      33.669343     -3831.2356      15084.958    
     77800   155.6          293.84199      34.145871     -3830.9821      15417.407    
     77900   155.8          296.24021      34.424555     -3829.4062      15876.018    
     78000   156            309.42758      35.956992     -3828.3555      15876.963    
     78100   156.2          300.04713      34.866938     -3828.311       14585.433    
     78200   156.4          300.48902      34.918287     -3828.7611      15140.794    
     78300   156.6          279.38439      32.465827     -3830.5724      14185.617    
     78400   156.8          277.50687      32.24765      -3832.4722      14902.583    
     78500   157            295.69793      34.36154      -3831.0307      15029.962    
     78600   157.2          302.38111      35.138158     -3829.3915      14217.968    
     78700   157.4          296.07561      34.405428     -3828.4636      14816.514    
     78800   157.6          298.13861      34.645158     -3827.8863      15542.708    
     78900   157.8          292.75972      34.020105     -3828.0154      14931.577    
     79000   158            296.00363      34.397063     -3830.0067      15797.851    
     79100   158.2          292.06708      33.939617     -3831.1626      14290.248    
     79200   158.4          296.29104      34.430462     -3830.1271      14847.701    
     79300   158.6          313.2753       36.404116     -3828.2996      16293.011    
     79400   158.8          306.03209      35.56242      -3827.9481      14525.667    
     79500   159            301.79554      35.070112     -3828.4983      16841.849    
     79600   159.2          297.08924      34.523217     -3829.6314      16190.639    
     79700   159.4          294.93965      34.273424     -3830.6484      14921.552    
     79800   159.6          287.36058      33.392698     -3830.3731      15315.034    
     79900   159.8          309.02894      35.910668     -3827.6913      14780.237    
     80000   160            302.03116      35.097491     -3826.8663      15753.058    
     80100   160.2          307.73801      35.760656     -3827.9947      15147.794    
     80200   160.4          291.16562      33.834863     -3829.7935      15415.817    
     80300   160.6          297.72703      34.597331     -3830.0851      15104.209    
     80400   160.8          292.76805      34.021074     -3829.0379      15109.546    
     80500   161            295.13167      34.295737     -3827.6274      16642.286    
     80600   161.2          294.68194      34.243477     -3827.6925      14345.618    
     80700   161.4          300.46658      34.91568      -3828.5139      16256.902    
     80800   161.6          292.07082      33.940051     -3829.5177      14932.966    
     80900   161.8          295.79743      34.373102     -3829.9471      14436.477    
     81000   162            307.57673      35.741914     -3828.5892      15866.604    
     81100   162.2          296.17152      34.416573     -3826.8292      15931.067    
     81200   162.4          302.07395      35.102465     -3827.1218      14058.374    
     81300   162.6          305.54051      35.505296     -3829.3021      15972.21     
     81400   162.8          287.79811      33.443542     -3829.8907      14271.686    
     81500   163            285.80634      33.212088     -3829.2725      16244.084    
     81600   163.2          311.69507      36.220485     -3828.2684      15150.665    
     81700   163.4          301.28747      35.011071     -3827.714       14404.155    
     81800   163.6          304.61814      35.398111     -3828.2735      14789.547    
     81900   163.8          304.49413      35.383701     -3830.2405      14212.795    
     82000   164            293.00324      34.048403     -3830.748       14061.525    
     82100   164.2          302.32905      35.132109     -3829.5388      15383.13     
     82200   164.4          303.55578      35.27466      -3827.4219      15436.483    
     82300   164.6          297.70796      34.595114     -3827.6499      14268.053    
     82400   164.8          292.79244      34.023908     -3828.6883      16198.511    
     82500   165            293.84327      34.146019     -3829.631       13309.142    
     82600   165.2          290.36551      33.741887     -3830.1782      15480.815    
     82700   165.4          301.23593      35.005082     -3828.2001      14584.535    
     82800   165.6          315.32634      36.642456     -3826.2838      15343.95     
     82900   165.8          293.35939      34.08979      -3827.6239      14136.234    
     83000   166            297.11671      34.526409     -3829.4611      14433.013    
     83100   166.2          303.02991      35.213552     -3829.8562      15443.545    
     83200   166.4          301.50288      35.036103     -3829.4472      13921.164    
     83300   166.6          308.33021      35.829472     -3827.2676      16129.56     
     83400   166.8          313.39994      36.418599     -3826.1657      15744.914    
     83500   167            305.79425      35.534781     -3827.5646      16038.481    
     83600   167.2          289.29846      33.61789      -3828.8074      15571.348    
     83700   167.4          299.19244      34.767618     -3829.1806      14490.159    
     83800   167.6          307.14192      35.691388     -3829.6655      15539.24     
     83900   167.8          287.6774       33.429514     -3830.3343      13771.603    
     84000   168            290.63528      33.773235     -3830.7162      15497.963    
     84100   168.2          305.68644      35.522253     -3829.7777      15524.481    
     84200   168.4          296.2249       34.422777     -3828.121       13581.087    
     84300   168.6          305.75552      35.530281     -3827.3227      15115.485    
     84400   168.8          300.797        34.954077     -3828.5952      14742.637    
     84500   169            292.95758      34.043098     -3831.0218      14579.549    
     84600   169.2          291.96892      33.928211     -3830.9013      14777.078    
     84700   169.4          302.55257      35.158082     -3829.6639      15475.771    
     84800   169.6          310.92268      36.13073      -3828.4246      16242.825    
     84900   169.8          301.87601      35.079463     -3828.0777      14167.557    
     85000   170            308.26366      35.821739     -3829.2035      14600.645    
     85100   170.2          290.55468      33.763869     -3831.3645      14610.524    
     85200   170.4          283.19545      32.90869      -3831.1508      15053.69     
     85300   170.6          303.5104       35.269386     -3829.1316      14701.819    
     85400   170.8          302.7292       35.178607     -3828.2602      16596.677    
     85500   171            300.27951      34.893942     -3828.5735      14675.019    
     85600   171.2          294.56212      34.229553     -3829.8155      16968.533    
     85700   171.4          301.61202      35.048785     -3832.2977      14466.722    
[...]
    478600   957.2          290.39835      33.745703     -3831.3253      14849.053    
    478700   957.4          305.77464      35.532502     -3829.675       14054.805    
    478800   957.6          295.30024      34.315326     -3828.5699      15189.076    
    478900   957.8          292.74052      34.017874     -3828.5174      14834.935    
    479000   958            301.24074      35.005641     -3829.0195      15460.134    
    479100   958.2          293.26398      34.078702     -3829.7939      15245.113    
    479200   958.4          280.14484      32.554194     -3832.6076      14728.051    
    479300   958.6          287.01567      33.352618     -3833.1242      15744.291    
    479400   958.8          292.60309      34.001904     -3830.9219      14403.177    
    479500   959            288.896        33.571122     -3829.419       15767.308    
    479600   959.2          303.46642      35.264276     -3828.6199      15639.976    
    479700   959.4          295.66906      34.358185     -3828.4343      14210.852    
    479800   959.6          290.0682       33.707337     -3829.774       15088.982    
    479900   959.8          305.27057      35.473927     -3831.2311      15546.45     
    480000   960            294.13716      34.180171     -3830.9381      12447.461    
    480100   960.2          294.67258      34.242389     -3828.388       16278.58     
    480200   960.4          312.75737      36.343929     -3827.9272      14458.929    
    480300   960.6          308.49681      35.848832     -3828.8683      16478.093    
    480400   960.8          289.40821      33.630643     -3830.289       15662.715    
    480500   961            293.42188      34.097051     -3830.9878      14658.768    
    480600   961.2          293.6327       34.12155      -3829.8487      15574.035    
    480700   961.4          311.39328      36.185416     -3827.235       16653.291    
    480800   961.6          302.14489      35.110708     -3827.8289      15645.263    
    480900   961.8          304.87213      35.427626     -3829.4695      15973.085    
    481000   962            298.40966      34.676656     -3830.2328      15669.815    
    481100   962.2          294.82167      34.259714     -3830.1363      15927.859    
    481200   962.4          304.55655      35.390954     -3827.5852      15980.36     
    481300   962.6          302.65315      35.16977      -3826.5592      18658.495    
    481400   962.8          304.44421      35.3779       -3828.1302      14241.531    
    481500   963            303.93569      35.318807     -3829.5867      17654.641    
    481600   963.2          302.38775      35.13893      -3830.1843      15696.839    
    481700   963.4          290.71389      33.78237      -3830.1385      15726.558    
    481800   963.6          306.79006      35.650499     -3828.9497      16333.442    
    481900   963.8          312.36652      36.298511     -3826.5933      15391.164    
    482000   964            304.88486      35.429105     -3827.0745      16075.953    
    482100   964.2          311.03507      36.14379      -3828.9563      15314.671    
    482200   964.4          313.89447      36.476066     -3829.4981      15256.737    
    482300   964.6          294.72225      34.248161     -3829.6884      14917.562    
    482400   964.8          304.8868       35.429331     -3829.3232      16652.238    
    482500   965            313.52236      36.432825     -3827.8861      14638.057    
    482600   965.2          308.63074      35.864396     -3826.7189      15397.828    
    482700   965.4          301.8676       35.078485     -3827.5298      15937.933    
    482800   965.6          306.76414      35.647488     -3829.8267      14366.169    
    482900   965.8          297.28649      34.546138     -3830.0121      16138.876    
    483000   966            299.76859      34.83457      -3829.0444      14027.334    
    483100   966.2          307.27684      35.707065     -3827.5991      15092.129    
    483200   966.4          317.36762      36.879663     -3827.0936      15917.703    
    483300   966.6          298.05389      34.635313     -3829.0345      15055.195    
    483400   966.8          302.70247      35.175501     -3830.8276      14622.577    
    483500   967            289.35897      33.624922     -3830.4741      16226.028    
    483600   967.2          292.36999      33.974817     -3828.7295      14886.686    
    483700   967.4          304.97842      35.439978     -3827.4338      15104.89     
    483800   967.6          309.73668      35.992911     -3827.745       16947.276    
    483900   967.8          303.54131      35.272979     -3829.0216      13876.139    
    484000   968            298.31481      34.665634     -3829.5702      15406.524    
    484100   968.2          303.83759      35.307407     -3829.5254      15082.827    
    484200   968.4          302.67603      35.172429     -3829.2855      14604.068    
    484300   968.6          310.38939      36.068759     -3828.8424      14529.69     
    484400   968.8          301.89054      35.081151     -3828.2871      14789.532    
    484500   969            295.8898       34.383835     -3827.9428      13859.743    
    484600   969.2          300.2257       34.887689     -3828.7601      15729.297    
    484700   969.4          301.63627      35.051604     -3830.4784      15067.248    
    484800   969.6          292.67506      34.010267     -3831.0648      15816.824    
    484900   969.8          293.94604      34.157962     -3829.1376      15446.49     
    485000   970            307.07324      35.683406     -3827.7692      16382.971    
    485100   970.2          305.96913      35.555103     -3828.3003      15214.549    
    485200   970.4          293.62283      34.120403     -3829.4287      16332.04     
    485300   970.6          302.46466      35.147866     -3830.3838      15489.015    
    485400   970.8          287.38885      33.395984     -3831.2406      15425.901    
    485500   971            294.88944      34.267589     -3831.1731      14965.715    
    485600   971.2          301.81401      35.072258     -3829.1196      15158.468    
    485700   971.4          309.17039      35.927105     -3828.1147      14135.049    
    485800   971.6          309.47668      35.962698     -3828.4254      15153.741    
    485900   971.8          296.14897      34.413952     -3830.2176      15120.563    
    486000   972            289.50998      33.64247      -3831.6672      14176.867    
    486100   972.2          298.5466       34.692569     -3830.965       15911.369    
    486200   972.4          298.48932      34.685912     -3830.0096      15506.477    
    486300   972.6          300.45755      34.914631     -3829.368       16344.212    
    486400   972.8          303.62194      35.282348     -3828.554       16377.12     
    486500   973            307.91134      35.780798     -3827.7793      14820.478    
    486600   973.2          303.40129      35.256708     -3828.0356      15987.264    
    486700   973.4          304.47444      35.381413     -3830.1336      14071.871    
    486800   973.6          293.09587      34.059168     -3830.9245      15921.028    
    486900   973.8          294.99405      34.279746     -3830.0649      14822.455    
    487000   974            301.73345      35.062897     -3828.0141      14638.559    
    487100   974.2          307.70384      35.756685     -3827.6206      15977.498    
    487200   974.4          296.38119      34.440938     -3828.4506      14215.704    
    487300   974.6          296.44405      34.448243     -3829.2607      15487.17     
    487400   974.8          302.01069      35.095113     -3829.8005      15119.696    
    487500   975            278.0246       32.307813     -3830.3073      16225.74     
    487600   975.2          304.33883      35.365654     -3829.8322      13512.689    
    487700   975.4          304.01493      35.328016     -3828.721       15410.972    
    487800   975.6          303.50268      35.268489     -3827.6474      12975.507    
    487900   975.8          300.63594      34.935361     -3827.9415      14381.784    
    488000   976            283.0635       32.893358     -3830.4009      14577.279    
    488100   976.2          298.73091      34.713987     -3830.8491      13538.771    
    488200   976.4          289.78202      33.674082     -3830.174       16083.188    
    488300   976.6          304.61326      35.397544     -3828.4643      14635.774    
    488400   976.8          299.08323      34.754928     -3827.8217      16018.863    
    488500   977            300.4226       34.910569     -3828.2548      14734.815    
    488600   977.2          295.32811      34.318565     -3829.1929      16368.943    
    488700   977.4          291.36488      33.858018     -3829.9145      13899.433    
    488800   977.6          301.82861      35.073955     -3830.4623      15279.891    
    488900   977.8          288.88837      33.570235     -3829.8293      15282.622    
    489000   978            295.13893      34.296582     -3827.6186      14898.034    
    489100   978.2          304.31795      35.363228     -3827.1519      15740.746    
    489200   978.4          297.76806      34.602099     -3828.4984      14917.761    
    489300   978.6          301.6446       35.052572     -3829.9633      15769.08     
    489400   978.8          300.19087      34.883642     -3829.6946      15335.492    
    489500   979            297.55588      34.577442     -3828.9825      16234.702    
    489600   979.2          305.26299      35.473046     -3827.8749      14969.153    
    489700   979.4          317.41513      36.885184     -3825.785       16605.701    
    489800   979.6          324.01439      37.652051     -3824.9169      14645.252    
    489900   979.8          302.0623       35.101111     -3827.6379      17062.239    
    490000   980            303.39297      35.25574      -3828.8765      14491.765    
    490100   980.2          288.95885      33.578426     -3829.5919      15760.418    
    490200   980.4          300.673        34.939667     -3829.9871      16425.6      
    490300   980.6          292.04811      33.937412     -3829.9222      15341.243    
    490400   980.8          296.71477      34.479701     -3828.1209      16487.681    
    490500   981            312.07866      36.26506      -3826.6969      14864.867    
    490600   981.2          305.66963      35.5203       -3827.2438      16099.163    
    490700   981.4          296.16806      34.416171     -3829.3224      15127.262    
    490800   981.6          297.08597      34.522836     -3829.7213      14817.833    
    490900   981.8          296.41826      34.445245     -3829.1406      15464.605    
    491000   982            294.10111      34.175981     -3828.2282      15202.281    
    491100   982.2          307.86621      35.775553     -3827.7995      15743.441    
    491200   982.4          296.71152      34.479323     -3828.8905      15205.595    
    491300   982.6          291.54139      33.878529     -3830.7761      15819.013    
    491400   982.8          295.43153      34.330583     -3830.9504      15407.135    
    491500   983            288.10322      33.478997     -3829.2913      16520.557    
    491600   983.2          312.42453      36.305252     -3827.6527      14871.326    
    491700   983.4          295.76007      34.368761     -3828.0436      16164.875    
    491800   983.6          301.15354      34.995508     -3829.0023      15906.189    
    491900   983.8          302.2891       35.127465     -3829.9639      14480.114    
    492000   984            295.81901      34.37561      -3830.682       15545.73     
    492100   984.2          289.85643      33.682729     -3831.1105      15393.842    
    492200   984.4          295.57189      34.346893     -3829.6681      15243.416    
    492300   984.6          312.69775      36.337001     -3827.9653      17052.369    
    492400   984.8          301.46367      35.031546     -3827.6885      14683.449    
    492500   985            315.80356      36.697912     -3828.5345      16862.25     
    492600   985.2          291.70913      33.898021     -3830.8455      14591.805    
    492700   985.4          294.91695      34.270786     -3830.9141      15187.926    
    492800   985.6          290.47094      33.754138     -3829.6811      13810.763    
    492900   985.8          291.46845      33.870054     -3828.8333      16040.843    
    493000   986            305.91167      35.548426     -3828.6288      15777.961    
    493100   986.2          294.48208      34.220252     -3828.7279      14249.937    
    493200   986.4          292.90045      34.036458     -3829.1552      16797.196    
    493300   986.6          297.73201      34.597909     -3830.4817      15313.078    
    493400   986.8          292.71757      34.015208     -3830.8799      15504.549    
    493500   987            295.40121      34.327059     -3829.3214      15648.335    
    493600   987.2          303.02486      35.212965     -3827.6355      16291.082    
    493700   987.4          292.82674      34.027893     -3827.8584      15094.097    
    493800   987.6          293.14901      34.065343     -3828.7974      16245.315    
    493900   987.8          304.66672      35.403756     -3829.5489      13687.186    
    494000   988            302.99433      35.209417     -3829.5721      15900.152    
    494100   988.2          291.06369      33.823018     -3829.4719      14532.222    
    494200   988.4          300.22757      34.887906     -3829.0969      15095.183    
    494300   988.6          308.26625      35.82204      -3828.5694      16345.064    
    494400   988.8          307.06199      35.682098     -3827.9723      14327.199    
    494500   989            295.94646      34.39042      -3828.09        14713.818    
    494600   989.2          306.08986      35.569132     -3829.36        15932.031    
    494700   989.4          284.07701      33.011132     -3830.7893      14778.903    
    494800   989.6          299.40914      34.7928       -3830.534       16428.673    
    494900   989.8          311.46588      36.193852     -3827.9668      15161.097    
    495000   990            292.84684      34.030229     -3827.5384      15685.526    
    495100   990.2          310.31163      36.059723     -3828.5286      15841.591    
    495200   990.4          297.1171       34.526454     -3829.8025      17260.224    
    495300   990.6          291.25003      33.844672     -3830.5582      14812.565    
    495400   990.8          303.88091      35.312442     -3829.8724      15466.604    
    495500   991            312.70979      36.338401     -3826.8605      14933.473    
    495600   991.2          301.35056      35.018403     -3827.0577      16307.668    
    495700   991.4          300.2766       34.893604     -3829.1081      14247.243    
    495800   991.6          286.78906      33.326286     -3830.1133      15313.139    
    495900   991.8          302.7549       35.181594     -3829.8588      15394.886    
    496000   992            311.69807      36.220834     -3828.4585      15112.575    
    496100   992.2          322.22524      37.444142     -3826.218       16147.545    
    496200   992.4          315.93216      36.712855     -3826.4186      16234.272    
    496300   992.6          296.86719      34.497413     -3829.4591      15219.846    
    496400   992.8          288.07819      33.476089     -3830.0062      15462.138    
    496500   993            296.80417      34.49009      -3829.6043      13898.204    
    496600   993.2          292.39292      33.977481     -3828.5673      15637.739    
    496700   993.4          307.23595      35.702314     -3827.5038      15341.402    
    496800   993.6          303.95557      35.321117     -3828.1637      15791.801    
    496900   993.8          297.53439      34.574945     -3830.6663      15624.621    
    497000   994            298.50686      34.687951     -3830.6546      15529.768    
    497100   994.2          296.87826      34.4987       -3829.3951      15853.784    
    497200   994.4          301.91941      35.084506     -3828.0342      16439.26     
    497300   994.6          303.05255      35.216182     -3828.1509      15842.367    
    497400   994.8          292.89655      34.036005     -3828.5201      15957.54     
    497500   995            300.00307      34.861817     -3829.0337      16542.845    
    497600   995.2          289.6683       33.660867     -3829.704       16591.354    
    497700   995.4          300.39484      34.907343     -3830.1379      13960.772    
    497800   995.6          290.2614       33.729788     -3831.4863      15447.682    
    497900   995.8          294.21285      34.188966     -3831.5656      14887.776    
    498000   996            294.96589      34.276473     -3829.5254      14459.199    
    498100   996.2          289.89143      33.686796     -3828.2566      15094.343    
    498200   996.4          306.55899      35.623648     -3828.1889      14477.209    
    498300   996.6          299.45608      34.798254     -3829.7328      15417.671    
    498400   996.8          282.09656      32.780994     -3831.4917      15245.104    
    498500   997            294.41844      34.212857     -3831.1276      15682.932    
    498600   997.2          286.78324      33.32561      -3830.2479      15436.845    
    498700   997.4          299.62048      34.81736      -3829.2171      16243.831    
    498800   997.6          301.09907      34.989178     -3828.0911      15107.067    
    498900   997.8          298.42269      34.67817      -3827.5922      15574.717    
    499000   998            305.50363      35.50101      -3828.6308      16355.941    
    499100   998.2          294.26593      34.195135     -3830.7856      14531.751    
    499200   998.4          292.86623      34.032482     -3831.0609      16300.311    
    499300   998.6          295.2574       34.310348     -3829.5974      15468.34     
    499400   998.8          303.52882      35.271527     -3828.1025      15146.243    
    499500   999            309.5051       35.966        -3828.3381      16891.222    
    499600   999.2          311.09695      36.150981     -3829.2023      15412.363    
    499700   999.4          297.10016      34.524486     -3829.8928      15865.236    
    499800   999.6          296.55865      34.461559     -3829.914       16865.384    
    499900   999.8          299.1123       34.758306     -3828.2891      14107.597    
    500000   1000           319.73538      37.154809     -3826.8732      16876.051    
Loop time of 29337.6 on 1 procs for 500000 steps with 900 atoms

Performance: 2.945 ns/day, 8.149 hours/ns, 17.043 timesteps/s
58.9% CPU use with 1 MPI tasks x 1 OpenMP threads

MPI task timing breakdown:
Section |  min time  |  avg time  |  max time  |%varavg| %total
---------------------------------------------------------------
Pair    | 29055      | 29055      | 29055      |   0.0 | 99.04
Neigh   | 238.58     | 238.58     | 238.58     |   0.0 |  0.81
Comm    | 10.673     | 10.673     | 10.673     |   0.0 |  0.04
Output  | 10.854     | 10.854     | 10.854     |   0.0 |  0.04
Modify  | 18.895     | 18.895     | 18.895     |   0.0 |  0.06
Other   |            | 3.889      |            |       |  0.01

Nlocal:            900 ave         900 max         900 min
Histogram: 1 0 0 0 0 0 0 0 0 0
Nghost:           2508 ave        2508 max        2508 min
Histogram: 1 0 0 0 0 0 0 0 0 0
Neighs:              0 ave           0 max           0 min
Histogram: 1 0 0 0 0 0 0 0 0 0
FullNghs:        67108 ave       67108 max       67108 min
Histogram: 1 0 0 0 0 0 0 0 0 0

Total # of neighbors = 67108
Ave neighs/atom = 74.564444
Neighbor list builds = 50000
Dangerous builds not checked
Total wall time: 8:10:56
