ITEM: TIMESTEP
0
ITEM: NUMBER OF ATOMS
56
ITEM: BOX BOUNDS xy xz yz pp pp pp
-5.9193459749221802e+00 1.2156271994113922e+01 8.9406967163085938e-07
-8.2894563674926758e-03 5.5346975326538086e+00 -5.9481747150421143e+00
-4.5665502548217773e-03 1.9024526596069336e+01 -5.9604644775390625e-08
ITEM: ATOMS id type xs ys zs fx fy fz
4 1 0.0756188 0.166667 0.275226 0 0.0016346 9.91821e-05
5 1 0.0346635 1 0.418084 0 -0.0004673 -0.000450134
7 1 0.0119959 0.500035 0.0609392 0 0.196541 0.189816
50 1 0.0982295 0.666667 0.632369 0 0.000465393 0.000448227
51 1 0.057274 0.5 0.775226 0 -0.00163841 -9.34601e-05
53 1 0.016349 0.666674 0.918084 0 0.0457554 -0.0731964
1 1 0.616547 0.999993 0.132369 0 -0.0457535 0.0732193
2 1 0.366547 0.166674 0.132369 0 0.0457611 0.0732212
3 1 0.32562 1 0.275226 0 -0.00163078 9.15527e-05
6 1 0.116546 0.999993 0.132369 0 -0.0457535 0.0732059
8 1 0.866546 0.166674 0.132369 0 0.0457592 0.0731945
9 1 0.761995 0.666632 0.0609392 0 -0.196552 0.189806
10 1 0.825618 1 0.275226 0 -0.00163269 9.15527e-05
11 1 0.784665 0.166667 0.418084 0 0.000478745 -0.00044632
12 1 0.743711 3.67832e-07 0.560938 0 -0.000417709 0.000144958
13 1 0.49371 0.166667 0.560938 0 0.000425339 0.000141144
14 1 0.452747 1 0.703795 0 -0.00133324 0.000795364
15 1 0.202746 0.166667 0.703795 0 0.00134087 0.000785828
16 1 0.161805 0.999999 0.846658 0 -0.00527573 0.00359726
17 1 0.72109 0.499999 0.203795 0 -0.00528526 -0.00359344
18 1 0.57562 0.166667 0.275226 0 0.00163651 9.72748e-05
19 1 0.47109 0.666668 0.203795 0 0.00527382 -0.00359726
20 1 0.534665 1 0.418084 0 -0.000463486 -0.000453949
21 1 0.430148 0.5 0.346658 0 -0.00134277 -0.000793457
22 1 0.284664 0.166667 0.418084 0 0.000465393 -0.000453949
23 1 0.180147 0.666667 0.346658 0 0.00132942 -0.000782013
24 1 0.24371 3.50169e-07 0.560938 0 -0.000413895 0.000141144
25 1 0.139184 0.5 0.489515 0 -0.000423431 -0.000146866
26 1 0.993709 0.166667 0.560938 0 0.000427246 0.000144958
27 1 0.889183 0.666667 0.489515 0 0.000423431 -0.000150681
28 1 0.511997 0.500035 0.0609392 0 0.196562 0.189857
29 1 0.261997 0.666632 0.0609392 0 -0.196566 0.189854
30 1 0.221089 0.499999 0.203795 0 -0.00528145 -0.00360489
31 1 0.971088 0.666668 0.203795 0 0.00528526 -0.00360107
32 1 0.930147 0.5 0.346658 0 -0.00133705 -0.00079155
33 1 0.911806 0.166668 0.846658 0 0.00527763 0.00361252
34 1 0.870899 3.5121e-05 0.989514 0 0.196541 -0.189812
35 1 0.620898 0.166632 0.989514 0 -0.196564 -0.189856
36 1 0.952748 1 0.703795 0 -0.00133896 0.000795364
37 1 0.848231 0.5 0.632369 0 -0.000478745 0.000453949
38 1 0.702748 0.166667 0.703795 0 0.00133896 0.00078392
39 1 0.598231 0.666668 0.632369 0 0.000463486 0.00044632
40 1 0.661806 0.999999 0.846658 0 -0.00527954 0.00359535
41 1 0.557275 0.5 0.775226 0 -0.00163651 -9.34601e-05
42 1 0.411805 0.166668 0.846658 0 0.00528526 0.00359726
43 1 0.307274 0.666667 0.775226 0 0.00162697 -8.58307e-05
44 1 0.370898 3.50854e-05 0.989514 0 0.196569 -0.189857
45 1 0.266347 0.499993 0.918084 0 -0.0457573 -0.0732231
46 1 0.680148 0.666667 0.346658 0 0.00133324 -0.000785828
47 1 0.639185 0.5 0.489515 0 -0.000425339 -0.000144958
48 1 0.389184 0.666667 0.489515 0 0.000423431 -0.000139236
49 1 0.34823 0.5 0.632369 0 -0.0004673 0.000453949
52 1 0.120899 0.166632 0.989514 0 -0.196545 -0.189808
54 1 0.807276 0.666667 0.775226 0 0.0016346 -9.53674e-05
55 1 0.766349 0.499993 0.918084 0 -0.0457535 -0.0732059
56 1 0.516348 0.666674 0.918084 0 0.0457554 -0.0732288
ITEM: TIMESTEP
1
ITEM: NUMBER OF ATOMS
56
ITEM: BOX BOUNDS xy xz yz pp pp pp
-5.9193459749221802e+00 1.2156271994113922e+01 8.9406967163085938e-07
-8.2894563674926758e-03 5.5346975326538086e+00 -5.9481747150421143e+00
-4.5665502548217773e-03 1.9024526596069336e+01 -5.9604644775390625e-08
ITEM: ATOMS id type xs ys zs fx fy fz
4 1 0.0756194 0.166738 0.275228 0 0.0050354 0.0173035
5 1 0.0346607 0.999979 0.418079 0 -0.000349045 0.000160217
7 1 0.013173 0.508567 0.0633393 0 0.0214958 -0.0287323
50 1 0.0982322 0.666688 0.632374 0 0.00034523 -0.000167847
51 1 0.0572735 0.499929 0.775225 0 -0.00503159 -0.0173092
53 1 0.0158951 0.66866 0.917159 0 -0.0441933 0.00115395
1 1 0.617001 0.998007 0.133294 0 0.0441914 -0.00115395
2 1 0.367001 0.168661 0.133294 0 -0.0442028 -0.00114632
3 1 0.32562 0.999929 0.275228 0 -0.00503731 0.0173073
6 1 0.117 0.998007 0.133294 0 0.0441895 -0.00114059
8 1 0.867 0.16866 0.133294 0 -0.0441933 -0.00114822
9 1 0.763173 0.6581 0.0633391 0 -0.0214939 -0.0287571
10 1 0.825619 0.999929 0.275228 0 -0.00502586 0.0173111
11 1 0.784662 0.166688 0.418079 0 0.000337601 0.000164032
12 1 0.743712 -1.77637e-05 0.56094 0 -0.000217438 0.000278473
13 1 0.493711 0.166685 0.56094 0 0.000219345 0.000274658
14 1 0.452752 0.999942 0.703805 0 -0.00105286 0.000879288
15 1 0.202751 0.166725 0.703805 0 0.00104523 0.000883102
16 1 0.161827 0.99977 0.846703 0 -0.0191612 -0.0646877
17 1 0.721068 0.49977 0.20375 0 -0.0191631 0.0646896
18 1 0.575621 0.166738 0.275228 0 0.00502968 0.0173149
19 1 0.471067 0.666897 0.20375 0 0.0191727 0.0646935
20 1 0.534662 0.999979 0.418078 0 -0.000347137 0.000171661
21 1 0.430143 0.499942 0.346648 0 -0.00104141 -0.000888824
22 1 0.284661 0.166688 0.418078 0 0.000347137 0.000165939
23 1 0.180142 0.666725 0.346648 0 0.00104713 -0.000890732
24 1 0.24371 -1.76158e-05 0.56094 0 -0.00022316 0.000272751
25 1 0.139183 0.499982 0.489513 0 -0.000213623 -0.000272751
26 1 0.99371 0.166685 0.56094 0 0.000219345 0.000263214
27 1 0.889182 0.666685 0.489513 0 0.000217438 -0.000267029
28 1 0.513175 0.508567 0.0633397 0 0.0214901 -0.0287552
29 1 0.263174 0.6581 0.0633397 0 -0.0214901 -0.0287457
30 1 0.221066 0.49977 0.20375 0 -0.019165 0.0646954
31 1 0.971066 0.666897 0.20375 0 0.0191631 0.0646839
32 1 0.930142 0.499942 0.346648 0 -0.00104713 -0.000892639
33 1 0.911829 0.166897 0.846703 0 0.0191708 -0.0646839
34 1 0.869722 0.0085664 0.987114 0 0.0215034 0.0287266
35 1 0.619721 0.1581 0.987113 0 -0.0214863 0.0287457
36 1 0.952753 0.999942 0.703805 0 -0.00104713 0.000886917
37 1 0.848234 0.499979 0.632374 0 -0.000339508 -0.000154495
38 1 0.702752 0.166725 0.703805 0 0.00104904 0.000886917
39 1 0.598234 0.666688 0.632374 0 0.000356674 -0.000160217
40 1 0.661828 0.99977 0.846703 0 -0.0191727 -0.064682
41 1 0.557275 0.499929 0.775225 0 -0.00502777 -0.0173054
42 1 0.411827 0.166897 0.846703 0 0.0191689 -0.0647011
43 1 0.307274 0.666738 0.775225 0 0.00503349 -0.0173168
44 1 0.36972 0.00856761 0.987113 0 0.0214939 0.0287571
45 1 0.265893 0.498007 0.917158 0 0.044199 0.00115204
46 1 0.680144 0.666725 0.346648 0 0.00104904 -0.000890732
47 1 0.639184 0.499982 0.489513 0 -0.00022316 -0.000268936
48 1 0.389184 0.666685 0.489513 0 0.00021553 -0.000274658
49 1 0.348233 0.499979 0.632374 0 -0.000347137 -0.000173569
52 1 0.119722 0.1581 0.987114 0 -0.0214939 0.0287571
54 1 0.807275 0.666738 0.775225 0 0.00502396 -0.0173035
55 1 0.765895 0.498007 0.917159 0 0.0441761 0.00114059
56 1 0.515894 0.66866 0.917158 0 -0.044199 0.00115204
ITEM: TIMESTEP
2
ITEM: NUMBER OF ATOMS
56
ITEM: BOX BOUNDS xy xz yz pp pp pp
-5.9193459749221802e+00 1.2156271994113922e+01 8.9406967163085938e-07
-8.2894563674926758e-03 5.5346975326538086e+00 -5.9481747150421143e+00
-4.5665502548217773e-03 1.9024526596069336e+01 -5.9604644775390625e-08
ITEM: ATOMS id type xs ys zs fx fy fz
4 1 0.0757862 0.167093 0.275568 0 0.00314713 0.0140877
5 1 0.0346616 0.999951 0.41808 0 -0.001791 0.00690842
7 1 0.0131539 0.511883 0.0633003 0 -0.00897598 -0.00621414
50 1 0.0982312 0.666715 0.632372 0 0.00179863 -0.00691414
51 1 0.0571066 0.499574 0.774885 0 -0.0031414 -0.0140934
53 1 0.0158068 0.666116 0.916979 0 -0.00885963 -0.00985527
1 1 0.61709 1.00055 0.133474 0 0.00886154 0.00985718
2 1 0.367089 0.166115 0.133475 0 -0.00885391 0.0098629
3 1 0.325787 0.999574 0.275568 0 -0.00313568 0.0140934
6 1 0.117088 1.00055 0.133474 0 0.00885963 0.00985718
8 1 0.867088 0.166116 0.133474 0 -0.00885963 0.00985527
9 1 0.763153 0.654784 0.0632997 0 0.00897789 -0.00620842
10 1 0.825786 0.999575 0.275568 0 -0.0031414 0.0140762
11 1 0.784663 0.166715 0.418081 0 0.00179863 0.00691223
12 1 0.743715 -3.639e-05 0.560946 0 -6.48499e-05 0.000257492
13 1 0.493714 0.166704 0.560946 0 7.05719e-05 0.000265121
14 1 0.452761 0.999858 0.703824 0 -0.00437927 -0.026371
15 1 0.202761 0.166809 0.703824 0 0.00438881 -0.0263691
16 1 0.161209 0.998428 0.845443 0 0.00979233 0.00424576
17 1 0.721686 0.498428 0.20501 0 0.00979805 -0.00425529
18 1 0.575788 0.167093 0.275568 0 0.00314522 0.0140858
19 1 0.471686 0.66824 0.20501 0 -0.0098114 -0.00423622
20 1 0.534663 0.999952 0.418081 0 -0.00180435 0.00692177
21 1 0.430134 0.499859 0.346628 0 -0.00439072 0.0263729
22 1 0.284662 0.166715 0.41808 0 0.00179672 0.00691414
23 1 0.180133 0.666808 0.346629 0 0.0043869 0.0263672
24 1 0.243713 -3.65916e-05 0.560946 0 -6.86646e-05 0.000259399
25 1 0.13918 0.499964 0.489507 0 -7.24792e-05 -0.000255585
26 1 0.993713 0.166704 0.560946 0 6.10352e-05 0.00025177
27 1 0.889179 0.666704 0.489507 0 6.10352e-05 -0.000255585
28 1 0.513155 0.511884 0.0633005 0 -0.0089798 -0.00621796
29 1 0.263155 0.654783 0.0633006 0 0.00897789 -0.00621223
30 1 0.221685 0.498428 0.20501 0 0.00979805 -0.00423813
31 1 0.971684 0.66824 0.20501 0 -0.00979233 -0.00424004
32 1 0.930132 0.499859 0.346628 0 -0.00439072 0.0263805
33 1 0.911211 0.168239 0.845443 0 -0.00980377 0.00424004
34 1 0.869741 0.0118832 0.987152 0 -0.00898361 0.00621986
35 1 0.61974 0.154784 0.987152 0 0.00896454 0.00620842
36 1 0.952762 0.999858 0.703824 0 -0.00438499 -0.0263786
37 1 0.848233 0.499952 0.632373 0 -0.00179291 -0.00692177
38 1 0.702762 0.166809 0.703824 0 0.00438309 -0.0263577
39 1 0.598233 0.666716 0.632372 0 0.00178719 -0.00691795
40 1 0.66121 0.998427 0.845443 0 0.00981331 0.0042305
41 1 0.557108 0.499574 0.774885 0 -0.00315285 -0.0140991
42 1 0.411209 0.16824 0.845443 0 -0.0098114 0.00424004
43 1 0.307107 0.667093 0.774885 0 0.00314713 -0.0140915
44 1 0.369739 0.011884 0.987152 0 -0.00898361 0.00621986
45 1 0.265805 0.500552 0.916978 0 0.00885963 -0.00985909
46 1 0.680134 0.666809 0.346628 0 0.00438881 0.0263805
47 1 0.639181 0.499963 0.489507 0 -6.48499e-05 -0.000259399
48 1 0.389181 0.666704 0.489507 0 6.86646e-05 -0.000253677
49 1 0.348232 0.499952 0.632372 0 -0.00179672 -0.00691032
52 1 0.119741 0.154784 0.987153 0 0.00897598 0.00621414
54 1 0.807108 0.667093 0.774885 0 0.00315666 -0.0140839
55 1 0.765806 0.50055 0.916978 0 0.0088768 -0.00985336
56 1 0.515805 0.666116 0.916978 0 -0.00885391 -0.0098629
ITEM: TIMESTEP
3
ITEM: NUMBER OF ATOMS
56
ITEM: BOX BOUNDS xy xz yz pp pp pp
-5.9193459749221802e+00 1.2156271994113922e+01 8.9406967163085938e-07
-8.2894563674926758e-03 5.5346975326538086e+00 -5.9481747150421143e+00
-4.5665502548217773e-03 1.9024526596069336e+01 -5.9604644775390625e-08
ITEM: ATOMS id type xs ys zs fx fy fz
4 1 0.075996 0.16744 0.275995 0 -0.000909805 0.00527
5 1 0.0347484 0.999788 0.418258 0 -0.000358582 0.00993347
7 1 0.0130722 0.511752 0.0631337 0 0.00286865 0.00718689
50 1 0.0981443 0.666879 0.632195 0 0.000343323 -0.00993156
51 1 0.0568967 0.499228 0.774457 0 0.000898361 -0.00525284
53 1 0.0156657 0.664833 0.916691 0 0.00985336 -0.00661659
1 1 0.617231 1.00183 0.133762 0 -0.00986862 0.00661087
2 1 0.367231 0.164833 0.133763 0 0.00985336 0.00660896
3 1 0.325997 0.999228 0.275996 0 0.000896454 0.00527954
6 1 0.11723 1.00183 0.133762 0 -0.00985146 0.00662422
8 1 0.867229 0.164833 0.133762 0 0.0098629 0.00661659
9 1 0.763072 0.654914 0.0631331 0 -0.00286484 0.00720215
10 1 0.825995 0.999229 0.275995 0 0.000896454 0.0052681
11 1 0.78475 0.166879 0.418258 0 0.000349045 0.00993538
12 1 0.743718 -4.5778e-05 0.560954 0 -0.00322723 -0.0108128
13 1 0.493718 0.166714 0.560954 0 0.00321579 -0.0108242
14 1 0.452432 0.999457 0.703154 0 -3.24249e-05 0.00337791
15 1 0.202432 0.16721 0.703154 0 1.90735e-05 0.00337791
16 1 0.161139 0.999022 0.845302 0 0.00703812 -0.00158882
17 1 0.721755 0.499022 0.205151 0 0.0070343 0.00160217
18 1 0.575997 0.167439 0.275996 0 -0.000896454 0.00527
19 1 0.471755 0.667644 0.205152 0 -0.00701714 0.00156593
20 1 0.53475 0.999788 0.418258 0 -0.000339508 0.00990677
21 1 0.430462 0.499457 0.347299 0 -1.90735e-05 -0.00336075
22 1 0.284749 0.166879 0.418258 0 0.000354767 0.00993156
23 1 0.180461 0.66721 0.347299 0 2.09808e-05 -0.00337791
24 1 0.243717 -4.63838e-05 0.560954 0 -0.0032196 -0.0108242
25 1 0.139176 0.499954 0.489499 0 -0.00322151 0.0108109
26 1 0.993717 0.166713 0.560953 0 0.00323105 -0.0108109
27 1 0.889176 0.666713 0.489499 0 0.00323296 0.010807
28 1 0.513074 0.511753 0.0631337 0 0.00285721 0.00720215
29 1 0.263073 0.654914 0.063134 0 -0.00287056 0.00719452
30 1 0.221754 0.499022 0.205152 0 0.00702667 0.00157928
31 1 0.971754 0.667646 0.205151 0 -0.0070343 0.00158691
32 1 0.930461 0.499457 0.347299 0 -5.72205e-06 -0.00339699
33 1 0.911141 0.167645 0.845302 0 -0.00702095 -0.0015831
34 1 0.869823 0.0117522 0.987319 0 0.00287437 -0.00718498
35 1 0.619821 0.154913 0.987319 0 -0.00285149 -0.00718689
36 1 0.952433 0.999457 0.703154 0 -1.33514e-05 0.0034008
37 1 0.848146 0.499789 0.632195 0 -0.000350952 -0.00992775
38 1 0.702433 0.16721 0.703154 0 2.09808e-05 0.00337029
39 1 0.598146 0.666879 0.632195 0 0.000347137 -0.00992203
40 1 0.661141 0.999023 0.845301 0 0.00701714 -0.00157738
41 1 0.556898 0.499227 0.774457 0 0.000917435 -0.00527
42 1 0.41114 0.167644 0.845301 0 -0.00701523 -0.00156212
43 1 0.306897 0.667439 0.774457 0 -0.000909805 -0.00527191
44 1 0.369821 0.011753 0.987319 0 0.00286484 -0.00720596
45 1 0.265664 0.501834 0.91669 0 -0.00987053 -0.00661278
46 1 0.680463 0.66721 0.347299 0 2.09808e-05 -0.00340652
47 1 0.639177 0.499953 0.489499 0 -0.00323105 0.0108204
48 1 0.389177 0.666713 0.489499 0 0.00322533 0.0108032
49 1 0.348145 0.499788 0.632195 0 -0.000349045 -0.00992393
52 1 0.119823 0.154915 0.98732 0 -0.00286102 -0.00720215
54 1 0.806899 0.66744 0.774457 0 -0.000907898 -0.00527382
55 1 0.765665 0.501834 0.916691 0 -0.00986481 -0.00662041
56 1 0.515664 0.664834 0.91669 0 0.00984192 -0.00661469
ITEM: TIMESTEP
4
ITEM: NUMBER OF ATOMS
56
ITEM: BOX BOUNDS xy xz yz pp pp pp
-5.9193459749221802e+00 1.2156271994113922e+01 8.9406967163085938e-07
-8.2894563674926758e-03 5.5346975326538086e+00 -5.9481747150421143e+00
-4.5665502548217773e-03 1.9024526596069336e+01 -5.9604644775390625e-08
ITEM: ATOMS id type xs ys zs fx fy fz
4 1 0.0760928 0.167471 0.276193 0 -0.00343704 0.00266647
5 1 0.0348549 0.999727 0.418475 0 -0.00213623 8.96454e-05
7 1 0.0131135 0.511892 0.0632179 0 -1.52588e-05 -0.00135803
50 1 0.0980379 0.66694 0.631978 0 0.00213051 -8.39233e-05
51 1 0.0568 0.499196 0.77426 0 0.00344276 -0.00268745
53 1 0.0155743 0.665107 0.916505 0 0.00123405 -0.000299454
1 1 0.617322 1.00156 0.133948 0 -0.00121689 0.00030899
2 1 0.367322 0.165107 0.133949 0 0.00122833 0.000303268
3 1 0.326094 0.999197 0.276193 0 0.00343513 0.00265884
6 1 0.117321 1.00156 0.133949 0 -0.00122643 0.000307083
8 1 0.86732 0.165108 0.133948 0 0.00121689 0.000310898
9 1 0.763113 0.654775 0.0632177 0 2.28882e-05 -0.0013752
10 1 0.826092 0.999197 0.276193 0 0.00344086 0.00268745
11 1 0.784857 0.16694 0.418475 0 0.0021286 7.62939e-05
12 1 0.743627 -0.000241376 0.560767 0 -0.00118065 0.00151443
13 1 0.493626 0.166909 0.560767 0 0.00117493 0.00151634
14 1 0.45238 0.999356 0.703047 0 0.00130653 0.000894547
15 1 0.20238 0.167311 0.703047 0 -0.00128937 0.000896454
16 1 0.161109 0.99959 0.845239 0 -0.00303268 -0.00475121
17 1 0.721786 0.49959 0.205214 0 -0.00302505 0.00474739
18 1 0.576094 0.167471 0.276193 0 -0.00343895 0.00266266
19 1 0.471786 0.667077 0.205214 0 0.00303078 0.00475311
20 1 0.534856 0.999727 0.418475 0 -0.00213051 9.53674e-05
21 1 0.430515 0.499356 0.347406 0 0.00129509 -0.000905991
22 1 0.284855 0.16694 0.418475 0 0.00212479 9.15527e-05
23 1 0.180514 0.66731 0.347405 0 -0.00128555 -0.000892639
24 1 0.243625 -0.000241624 0.560767 0 -0.00117683 0.00151062
25 1 0.139268 0.499758 0.489686 0 -0.00118256 -0.00151634
26 1 0.993625 0.166909 0.560767 0 0.00118256 0.00152588
27 1 0.889267 0.666909 0.489686 0 0.00118637 -0.00151062
28 1 0.513115 0.511892 0.0632182 0 -3.05176e-05 -0.00137901
29 1 0.263115 0.654774 0.0632184 0 1.52588e-05 -0.00137138
30 1 0.221785 0.499589 0.205214 0 -0.00303268 0.00474358
31 1 0.971784 0.667078 0.205214 0 0.00303078 0.00474167
32 1 0.930513 0.499357 0.347405 0 0.00128555 -0.000890732
33 1 0.911111 0.167078 0.845239 0 0.00303078 -0.0047493
34 1 0.869781 0.0118921 0.987235 0 -1.71661e-05 0.00135803
35 1 0.61978 0.154774 0.987234 0 1.71661e-05 0.00135803
36 1 0.952381 0.999357 0.703048 0 0.00129128 0.000892639
37 1 0.84804 0.499728 0.631978 0 -0.00213242 -8.2016e-05
38 1 0.702381 0.16731 0.703047 0 -0.0012989 0.00088501
39 1 0.598039 0.66694 0.631978 0 0.00213623 -8.96454e-05
40 1 0.66111 0.99959 0.845239 0 -0.0030365 -0.00473595
41 1 0.556801 0.499197 0.77426 0 0.00343323 -0.00266266
42 1 0.411109 0.167077 0.845239 0 0.00302696 -0.00475883
43 1 0.3068 0.66747 0.77426 0 -0.00344086 -0.00265884
44 1 0.36978 0.0118922 0.987235 0 -2.28882e-05 0.00137711
45 1 0.265572 0.501559 0.916504 0 -0.00121498 -0.000299454
46 1 0.680515 0.667311 0.347405 0 -0.00129128 -0.000892639
47 1 0.639269 0.499758 0.489686 0 -0.00118065 -0.00151253
48 1 0.389269 0.666909 0.489686 0 0.00117874 -0.00150681
49 1 0.348038 0.499727 0.631978 0 -0.0021286 -9.91821e-05
52 1 0.119782 0.154775 0.987235 0 1.33514e-05 0.00137329
54 1 0.806802 0.667471 0.77426 0 -0.00344658 -0.00266838
55 1 0.765574 0.50156 0.916504 0 -0.00122643 -0.000303268
56 1 0.515573 0.665107 0.916504 0 0.00123405 -0.000305176
ITEM: TIMESTEP
5
ITEM: NUMBER OF ATOMS
56
ITEM: BOX BOUNDS xy xz yz pp pp pp
-5.9193459749221802e+00 1.2156271994113922e+01 8.9406967163085938e-07
-8.2894563674926758e-03 5.5346975326538086e+00 -5.9481747150421143e+00
-4.5665502548217773e-03 1.9024526596069336e+01 -5.9604644775390625e-08
ITEM: ATOMS id type xs ys zs fx fy fz
4 1 0.0761338 0.167235 0.276276 0 0.000120163 0.000219345
5 1 0.0348714 0.999568 0.418508 0 -0.00015831 0.00015831
7 1 0.013106 0.511912 0.0632026 0 7.05719e-05 0.00103378
50 1 0.0980214 0.667098 0.631944 0 0.000167847 -0.000171661
51 1 0.0567589 0.499433 0.774176 0 -0.000112534 -0.000190735
53 1 0.0155578 0.665234 0.916471 0 -0.000181198 -0.000619888
1 1 0.617339 1.00143 0.133982 0 0.000185013 0.000612259
2 1 0.367339 0.165234 0.133982 0 -0.000190735 0.000617981
3 1 0.326135 0.999433 0.276277 0 -0.000114441 0.00022316
6 1 0.117338 1.00143 0.133983 0 0.000173569 0.000602722
8 1 0.867337 0.165233 0.133982 0 -0.000173569 0.000621796
9 1 0.763105 0.654756 0.063202 0 -7.62939e-05 0.00102615
10 1 0.826133 0.999433 0.276277 0 -0.000112534 0.00019455
11 1 0.784873 0.167098 0.418508 0 0.000165939 0.000177383
12 1 0.743629 -0.00035291 0.56077 0 -0.000499725 0.00145721
13 1 0.493628 0.16702 0.56077 0 0.000505447 0.00145912
14 1 0.452381 0.999433 0.70305 0 0.00022316 -0.00168991
15 1 0.202381 0.167235 0.70305 0 -0.000244141 -0.00169373
16 1 0.161057 0.999461 0.845133 0 -0.000648499 0.000621796
17 1 0.721838 0.499461 0.20532 0 -0.000652313 -0.000627518
18 1 0.576135 0.167235 0.276277 0 0.000110626 0.000213623
19 1 0.471838 0.667206 0.20532 0 0.000652313 -0.000619888
20 1 0.534873 0.999569 0.418508 0 -0.000156403 0.000165939
21 1 0.430513 0.499432 0.347403 0 0.000234604 0.00169182
22 1 0.284872 0.167098 0.418509 0 0.000164032 0.000148773
23 1 0.180512 0.667235 0.347403 0 -0.000238419 0.0016861
24 1 0.243627 -0.000352839 0.56077 0 -0.00050354 0.00148201
25 1 0.139266 0.499647 0.489682 0 -0.000492096 -0.00146675
26 1 0.993627 0.167021 0.56077 0 0.000482559 0.00145721
27 1 0.889266 0.667021 0.489683 0 0.000488281 -0.00146675
28 1 0.513107 0.51191 0.0632024 0 8.7738e-05 0.00104332
29 1 0.263107 0.654755 0.0632028 0 -7.82013e-05 0.00103951
30 1 0.221837 0.49946 0.20532 0 -0.000638962 -0.000616074
31 1 0.971836 0.667207 0.20532 0 0.000648499 -0.000619888
32 1 0.930512 0.499433 0.347403 0 0.000236511 0.00168991
33 1 0.911058 0.167207 0.845133 0 0.000642776 0.000621796
34 1 0.869789 0.0119114 0.98725 0 7.82013e-05 -0.00103378
35 1 0.619788 0.154755 0.98725 0 -8.96454e-05 -0.00101471
36 1 0.952383 0.999433 0.70305 0 0.000234604 -0.00169373
37 1 0.848023 0.499569 0.631945 0 -0.000162125 -0.000169754
38 1 0.702382 0.167234 0.70305 0 -0.00022316 -0.00167656
39 1 0.598023 0.667098 0.631944 0 0.000152588 -0.000152588
40 1 0.661058 0.99946 0.845133 0 -0.000638962 0.000608444
41 1 0.55676 0.499433 0.774176 0 -0.000106812 -0.000209808
42 1 0.411057 0.167206 0.845133 0 0.000648499 0.000617981
43 1 0.306759 0.667234 0.774176 0 0.00012207 -0.000219345
44 1 0.369787 0.0119111 0.98725 0 7.05719e-05 -0.00104713
45 1 0.265556 0.501434 0.916471 0 0.000175476 -0.000623703
46 1 0.680514 0.667235 0.347403 0 -0.000253677 0.00170898
47 1 0.639267 0.499646 0.489683 0 -0.000473022 -0.00147438
48 1 0.389267 0.66702 0.489683 0 0.000494003 -0.00146675
49 1 0.348022 0.499569 0.631944 0 -0.000154495 -0.000162125
52 1 0.119789 0.154756 0.987251 0 -7.43866e-05 -0.00104141
54 1 0.806761 0.667234 0.774176 0 0.000120163 -0.000211716
55 1 0.765557 0.501434 0.91647 0 0.000179291 -0.000614166
56 1 0.515556 0.665233 0.91647 0 -0.00018692 -0.000606537
ITEM: TIMESTEP
6
ITEM: NUMBER OF ATOMS
56
ITEM: BOX BOUNDS xy xz yz pp pp pp
-5.9193459749221802e+00 1.2156271994113922e+01 8.9406967163085938e-07
-8.2894563674926758e-03 5.5346975326538086e+00 -5.9481747150421143e+00
-4.5665502548217773e-03 1.9024526596069336e+01 -5.9604644775390625e-08
ITEM: ATOMS id type xs ys zs fx fy fz
4 1 0.0761387 0.16722 0.276286 0 0.000566483 0.000213623
5 1 0.0348739 0.999547 0.418513 0 0.000293732 0.000482559
7 1 0.0131124 0.511917 0.0632156 0 -9.72748e-05 8.96454e-05
50 1 0.0980188 0.667119 0.631939 0 -0.000297546 -0.000482559
51 1 0.0567541 0.499447 0.774166 0 -0.000572205 -0.00021553
53 1 0.0155523 0.665236 0.91646 0 -0.000238419 2.86102e-05
1 1 0.617344 1.00143 0.133993 0 0.000225067 -3.8147e-05
2 1 0.367344 0.165235 0.133994 0 -0.000232697 -3.8147e-05
3 1 0.32614 0.999447 0.276287 0 -0.000564575 0.00021553
6 1 0.117343 1.00143 0.133994 0 0.000232697 -3.24249e-05
8 1 0.867343 0.165236 0.133994 0 -0.000234604 -4.76837e-05
9 1 0.763112 0.654751 0.0632149 0 8.58307e-05 0.000101089
10 1 0.826138 0.999448 0.276286 0 -0.000577927 0.000221252
11 1 0.784876 0.167119 0.418513 0 -0.000291824 0.000478745
12 1 0.743639 -0.000385978 0.560791 0 -0.000329971 -0.000205994
13 1 0.493638 0.167053 0.560791 0 0.000331879 -0.000202179
14 1 0.45237 0.99945 0.703027 0 -0.000106812 -5.91278e-05
15 1 0.202369 0.167217 0.703027 0 0.000112534 -6.67572e-05
16 1 0.161056 0.999419 0.845132 0 0.000114441 -0.000232697
17 1 0.721838 0.49942 0.20532 0 0.000123978 0.000230789
18 1 0.57614 0.16722 0.276286 0 0.000570297 0.000211716
19 1 0.471838 0.667248 0.20532 0 -0.000123978 0.000240326
20 1 0.534875 0.999548 0.418514 0 0.000289917 0.000482559
21 1 0.430525 0.49945 0.347426 0 -0.000106812 6.29425e-05
22 1 0.284874 0.167119 0.418513 0 -0.000293732 0.000492096
23 1 0.180524 0.667217 0.347426 0 0.000108719 6.67572e-05
24 1 0.243637 -0.000386061 0.560791 0 -0.000328064 -0.000217438
25 1 0.139256 0.499614 0.489662 0 -0.000335693 0.000207901
26 1 0.993637 0.167053 0.560791 0 0.000347137 -0.000207901
27 1 0.889256 0.667053 0.489662 0 0.000335693 0.000204086
28 1 0.513114 0.511916 0.0632155 0 -7.82013e-05 9.53674e-05
29 1 0.263113 0.65475 0.0632159 0 9.53674e-05 8.96454e-05
30 1 0.221837 0.499419 0.20532 0 0.000114441 0.000238419
31 1 0.971836 0.667249 0.20532 0 -0.000116348 0.000234604
32 1 0.930523 0.49945 0.347426 0 -0.000110626 7.05719e-05
33 1 0.911058 0.167248 0.845133 0 -0.000120163 -0.000225067
34 1 0.869782 0.0119168 0.987237 0 -9.34601e-05 -8.96454e-05
35 1 0.619781 0.154749 0.987237 0 0.000102997 -9.34601e-05
36 1 0.952371 0.99945 0.703027 0 -0.000108719 -7.05719e-05
37 1 0.848021 0.499548 0.631939 0 0.000289917 -0.000482559
38 1 0.702371 0.167217 0.703027 0 0.000108719 -6.10352e-05
39 1 0.59802 0.667119 0.63194 0 -0.000278473 -0.000478745
40 1 0.661058 0.999419 0.845132 0 0.000114441 -0.000234604
41 1 0.556755 0.499447 0.774166 0 -0.00056839 -0.000221252
42 1 0.411057 0.167248 0.845132 0 -0.000114441 -0.000238419
43 1 0.306754 0.66722 0.774166 0 0.000566483 -0.000209808
44 1 0.369781 0.0119161 0.987237 0 -8.7738e-05 -9.34601e-05
45 1 0.26555 0.501432 0.916459 0 0.000228882 3.43323e-05
46 1 0.680525 0.667217 0.347426 0 0.000114441 6.67572e-05
47 1 0.639257 0.499614 0.489662 0 -0.00034523 0.000209808
48 1 0.389257 0.667053 0.489662 0 0.000329971 0.000200272
49 1 0.348019 0.499548 0.631939 0 0.000284195 -0.000482559
52 1 0.119783 0.154751 0.987238 0 9.72748e-05 -8.96454e-05
54 1 0.806756 0.66722 0.774167 0 0.000572205 -0.000217438
55 1 0.765552 0.501432 0.916459 0 0.000230789 2.86102e-05
56 1 0.515551 0.665235 0.916459 0 -0.000234604 3.62396e-05
ITEM: TIMESTEP
7
ITEM: NUMBER OF ATOMS
56
ITEM: BOX BOUNDS xy xz yz pp pp pp
-5.9193459749221802e+00 1.2156271994113922e+01 8.9406967163085938e-07
-8.2894563674926758e-03 5.5346975326538086e+00 -5.9481747150421143e+00
-4.5665502548217773e-03 1.9024526596069336e+01 -5.9604644775390625e-08
ITEM: ATOMS id type xs ys zs fx fy fz
4 1 0.076142 0.16726 0.276293 0 -7.62939e-05 0.000165939
5 1 0.0348795 0.999565 0.418525 0 -0.000108719 5.72205e-06
7 1 0.0131147 0.51191 0.0632203 0 2.47955e-05 -5.72205e-05
50 1 0.0980131 0.667101 0.631928 0 0.000118256 -5.72205e-06
51 1 0.0567508 0.499408 0.77416 0 6.86646e-05 -0.000169754
53 1 0.0155514 0.665219 0.916458 0 -1.71661e-05 -2.28882e-05
1 1 0.617345 1.00145 0.133995 0 3.05176e-05 3.62396e-05
2 1 0.367345 0.165218 0.133995 0 -1.52588e-05 3.8147e-05
3 1 0.326143 0.999408 0.276293 0 7.82013e-05 0.000162125
6 1 0.117344 1.00145 0.133995 0 2.09808e-05 3.24249e-05
8 1 0.867343 0.165219 0.133995 0 -1.52588e-05 3.62396e-05
9 1 0.763114 0.654756 0.0632198 0 -1.71661e-05 -6.10352e-05
10 1 0.826142 0.999408 0.276293 0 7.62939e-05 0.000165939
11 1 0.784881 0.167102 0.418525 0 0.000106812 1.90735e-06
12 1 0.743638 -0.000417566 0.560791 0 4.95911e-05 -4.76837e-05
13 1 0.493638 0.167085 0.560791 0 -5.34058e-05 -6.86646e-05
14 1 0.452367 0.999446 0.703021 0 -0.000143051 -2.09808e-05
15 1 0.202366 0.167222 0.70302 0 0.000146866 -1.52588e-05
16 1 0.161054 0.999419 0.845127 0 1.33514e-05 -0.000169754
17 1 0.721841 0.49942 0.205325 0 3.8147e-06 0.000164032
18 1 0.576143 0.16726 0.276293 0 -8.7738e-05 0.000177383
19 1 0.47184 0.667247 0.205326 0 -3.8147e-06 0.000162125
20 1 0.534881 0.999565 0.418525 0 -0.00012207 9.53674e-06
21 1 0.430528 0.499446 0.347432 0 -0.000148773 1.71661e-05
22 1 0.28488 0.167102 0.418525 0 0.000116348 5.72205e-06
23 1 0.180527 0.667222 0.347432 0 0.000146866 2.47955e-05
24 1 0.243637 -0.000417538 0.56079 0 5.14984e-05 -6.29425e-05
25 1 0.139256 0.499582 0.489662 0 5.14984e-05 6.48499e-05
26 1 0.993637 0.167086 0.56079 0 -6.29425e-05 -7.62939e-05
27 1 0.889256 0.667085 0.489662 0 -4.76837e-05 6.67572e-05
28 1 0.513116 0.511911 0.0632204 0 1.33514e-05 -6.48499e-05
29 1 0.263116 0.654756 0.0632206 0 -1.90735e-05 -5.91278e-05
30 1 0.22184 0.499419 0.205326 0 1.14441e-05 0.000154495
31 1 0.971839 0.667249 0.205325 0 -1.71661e-05 0.00015831
32 1 0.930527 0.499446 0.347432 0 -0.000144958 1.14441e-05
33 1 0.911056 0.167248 0.845128 0 -3.8147e-06 -0.000165939
34 1 0.86978 0.0119109 0.987233 0 1.52588e-05 5.72205e-05
35 1 0.619779 0.154756 0.987232 0 -1.90735e-05 4.3869e-05
36 1 0.952368 0.999446 0.703021 0 -0.000150681 -1.14441e-05
37 1 0.848015 0.499565 0.631928 0 -0.000104904 1.90735e-06
38 1 0.702368 0.167222 0.703021 0 0.000152588 -2.28882e-05
39 1 0.598015 0.667102 0.631928 0 0.000102997 -2.47955e-05
40 1 0.661055 0.999419 0.845127 0 9.53674e-06 -0.000156403
41 1 0.556752 0.499408 0.774159 0 6.67572e-05 -0.000156403
42 1 0.411054 0.167248 0.845127 0 -1.90735e-05 -0.00015831
43 1 0.306751 0.667259 0.77416 0 -7.24792e-05 -0.000173569
44 1 0.369779 0.0119105 0.987232 0 2.28882e-05 5.91278e-05
45 1 0.265549 0.501448 0.916458 0 1.71661e-05 -2.47955e-05
46 1 0.680528 0.667221 0.347432 0 0.000143051 5.72205e-06
47 1 0.639257 0.499582 0.489662 0 6.29425e-05 6.67572e-05
48 1 0.389257 0.667085 0.489662 0 -4.76837e-05 7.82013e-05
49 1 0.348014 0.499565 0.631928 0 -0.000101089 -1.33514e-05
52 1 0.119781 0.154757 0.987233 0 -2.67029e-05 5.91278e-05
54 1 0.806753 0.66726 0.77416 0 -7.43866e-05 -0.000164032
55 1 0.765551 0.501448 0.916457 0 1.14441e-05 -2.09808e-05
56 1 0.51555 0.665218 0.916457 0 -1.33514e-05 -3.8147e-05
ITEM: TIMESTEP
8
ITEM: NUMBER OF ATOMS
56
ITEM: BOX BOUNDS xy xz yz pp pp pp
-5.9193459749221802e+00 1.2156271994113922e+01 8.9406967163085938e-07
-8.2894563674926758e-03 5.5346975326538086e+00 -5.9481747150421143e+00
-4.5665502548217773e-03 1.9024526596069336e+01 -5.9604644775390625e-08
ITEM: ATOMS id type xs ys zs fx fy fz
4 1 0.076142 0.16726 0.276293 0 -7.62939e-05 0.000165939
5 1 0.0348795 0.999565 0.418525 0 -0.000108719 5.72205e-06
7 1 0.0131147 0.51191 0.0632203 0 2.47955e-05 -5.72205e-05
50 1 0.0980131 0.667101 0.631928 0 0.000118256 -5.72205e-06
51 1 0.0567508 0.499408 0.77416 0 6.86646e-05 -0.000169754
53 1 0.0155514 0.665219 0.916458 0 -1.71661e-05 -2.28882e-05
1 1 0.617345 1.00145 0.133995 0 3.05176e-05 3.62396e-05
2 1 0.367345 0.165218 0.133995 0 -1.52588e-05 3.8147e-05
3 1 0.326143 0.999408 0.276293 0 7.82013e-05 0.000162125
6 1 0.117344 1.00145 0.133995 0 2.09808e-05 3.24249e-05
8 1 0.867343 0.165219 0.133995 0 -1.52588e-05 3.62396e-05
9 1 0.763114 0.654756 0.0632198 0 -1.71661e-05 -6.10352e-05
10 1 0.826142 0.999408 0.276293 0 7.62939e-05 0.000165939
11 1 0.784881 0.167102 0.418525 0 0.000106812 1.90735e-06
12 1 0.743638 -0.000417566 0.560791 0 4.95911e-05 -4.76837e-05
13 1 0.493638 0.167085 0.560791 0 -5.34058e-05 -6.86646e-05
14 1 0.452367 0.999446 0.703021 0 -0.000143051 -2.09808e-05
15 1 0.202366 0.167222 0.70302 0 0.000146866 -1.52588e-05
16 1 0.161054 0.999419 0.845127 0 1.33514e-05 -0.000169754
17 1 0.721841 0.49942 0.205325 0 3.8147e-06 0.000164032
18 1 0.576143 0.16726 0.276293 0 -8.7738e-05 0.000177383
19 1 0.47184 0.667247 0.205326 0 -3.8147e-06 0.000162125
20 1 0.534881 0.999565 0.418525 0 -0.00012207 9.53674e-06
21 1 0.430528 0.499446 0.347432 0 -0.000148773 1.71661e-05