ITEM: TIMESTEP
0
ITEM: NUMBER OF ATOMS
48
ITEM: BOX BOUNDS xy xz yz pp pp pp
-6.4899807572364807e+00 8.6067802309989929e+00 2.5094206929206848e+00
-9.4973444938659668e-03 9.3236122131347656e+00 -6.4779436588287354e+00
-2.8691649436950684e-02 1.9545819282531738e+01 7.1304261684417725e-02
ITEM: ATOMS id type xs ys zs fx fy fz
1 1 0.955553 0.16703 0.0320218 0 0 1.22009
2 1 0.514236 0.0738739 0.0528103 0 0 0.207451
3 1 0.720355 0.125314 0.657023 0 0 0.00175858
4 1 0.984798 0.948847 0.927808 0 0 -1.22008
5 1 0.631956 0.157156 0.802805 0 0 0.00467491
6 1 0.426115 0.0420026 0.90702 0 0 -0.207453
7 1 0.0732709 0.250315 0.78202 0 0 0.00715065
8 1 0.0143138 0.208712 0.407029 0 0 0.00015831
9 1 0.27904 0.0321465 0.677802 0 0 -0.00082016
10 1 0.926038 0.240498 0.552801 0 0 -0.000150681
11 1 0.867081 0.198895 0.17781 0 0 -0.00715446
12 1 0.661312 0.0837297 0.282028 0 0 0.000818253
13 1 0.308396 0.292053 0.157025 0 0 -0.00467491
14 1 0.572997 0.115534 0.427803 0 0 -0.000291824
15 1 0.955553 0.500363 0.0320219 0 0 1.22009
16 1 0.514236 0.407207 0.0528103 0 0 0.207445
17 1 0.720355 0.458648 0.657023 0 0 0.00176239
18 1 0.984798 0.28218 0.927808 0 0 -1.22009
19 1 0.631956 0.49049 0.802805 0 0 0.00468254
20 1 0.426115 0.375336 0.90702 0 0 -0.207443
21 1 0.0732708 0.583648 0.78202 0 0 0.00715256
22 1 0.367355 0.333676 0.532027 0 0 0.00028801
23 1 0.0143142 0.542046 0.407029 0 0 0.000152588
24 1 0.27904 0.36548 0.677802 0 0 -0.000818253
25 1 0.926038 0.573831 0.552801 0 0 -0.000154495
26 1 0.219997 0.323895 0.302807 0 0 -0.00176239
27 1 0.867081 0.532228 0.17781 0 0 -0.00715065
28 1 0.661312 0.417063 0.282028 0 0 0.000825882
29 1 0.308396 0.625387 0.157025 0 0 -0.0046711
30 1 0.572997 0.448867 0.427803 0 0 -0.000291824
31 1 0.955553 0.833696 0.0320219 0 0 1.22008
32 1 0.514236 0.740541 0.0528104 0 0 0.207441
33 1 0.720355 0.791981 0.657023 0 0 0.00175667
34 1 0.984798 0.615514 0.927808 0 0 -1.22008
35 1 0.631956 0.823823 0.802805 0 0 0.00467873
36 1 0.426115 0.708669 0.90702 0 0 -0.207447
37 1 0.0732709 0.916981 0.78202 0 0 0.00715446
38 1 0.367355 0.667009 0.532027 0 0 0.000286102
39 1 0.014314 0.875379 0.407029 0 0 0.000152588
40 1 0.279039 0.698813 0.677802 0 0 -0.000825882
41 1 0.926037 0.907164 0.552801 0 0 -0.000148773
42 1 0.219997 0.657228 0.302807 0 0 -0.00176048
43 1 0.867081 0.865562 0.17781 0 0 -0.00715446
44 1 0.661312 0.750396 0.282028 0 0 0.000822067
45 1 0.308396 0.95872 0.157026 0 0 -0.00467873
46 1 0.572997 0.782201 0.427803 0 0 -0.000286102
47 1 0.367355 0.000342385 0.532027 0 0 0.000286102
48 1 0.219997 0.990562 0.302807 0 0 -0.00176239
ITEM: TIMESTEP
1
ITEM: NUMBER OF ATOMS
48
ITEM: BOX BOUNDS xy xz yz pp pp pp
-6.4899807572364807e+00 8.6067802309989929e+00 2.5094206929206848e+00
-9.4973444938659668e-03 9.3236122131347656e+00 -6.4779436588287354e+00
-2.8691649436950684e-02 1.9545819282531738e+01 7.1304261684417725e-02
ITEM: ATOMS id type xs ys zs fx fy fz
1 1 0.960986 0.16699 0.0371305 0 0 0.454737
2 1 0.51516 0.0738672 0.0536789 0 0 0.118616
3 1 0.720363 0.125314 0.65703 0 0 -0.000514984
4 1 0.979365 0.948886 0.9227 0 0 -0.454729
5 1 0.631977 0.157156 0.802824 0 0 -0.085104
6 1 0.425191 0.0420093 0.906151 0 0 -0.11861
7 1 0.0733027 0.250315 0.78205 0 0 -0.0629292
8 1 0.0143145 0.208712 0.40703 0 0 -0.00133705
9 1 0.279036 0.0321465 0.677798 0 0 -0.00454521
10 1 0.926037 0.240498 0.5528 0 0 0.00134087
11 1 0.867049 0.198895 0.17778 0 0 0.0629272
12 1 0.661316 0.0837296 0.282032 0 0 0.00454521
13 1 0.308375 0.292053 0.157006 0 0 0.0851002
14 1 0.572996 0.115534 0.427802 0 0 -0.00157738
15 1 0.960986 0.500324 0.0371306 0 0 0.454731
16 1 0.51516 0.407201 0.0536789 0 0 0.118618
17 1 0.720363 0.458648 0.65703 0 0 -0.000505447
18 1 0.979365 0.28222 0.9227 0 0 -0.454729
19 1 0.631976 0.49049 0.802824 0 0 -0.0850983
20 1 0.425192 0.375343 0.906151 0 0 -0.118614
21 1 0.0733027 0.583648 0.78205 0 0 -0.0629311
22 1 0.367356 0.333676 0.532028 0 0 0.00156784
23 1 0.0143148 0.542046 0.40703 0 0 -0.00134468
24 1 0.279036 0.36548 0.677798 0 0 -0.0045414
25 1 0.926037 0.573831 0.5528 0 0 0.00133514
26 1 0.219989 0.323895 0.3028 0 0 0.000514984
27 1 0.867049 0.532228 0.17778 0 0 0.0629292
28 1 0.661316 0.417063 0.282032 0 0 0.00454903
29 1 0.308375 0.625387 0.157006 0 0 0.0850983
30 1 0.572995 0.448867 0.427802 0 0 -0.00157356
31 1 0.960986 0.833657 0.0371306 0 0 0.454723
32 1 0.51516 0.740534 0.053679 0 0 0.118614
33 1 0.720363 0.791981 0.65703 0 0 -0.000511169
34 1 0.979365 0.615553 0.9227 0 0 -0.454729
35 1 0.631977 0.823823 0.802824 0 0 -0.0850983
36 1 0.425191 0.708676 0.906151 0 0 -0.118616
37 1 0.0733028 0.916981 0.78205 0 0 -0.0629272
38 1 0.367356 0.667009 0.532028 0 0 0.00156975
39 1 0.0143146 0.875379 0.40703 0 0 -0.00133896
40 1 0.279036 0.698813 0.677798 0 0 -0.00453949
41 1 0.926037 0.907164 0.5528 0 0 0.00134087
42 1 0.219989 0.657229 0.3028 0 0 0.000513077
43 1 0.867049 0.865562 0.17778 0 0 0.0629272
44 1 0.661316 0.750396 0.282032 0 0 0.0045433
45 1 0.308375 0.95872 0.157006 0 0 0.0850964
46 1 0.572996 0.782201 0.427802 0 0 -0.00157738
47 1 0.367356 0.000342376 0.532028 0 0 0.00156975
48 1 0.219989 0.990562 0.3028 0 0 0.000514984
ITEM: TIMESTEP
2
ITEM: NUMBER OF ATOMS
48
ITEM: BOX BOUNDS xy xz yz pp pp pp
-6.4899807572364807e+00 8.6067802309989929e+00 2.5094206929206848e+00
-9.4973444938659668e-03 9.3236122131347656e+00 -6.4779436588287354e+00
-2.8691649436950684e-02 1.9545819282531738e+01 7.1304261684417725e-02
ITEM: ATOMS id type xs ys zs fx fy fz
1 1 0.965643 0.166957 0.0415095 0 0 -0.0561657
2 1 0.516375 0.0738584 0.0548212 0 0 0.0247574
3 1 0.720358 0.125314 0.657025 0 0 -0.0177155
4 1 0.974708 0.94892 0.918321 0 0 0.0561619
5 1 0.631105 0.157163 0.802005 0 0 -0.137877
6 1 0.423977 0.0420181 0.905009 0 0 -0.0247612
7 1 0.0726582 0.250319 0.781444 0 0 -0.112167
8 1 0.0143008 0.208712 0.407017 0 0 -0.000486374
9 1 0.278989 0.0321469 0.677755 0 0 -0.0211372
10 1 0.926051 0.240497 0.552813 0 0 0.000488281
11 1 0.867693 0.19889 0.178386 0 0 0.112175
12 1 0.661362 0.0837293 0.282076 0 0 0.0211353
13 1 0.309247 0.292047 0.157825 0 0 0.137886
14 1 0.57298 0.115534 0.427787 0 0 -0.000282288
15 1 0.965643 0.50029 0.0415095 0 0 -0.0561638
16 1 0.516375 0.407192 0.0548212 0 0 0.0247574
17 1 0.720358 0.458648 0.657025 0 0 -0.0177155
18 1 0.974708 0.282253 0.918321 0 0 0.0561638
19 1 0.631105 0.490496 0.802005 0 0 -0.137878
20 1 0.423977 0.375351 0.905009 0 0 -0.0247574
21 1 0.0726582 0.583653 0.781444 0 0 -0.112171
22 1 0.367372 0.333675 0.532043 0 0 0.00028038
23 1 0.0143011 0.542046 0.407017 0 0 -0.000484467
24 1 0.27899 0.36548 0.677755 0 0 -0.021143
25 1 0.926051 0.57383 0.552813 0 0 0.000488281
26 1 0.219994 0.323895 0.302805 0 0 0.0177116
27 1 0.867693 0.532224 0.178386 0 0 0.112175
28 1 0.661362 0.417063 0.282076 0 0 0.0211334
29 1 0.309247 0.62538 0.157825 0 0 0.137878
30 1 0.572979 0.448868 0.427787 0 0 -0.00028038
31 1 0.965643 0.833623 0.0415094 0 0 -0.0561638
32 1 0.516375 0.740525 0.0548212 0 0 0.0247593
33 1 0.720357 0.791981 0.657025 0 0 -0.0177193
34 1 0.974708 0.615587 0.918321 0 0 0.0561638
35 1 0.631105 0.823829 0.802005 0 0 -0.13788
36 1 0.423977 0.708685 0.905009 0 0 -0.0247574
37 1 0.0726583 0.916986 0.781444 0 0 -0.112175
38 1 0.367372 0.667009 0.532043 0 0 0.000282288
39 1 0.0143009 0.875379 0.407017 0 0 -0.000488281
40 1 0.278989 0.698814 0.677755 0 0 -0.0211334
41 1 0.926051 0.907164 0.552813 0 0 0.000488281
42 1 0.219994 0.657228 0.302805 0 0 0.0177135
43 1 0.867694 0.865557 0.178386 0 0 0.112171
44 1 0.661363 0.750396 0.282076 0 0 0.0211391
45 1 0.309247 0.958714 0.157825 0 0 0.13788
46 1 0.57298 0.782201 0.427787 0 0 -0.000284195
47 1 0.367372 0.00034226 0.532043 0 0 0.000286102
48 1 0.219994 0.990562 0.302805 0 0 0.0177116
ITEM: TIMESTEP
3
ITEM: NUMBER OF ATOMS
48
ITEM: BOX BOUNDS xy xz yz pp pp pp
-6.4899807572364807e+00 8.6067802309989929e+00 2.5094206929206848e+00
-9.4973444938659668e-03 9.3236122131347656e+00 -6.4779436588287354e+00
-2.8691649436950684e-02 1.9545819282531738e+01 7.1304261684417725e-02
ITEM: ATOMS id type xs ys zs fx fy fz
1 1 0.966158 0.166953 0.0419935 0 0 -0.000566483
2 1 0.517436 0.0738508 0.0558195 0 0 0.00878143
3 1 0.719939 0.125317 0.656631 0 0 -0.0709991
4 1 0.974194 0.948924 0.917837 0 0 0.000570297
5 1 0.627516 0.157189 0.79863 0 0 0.0201702
6 1 0.422915 0.0420258 0.904011 0 0 -0.00878143
7 1 0.0697642 0.25034 0.778723 0 0 0.00212479
8 1 0.014284 0.208712 0.407001 0 0 0.0106411
9 1 0.278474 0.0321506 0.67727 0 0 -0.0702991
10 1 0.926068 0.240497 0.552829 0 0 -0.0106487
11 1 0.870588 0.198869 0.181107 0 0 -0.0021286
12 1 0.661878 0.0837256 0.282561 0 0 0.070303
13 1 0.312836 0.292021 0.1612 0 0 -0.0201797
14 1 0.572967 0.115534 0.427775 0 0 0.0119133
15 1 0.966158 0.500286 0.0419935 0 0 -0.00056076
16 1 0.517436 0.407184 0.0558195 0 0 0.00877953
17 1 0.719939 0.458651 0.656631 0 0 -0.0709953
18 1 0.974193 0.282257 0.917837 0 0 0.000562668
19 1 0.627516 0.490522 0.79863 0 0 0.0201721
20 1 0.422915 0.375359 0.904011 0 0 -0.00877953
21 1 0.0697641 0.583674 0.778723 0 0 0.00212288
22 1 0.367385 0.333675 0.532055 0 0 -0.0119114
23 1 0.0142842 0.542046 0.407001 0 0 0.0106411
24 1 0.278474 0.365484 0.67727 0 0 -0.0702953
25 1 0.926068 0.57383 0.552829 0 0 -0.0106411
26 1 0.220413 0.323892 0.303199 0 0 0.0710087
27 1 0.870588 0.532203 0.181107 0 0 -0.00212669
28 1 0.661878 0.417059 0.282561 0 0 0.0703011
29 1 0.312835 0.625354 0.1612 0 0 -0.020174
30 1 0.572966 0.448868 0.427775 0 0 0.0119057
31 1 0.966158 0.833619 0.0419934 0 0 -0.000562668
32 1 0.517436 0.740517 0.0558196 0 0 0.00877953
33 1 0.719938 0.791984 0.656631 0 0 -0.0709934
34 1 0.974193 0.61559 0.917837 0 0 0.00056076
35 1 0.627516 0.823855 0.79863 0 0 0.0201778
36 1 0.422915 0.708692 0.904011 0 0 -0.00878334
37 1 0.0697642 0.917007 0.778723 0 0 0.00212669
38 1 0.367385 0.667009 0.532056 0 0 -0.0119057
39 1 0.014284 0.875379 0.407001 0 0 0.0106468
40 1 0.278473 0.698817 0.67727 0 0 -0.0703087
41 1 0.926067 0.907164 0.552829 0 0 -0.0106487
42 1 0.220413 0.657225 0.303199 0 0 0.0710087
43 1 0.870588 0.865536 0.181107 0 0 -0.00212669
44 1 0.661878 0.750392 0.282561 0 0 0.0702934
45 1 0.312836 0.958688 0.1612 0 0 -0.0201778
46 1 0.572966 0.782201 0.427775 0 0 0.011919
47 1 0.367385 0.000342165 0.532056 0 0 -0.011919
48 1 0.220413 0.990559 0.303199 0 0 0.071003
ITEM: TIMESTEP
4
ITEM: NUMBER OF ATOMS
48
ITEM: BOX BOUNDS xy xz yz pp pp pp
-6.4899807572364807e+00 8.6067802309989929e+00 2.5094206929206848e+00
-9.4973444938659668e-03 9.3236122131347656e+00 -6.4779436588287354e+00
-2.8691649436950684e-02 1.9545819282531738e+01 7.1304261684417725e-02
ITEM: ATOMS id type xs ys zs fx fy fz
1 1 0.966337 0.166951 0.0421615 0 0 0.0118256
2 1 0.518104 0.0738459 0.0564469 0 0 -0.0182362
3 1 0.717648 0.125334 0.654477 0 0 0.00386047
4 1 0.974015 0.948925 0.917669 0 0 -0.0118332
5 1 0.626758 0.157194 0.797917 0 0 -0.00455475
6 1 0.422248 0.0420306 0.903383 0 0 0.01824
7 1 0.0687279 0.250348 0.777748 0 0 -0.00764084
8 1 0.0145971 0.20871 0.407296 0 0 0.0370522
9 1 0.276167 0.0321673 0.675101 0 0 0.00756454
10 1 0.925755 0.2405 0.552534 0 0 -0.0370464
11 1 0.871624 0.198862 0.182082 0 0 0.00764275
12 1 0.664185 0.0837089 0.28473 0 0 -0.00757217
13 1 0.313594 0.292016 0.161913 0 0 0.00455093
14 1 0.573319 0.115532 0.428106 0 0 0.040081
15 1 0.966337 0.500285 0.0421617 0 0 0.0118198
16 1 0.518104 0.407179 0.0564469 0 0 -0.0182323
17 1 0.717648 0.458667 0.654477 0 0 0.00385284
18 1 0.974015 0.282258 0.917669 0 0 -0.0118275
19 1 0.626758 0.490528 0.797917 0 0 -0.00455284
20 1 0.422248 0.375364 0.903383 0 0 0.0182343
21 1 0.0687277 0.583681 0.777748 0 0 -0.00763321
22 1 0.367033 0.333678 0.531724 0 0 -0.0400715
23 1 0.0145973 0.542043 0.407296 0 0 0.0370541
24 1 0.276167 0.365501 0.675101 0 0 0.00756454
25 1 0.925755 0.573833 0.552535 0 0 -0.0370541
26 1 0.222704 0.323876 0.305353 0 0 -0.00387001
27 1 0.871624 0.532195 0.182082 0 0 0.00763702
28 1 0.664185 0.417042 0.28473 0 0 -0.00756073
29 1 0.313594 0.625349 0.161913 0 0 0.00455284
30 1 0.573319 0.448865 0.428106 0 0 0.0400925
31 1 0.966337 0.833618 0.0421615 0 0 0.0118275
32 1 0.518104 0.740513 0.056447 0 0 -0.0182343
33 1 0.717647 0.792001 0.654477 0 0 0.00385857
34 1 0.974015 0.615592 0.917669 0 0 -0.0118198
35 1 0.626758 0.823861 0.797917 0 0 -0.00455666
36 1 0.422248 0.708697 0.903383 0 0 0.0182362
37 1 0.0687278 0.917014 0.777748 0 0 -0.00763321
38 1 0.367033 0.667011 0.531724 0 0 -0.0400906
39 1 0.0145973 0.875377 0.407296 0 0 0.0370464
40 1 0.276166 0.698834 0.6751 0 0 0.00757027
41 1 0.925754 0.907166 0.552534 0 0 -0.0370426
42 1 0.222704 0.657209 0.305353 0 0 -0.00387192
43 1 0.871624 0.865529 0.182082 0 0 0.00764084
44 1 0.664185 0.750376 0.28473 0 0 -0.00755882
45 1 0.313594 0.958682 0.161913 0 0 0.00455666
46 1 0.573319 0.782198 0.428106 0 0 0.0400715
47 1 0.367032 0.00034472 0.531724 0 0 -0.0400715
48 1 0.222704 0.990542 0.305353 0 0 -0.0038681
ITEM: TIMESTEP
5
ITEM: NUMBER OF ATOMS
48
ITEM: BOX BOUNDS xy xz yz pp pp pp
-6.4899807572364807e+00 8.6067802309989929e+00 2.5094206929206848e+00
-9.4973444938659668e-03 9.3236122131347656e+00 -6.4779436588287354e+00
-2.8691649436950684e-02 1.9545819282531738e+01 7.1304261684417725e-02
ITEM: ATOMS id type xs ys zs fx fy fz
1 1 0.966563 0.16695 0.0423748 0 0 -0.0014019
2 1 0.517935 0.0738471 0.0562887 0 0 -0.00119781
3 1 0.717269 0.125337 0.654121 0 0 -0.000522614
4 1 0.973788 0.948927 0.917455 0 0 0.00140572
5 1 0.626538 0.157196 0.79771 0 0 -0.00444794
6 1 0.422416 0.0420294 0.903541 0 0 0.00119972
7 1 0.0684039 0.25035 0.777444 0 0 -0.00122452
8 1 0.0152604 0.208705 0.407919 0 0 0.000772476
9 1 0.275846 0.0321696 0.674799 0 0 0.00106239
10 1 0.925091 0.240504 0.551911 0 0 -0.000766754
11 1 0.871948 0.19886 0.182387 0 0 0.0012188
12 1 0.664506 0.0837065 0.285032 0 0 -0.00106812
13 1 0.313814 0.292014 0.16212 0 0 0.00445747
14 1 0.57404 0.115526 0.428784 0 0 0.00271606
15 1 0.966564 0.500283 0.042375 0 0 -0.00140762
16 1 0.517935 0.40718 0.0562887 0 0 -0.00119972
17 1 0.717269 0.45867 0.654121 0 0 -0.000522614
18 1 0.973788 0.28226 0.917455 0 0 0.00140572
19 1 0.626538 0.490529 0.79771 0 0 -0.00445366
20 1 0.422416 0.375363 0.903541 0 0 0.00119781
21 1 0.0684038 0.583683 0.777444 0 0 -0.0012207
22 1 0.366313 0.333683 0.531047 0 0 -0.00271225
23 1 0.0152607 0.542039 0.407919 0 0 0.000772476
24 1 0.275846 0.365503 0.674799 0 0 0.00107002
25 1 0.925091 0.573837 0.551911 0 0 -0.000772476
26 1 0.223083 0.323873 0.305709 0 0 0.000518799
27 1 0.871948 0.532193 0.182387 0 0 0.0012188
28 1 0.664506 0.41704 0.285032 0 0 -0.00107002
29 1 0.313814 0.625347 0.16212 0 0 0.00445557
30 1 0.574039 0.44886 0.428784 0 0 0.00271797
31 1 0.966564 0.833617 0.0423749 0 0 -0.0014019
32 1 0.517935 0.740514 0.0562888 0 0 -0.00120354
33 1 0.717269 0.792003 0.654121 0 0 -0.000518799
34 1 0.973788 0.615593 0.917455 0 0 0.00140381
35 1 0.626538 0.823862 0.79771 0 0 -0.00445175
36 1 0.422416 0.708696 0.903541 0 0 0.00119972
37 1 0.068404 0.917017 0.777444 0 0 -0.00122452
38 1 0.366312 0.667017 0.531047 0 0 -0.00271606
39 1 0.0152605 0.875372 0.407919 0 0 0.000766754
40 1 0.275845 0.698836 0.674798 0 0 0.00107193
41 1 0.925091 0.907171 0.551911 0 0 -0.000772476
42 1 0.223083 0.657206 0.305709 0 0 0.000520706
43 1 0.871948 0.865526 0.182386 0 0 0.00122261
44 1 0.664506 0.750373 0.285032 0 0 -0.00106812
45 1 0.313814 0.958681 0.16212 0 0 0.00445175
46 1 0.57404 0.782193 0.428784 0 0 0.00270844
47 1 0.366312 0.000349933 0.531047 0 0 -0.00271416
48 1 0.223083 0.990539 0.305709 0 0 0.000524521
ITEM: TIMESTEP
6
ITEM: NUMBER OF ATOMS
48
ITEM: BOX BOUNDS xy xz yz pp pp pp
-6.4899807572364807e+00 8.6067802309989929e+00 2.5094206929206848e+00
-9.4973444938659668e-03 9.3236122131347656e+00 -6.4779436588287354e+00
-2.8691649436950684e-02 1.9545819282531738e+01 7.1304261684417725e-02
ITEM: ATOMS id type xs ys zs fx fy fz
1 1 0.966543 0.16695 0.0423555 0 0 0.00183296
2 1 0.517918 0.0738473 0.0562722 0 0 0.000753403
3 1 0.717262 0.125337 0.654114 0 0 -0.00161362
4 1 0.973809 0.948927 0.917475 0 0 -0.00183487
5 1 0.626472 0.157196 0.797649 0 0 -0.000648499
6 1 0.422434 0.0420292 0.903558 0 0 -0.000759125
7 1 0.068386 0.25035 0.777427 0 0 5.53131e-05
8 1 0.0152717 0.208705 0.40793 0 0 -0.000431061
9 1 0.275861 0.0321695 0.674813 0 0 -0.00111961
10 1 0.92508 0.240504 0.5519 0 0 0.00043869
11 1 0.871966 0.198859 0.182403 0 0 -5.53131e-05
12 1 0.664491 0.0837067 0.285017 0 0 0.00112152
13 1 0.313879 0.292014 0.162181 0 0 0.000650406
14 1 0.574079 0.115526 0.428821 0 0 0.000488281
15 1 0.966543 0.500283 0.0423556 0 0 0.00182724
16 1 0.517918 0.407181 0.0562722 0 0 0.000757217
17 1 0.717262 0.45867 0.654114 0 0 -0.0016098
18 1 0.973808 0.28226 0.917475 0 0 -0.00183105
19 1 0.626472 0.49053 0.797649 0 0 -0.000652313
20 1 0.422434 0.375363 0.903558 0 0 -0.000757217
21 1 0.0683859 0.583684 0.777427 0 0 5.53131e-05
22 1 0.366273 0.333683 0.531009 0 0 -0.000490189
23 1 0.015272 0.542039 0.40793 0 0 -0.000436783
24 1 0.275861 0.365503 0.674813 0 0 -0.00111771
25 1 0.92508 0.573837 0.5519 0 0 0.000434875
26 1 0.22309 0.323873 0.305716 0 0 0.00161362
27 1 0.871966 0.532193 0.182403 0 0 -5.53131e-05
28 1 0.664491 0.41704 0.285017 0 0 0.00112343
29 1 0.313879 0.625347 0.162181 0 0 0.000652313
30 1 0.574079 0.44886 0.428821 0 0 0.000480652
31 1 0.966543 0.833617 0.0423556 0 0 0.00182724
32 1 0.517918 0.740514 0.0562722 0 0 0.000759125
33 1 0.717261 0.792003 0.654114 0 0 -0.00161171
34 1 0.973808 0.615593 0.917475 0 0 -0.00182915
35 1 0.626473 0.823863 0.797649 0 0 -0.000648499
36 1 0.422434 0.708696 0.903558 0 0 -0.000757217
37 1 0.068386 0.917017 0.777427 0 0 5.72205e-05
38 1 0.366273 0.667017 0.531009 0 0 -0.000490189
39 1 0.0152718 0.875372 0.40793 0 0 -0.00043869
40 1 0.275861 0.698836 0.674813 0 0 -0.00111961
41 1 0.92508 0.907171 0.5519 0 0 0.000434875
42 1 0.22309 0.657206 0.305716 0 0 0.0016098
43 1 0.871966 0.865526 0.182403 0 0 -5.72205e-05
44 1 0.664491 0.750373 0.285017 0 0 0.00112152
45 1 0.313879 0.95868 0.162181 0 0 0.000650406
46 1 0.574079 0.782193 0.428821 0 0 0.000490189
47 1 0.366272 0.000350221 0.531009 0 0 -0.000488281
48 1 0.22309 0.990539 0.305716 0 0 0.00161743
ITEM: TIMESTEP
7
ITEM: NUMBER OF ATOMS
48
ITEM: BOX BOUNDS xy xz yz pp pp pp
-6.4899807572364807e+00 8.6067802309989929e+00 2.5094206929206848e+00
-9.4973444938659668e-03 9.3236122131347656e+00 -6.4779436588287354e+00
-2.8691649436950684e-02 1.9545819282531738e+01 7.1304261684417725e-02
ITEM: ATOMS id type xs ys zs fx fy fz
1 1 0.966582 0.16695 0.0423924 0 0 -0.000963211
2 1 0.51793 0.0738472 0.0562834 0 0 0.000394821
3 1 0.717215 0.125337 0.65407 0 0 -0.000473022
4 1 0.973769 0.948927 0.917438 0 0 0.000965118
5 1 0.626425 0.157196 0.797604 0 0 0.000213623
6 1 0.422421 0.0420293 0.903547 0 0 -0.000385284
7 1 0.0683792 0.25035 0.777421 0 0 -0.00110817
8 1 0.0152655 0.208705 0.407924 0 0 0.000192642
9 1 0.275839 0.0321697 0.674792 0 0 -0.00104332
10 1 0.925087 0.240504 0.551906 0 0 -0.000192642
11 1 0.871972 0.198859 0.18241 0 0 0.00111198
12 1 0.664513 0.0837065 0.285038 0 0 0.00104141
13 1 0.313927 0.292013 0.162226 0 0 -0.000219345
14 1 0.574111 0.115526 0.42885 0 0 -0.000268936
15 1 0.966582 0.500283 0.0423923 0 0 -0.00094986
16 1 0.51793 0.40718 0.0562835 0 0 0.000392914
17 1 0.717215 0.45867 0.654071 0 0 -0.000476837
18 1 0.973769 0.28226 0.917438 0 0 0.000963211
19 1 0.626425 0.49053 0.797604 0 0 0.000219345
20 1 0.422422 0.375363 0.903547 0 0 -0.000394821
21 1 0.0683792 0.583684 0.777421 0 0 -0.00110817
22 1 0.366242 0.333684 0.53098 0 0 0.000270844
23 1 0.0152656 0.542039 0.407924 0 0 0.000192642
24 1 0.275839 0.365503 0.674792 0 0 -0.0010376
25 1 0.925086 0.573837 0.551906 0 0 -0.000196457
26 1 0.223137 0.323872 0.30576 0 0 0.0004673
27 1 0.871972 0.532193 0.18241 0 0 0.00111008
28 1 0.664513 0.41704 0.285038 0 0 0.00104332
29 1 0.313927 0.625347 0.162226 0 0 -0.00022316
30 1 0.57411 0.448859 0.42885 0 0 -0.000259399
31 1 0.966582 0.833616 0.0423923 0 0 -0.000957489
32 1 0.51793 0.740514 0.0562835 0 0 0.000391006
33 1 0.717215 0.792004 0.654071 0 0 -0.00047493
34 1 0.973769 0.615594 0.917438 0 0 0.000953674
35 1 0.626425 0.823863 0.797604 0 0 0.000211716
36 1 0.422421 0.708696 0.903547 0 0 -0.000383377
37 1 0.0683793 0.917017 0.777421 0 0 -0.00111008
38 1 0.366241 0.667017 0.53098 0 0 0.000267029
39 1 0.0152653 0.875372 0.407924 0 0 0.000196457
40 1 0.275838 0.698836 0.674792 0 0 -0.00104332
41 1 0.925086 0.907171 0.551906 0 0 -0.000192642
42 1 0.223136 0.657206 0.30576 0 0 0.0004673
43 1 0.871973 0.865526 0.18241 0 0 0.00110817
44 1 0.664513 0.750373 0.285038 0 0 0.00104141
45 1 0.313927 0.95868 0.162226 0 0 -0.000219345
46 1 0.57411 0.782193 0.42885 0 0 -0.000267029
47 1 0.366241 0.000350447 0.53098 0 0 0.000263214
48 1 0.223137 0.990539 0.30576 0 0 0.000469208
ITEM: TIMESTEP
8
ITEM: NUMBER OF ATOMS
48
ITEM: BOX BOUNDS xy xz yz pp pp pp
-6.4899807572364807e+00 8.6067802309989929e+00 2.5094206929206848e+00
-9.4973444938659668e-03 9.3236122131347656e+00 -6.4779436588287354e+00
-2.8691649436950684e-02 1.9545819282531738e+01 7.1304261684417725e-02
ITEM: ATOMS id type xs ys zs fx fy fz
1 1 0.966574 0.16695 0.0423847 0 0 0.000455856
2 1 0.517944 0.0738471 0.0562972 0 0 -0.000123978
3 1 0.717185 0.125337 0.654042 0 0 0.000253677
4 1 0.973778 0.948927 0.917446 0 0 -0.000453949
5 1 0.626412 0.157197 0.797592 0 0 0.000144958
6 1 0.422407 0.0420294 0.903533 0 0 0.000118256
7 1 0.0683489 0.250351 0.777392 0 0 -0.000440598
8 1 0.0152677 0.208705 0.407926 0 0 0.000701904
9 1 0.275804 0.0321699 0.674759 0 0 3.05176e-05
10 1 0.925084 0.240504 0.551904 0 0 -0.000705719
11 1 0.872003 0.198859 0.182438 0 0 0.00043869
12 1 0.664548 0.0837062 0.285071 0 0 -2.67029e-05
13 1 0.31394 0.292013 0.162239 0 0 -0.000143051
14 1 0.574117 0.115526 0.428856 0 0 0.000150681
15 1 0.966574 0.500283 0.0423848 0 0 0.00043869
16 1 0.517945 0.40718 0.0562973 0 0 -0.000127792
17 1 0.717185 0.458671 0.654042 0 0 0.000255585
18 1 0.973777 0.28226 0.917446 0 0 -0.000455856
19 1 0.626411 0.49053 0.797591 0 0 0.000146866
20 1 0.422407 0.375363 0.903533 0 0 0.000135422
21 1 0.0683488 0.583684 0.777392 0 0 -0.000444412
22 1 0.366236 0.333684 0.530974 0 0 -0.000144958
23 1 0.0152678 0.542039 0.407926 0 0 0.000703812
24 1 0.275804 0.365503 0.674759 0 0 1.33514e-05
25 1 0.925084 0.573837 0.551904 0 0 -0.000694275
26 1 0.223167 0.323872 0.305788 0 0 -0.000246048
27 1 0.872003 0.532192 0.182438 0 0 0.000440598
28 1 0.664548 0.41704 0.285071 0 0 -3.24249e-05
29 1 0.31394 0.625346 0.162239 0 0 -0.000135422
30 1 0.574116 0.448859 0.428856 0 0 0.000139236
31 1 0.966574 0.833616 0.0423847 0 0 0.000448227
32 1 0.517944 0.740514 0.0562972 0 0 -0.000123978
33 1 0.717185 0.792004 0.654042 0 0 0.00025177
34 1 0.973777 0.615593 0.917445 0 0 -0.000444412
35 1 0.626412 0.823863 0.797591 0 0 0.000148773
36 1 0.422407 0.708696 0.903533 0 0 0.000118256
37 1 0.0683489 0.917017 0.777392 0 0 -0.000440598
38 1 0.366235 0.667017 0.530974 0 0 -0.000143051
39 1 0.0152676 0.875372 0.407926 0 0 0.000703812
40 1 0.275803 0.698837 0.674759 0 0 2.09808e-05
41 1 0.925084 0.907171 0.551904 0 0 -0.000707626
42 1 0.223167 0.657206 0.305788 0 0 -0.000244141
43 1 0.872003 0.865526 0.182438 0 0 0.000440598
44 1 0.664548 0.750373 0.285071 0 0 -2.67029e-05
45 1 0.31394 0.95868 0.162239 0 0 -0.000141144
46 1 0.574116 0.782193 0.428856 0 0 0.000148773
47 1 0.366235 0.000350491 0.530974 0 0 -0.000144958
48 1 0.223167 0.990539 0.305788 0 0 -0.000257492
ITEM: TIMESTEP
9
ITEM: NUMBER OF ATOMS
48
ITEM: BOX BOUNDS xy xz yz pp pp pp
-6.4899807572364807e+00 8.6067802309989929e+00 2.5094206929206848e+00
-9.4973444938659668e-03 9.3236122131347656e+00 -6.4779436588287354e+00
-2.8691649436950684e-02 1.9545819282531738e+01 7.1304261684417725e-02
ITEM: ATOMS id type xs ys zs fx fy fz
1 1 0.96658 0.16695 0.0423907 0 0 1.71661e-05
2 1 0.517945 0.0738471 0.0562978 0 0 -1.14441e-05
3 1 0.717183 0.125337 0.654041 0 0 -1.52588e-05
4 1 0.973771 0.948927 0.91744 0 0 -2.09808e-05
5 1 0.626411 0.157197 0.797591 0 0 -7.24792e-05
6 1 0.422406 0.0420294 0.903532 0 0 1.14441e-05
7 1 0.0683354 0.250351 0.777379 0 0 3.62396e-05
8 1 0.0152805 0.208705 0.407938 0 0 4.76837e-05
9 1 0.275797 0.03217 0.674753 0 0 -9.53674e-06
10 1 0.925072 0.240505 0.551892 0 0 -5.14984e-05
11 1 0.872016 0.198859 0.182451 0 0 -3.8147e-05
12 1 0.664554 0.0837062 0.285077 0 0 1.33514e-05
13 1 0.31394 0.292013 0.162239 0 0 6.48499e-05
14 1 0.57412 0.115526 0.428859 0 0 -0.000135422
15 1 0.96658 0.500283 0.0423906 0 0 2.67029e-05
16 1 0.517945 0.40718 0.0562978 0 0 -1.33514e-05
17 1 0.717183 0.458671 0.654041 0 0 -1.71661e-05
18 1 0.973771 0.28226 0.917439 0 0 -1.71661e-05
19 1 0.626411 0.49053 0.797591 0 0 -6.86646e-05
20 1 0.422407 0.375363 0.903532 0 0 7.62939e-06
21 1 0.0683353 0.583684 0.777379 0 0 3.8147e-05
22 1 0.366232 0.333684 0.530971 0 0 0.000125885
23 1 0.0152806 0.542039 0.407938 0 0 4.76837e-05
24 1 0.275798 0.365503 0.674753 0 0 -7.62939e-06
25 1 0.925071 0.573838 0.551892 0 0 -5.14984e-05
26 1 0.223168 0.323872 0.30579 0 0 2.09808e-05
27 1 0.872016 0.532192 0.182451 0 0 -4.00543e-05
28 1 0.664554 0.41704 0.285077 0 0 7.62939e-06
29 1 0.31394 0.625346 0.162239 0 0 6.10352e-05
30 1 0.57412 0.448859 0.428859 0 0 -0.000123978
31 1 0.96658 0.833616 0.0423906 0 0 2.67029e-05
32 1 0.517945 0.740514 0.0562978 0 0 -1.33514e-05
33 1 0.717183 0.792004 0.654041 0 0 -1.90735e-05
34 1 0.973771 0.615594 0.917439 0 0 -2.28882e-05
35 1 0.626411 0.823863 0.797591 0 0 -7.05719e-05
36 1 0.422406 0.708696 0.903532 0 0 1.14441e-05
37 1 0.0683354 0.917017 0.777379 0 0 3.62396e-05
38 1 0.366232 0.667017 0.530971 0 0 0.000135422
39 1 0.0152803 0.875372 0.407938 0 0 4.76837e-05
40 1 0.275797 0.698837 0.674753 0 0 -7.62939e-06
41 1 0.925071 0.907171 0.551892 0 0 -4.76837e-05
42 1 0.223168 0.657206 0.30579 0 0 2.28882e-05
43 1 0.872016 0.865526 0.182451 0 0 -3.62396e-05
44 1 0.664554 0.750373 0.285077 0 0 9.53674e-06
45 1 0.31394 0.95868 0.162239 0 0 7.24792e-05
46 1 0.57412 0.782193 0.428859 0 0 -0.000131607
47 1 0.366231 0.000350517 0.530971 0 0 0.000137329
48 1 0.223168 0.990539 0.30579 0 0 1.71661e-05
ITEM: TIMESTEP
10
ITEM: NUMBER OF ATOMS
48
ITEM: BOX BOUNDS xy xz yz pp pp pp
-6.4899807572364807e+00 8.6067802309989929e+00 2.5094206929206848e+00
-9.4973444938659668e-03 9.3236122131347656e+00 -6.4779436588287354e+00
-2.8691649436950684e-02 1.9545819282531738e+01 7.1304261684417725e-02
ITEM: ATOMS id type xs ys zs fx fy fz
1 1 0.966581 0.16695 0.0423914 0 0 -2.47955e-05
2 1 0.517945 0.0738471 0.0562976 0 0 1.33514e-05
3 1 0.717183 0.125337 0.65404 0 0 2.67029e-05
4 1 0.97377 0.948927 0.917439 0 0 2.28882e-05
5 1 0.62641 0.157197 0.79759 0 0 -1.14441e-05
6 1 0.422407 0.0420294 0.903533 0 0 -1.52588e-05
7 1 0.0683357 0.250351 0.77738 0 0 1.14441e-05
8 1 0.0152821 0.208705 0.40794 0 0 2.67029e-05
9 1 0.275797 0.03217 0.674753 0 0 0
10 1 0.92507 0.240505 0.551891 0 0 -2.28882e-05
11 1 0.872016 0.198859 0.182451 0 0 -7.62939e-06
12 1 0.664555 0.0837062 0.285077 0 0 0
13 1 0.313942 0.292013 0.16224 0 0 1.90735e-05
14 1 0.574117 0.115526 0.428857 0 0 1.33514e-05
15 1 0.966581 0.500283 0.0423915 0 0 -2.67029e-05
16 1 0.517945 0.40718 0.0562975 0 0 1.52588e-05
17 1 0.717183 0.458671 0.65404 0 0 2.28882e-05
18 1 0.97377 0.28226 0.917439 0 0 1.90735e-05
19 1 0.62641 0.49053 0.79759 0 0 -1.71661e-05
20 1 0.422407 0.375363 0.903533 0 0 -1.33514e-05
21 1 0.0683356 0.583684 0.77738 0 0 7.62939e-06
22 1 0.366235 0.333684 0.530974 0 0 -7.62939e-06
23 1 0.0152822 0.542039 0.40794 0 0 2.28882e-05
24 1 0.275797 0.365503 0.674753 0 0 -3.8147e-06
25 1 0.92507 0.573838 0.55189 0 0 -2.09808e-05
26 1 0.223169 0.323872 0.30579 0 0 -2.67029e-05
27 1 0.872016 0.532192 0.182451 0 0 -3.8147e-06
28 1 0.664555 0.41704 0.285077 0 0 0
29 1 0.313942 0.625346 0.16224 0 0 1.52588e-05
30 1 0.574117 0.448859 0.428857 0 0 5.72205e-06
31 1 0.966581 0.833616 0.0423915 0 0 -2.86102e-05
32 1 0.517945 0.740514 0.0562975 0 0 1.33514e-05
33 1 0.717183 0.792004 0.65404 0 0 2.67029e-05
34 1 0.97377 0.615594 0.917439 0 0 3.05176e-05
35 1 0.62641 0.823863 0.79759 0 0 -1.14441e-05
36 1 0.422407 0.708696 0.903533 0 0 -1.52588e-05
37 1 0.0683357 0.917017 0.77738 0 0 5.72205e-06
38 1 0.366235 0.667017 0.530974 0 0 -1.52588e-05
39 1 0.015282 0.875372 0.40794 0 0 2.09808e-05
40 1 0.275797 0.698837 0.674753 0 0 1.90735e-06
41 1 0.925069 0.907171 0.55189 0 0 -1.90735e-05
42 1 0.223169 0.657206 0.30579 0 0 -2.86102e-05
43 1 0.872016 0.865526 0.182451 0 0 -3.8147e-06
44 1 0.664555 0.750373 0.285077 0 0 0
45 1 0.313942 0.95868 0.16224 0 0 1.71661e-05
46 1 0.574117 0.782193 0.428857 0 0 1.14441e-05
47 1 0.366234 0.000350495 0.530974 0 0 -1.33514e-05
48 1 0.223169 0.990539 0.30579 0 0 -3.24249e-05
ITEM: TIMESTEP
11
ITEM: NUMBER OF ATOMS
48
ITEM: BOX BOUNDS xy xz yz pp pp pp
-6.4899807572364807e+00 8.6067802309989929e+00 2.5094206929206848e+00
-9.4973444938659668e-03 9.3236122131347656e+00 -6.4779436588287354e+00
-2.8691649436950684e-02 1.9545819282531738e+01 7.1304261684417725e-02
ITEM: ATOMS id type xs ys zs fx fy fz
1 1 0.966581 0.16695 0.0423914 0 0 -2.47955e-05
2 1 0.517945 0.0738471 0.0562976 0 0 1.33514e-05
3 1 0.717183 0.125337 0.65404 0 0 2.67029e-05
4 1 0.97377 0.948927 0.917439 0 0 2.28882e-05
5 1 0.62641 0.157197 0.79759 0 0 -1.14441e-05
6 1 0.422407 0.0420294 0.903533 0 0 -1.52588e-05
7 1 0.0683357 0.250351 0.77738 0 0 1.14441e-05
8 1 0.0152821 0.208705 0.40794 0 0 2.67029e-05
9 1 0.275797 0.03217 0.674753 0 0 0
10 1 0.92507 0.240505 0.551891 0 0 -2.28882e-05
11 1 0.872016 0.198859 0.182451 0 0 -7.62939e-06
12 1 0.664555 0.0837062 0.285077 0 0 0
13 1 0.313942 0.292013 0.16224 0 0 1.90735e-05
14 1 0.574117 0.115526 0.428857 0 0 1.33514e-05
15 1 0.966581 0.500283 0.0423915 0 0 -2.67029e-05
16 1 0.517945 0.40718 0.0562975 0 0 1.52588e-05
17 1 0.717183 0.458671 0.65404 0 0 2.28882e-05
18 1 0.97377 0.28226 0.917439 0 0 1.90735e-05
19 1 0.62641 0.49053 0.79759 0 0 -1.71661e-05
20 1 0.422407 0.375363 0.903533 0 0 -1.33514e-05
21 1 0.0683356 0.583684 0.77738 0 0 7.62939e-06
22 1 0.366235 0.333684 0.530974 0 0 -7.62939e-06
23 1 0.0152822 0.542039 0.40794 0 0 2.28882e-05