ITEM: TIMESTEP
0
ITEM: NUMBER OF ATOMS
56
ITEM: BOX BOUNDS xy xz yz pp pp pp
-1.6646510362625122e+00 1.2156271994113922e+01 8.9406967163085938e-07
-8.2894563674926758e-03 5.5346975326538086e+00 -1.6934797763824463e+00
-4.5665502548217773e-03 1.9024526596069336e+01 -5.9604644775390625e-08
ITEM: ATOMS id type xs ys zs fx fy fz
1 1 0.570108 0.999993 0.132369 0 0.0222206 0.690439
2 1 0.320108 0.166674 0.132369 0 -0.0222092 0.690435
3 1 0.229061 1 0.275226 0 -0.00173378 -0.00209427
4 1 0.979061 0.166667 0.275226 0 0.00172997 -0.00209236
5 1 0.887986 1 0.418084 0 -0.000141144 0.00169373
6 1 0.0701069 0.999993 0.132369 0 0.0222206 0.690437
7 1 0.990616 0.500035 0.0609392 0 -0.065361 0.702173
8 1 0.820107 0.166674 0.132369 0 -0.0222187 0.690434
9 1 0.740616 0.666632 0.0609392 0 0.0653534 0.702169
10 1 0.72906 1 0.275226 0 -0.00173569 -0.00209808
11 1 0.637988 0.166667 0.418084 0 0.000150681 0.00169563
12 1 0.546916 3.67832e-07 0.560938 0 -0.000257492 0.00066185
13 1 0.296915 0.166667 0.560938 0 0.000263214 0.00066185
14 1 0.205833 1 0.703795 0 -0.000762939 0.00172234
15 1 0.955832 0.166667 0.703795 0 0.000772476 0.00172615
16 1 0.86477 0.999999 0.846658 0 -0.00591087 -0.0196877
17 1 0.649592 0.499999 0.203795 0 -0.00592041 0.0196877
18 1 0.479062 0.166667 0.275226 0 0.00174522 -0.00209236
19 1 0.399592 0.666668 0.203795 0 0.00591469 0.01968
20 1 0.387987 1 0.418084 0 -0.000139236 0.00169373
21 1 0.308529 0.5 0.346658 0 -0.000770569 -0.00172806
22 1 0.137987 0.166667 0.418084 0 0.000141144 0.00169373
23 1 0.0585284 0.666667 0.346658 0 0.000764847 -0.00172043
24 1 0.0469145 3.50169e-07 0.560938 0 -0.000253677 0.000663757
25 1 0.967446 0.5 0.489515 0 -0.000261307 -0.000659943
26 1 0.796914 0.166667 0.560938 0 0.000265121 0.00066185
27 1 0.717446 0.666667 0.489515 0 0.000261307 -0.000667572
28 1 0.490618 0.500035 0.0609392 0 -0.0653725 0.702169
29 1 0.240617 0.666632 0.0609392 0 0.065361 0.702181
30 1 0.149591 0.499999 0.203795 0 -0.00591278 0.0196857
31 1 0.899591 0.666668 0.203795 0 0.0059185 0.0196743
32 1 0.808528 0.5 0.346658 0 -0.000764847 -0.00172615
33 1 0.614772 0.166668 0.846658 0 0.00592041 -0.0196743
34 1 0.523746 3.5121e-05 0.989514 0 -0.0653534 -0.702177
35 1 0.273745 0.166632 0.989514 0 0.0653648 -0.702181
36 1 0.705834 1 0.703795 0 -0.000764847 0.00172806
37 1 0.626376 0.5 0.632369 0 -0.000154495 -0.00168991
38 1 0.455834 0.166667 0.703795 0 0.000764847 0.00172806
39 1 0.376376 0.666668 0.632369 0 0.000137329 -0.00169563
40 1 0.364771 0.999999 0.846658 0 -0.00590897 -0.0196838
41 1 0.285301 0.5 0.775226 0 -0.00173187 0.00209618
42 1 0.11477 0.166668 0.846658 0 0.00591469 -0.0196857
43 1 0.0353002 0.666667 0.775226 0 0.00173378 0.00209999
44 1 0.0237444 3.50854e-05 0.989514 0 -0.0653648 -0.702177
45 1 0.944254 0.499993 0.918084 0 0.0222054 -0.690435
46 1 0.55853 0.666667 0.346658 0 0.000761032 -0.00172615
47 1 0.467448 0.5 0.489515 0 -0.000263214 -0.000663757
48 1 0.217447 0.666667 0.489515 0 0.000263214 -0.00066185
49 1 0.126375 0.5 0.632369 0 -0.000144958 -0.00169563
50 1 0.876374 0.666667 0.632369 0 0.000137329 -0.00169563
51 1 0.7853 0.5 0.775226 0 -0.00173569 0.00209427
52 1 0.773746 0.166632 0.989514 0 0.065361 -0.702171
53 1 0.694256 0.666674 0.918084 0 -0.0222282 -0.690432
54 1 0.535302 0.666667 0.775226 0 0.00173569 0.00209618
55 1 0.444255 0.499993 0.918084 0 0.0222149 -0.690428
56 1 0.194254 0.666674 0.918084 0 -0.0222206 -0.690443
ITEM: TIMESTEP
1
ITEM: NUMBER OF ATOMS
56
ITEM: BOX BOUNDS xy xz yz pp pp pp
-1.6646510362625122e+00 1.2156271994113922e+01 8.9406967163085938e-07
-8.2894563674926758e-03 5.5346975326538086e+00 -1.6934797763824463e+00
-4.5665502548217773e-03 1.9024526596069336e+01 -5.9604644775390625e-08
ITEM: ATOMS id type xs ys zs fx fy fz
1 1 0.57083 1.00056 0.137536 0 -0.00119591 0.0810947
2 1 0.320829 0.166104 0.137536 0 0.001194 0.0810966
3 1 0.229059 0.999955 0.275211 0 -0.0241165 0.117949
4 1 0.979058 0.166712 0.275211 0 0.0241184 0.117945
5 1 0.887988 0.999996 0.418097 0 -0.000589371 0.00115204
6 1 0.0708284 1.00056 0.137536 0 -0.00119019 0.0811005
7 1 0.99135 0.498356 0.0661943 0 -0.0750599 0.0662003
8 1 0.820828 0.166103 0.137536 0 0.00118828 0.0810966
9 1 0.74135 0.668311 0.0661943 0 0.0750618 0.0661945
10 1 0.729058 0.999955 0.275211 0 -0.0241127 0.117941
11 1 0.63799 0.166671 0.418097 0 0.000602722 0.00116348
12 1 0.546916 -6.24779e-06 0.560943 0 -0.000310898 0.000988007
13 1 0.296916 0.166673 0.560943 0 0.000312805 0.000989914
14 1 0.205835 0.99998 0.703808 0 -0.00276184 -0.0066185
15 1 0.955834 0.166687 0.703808 0 0.00276947 -0.0066185
16 1 0.864749 0.999847 0.84651 0 -0.00708389 -0.149944
17 1 0.649613 0.499847 0.203942 0 -0.0070858 0.149942
18 1 0.47906 0.166712 0.275211 0 0.0241165 0.117943
19 1 0.399612 0.66682 0.203942 0 0.00708008 0.149933
20 1 0.387989 0.999996 0.418097 0 -0.000597 0.00116158
21 1 0.308528 0.49998 0.346645 0 -0.00277138 0.0066185
22 1 0.137988 0.166671 0.418097 0 0.000591278 0.00116539
23 1 0.0585266 0.666687 0.346645 0 0.00275803 0.0066185
24 1 0.0469152 -6.16745e-06 0.560943 0 -0.000312805 0.00097847
25 1 0.967446 0.499994 0.48951 0 -0.000305176 -0.000988007
26 1 0.796915 0.166673 0.560943 0 0.000318527 0.000976562
27 1 0.717445 0.666674 0.48951 0 0.000307083 -0.000980377
28 1 0.491352 0.498356 0.0661942 0 -0.0750618 0.0662098
29 1 0.241351 0.668311 0.0661943 0 0.0750561 0.0661945
30 1 0.149612 0.499847 0.203942 0 -0.00708199 0.149927
31 1 0.899611 0.66682 0.203942 0 0.00708961 0.149929
32 1 0.808526 0.49998 0.346645 0 -0.00276184 0.00662041
33 1 0.614751 0.16682 0.84651 0 0.00708008 -0.149923
34 1 0.523012 -0.00164397 0.984259 0 -0.075058 -0.0661983
35 1 0.273011 0.168311 0.984259 0 0.0750599 -0.0662003
36 1 0.705836 0.99998 0.703808 0 -0.00276184 -0.00661278
37 1 0.626374 0.499996 0.632356 0 -0.000591278 -0.00115585
38 1 0.455836 0.166687 0.703808 0 0.00276375 -0.00661659
39 1 0.376374 0.666671 0.632356 0 0.000583649 -0.00115776
40 1 0.364751 0.999847 0.84651 0 -0.00708199 -0.149931
41 1 0.285303 0.499955 0.775242 0 -0.0241203 -0.117945
42 1 0.11475 0.16682 0.84651 0 0.00708961 -0.149935
43 1 0.0353024 0.666712 0.775242 0 0.0241108 -0.117947
44 1 0.0230106 -0.0016443 0.984259 0 -0.0750675 -0.0662079
45 1 0.943532 0.500563 0.912917 0 -0.00118828 -0.0811043
46 1 0.558528 0.666687 0.346645 0 0.00276756 0.00661469
47 1 0.467447 0.499994 0.48951 0 -0.000322342 -0.000982285
48 1 0.217446 0.666674 0.48951 0 0.000314713 -0.000980377
49 1 0.126373 0.499996 0.632356 0 -0.000589371 -0.0011673
50 1 0.876373 0.666671 0.632356 0 0.000591278 -0.00116158
51 1 0.785302 0.499955 0.775242 0 -0.0241165 -0.117943
52 1 0.773012 0.168311 0.984259 0 0.0750599 -0.0661983
53 1 0.693534 0.666103 0.912917 0 0.001194 -0.0810852
54 1 0.535304 0.666712 0.775242 0 0.0241184 -0.117937
55 1 0.443534 0.500564 0.912917 0 -0.00119019 -0.0811062
56 1 0.193533 0.666103 0.912917 0 0.00118828 -0.0810986
ITEM: TIMESTEP
2
ITEM: NUMBER OF ATOMS
56
ITEM: BOX BOUNDS xy xz yz pp pp pp
-1.6646510362625122e+00 1.2156271994113922e+01 8.9406967163085938e-07
-8.2894563674926758e-03 5.5346975326538086e+00 -1.6934797763824463e+00
-4.5665502548217773e-03 1.9024526596069336e+01 -5.9604644775390625e-08
ITEM: ATOMS id type xs ys zs fx fy fz
1 1 0.57112 1.00046 0.139618 0 -0.0307732 0.0103989
2 1 0.32112 0.166209 0.139618 0 0.0307617 0.0103989
3 1 0.229482 0.997829 0.278239 0 0.0108299 0.0113297
4 1 0.979481 0.168838 0.278239 0 -0.0108261 0.0113277
5 1 0.887992 0.999944 0.418127 0 -0.0121517 0.0636597
6 1 0.0711192 1.00046 0.139618 0 -0.0307693 0.0103855
7 1 0.991588 0.49174 0.067894 0 -0.0099659 -0.0157967
8 1 0.821119 0.166208 0.139618 0 0.0307846 0.0103874
9 1 0.741587 0.674927 0.0678939 0 0.00995445 -0.0157814
10 1 0.729481 0.99783 0.278239 0 0.010828 0.0113449
11 1 0.637994 0.166724 0.418127 0 0.0121193 0.0636425
12 1 0.54692 -3.36524e-05 0.560969 0 -0.00208282 -0.0043335
13 1 0.29692 0.166701 0.560969 0 0.00206947 -0.00433731
14 1 0.205811 0.999737 0.703638 0 -0.0150471 -0.101234
15 1 0.955811 0.166931 0.703638 0 0.0150452 -0.101246
16 1 0.864212 0.999223 0.84266 0 -0.0127449 0.0177879
17 1 0.65015 0.499223 0.207792 0 -0.0127487 -0.0177879
18 1 0.479483 0.168838 0.278239 0 -0.0108376 0.0113392
19 1 0.40015 0.667444 0.207792 0 0.0127544 -0.0177765
20 1 0.387993 0.999943 0.418127 0 -0.012146 0.0636444
21 1 0.308551 0.499736 0.346815 0 -0.0150337 0.101233
22 1 0.137993 0.166723 0.418127 0 0.012146 0.0636444
23 1 0.0585503 0.66693 0.346815 0 0.0150452 0.101221
24 1 0.0469187 -3.37402e-05 0.560968 0 -0.00206757 -0.00432396
25 1 0.967442 0.499967 0.489484 0 -0.00207901 0.00433922
26 1 0.796918 0.166701 0.560968 0 0.00206375 -0.00432777
27 1 0.717442 0.666701 0.489484 0 0.00209808 0.00432968
28 1 0.491589 0.491739 0.0678942 0 -0.00996017 -0.0158005
29 1 0.241589 0.674927 0.0678939 0 0.0099659 -0.0157814
30 1 0.150149 0.499223 0.207792 0 -0.0127563 -0.0177727
31 1 0.900149 0.667445 0.207792 0 0.0127354 -0.017767
32 1 0.80855 0.499737 0.346815 0 -0.0150299 0.101225
33 1 0.614214 0.167444 0.842661 0 0.0127525 0.0177689
34 1 0.522775 -0.00826008 0.982559 0 -0.0099678 0.0157909
35 1 0.272774 0.174927 0.982559 0 0.0099659 0.0157814
36 1 0.705812 0.999737 0.703638 0 -0.0150414 -0.101248
37 1 0.62637 0.499944 0.632326 0 -0.0121422 -0.0636425
38 1 0.455812 0.16693 0.703638 0 0.0150414 -0.101223
39 1 0.37637 0.666722 0.632326 0 0.0121613 -0.0636463
40 1 0.364213 0.999223 0.842661 0 -0.0127544 0.0177822
41 1 0.28488 0.497829 0.772214 0 0.0108337 -0.011343
42 1 0.114212 0.167445 0.842661 0 0.0127411 0.0177784
43 1 0.0348795 0.668837 0.772214 0 -0.0108223 -0.0113487
44 1 0.0227732 -0.00826125 0.982559 0 -0.00995827 0.0157967
45 1 0.943242 0.500459 0.910835 0 -0.030777 -0.0103855
46 1 0.558552 0.666931 0.346815 0 0.0150509 0.101244
47 1 0.467443 0.499965 0.489484 0 -0.00205612 0.00433922
48 1 0.217443 0.666701 0.489484 0 0.00206184 0.00432777
49 1 0.126369 0.499944 0.632326 0 -0.0121517 -0.0636368
50 1 0.876368 0.666723 0.632326 0 0.0121536 -0.0636463
51 1 0.784879 0.49783 0.772214 0 0.0108223 -0.0113411
52 1 0.772775 0.174927 0.982559 0 0.00996017 0.0157986
53 1 0.693243 0.666209 0.910835 0 0.030777 -0.0104008
54 1 0.534881 0.668838 0.772214 0 -0.010828 -0.0113449
55 1 0.443243 0.500459 0.910835 0 -0.0307808 -0.0103703
56 1 0.193242 0.666208 0.910835 0 0.030777 -0.0104027
ITEM: TIMESTEP
3
ITEM: NUMBER OF ATOMS
56
ITEM: BOX BOUNDS xy xz yz pp pp pp
-1.6646510362625122e+00 1.2156271994113922e+01 8.9406967163085938e-07
-8.2894563674926758e-03 5.5346975326538086e+00 -1.6934797763824463e+00
-4.5665502548217773e-03 1.9024526596069336e+01 -5.9604644775390625e-08
ITEM: ATOMS id type xs ys zs fx fy fz
1 1 0.571243 0.997857 0.140494 0 -0.00542641 -0.00813293
2 1 0.321242 0.168809 0.140494 0 0.00544548 -0.00814056
3 1 0.229647 0.998098 0.279421 0 -0.00542259 0.0125866
4 1 0.979646 0.16857 0.279421 0 0.00541306 0.0125961
5 1 0.88821 0.998914 0.419684 0 0.000249863 0.0148182
6 1 0.0712415 0.997858 0.140494 0 -0.00544548 -0.00812149
7 1 0.991605 0.488927 0.0680184 0 0.00553131 -0.0237312
8 1 0.821241 0.16881 0.140494 0 0.00542068 -0.00812149
9 1 0.741605 0.677739 0.0680186 0 -0.00551224 -0.0237427
10 1 0.729646 0.998098 0.279421 0 -0.00541306 0.0125771
11 1 0.638211 0.167752 0.419684 0 -0.000198364 0.0148335
12 1 0.546906 -0.000215802 0.560871 0 -0.0148354 -0.0283604
13 1 0.296906 0.166882 0.560871 0 0.014864 -0.0283699
14 1 0.20546 0.998407 0.701124 0 0.00164604 0.0131321
15 1 0.955459 0.168261 0.701124 0 -0.00164795 0.0131378
16 1 0.864111 0.997972 0.841941 0 0.00910759 -0.0138054
17 1 0.650251 0.497971 0.208512 0 0.00911903 0.0138035
18 1 0.479648 0.168569 0.279421 0 0.00543785 0.0125847
19 1 0.40025 0.668696 0.208512 0 -0.00912857 0.0138035
20 1 0.388211 0.998913 0.419684 0 0.000242233 0.0148392
21 1 0.308902 0.498407 0.349329 0 0.00163651 -0.0131245
22 1 0.13821 0.167753 0.419684 0 -0.000244141 0.0148144
23 1 0.0589013 0.668259 0.349328 0 -0.00164223 -0.0131073
24 1 0.046905 -0.000214665 0.560871 0 -0.0148563 -0.0283737
25 1 0.967456 0.499785 0.489582 0 -0.0148602 0.0283623
26 1 0.796905 0.166882 0.560871 0 0.0148716 -0.0283756
27 1 0.717455 0.666884 0.489582 0 0.0148239 0.028368
28 1 0.491606 0.488927 0.0680186 0 0.00550652 -0.0237217
29 1 0.241606 0.677739 0.0680186 0 -0.00551796 -0.0237484
30 1 0.15025 0.497971 0.208512 0 0.00911903 0.0137997
31 1 0.900249 0.668696 0.208512 0 -0.00910378 0.013792
32 1 0.808901 0.498409 0.349329 0 0.00162697 -0.0131168
33 1 0.614113 0.168696 0.841941 0 -0.00912094 -0.0137939
34 1 0.522757 -0.0110725 0.982434 0 0.00552368 0.0237408
35 1 0.272756 0.17774 0.982434 0 -0.00552559 0.0237503
36 1 0.705461 0.998408 0.701124 0 0.00164604 0.013155
37 1 0.626153 0.498914 0.630769 0 0.000230789 -0.0148411
38 1 0.455461 0.16826 0.701124 0 -0.00164604 0.0131207
39 1 0.376152 0.667754 0.630769 0 -0.00025177 -0.0148258
40 1 0.364113 0.997971 0.841941 0 0.0091114 -0.0138092
41 1 0.284715 0.498098 0.771032 0 -0.0054245 -0.0125732
42 1 0.114112 0.168696 0.841941 0 -0.00912094 -0.0138187
43 1 0.0347144 0.668569 0.771031 0 0.0054245 -0.0125694
44 1 0.0227559 -0.0110731 0.982434 0 0.00551987 0.023735
45 1 0.943119 0.497857 0.909959 0 -0.00543022 0.00811768
46 1 0.558903 0.668261 0.349329 0 -0.00167465 -0.013134
47 1 0.467457 0.499785 0.489582 0 -0.0148678 0.0283604
48 1 0.217457 0.666882 0.489582 0 0.014864 0.0283661
49 1 0.126151 0.498914 0.630769 0 0.000234604 -0.014843
50 1 0.876151 0.667754 0.630769 0 -0.000240326 -0.0148373
51 1 0.784714 0.498097 0.771032 0 -0.00540352 -0.0125828
52 1 0.772758 0.177739 0.982435 0 -0.00551224 0.023735
53 1 0.693121 0.66881 0.909959 0 0.00542068 0.0081234
54 1 0.534716 0.66857 0.771032 0 0.00542068 -0.0125675
55 1 0.443121 0.497857 0.909959 0 -0.0054245 0.00810432
56 1 0.19312 0.66881 0.909958 0 0.00543976 0.00813293
ITEM: TIMESTEP
4
ITEM: NUMBER OF ATOMS
56
ITEM: BOX BOUNDS xy xz yz pp pp pp
-1.6646510362625122e+00 1.2156271994113922e+01 8.9406967163085938e-07
-8.2894563674926758e-03 5.5346975326538086e+00 -1.6934797763824463e+00
-4.5665502548217773e-03 1.9024526596069336e+01 -5.9604644775390625e-08
ITEM: ATOMS id type xs ys zs fx fy fz
1 1 0.571239 0.9974 0.140464 0 0.0031414 0.00736427
2 1 0.321238 0.169267 0.140464 0 -0.0031395 0.00736237
3 1 0.229684 0.997883 0.279681 0 0.00165939 0.00439072
4 1 0.979683 0.168784 0.279681 0 -0.00166893 0.00439072
5 1 0.888254 0.998838 0.420004 0 -0.00463676 -0.00372124
6 1 0.0712374 0.9974 0.140464 0 0.00314522 0.00735664
7 1 0.991564 0.488933 0.0677261 0 0.00448608 0.000225067
8 1 0.821237 0.169267 0.140464 0 -0.00314903 0.00736237
9 1 0.741564 0.677735 0.0677262 0 -0.0044899 0.000221252
10 1 0.729682 0.997884 0.279681 0 0.0016613 0.00438309
11 1 0.638256 0.16783 0.420005 0 0.00463295 -0.00372505
12 1 0.546855 -0.000880972 0.560501 0 -0.00650787 -0.000164032
13 1 0.296854 0.167548 0.560501 0 0.00650597 -0.000162125
14 1 0.205454 0.998367 0.70108 0 0.00150681 -0.00191307
15 1 0.955453 0.168301 0.70108 0 -0.00151634 -0.00190163
16 1 0.864078 0.998265 0.841704 0 0.00177956 0.00244904
17 1 0.650284 0.498265 0.208749 0 0.00178146 -0.00244713
18 1 0.479684 0.168784 0.279681 0 -0.00167274 0.00439453
19 1 0.400284 0.668402 0.208749 0 -0.00177002 -0.00244522
20 1 0.388256 0.998837 0.420005 0 -0.00463867 -0.00372696
21 1 0.308908 0.498367 0.349373 0 0.00151634 0.00190163
22 1 0.138255 0.167829 0.420004 0 0.00465012 -0.00372314
23 1 0.0589075 0.668299 0.349373 0 -0.00150681 0.00190353
24 1 0.0468533 -0.000880652 0.5605 0 -0.00652313 -0.000167847
25 1 0.967507 0.499119 0.489952 0 -0.00650787 0.000165939
26 1 0.796853 0.167549 0.5605 0 0.00650787 -0.00015831
27 1 0.717507 0.667549 0.489952 0 0.00650978 0.000164032
28 1 0.491566 0.488931 0.0677264 0 0.0044899 0.000219345
29 1 0.241565 0.677735 0.0677261 0 -0.00448418 0.000217438
30 1 0.150283 0.498265 0.208748 0 0.00177765 -0.00243378
31 1 0.900282 0.668402 0.208749 0 -0.00177193 -0.00244141
32 1 0.808907 0.498368 0.349373 0 0.00149727 0.00191116
33 1 0.61408 0.168402 0.841705 0 -0.00177383 0.00244331
34 1 0.522798 -0.0110677 0.982727 0 0.00448799 -0.000221252
35 1 0.272797 0.177735 0.982727 0 -0.00448227 -0.000230789
36 1 0.705455 0.998368 0.70108 0 0.00149918 -0.00191498
37 1 0.626108 0.498837 0.630448 0 -0.00463104 0.00373077
38 1 0.455455 0.1683 0.70108 0 -0.00150108 -0.00190926
39 1 0.376107 0.667829 0.630448 0 0.00464058 0.00372124
40 1 0.36408 0.998265 0.841704 0 0.00178337 0.00243568
41 1 0.284679 0.497883 0.770771 0 0.00166512 -0.00438881
42 1 0.114079 0.168402 0.841704 0 -0.0017643 0.00245285
43 1 0.0346781 0.668784 0.770771 0 -0.00167084 -0.0043869
44 1 0.0227967 -0.0110684 0.982727 0 0.0044899 -0.000226974
45 1 0.943124 0.4974 0.909988 0 0.00313377 -0.00736618
46 1 0.558909 0.6683 0.349373 0 -0.00150108 0.00189972
47 1 0.467509 0.499119 0.489952 0 -0.0065136 0.000165939
48 1 0.217508 0.667548 0.489952 0 0.00651169 0.000164032
49 1 0.126107 0.498837 0.630448 0 -0.00462532 0.00372696
50 1 0.876106 0.66783 0.630448 0 0.00464058 0.00371933
51 1 0.784678 0.497883 0.770771 0 0.00166702 -0.00438118
52 1 0.772798 0.177735 0.982727 0 -0.00449753 -0.000228882
53 1 0.693125 0.669267 0.909989 0 -0.00314522 -0.00734711
54 1 0.534679 0.668785 0.770772 0 -0.00167656 -0.00440407
55 1 0.443125 0.4974 0.909989 0 0.0031395 -0.00734901
56 1 0.193124 0.669268 0.909988 0 -0.0031414 -0.00735664
ITEM: TIMESTEP
5
ITEM: NUMBER OF ATOMS
56
ITEM: BOX BOUNDS xy xz yz pp pp pp
-1.6646510362625122e+00 1.2156271994113922e+01 8.9406967163085938e-07
-8.2894563674926758e-03 5.5346975326538086e+00 -1.6934797763824463e+00
-4.5665502548217773e-03 1.9024526596069336e+01 -5.9604644775390625e-08
ITEM: ATOMS id type xs ys zs fx fy fz
1 1 0.571263 0.997592 0.140639 0 0.00229836 -0.000793457
2 1 0.321263 0.169075 0.140639 0 -0.00230026 -0.000782013
3 1 0.229704 0.997989 0.279828 0 0.00018692 -0.000337601
4 1 0.979703 0.168677 0.279828 0 -0.000169754 -0.000329971
5 1 0.888248 0.998439 0.419963 0 -0.000936508 0.0016346
6 1 0.0712617 0.997593 0.140639 0 0.00229454 -0.00078392
7 1 0.991559 0.489308 0.0676871 0 0.000534058 -0.000556946
8 1 0.821261 0.169074 0.140639 0 -0.00227737 -0.000782013
9 1 0.741558 0.677359 0.067687 0 -0.00053978 -0.000535965
10 1 0.729703 0.99799 0.279828 0 0.000171661 -0.000322342
11 1 0.63825 0.168229 0.419963 0 0.00091362 0.00163651
12 1 0.546846 -0.00152577 0.56044 0 -0.000156403 0.00150871
13 1 0.296846 0.168193 0.56044 0 0.000150681 0.00150681
14 1 0.205446 0.998487 0.701026 0 -0.000576019 -0.000961304
15 1 0.955446 0.16818 0.701027 0 0.000600815 -0.000974655
16 1 0.864082 0.998458 0.841728 0 5.14984e-05 -0.00146294
17 1 0.650281 0.498458 0.208725 0 4.76837e-05 0.00145912
18 1 0.479704 0.168678 0.279828 0 -0.000162125 -0.000343323
19 1 0.40028 0.668209 0.208725 0 -5.91278e-05 0.00146103
20 1 0.38825 0.998438 0.419963 0 -0.000917435 0.00163651
21 1 0.308916 0.498487 0.349426 0 -0.000595093 0.000974655
22 1 0.138249 0.168229 0.419963 0 0.000915527 0.00164032
23 1 0.058915 0.66818 0.349426 0 0.000587463 0.000968933
24 1 0.0468449 -0.00152685 0.56044 0 -0.000123978 0.00151062
25 1 0.967516 0.498474 0.490013 0 -0.000154495 -0.00152016
26 1 0.796845 0.168194 0.56044 0 0.000148773 0.00151062
27 1 0.717515 0.668194 0.490013 0 0.00015831 -0.0015049
28 1 0.49156 0.489307 0.0676872 0 0.000541687 -0.000553131
29 1 0.24156 0.67736 0.0676869 0 -0.000545502 -0.000541687
30 1 0.150279 0.498458 0.208725 0 5.34058e-05 0.00144768
31 1 0.900279 0.66821 0.208725 0 -7.05719e-05 0.00145721
32 1 0.808915 0.498487 0.349426 0 -0.000570297 0.00094986
33 1 0.614083 0.168209 0.841728 0 -6.86646e-05 -0.00146675
34 1 0.522804 -0.0106922 0.982766 0 0.000528336 0.000545502
35 1 0.272803 0.17736 0.982765 0 -0.00053978 0.00056076
36 1 0.705448 0.998487 0.701027 0 -0.000574112 -0.000951767
37 1 0.626114 0.498439 0.63049 0 -0.000934601 -0.00164032
38 1 0.455447 0.16818 0.701027 0 0.000579834 -0.000965118
39 1 0.376113 0.668229 0.63049 0 0.000928879 -0.00163841
40 1 0.364083 0.998458 0.841728 0 4.76837e-05 -0.0014534
41 1 0.284659 0.497989 0.770625 0 0.000183105 0.000337601
42 1 0.114082 0.16821 0.841728 0 -6.48499e-05 -0.00147247
43 1 0.0346576 0.668678 0.770625 0 -0.000171661 0.000326157
44 1 0.0228021 -0.0106928 0.982766 0 0.000534058 0.000564575
45 1 0.943099 0.497592 0.909814 0 0.00229836 0.000802994
46 1 0.558916 0.66818 0.349426 0 0.000583649 0.000968933
47 1 0.467517 0.498473 0.490013 0 -0.000139236 -0.00151062
48 1 0.217517 0.668193 0.490013 0 0.000146866 -0.00151062
49 1 0.126112 0.498439 0.63049 0 -0.000940323 -0.0016346
50 1 0.876112 0.668229 0.63049 0 0.000915527 -0.00162697
51 1 0.784657 0.49799 0.770625 0 0.000164032 0.00031662
52 1 0.772804 0.177359 0.982766 0 -0.00053215 0.000556946
53 1 0.693101 0.669074 0.909815 0 -0.00229073 0.000768661
54 1 0.534659 0.668677 0.770625 0 -0.000160217 0.000356674
55 1 0.443101 0.497592 0.909814 0 0.00230217 0.000762939
56 1 0.1931 0.669075 0.909814 0 -0.00229645 0.000785828
ITEM: TIMESTEP
6
ITEM: NUMBER OF ATOMS
56
ITEM: BOX BOUNDS xy xz yz pp pp pp
-1.6646510362625122e+00 1.2156271994113922e+01 8.9406967163085938e-07
-8.2894563674926758e-03 5.5346975326538086e+00 -1.6934797763824463e+00
-4.5665502548217773e-03 1.9024526596069336e+01 -5.9604644775390625e-08
ITEM: ATOMS id type xs ys zs fx fy fz
1 1 0.571263 0.997762 0.140635 0 -0.000152588 -0.00030899
2 1 0.321262 0.168905 0.140635 0 0.00015831 -0.000320435
3 1 0.229704 0.998009 0.279831 0 -0.000114441 0.000606537
4 1 0.979704 0.168659 0.279831 0 9.72748e-05 0.000610352
5 1 0.888253 0.998348 0.419992 0 0.000444412 0.000587463
6 1 0.0712612 0.997762 0.140635 0 -0.000154495 -0.00031662
7 1 0.991557 0.48937 0.0676734 0 0.000659943 0.00102043
8 1 0.821261 0.168906 0.140635 0 0.000146866 -0.000310898
9 1 0.741556 0.677296 0.0676737 0 -0.000656128 0.00100136
10 1 0.729703 0.998009 0.279831 0 -9.72748e-05 0.000606537
11 1 0.638254 0.168319 0.419992 0 -0.000431061 0.000587463
12 1 0.54685 -0.00158096 0.560466 0 2.28882e-05 -0.000305176
13 1 0.296849 0.168248 0.560466 0 -1.14441e-05 -0.000299454
14 1 0.205443 0.998456 0.701004 0 -0.000616074 0.000104904
15 1 0.955443 0.168213 0.701004 0 0.000600815 0.00012207
16 1 0.864078 0.998475 0.8417 0 0.000669479 -6.29425e-05
17 1 0.650284 0.498475 0.208752 0 0.000680923 8.58307e-05
18 1 0.479705 0.168659 0.279831 0 0.000101089 0.000621796
19 1 0.400284 0.668192 0.208752 0 -0.000677109 7.82013e-05
20 1 0.388254 0.998348 0.419992 0 0.000429153 0.000589371
21 1 0.308919 0.498455 0.349449 0 -0.000598907 -0.000112534
22 1 0.138253 0.168319 0.419992 0 -0.000432968 0.000585556
23 1 0.0589181 0.668211 0.349449 0 0.000612259 -0.000118256
24 1 0.0468485 -0.00157993 0.560466 0 -7.62939e-06 -0.000295639
25 1 0.967512 0.498419 0.489987 0 2.09808e-05 0.000305176
26 1 0.796848 0.168249 0.560466 0 -1.33514e-05 -0.000299454
27 1 0.717512 0.668249 0.489987 0 -2.67029e-05 0.000284195
28 1 0.491558 0.48937 0.0676736 0 0.000663757 0.00100327
29 1 0.241558 0.677297 0.0676735 0 -0.000667572 0.00101852
30 1 0.150283 0.498475 0.208752 0 0.000682831 7.05719e-05
31 1 0.900283 0.668192 0.208752 0 -0.000665665 5.91278e-05
32 1 0.808918 0.498456 0.349449 0 -0.000621796 -0.000106812
33 1 0.614079 0.168191 0.841701 0 -0.000656128 -5.14984e-05
34 1 0.522805 -0.0106303 0.982779 0 0.000675201 -0.0010128
35 1 0.272804 0.177297 0.982779 0 -0.000675201 -0.00102997
36 1 0.705444 0.998456 0.701004 0 -0.000617981 0.000104904
37 1 0.62611 0.498348 0.630461 0 0.000442505 -0.000583649
38 1 0.455444 0.168211 0.701004 0 0.000610352 0.000114441
39 1 0.376109 0.668319 0.630461 0 -0.00043869 -0.000574112
40 1 0.364079 0.998475 0.8417 0 0.00069809 -7.24792e-05
41 1 0.284658 0.498009 0.770622 0 -0.000112534 -0.000617981
42 1 0.114078 0.168192 0.8417 0 -0.000682831 -6.10352e-05
43 1 0.0346571 0.668659 0.770621 0 0.000112534 -0.000610352
44 1 0.0228041 -0.0106305 0.982779 0 0.000675201 -0.00102425
45 1 0.9431 0.497761 0.909818 0 -0.000156403 0.000293732
46 1 0.558919 0.668212 0.349449 0 0.000608444 -0.000123978
47 1 0.467514 0.498419 0.489987 0 7.62939e-06 0.000291824
48 1 0.217513 0.668248 0.489987 0 -9.53674e-06 0.000303268
49 1 0.126108 0.498348 0.630461 0 0.000444412 -0.000583649
50 1 0.876108 0.668319 0.630461 0 -0.000427246 -0.000587463
51 1 0.784657 0.498008 0.770621 0 -9.53674e-05 -0.000600815
52 1 0.772806 0.177296 0.98278 0 -0.000675201 -0.00101471
53 1 0.693101 0.668905 0.909818 0 0.000152588 0.000324249
54 1 0.534659 0.668659 0.770622 0 9.15527e-05 -0.000631332
55 1 0.443101 0.497762 0.909817 0 -0.000167847 0.000335693
56 1 0.1931 0.668905 0.909817 0 0.000150681 0.000320435
ITEM: TIMESTEP
7
ITEM: NUMBER OF ATOMS
56
ITEM: BOX BOUNDS xy xz yz pp pp pp
-1.6646510362625122e+00 1.2156271994113922e+01 8.9406967163085938e-07
-8.2894563674926758e-03 5.5346975326538086e+00 -1.6934797763824463e+00
-4.5665502548217773e-03 1.9024526596069336e+01 -5.9604644775390625e-08
ITEM: ATOMS id type xs ys zs fx fy fz
1 1 0.571262 0.997789 0.140628 0 -6.10352e-05 0.000114441
2 1 0.321261 0.168878 0.140628 0 5.53131e-05 9.72748e-05
3 1 0.229706 0.998005 0.279844 0 4.19617e-05 0.000108719
4 1 0.979705 0.168661 0.279844 0 -3.24249e-05 8.58307e-05
5 1 0.888255 0.998358 0.42001 0 -7.62939e-06 -0.000154495
6 1 0.0712602 0.997789 0.140628 0 -5.53131e-05 0.000108719
7 1 0.991559 0.489429 0.0676906 0 0.00030899 0.000131607
8 1 0.82126 0.168878 0.140628 0 5.72205e-05 0.000101089
9 1 0.741559 0.677237 0.0676907 0 -0.000310898 0.000133514
10 1 0.729705 0.998006 0.279844 0 3.24249e-05 9.91821e-05
11 1 0.638257 0.168309 0.42001 0 2.09808e-05 -0.000160217
12 1 0.54685 -0.00159165 0.560466 0 0.000156403 9.53674e-06
13 1 0.296849 0.168259 0.560466 0 -0.000160217 7.62939e-06
14 1 0.205443 0.998407 0.701001 0 0.000135422 -0.000165939
15 1 0.955442 0.168261 0.701001 0 -0.000144958 -0.000175476
16 1 0.864077 0.998525 0.841693 0 -0.000173569 -0.000139236
17 1 0.650286 0.498525 0.20876 0 -0.000177383 0.000114441
18 1 0.479707 0.168662 0.279844 0 -4.57764e-05 8.7738e-05
19 1 0.400285 0.668142 0.20876 0 0.000175476 0.000114441
20 1 0.388256 0.998357 0.420011 0 -1.14441e-05 -0.000160217
21 1 0.308919 0.498407 0.349452 0 0.000137329 0.000171661
22 1 0.138256 0.168309 0.42001 0 7.62939e-06 -0.000152588
23 1 0.0589185 0.66826 0.349452 0 -0.000143051 0.000171661
24 1 0.0468485 -0.00159224 0.560466 0 0.000167847 -5.72205e-06
25 1 0.967512 0.498408 0.489987 0 0.000160217 -3.8147e-06
26 1 0.796848 0.16826 0.560466 0 -0.000165939 3.8147e-06
27 1 0.717512 0.668259 0.489987 0 -0.000164032 0
28 1 0.491561 0.489429 0.0676905 0 0.000307083 0.000148773
29 1 0.24156 0.677237 0.0676907 0 -0.000297546 0.00012207
30 1 0.150284 0.498525 0.20876 0 -0.000171661 0.000133514
31 1 0.900284 0.668142 0.20876 0 0.000175476 0.000144958
32 1 0.808918 0.498407 0.349452 0 0.000144958 0.000181198
33 1 0.614078 0.168142 0.841693 0 0.000167847 -0.000148773
34 1 0.522803 -0.0105704 0.982762 0 0.000295639 -0.000131607
35 1 0.272802 0.177237 0.982762 0 -0.000305176 -0.000118256
36 1 0.705444 0.998407 0.701001 0 0.000148773 -0.000177383
37 1 0.626107 0.498358 0.630443 0 -1.14441e-05 0.000150681
38 1 0.455444 0.16826 0.701001 0 -0.000139236 -0.000177383
39 1 0.376107 0.66831 0.630443 0 3.8147e-06 0.000141144
40 1 0.364078 0.998526 0.841693 0 -0.00018692 -0.000133514
41 1 0.284656 0.498006 0.770609 0 4.57764e-05 -8.39233e-05
42 1 0.114077 0.168141 0.841693 0 0.000179291 -0.000125885
43 1 0.0346553 0.668662 0.770608 0 -4.76837e-05 -8.96454e-05
44 1 0.0228017 -0.0105705 0.982762 0 0.000299454 -0.000131607
45 1 0.943101 0.497788 0.909824 0 -5.34058e-05 -0.000102997
46 1 0.55892 0.66826 0.349452 0 -0.000141144 0.000185013
47 1 0.467514 0.498408 0.489987 0 0.000164032 5.72205e-06
48 1 0.217513 0.668259 0.489987 0 -0.000156403 -3.8147e-06
49 1 0.126106 0.498358 0.630442 0 -1.14441e-05 0.000150681
50 1 0.876105 0.66831 0.630442 0 1.52588e-05 0.000156403
51 1 0.784655 0.498006 0.770609 0 3.8147e-05 -9.53674e-05
52 1 0.772803 0.177236 0.982762 0 -0.000299454 -0.000127792
53 1 0.693102 0.668878 0.909825 0 4.95911e-05 -0.000112534
54 1 0.534657 0.668661 0.770609 0 -3.62396e-05 -7.82013e-05
55 1 0.443102 0.497788 0.909825 0 -3.8147e-05 -0.000114441
56 1 0.193101 0.668878 0.909825 0 5.72205e-05 -0.000110626
ITEM: TIMESTEP
8
ITEM: NUMBER OF ATOMS
56
ITEM: BOX BOUNDS xy xz yz pp pp pp
-1.6646510362625122e+00 1.2156271994113922e+01 8.9406967163085938e-07
-8.2894563674926758e-03 5.5346975326538086e+00 -1.6934797763824463e+00
-4.5665502548217773e-03 1.9024526596069336e+01 -5.9604644775390625e-08
ITEM: ATOMS id type xs ys zs fx fy fz
1 1 0.571262 0.997786 0.14063 0 2.67029e-05 -5.34058e-05
2 1 0.321261 0.16888 0.14063 0 -2.47955e-05 -2.86102e-05
3 1 0.229707 0.998009 0.279848 0 -2.86102e-05 -4.19617e-05
4 1 0.979706 0.168659 0.279847 0 2.86102e-05 -3.24249e-05
5 1 0.888255 0.998358 0.420008 0 5.34058e-05 4.00543e-05
6 1 0.0712605 0.997787 0.14063 0 2.47955e-05 -4.76837e-05
7 1 0.99156 0.489459 0.0676951 0 2.67029e-05 -8.96454e-05
8 1 0.82126 0.168881 0.14063 0 -2.47955e-05 -5.34058e-05
9 1 0.741559 0.677208 0.0676952 0 -1.90735e-05 -9.53674e-05
10 1 0.729705 0.998009 0.279848 0 -3.24249e-05 -4.57764e-05
11 1 0.638257 0.16831 0.420008 0 -8.39233e-05 5.91278e-05
12 1 0.54685 -0.00157985 0.560466 0 -1.52588e-05 -0.000165939
13 1 0.296849 0.168247 0.560466 0 1.52588e-05 -0.000162125
14 1 0.205442 0.998414 0.700997 0 4.00543e-05 1.33514e-05
15 1 0.955442 0.168253 0.700997 0 -2.09808e-05 1.90735e-05
16 1 0.864076 0.998515 0.841689 0 -3.62396e-05 -0.000164032
17 1 0.650286 0.498515 0.208763 0 -3.62396e-05 0.000177383
18 1 0.479707 0.168658 0.279847 0 3.8147e-05 -2.47955e-05
19 1 0.400286 0.668152 0.208763 0 4.57764e-05 0.000181198
20 1 0.388256 0.998357 0.420008 0 6.86646e-05 4.76837e-05
21 1 0.30892 0.498414 0.349456 0 2.86102e-05 -2.67029e-05
22 1 0.138255 0.168309 0.420008 0 -5.34058e-05 3.24249e-05
23 1 0.0589191 0.668253 0.349456 0 -3.24249e-05 -1.71661e-05
24 1 0.0468484 -0.00157964 0.560465 0 -1.90735e-05 -0.000150681
25 1 0.967512 0.49842 0.489987 0 -9.53674e-06 0.000156403
26 1 0.796848 0.168247 0.560466 0 1.33514e-05 -0.000156403
27 1 0.717512 0.668247 0.489987 0 2.09808e-05 0.00015831
28 1 0.491561 0.489459 0.0676954 0 1.52588e-05 -0.000108719