ITEM: TIMESTEP
0
ITEM: NUMBER OF ATOMS
32
ITEM: BOX BOUNDS xy xz yz pp pp pp
-2.4071335792541504e-03 6.3992393016815186e+00 0.0000000000000000e+00
-9.1621279716491699e-03 6.6355119347572327e+00 0.0000000000000000e+00
5.4966151714324951e-02 2.0670420289039612e+01 1.1059186458587646e+00
ITEM: ATOMS id type xs ys zs fx fy fz
1 1 0.999986 0.654357 0.0597547 0 0 0.723783
2 1 0.499986 0.654357 0.0597547 0 0 0.723783
3 1 0.249986 0.154357 0.0597528 0 0 0.724052
4 1 0.749986 0.154357 0.0597528 0 0 0.724052
5 1 0.999986 0.604451 0.309759 0 0 0.00572968
6 1 0.249986 0.463496 0.184759 0 0 0.00726318
7 1 0.749986 0.463496 0.184759 0 0 0.00726318
8 1 0.499986 0.604451 0.309759 0 0 0.00572968
9 1 0.999986 0.963496 0.184758 0 0 0.00732803
10 1 0.249986 0.10445 0.309758 0 0 0.00578499
11 1 0.499986 0.963496 0.184758 0 0 0.00732803
12 1 0.749986 0.10445 0.309758 0 0 0.00578499
13 1 0.999986 0.554518 0.559748 0 0 0.000619888
14 1 0.499986 0.554518 0.559748 0 0 0.000619888
15 1 0.249986 0.0545192 0.559748 0 0 0.000610352
16 1 0.749986 0.0545192 0.559748 0 0 0.000610352
17 1 0.249986 0.413582 0.434754 0 0 -0.000612259
18 1 0.749986 0.413582 0.434754 0 0 -0.000612259
19 1 0.999986 0.913583 0.434754 0 0 -0.000635147
20 1 0.499986 0.913583 0.434754 0 0 -0.000635147
21 1 0.999986 0.504595 0.809743 0 0 -0.00731659
22 1 0.249986 0.363647 0.684743 0 0 -0.00577736
23 1 0.499986 0.504595 0.809743 0 0 -0.00731659
24 1 0.749986 0.363647 0.684743 0 0 -0.00577736
25 1 0.999986 0.863646 0.684742 0 0 -0.00573158
26 1 0.249986 0.00459575 0.809742 0 0 -0.0072937
27 1 0.749986 0.00459575 0.809742 0 0 -0.0072937
28 1 0.499986 0.863646 0.684742 0 0 -0.00573158
29 1 0.249986 0.313732 0.934748 0 0 -0.724028
30 1 0.749986 0.313732 0.934748 0 0 -0.724028
31 1 0.999986 0.813732 0.934746 0 0 -0.723778
32 1 0.499986 0.813732 0.934746 0 0 -0.723778
ITEM: TIMESTEP
1
ITEM: NUMBER OF ATOMS
32
ITEM: BOX BOUNDS xy xz yz pp pp pp
-2.4071335792541504e-03 6.3992393016815186e+00 0.0000000000000000e+00
-9.1621279716491699e-03 6.6355119347572327e+00 0.0000000000000000e+00
5.4966151714324951e-02 2.0670420289039612e+01 1.1059186458587646e+00
ITEM: ATOMS id type xs ys zs fx fy fz
1 1 0.999986 0.653389 0.0646036 0 0 0.0283947
2 1 0.499986 0.653389 0.0646036 0 0 0.0283947
3 1 0.249986 0.153389 0.0646035 0 0 0.0283756
4 1 0.749986 0.153389 0.0646035 0 0 0.0283756
5 1 0.999986 0.604444 0.309798 0 0 0.0060215
6 1 0.249986 0.463486 0.184808 0 0 0.171259
7 1 0.749986 0.463486 0.184808 0 0 0.171259
8 1 0.499986 0.604444 0.309798 0 0 0.0060215
9 1 0.999986 0.963487 0.184807 0 0 0.171322
10 1 0.249986 0.104443 0.309797 0 0 0.00605392
11 1 0.499986 0.963487 0.184807 0 0 0.171322
12 1 0.749986 0.104443 0.309797 0 0 0.00605392
13 1 0.999986 0.554518 0.559752 0 0 -0.0029068
14 1 0.499986 0.554518 0.559752 0 0 -0.0029068
15 1 0.249986 0.0545184 0.559752 0 0 -0.00291443
16 1 0.749986 0.0545184 0.559752 0 0 -0.00291443
17 1 0.249986 0.413583 0.43475 0 0 0.00291061
18 1 0.749986 0.413583 0.43475 0 0 0.00291061
19 1 0.999986 0.913584 0.43475 0 0 0.00288963
20 1 0.499986 0.913584 0.43475 0 0 0.00288963
21 1 0.999986 0.504605 0.809694 0 0 -0.171309
22 1 0.249986 0.363654 0.684705 0 0 -0.00605965
23 1 0.499986 0.504605 0.809694 0 0 -0.171309
24 1 0.749986 0.363654 0.684705 0 0 -0.00605965
25 1 0.999986 0.863654 0.684704 0 0 -0.00602531
26 1 0.249986 0.00460551 0.809693 0 0 -0.171267
27 1 0.749986 0.00460551 0.809693 0 0 -0.171267
28 1 0.499986 0.863654 0.684704 0 0 -0.00602531
29 1 0.249986 0.314701 0.929897 0 0 -0.0283623
30 1 0.749986 0.314701 0.929897 0 0 -0.0283623
31 1 0.999986 0.8147 0.929897 0 0 -0.0283833
32 1 0.499986 0.8147 0.929897 0 0 -0.0283833
ITEM: TIMESTEP
2
ITEM: NUMBER OF ATOMS
32
ITEM: BOX BOUNDS xy xz yz pp pp pp
-2.4071335792541504e-03 6.3992393016815186e+00 0.0000000000000000e+00
-9.1621279716491699e-03 6.6355119347572327e+00 0.0000000000000000e+00
5.4966151714324951e-02 2.0670420289039612e+01 1.1059186458587646e+00
ITEM: ATOMS id type xs ys zs fx fy fz
1 1 0.999986 0.653246 0.0653174 0 0 0.0565472
2 1 0.499986 0.653246 0.0653174 0 0 0.0565472
3 1 0.249986 0.153246 0.065317 0 0 0.0565643
4 1 0.749986 0.153246 0.065317 0 0 0.0565643
5 1 0.999986 0.604422 0.309907 0 0 0.101961
6 1 0.249986 0.462875 0.18787 0 0 -0.0155296
7 1 0.749986 0.462875 0.18787 0 0 -0.0155296
8 1 0.499986 0.604422 0.309907 0 0 0.101961
9 1 0.999986 0.962875 0.18787 0 0 -0.0155487
10 1 0.249986 0.104421 0.309907 0 0 0.10198
11 1 0.499986 0.962875 0.18787 0 0 -0.0155487
12 1 0.749986 0.104421 0.309907 0 0 0.10198
13 1 0.999986 0.554528 0.5597 0 0 -0.00227928
14 1 0.499986 0.554528 0.5597 0 0 -0.00227928
15 1 0.249986 0.0545287 0.5597 0 0 -0.00226784
16 1 0.749986 0.0545287 0.5597 0 0 -0.00226784
17 1 0.249986 0.413573 0.434802 0 0 0.00226021
18 1 0.749986 0.413573 0.434802 0 0 0.00226021
19 1 0.999986 0.913574 0.434802 0 0 0.00227928
20 1 0.499986 0.913574 0.434802 0 0 0.00227928
21 1 0.999986 0.505217 0.806631 0 0 0.0155411
22 1 0.249986 0.363676 0.684595 0 0 -0.101971
23 1 0.499986 0.505217 0.806631 0 0 0.0155411
24 1 0.749986 0.363676 0.684595 0 0 -0.101971
25 1 0.999986 0.863675 0.684595 0 0 -0.101974
26 1 0.249986 0.005217 0.806631 0 0 0.0155449
27 1 0.749986 0.005217 0.806631 0 0 0.0155449
28 1 0.499986 0.863675 0.684595 0 0 -0.101974
29 1 0.249986 0.314843 0.929184 0 0 -0.0565624
30 1 0.749986 0.314843 0.929184 0 0 -0.0565624
31 1 0.999986 0.814842 0.929184 0 0 -0.0565453
32 1 0.499986 0.814842 0.929184 0 0 -0.0565453
ITEM: TIMESTEP
3
ITEM: NUMBER OF ATOMS
32
ITEM: BOX BOUNDS xy xz yz pp pp pp
-2.4071335792541504e-03 6.3992393016815186e+00 0.0000000000000000e+00
-9.1621279716491699e-03 6.6355119347572327e+00 0.0000000000000000e+00
5.4966151714324951e-02 2.0670420289039612e+01 1.1059186458587646e+00
ITEM: ATOMS id type xs ys zs fx fy fz
1 1 0.999986 0.652979 0.0666551 0 0 -0.0437717
2 1 0.499986 0.652979 0.0666551 0 0 -0.0437717
3 1 0.249986 0.152979 0.0666549 0 0 -0.0437641
4 1 0.749986 0.152979 0.0666549 0 0 -0.0437641
5 1 0.999986 0.60405 0.311766 0 0 0.0164986
6 1 0.249986 0.462643 0.189032 0 0 0.0138264
7 1 0.749986 0.462643 0.189032 0 0 0.0138264
8 1 0.499986 0.60405 0.311766 0 0 0.0164986
9 1 0.999986 0.962643 0.189032 0 0 0.0138073
10 1 0.249986 0.104049 0.311767 0 0 0.0164967
11 1 0.499986 0.962643 0.189032 0 0 0.0138073
12 1 0.749986 0.104049 0.311767 0 0 0.0164967
13 1 0.999986 0.554541 0.559635 0 0 -0.0560684
14 1 0.499986 0.554541 0.559635 0 0 -0.0560684
15 1 0.249986 0.0545416 0.559635 0 0 -0.056076
16 1 0.749986 0.0545416 0.559635 0 0 -0.056076
17 1 0.249986 0.41356 0.434866 0 0 0.0560646
18 1 0.749986 0.41356 0.434866 0 0 0.0560646
19 1 0.999986 0.913561 0.434866 0 0 0.0560837
20 1 0.499986 0.913561 0.434866 0 0 0.0560837
21 1 0.999986 0.505449 0.805469 0 0 -0.0137978
22 1 0.249986 0.364048 0.682735 0 0 -0.0165062
23 1 0.499986 0.505449 0.805469 0 0 -0.0137978
24 1 0.749986 0.364048 0.682735 0 0 -0.0165062
25 1 0.999986 0.864047 0.682735 0 0 -0.01651
26 1 0.249986 0.00544894 0.805469 0 0 -0.0138264
27 1 0.749986 0.00544894 0.805469 0 0 -0.0138302
28 1 0.499986 0.864047 0.682735 0 0 -0.01651
29 1 0.249986 0.31511 0.927846 0 0 0.0437698
30 1 0.749986 0.31511 0.927846 0 0 0.0437698
31 1 0.999986 0.815109 0.927846 0 0 0.0437756
32 1 0.499986 0.815109 0.927846 0 0 0.0437756
ITEM: TIMESTEP
4
ITEM: NUMBER OF ATOMS
32
ITEM: BOX BOUNDS xy xz yz pp pp pp
-2.4071335792541504e-03 6.3992393016815186e+00 0.0000000000000000e+00
-9.1621279716491699e-03 6.6355119347572327e+00 0.0000000000000000e+00
5.4966151714324951e-02 2.0670420289039612e+01 1.1059186458587646e+00
ITEM: ATOMS id type xs ys zs fx fy fz
1 1 0.999986 0.653004 0.0665284 1.90735e-06 0 -0.00868607
2 1 0.499986 0.653004 0.0665284 -1.90735e-06 0 -0.00868607
3 1 0.249986 0.153005 0.0665284 0 0 -0.00868607
4 1 0.749986 0.153005 0.0665284 0 0 -0.00868607
5 1 0.999986 0.603865 0.312694 0 0 0.000389099
6 1 0.249986 0.462517 0.189662 0 0 -0.00230217
7 1 0.749986 0.462517 0.189662 0 0 -0.00230217
8 1 0.499986 0.603865 0.312694 0 0 0.000389099
9 1 0.999986 0.962517 0.189662 0 0 -0.00229645
10 1 0.249986 0.103864 0.312695 0 0 0.000356674
11 1 0.499986 0.962517 0.189662 0 0 -0.00229645
12 1 0.749986 0.103864 0.312695 0 0 0.000356674
13 1 0.999986 0.554705 0.558811 0 0 -0.00423431
14 1 0.499986 0.554705 0.558811 0 0 -0.00423431
15 1 0.249986 0.0547062 0.558811 0 0 -0.00423241
16 1 0.749986 0.0547062 0.558811 0 0 -0.0042305
17 1 0.249986 0.413395 0.435691 0 0 0.00423241
18 1 0.749986 0.413395 0.435691 0 0 0.00423241
19 1 0.999986 0.913396 0.435691 0 0 0.00421715
20 1 0.499986 0.913396 0.435691 0 0 0.00421715
21 1 0.999986 0.505574 0.804839 0 0 0.00229645
22 1 0.249986 0.364233 0.681807 0 0 -0.000354767
23 1 0.499986 0.505574 0.804839 0 0 0.00229645
24 1 0.749986 0.364233 0.681807 0 0 -0.000356674
25 1 0.999986 0.864232 0.681807 1.90735e-06 0 -0.000371933
26 1 0.249986 0.00557469 0.804839 0 0 0.00229263
27 1 0.749986 0.0055747 0.804839 0 0 0.00229073
28 1 0.499986 0.864232 0.681807 -1.90735e-06 0 -0.000371933
29 1 0.249986 0.315085 0.927973 0 0 0.00870514
30 1 0.749986 0.315085 0.927973 0 0 0.00870705
31 1 0.999986 0.815084 0.927973 0 0 0.00867462
32 1 0.499986 0.815084 0.927973 0 0 0.00867462
ITEM: TIMESTEP
5
ITEM: NUMBER OF ATOMS
32
ITEM: BOX BOUNDS xy xz yz pp pp pp
-2.4071335792541504e-03 6.3992393016815186e+00 0.0000000000000000e+00
-9.1621279716491699e-03 6.6355119347572327e+00 0.0000000000000000e+00
5.4966151714324951e-02 2.0670420289039612e+01 1.1059186458587646e+00
ITEM: ATOMS id type xs ys zs fx fy fz
1 1 0.999986 0.653024 0.0664279 0 0 0.000514984
2 1 0.499986 0.653024 0.0664279 0 0 0.000514984
3 1 0.249986 0.153025 0.0664279 0 0 0.000520706
4 1 0.749986 0.153025 0.0664279 0 0 0.000516891
5 1 0.999986 0.603864 0.312699 0 0 0.000740051
6 1 0.249986 0.462522 0.189635 0 0 -0.00367928
7 1 0.749986 0.462522 0.189635 0 0 -0.00368118
8 1 0.499986 0.603864 0.312699 0 0 0.000740051
9 1 0.999986 0.962523 0.189636 -1.90735e-06 0 -0.003685
10 1 0.249986 0.103863 0.312699 0 0 0.000743866
11 1 0.499986 0.962523 0.189636 1.90735e-06 0 -0.003685
12 1 0.749986 0.103863 0.312699 0 0 0.000745773
13 1 0.999986 0.554715 0.558762 0 0 0.000761032
14 1 0.499986 0.554715 0.558762 0 0 0.000761032
15 1 0.249986 0.054716 0.558762 0 0 0.000772476
16 1 0.749986 0.054716 0.558762 0 0 0.000766754
17 1 0.249986 0.413385 0.43574 0 0 -0.000766754
18 1 0.749986 0.413385 0.43574 0 0 -0.000766754
19 1 0.999986 0.913386 0.435739 0 0 -0.000751495
20 1 0.499986 0.913386 0.435739 0 0 -0.000751495
21 1 0.999986 0.505569 0.804866 -3.8147e-06 0 0.003685
22 1 0.249986 0.364234 0.681803 0 0 -0.000749588
23 1 0.499986 0.505569 0.804866 3.8147e-06 0 0.003685
24 1 0.749986 0.364234 0.681803 0 0 -0.000751495
25 1 0.999986 0.864233 0.681803 0 0 -0.000747681
26 1 0.249986 0.0055694 0.804866 0 0 0.00367928
27 1 0.749986 0.00556941 0.804866 0 0 0.00367355
28 1 0.499986 0.864233 0.681803 0 0 -0.000747681
29 1 0.249986 0.315065 0.928074 0 0 -0.000516891
30 1 0.749986 0.315065 0.928074 0 0 -0.000518799
31 1 0.999986 0.815064 0.928073 1.90735e-06 0 -0.000511169
32 1 0.499986 0.815064 0.928073 -1.90735e-06 0 -0.000511169
ITEM: TIMESTEP
6
ITEM: NUMBER OF ATOMS
32
ITEM: BOX BOUNDS xy xz yz pp pp pp
-2.4071335792541504e-03 6.3992393016815186e+00 0.0000000000000000e+00
-9.1621279716491699e-03 6.6355119347572327e+00 0.0000000000000000e+00
5.4966151714324951e-02 2.0670420289039612e+01 1.1059186458587646e+00
ITEM: ATOMS id type xs ys zs fx fy fz
1 1 0.999986 0.653026 0.0664192 -1.90735e-06 0 -0.000246048
2 1 0.499986 0.653026 0.0664192 1.90735e-06 0 -0.000246048
3 1 0.249986 0.153026 0.0664192 0 0 -0.000244141
4 1 0.749986 0.153026 0.0664192 0 0 -0.000244141
5 1 0.999986 0.603862 0.312708 0 0 -0.00166702
6 1 0.249986 0.462532 0.189586 0 0 -0.000274658
7 1 0.749986 0.462532 0.189586 0 0 -0.000265121
8 1 0.499986 0.603862 0.312708 0 0 -0.00166702
9 1 0.999986 0.962532 0.189586 1.90735e-06 0 -0.000270844
10 1 0.249986 0.103861 0.312708 0 0 -0.00167274
11 1 0.499986 0.962532 0.189586 -1.90735e-06 0 -0.000270844
12 1 0.749986 0.103861 0.312708 0 0 -0.00167465
13 1 0.999986 0.554715 0.558764 0 0 0.000228882
14 1 0.499986 0.554715 0.558764 0 0 0.000228882
15 1 0.249986 0.0547156 0.558764 0 0 0.00022316
16 1 0.749986 0.0547156 0.558764 0 0 0.000228882
17 1 0.249986 0.413386 0.435737 0 0 -0.000240326
18 1 0.749986 0.413386 0.435737 0 0 -0.000238419
19 1 0.999986 0.913387 0.435737 -1.90735e-06 0 -0.00022316
20 1 0.499986 0.913387 0.435737 1.90735e-06 0 -0.00022316
21 1 0.999986 0.505559 0.804915 1.90735e-06 0 0.000272751
22 1 0.249986 0.364236 0.681793 0 0 0.00167847
23 1 0.499986 0.505559 0.804915 -1.90735e-06 0 0.000272751
24 1 0.749986 0.364236 0.681793 0 0 0.00168228
25 1 0.999986 0.864235 0.681793 -1.90735e-06 0 0.00167656
26 1 0.249986 0.00555953 0.804915 0 0 0.000268936
27 1 0.749986 0.00555956 0.804915 0 0 0.000272751
28 1 0.499986 0.864235 0.681793 1.90735e-06 0 0.00167656
29 1 0.249986 0.315063 0.928082 0 0 0.000238419
30 1 0.749986 0.315063 0.928082 0 0 0.000238419
31 1 0.999986 0.815062 0.928082 -1.90735e-06 0 0.000240326
32 1 0.499986 0.815062 0.928082 1.90735e-06 0 0.000240326
ITEM: TIMESTEP
7
ITEM: NUMBER OF ATOMS
32
ITEM: BOX BOUNDS xy xz yz pp pp pp
-2.4071335792541504e-03 6.3992393016815186e+00 0.0000000000000000e+00
-9.1621279716491699e-03 6.6355119347572327e+00 0.0000000000000000e+00
5.4966151714324951e-02 2.0670420289039612e+01 1.1059186458587646e+00
ITEM: ATOMS id type xs ys zs fx fy fz
1 1 0.999986 0.653029 0.0664067 0 0 -0.000196457
2 1 0.499986 0.653029 0.0664067 0 0 -0.000196457
3 1 0.249986 0.153029 0.0664069 0 0 -0.000217438
4 1 0.749986 0.153029 0.0664068 0 0 -0.00021553
5 1 0.999986 0.603872 0.312661 0 0 8.01086e-05
6 1 0.249986 0.462539 0.189551 0 0 0.000120163
7 1 0.749986 0.462539 0.189551 0 0 0.000108719
8 1 0.499986 0.603872 0.312661 0 0 8.01086e-05
9 1 0.999986 0.962539 0.189551 1.90735e-06 0 0.000108719
10 1 0.249986 0.103871 0.312661 0 0 0.00012207
11 1 0.499986 0.962539 0.189551 -1.90735e-06 0 0.000108719
12 1 0.749986 0.103871 0.312661 0 0 0.000120163
13 1 0.999986 0.554713 0.558772 -1.90735e-06 0 0.000940323
14 1 0.499986 0.554713 0.558772 1.90735e-06 0 0.000940323
15 1 0.249986 0.0547139 0.558772 0 0 0.000946045
16 1 0.749986 0.0547139 0.558772 0 0 0.00094223
17 1 0.249986 0.413388 0.435729 0 0 -0.00091362
18 1 0.749986 0.413388 0.435729 0 0 -0.000921249
19 1 0.999986 0.913388 0.435729 3.8147e-06 0 -0.000967026
20 1 0.499986 0.913388 0.435729 -3.8147e-06 0 -0.000967026
21 1 0.999986 0.505552 0.804951 0 0 -0.000101089
22 1 0.249986 0.364226 0.68184 0 0 -0.000116348
23 1 0.499986 0.505552 0.804951 0 0 -0.000101089
24 1 0.749986 0.364226 0.68184 0 0 -0.00012207
25 1 0.999986 0.864225 0.68184 0 0 -0.000108719
26 1 0.249986 0.0055525 0.804951 0 0 -9.91821e-05
27 1 0.749986 0.00555251 0.804951 0 0 -9.91821e-05
28 1 0.499986 0.864225 0.68184 0 0 -0.000108719
29 1 0.249986 0.315061 0.928095 0 0 0.000211716
30 1 0.749986 0.315061 0.928095 0 0 0.000205994
31 1 0.999986 0.81506 0.928095 3.8147e-06 0 0.000207901
32 1 0.499986 0.81506 0.928095 -3.8147e-06 0 0.000207901
ITEM: TIMESTEP
8
ITEM: NUMBER OF ATOMS
32
ITEM: BOX BOUNDS xy xz yz pp pp pp
-2.4071335792541504e-03 6.3992393016815186e+00 0.0000000000000000e+00
-9.1621279716491699e-03 6.6355119347572327e+00 0.0000000000000000e+00
5.4966151714324951e-02 2.0670420289039612e+01 1.1059186458587646e+00
ITEM: ATOMS id type xs ys zs fx fy fz
1 1 0.999986 0.653029 0.0664035 0 0 5.53131e-05
2 1 0.499986 0.653029 0.0664035 0 0 5.53131e-05
3 1 0.249986 0.15303 0.0664035 0 0 6.10352e-05
4 1 0.749986 0.15303 0.0664034 0 0 5.53131e-05
5 1 0.999986 0.603873 0.312658 0 0 -5.91278e-05
6 1 0.249986 0.462539 0.189548 0 0 5.34058e-05
7 1 0.749986 0.462539 0.189549 0 0 3.8147e-05
8 1 0.499986 0.603873 0.312658 0 0 -5.91278e-05
9 1 0.999986 0.96254 0.189548 -5.72205e-06 0 5.53131e-05
10 1 0.249986 0.103871 0.312658 0 0 -7.43866e-05
11 1 0.499986 0.96254 0.189548 5.72205e-06 0 5.53131e-05
12 1 0.749986 0.103871 0.312658 0 0 -6.29425e-05
13 1 0.999986 0.554711 0.558782 3.8147e-06 0 1.90735e-06
14 1 0.499986 0.554711 0.558782 -3.8147e-06 0 1.90735e-06
15 1 0.249986 0.0547119 0.558783 0 0 9.53674e-06
16 1 0.749986 0.0547119 0.558783 0 0 -3.8147e-06
17 1 0.249986 0.41339 0.435719 0 0 3.8147e-06
18 1 0.749986 0.41339 0.435719 0 0 1.90735e-06
19 1 0.999986 0.913391 0.435719 0 0 -5.72205e-06
20 1 0.499986 0.913391 0.435719 0 0 -5.72205e-06
21 1 0.999986 0.505552 0.804953 -1.90735e-06 0 -6.48499e-05
22 1 0.249986 0.364226 0.681844 0 0 4.76837e-05
23 1 0.499986 0.505552 0.804953 1.90735e-06 0 -6.48499e-05
24 1 0.749986 0.364226 0.681844 0 0 5.72205e-05
25 1 0.999986 0.864225 0.681844 1.90735e-06 0 5.72205e-05
26 1 0.249986 0.00555202 0.804953 0 0 -4.3869e-05
27 1 0.749986 0.00555204 0.804953 0 0 -3.24249e-05
28 1 0.499986 0.864225 0.681844 -1.90735e-06 0 5.72205e-05
29 1 0.249986 0.31506 0.928098 0 0 -4.95911e-05
30 1 0.749986 0.31506 0.928098 0 0 -4.95911e-05
31 1 0.999986 0.815059 0.928098 0 0 -4.57764e-05
32 1 0.499986 0.815059 0.928098 0 0 -4.57764e-05
ITEM: TIMESTEP
9
ITEM: NUMBER OF ATOMS
32
ITEM: BOX BOUNDS xy xz yz pp pp pp
-2.4071335792541504e-03 6.3992393016815186e+00 0.0000000000000000e+00
-9.1621279716491699e-03 6.6355119347572327e+00 0.0000000000000000e+00
5.4966151714324951e-02 2.0670420289039612e+01 1.1059186458587646e+00
ITEM: ATOMS id type xs ys zs fx fy fz
1 1 0.999986 0.653029 0.0664035 0 0 5.53131e-05
2 1 0.499986 0.653029 0.0664035 0 0 5.53131e-05
3 1 0.249986 0.15303 0.0664035 0 0 6.10352e-05
4 1 0.749986 0.15303 0.0664034 0 0 5.53131e-05
5 1 0.999986 0.603873 0.312658 0 0 -5.91278e-05
6 1 0.249986 0.462539 0.189548 0 0 5.34058e-05
7 1 0.749986 0.462539 0.189549 0 0 3.8147e-05
8 1 0.499986 0.603873 0.312658 0 0 -5.91278e-05
9 1 0.999986 0.96254 0.189548 -5.72205e-06 0 5.53131e-05
10 1 0.249986 0.103871 0.312658 0 0 -7.43866e-05
11 1 0.499986 0.96254 0.189548 5.72205e-06 0 5.53131e-05
12 1 0.749986 0.103871 0.312658 0 0 -6.29425e-05
13 1 0.999986 0.554711 0.558782 3.8147e-06 0 1.90735e-06
14 1 0.499986 0.554711 0.558782 -3.8147e-06 0 1.90735e-06
15 1 0.249986 0.0547119 0.558783 0 0 9.53674e-06
16 1 0.749986 0.0547119 0.558783 0 0 -3.8147e-06
17 1 0.249986 0.41339 0.435719 0 0 3.8147e-06
18 1 0.749986 0.41339 0.435719 0 0 1.90735e-06
19 1 0.999986 0.913391 0.435719 0 0 -5.72205e-06
20 1 0.499986 0.913391 0.435719 0 0 -5.72205e-06
21 1 0.999986 0.505552 0.804953 -1.90735e-06 0 -6.48499e-05
22 1 0.249986 0.364226 0.681844 0 0 4.76837e-05
23 1 0.499986 0.505552 0.804953 1.90735e-06 0 -6.48499e-05
24 1 0.749986 0.364226 0.681844 0 0 5.72205e-05
25 1 0.999986 0.864225 0.681844 1.90735e-06 0 5.72205e-05
26 1 0.249986 0.00555202 0.804953 0 0 -4.3869e-05
27 1 0.749986 0.00555204 0.804953 0 0 -3.24249e-05
28 1 0.499986 0.864225 0.681844 -1.90735e-06 0 5.72205e-05
29 1 0.249986 0.31506 0.928098 0 0 -4.95911e-05
30 1 0.749986 0.31506 0.928098 0 0 -4.95911e-05
31 1 0.999986 0.815059 0.928098 0 0 -4.57764e-05
32 1 0.499986 0.815059 0.928098 0 0 -4.57764e-05
