ITEM: TIMESTEP
0
ITEM: NUMBER OF ATOMS
48
ITEM: BOX BOUNDS xy xz yz pp pp pp
-3.8019290566444397e+00 8.6109705567359924e+00 2.5110912919044495e+00
-1.0506033897399902e-02 9.6185076832771301e+00 -3.7873722314834595e+00
-2.6944518089294434e-02 1.9544072151184082e+01 3.6519104242324829e-01
ITEM: ATOMS id type xs ys zs fx fy fz
5 1 0.291227 0.158632 0.802832 0 0 4.19617e-05
6 1 0.0411283 0.040578 0.906998 0 0 -0.230351
13 1 0.241842 0.290578 0.156998 0 0 -4.24385e-05
19 1 0.291227 0.491965 0.802832 0 0 4.22001e-05
20 1 0.0411283 0.373911 0.906998 0 0 -0.230351
22 1 0.141485 0.332245 0.531998 0 0 -1.84774e-05
26 1 0.0917036 0.325298 0.302832 0 0 -3.31402e-05
29 1 0.241842 0.623911 0.156998 0 0 -4.25577e-05
35 1 0.291227 0.825298 0.802832 0 0 4.25577e-05
36 1 0.0411283 0.707245 0.906998 0 0 -0.230351
38 1 0.141485 0.665578 0.531998 0 0 -1.96695e-05
42 1 0.0917036 0.658632 0.302832 0 0 -3.27826e-05
45 1 0.241842 0.957245 0.156998 0 0 -4.25577e-05
47 1 0.141485 0.998911 0.531998 0 0 -1.91927e-05
48 1 0.0917036 0.991965 0.302832 0 0 -3.27826e-05
1 1 0.941962 0.165578 0.0319985 0 0 0.944315
2 1 0.491942 0.0752984 0.0528317 0 0 0.23035
3 1 0.441366 0.123911 0.656998 0 0 3.3021e-05
4 1 0.591108 0.950298 0.927832 0 0 -0.944314
7 1 0.741247 0.248911 0.781998 0 0 -0.00250459
8 1 0.841604 0.207245 0.406998 0 0 0.00121272
9 1 0.991346 0.0336318 0.677832 0 0 -0.00240159
10 1 0.691466 0.241965 0.552832 0 0 -0.00121236
11 1 0.791823 0.200298 0.177832 0 0 0.00250471
12 1 0.541723 0.0822446 0.281998 0 0 0.00240171
14 1 0.391585 0.116965 0.427832 0 0 1.94311e-05
15 1 0.941962 0.498911 0.0319984 0 0 0.944316
16 1 0.491942 0.408632 0.0528317 0 0 0.230351
17 1 0.441366 0.457245 0.656998 0 0 3.26633e-05
18 1 0.591108 0.283632 0.927832 0 0 -0.944314
21 1 0.741247 0.582245 0.781998 0 0 -0.00250542
23 1 0.841604 0.540578 0.406998 0 0 0.00121272
24 1 0.991346 0.366965 0.677832 0 0 -0.00240135
25 1 0.691466 0.575298 0.552832 0 0 -0.00121284
27 1 0.791823 0.533632 0.177832 0 0 0.00250435
28 1 0.541723 0.415578 0.281998 0 0 0.00240159
30 1 0.391585 0.450298 0.427832 0 0 1.88351e-05
31 1 0.941962 0.832245 0.0319985 0 0 0.944315
32 1 0.491942 0.741965 0.0528317 0 0 0.230351
33 1 0.441366 0.790578 0.656998 0 0 3.29018e-05
34 1 0.591108 0.616965 0.927832 0 0 -0.944315
37 1 0.741247 0.915578 0.781998 0 0 -0.00250554
39 1 0.841604 0.873911 0.406998 0 0 0.00121295
40 1 0.991346 0.700298 0.677832 0 0 -0.00240076
41 1 0.691466 0.908632 0.552832 0 0 -0.00121367
43 1 0.791823 0.866965 0.177832 0 0 0.00250483
44 1 0.541723 0.748911 0.281998 0 0 0.00240147
46 1 0.391585 0.783632 0.427832 0 0 1.94311e-05
ITEM: TIMESTEP
1
ITEM: NUMBER OF ATOMS
48
ITEM: BOX BOUNDS xy xz yz pp pp pp
-3.8019290566444397e+00 8.6109705567359924e+00 2.5110912919044495e+00
-1.0506033897399902e-02 9.6185076832771301e+00 -3.7873722314834595e+00
-2.6944518089294434e-02 1.9544072151184082e+01 3.6519104242324829e-01
ITEM: ATOMS id type xs ys zs fx fy fz
5 1 0.291228 0.158632 0.802832 0 0 -0.088604
6 1 0.0403361 0.0406271 0.905752 0 0 -0.00736582
13 1 0.241842 0.290578 0.156998 0 0 0.0886043
19 1 0.291228 0.491965 0.802832 0 0 -0.088604
20 1 0.0403361 0.37396 0.905752 0 0 -0.00736582
22 1 0.141485 0.332245 0.531998 0 0 0.00114942
26 1 0.0917035 0.325298 0.302832 0 0 0.00751603
29 1 0.241842 0.623911 0.156998 0 0 0.0886041
35 1 0.291228 0.825298 0.802832 0 0 -0.0886039
36 1 0.0403361 0.707294 0.905752 0 0 -0.00736582
38 1 0.141485 0.665578 0.531998 0 0 0.0011493
42 1 0.0917035 0.658632 0.302832 0 0 0.00751615
45 1 0.241842 0.957245 0.156998 0 0 0.088604
47 1 0.141485 0.998911 0.531998 0 0 0.00114942
48 1 0.0917035 0.991965 0.302832 0 0 0.00751615
1 1 0.945209 0.165377 0.0371081 0 0 0.314968
2 1 0.492734 0.0752493 0.0540781 0 0 0.00736582
3 1 0.441366 0.123911 0.656999 0 0 -0.00751626
4 1 0.587861 0.9505 0.922722 0 0 -0.314967
7 1 0.741239 0.248912 0.781985 0 0 -0.0743273
8 1 0.841609 0.207244 0.407005 0 0 -0.000635982
9 1 0.991338 0.0336323 0.677819 0 0 -0.00915158
10 1 0.691461 0.241965 0.552825 0 0 0.000635862
11 1 0.791831 0.200298 0.177845 0 0 0.0743271
12 1 0.541732 0.0822441 0.282011 0 0 0.00915146
14 1 0.391585 0.116965 0.427832 0 0 -0.0011493
15 1 0.945209 0.49871 0.037108 0 0 0.314968
16 1 0.492734 0.408583 0.0540781 0 0 0.00736547
17 1 0.441366 0.457245 0.656999 0 0 -0.00751615
18 1 0.587861 0.283833 0.922722 0 0 -0.314968
21 1 0.741239 0.582245 0.781985 0 0 -0.0743276
23 1 0.841609 0.540578 0.407005 0 0 -0.00063622
24 1 0.991338 0.366966 0.677819 0 0 -0.00915122
25 1 0.691461 0.575299 0.552825 0 0 0.000635743
27 1 0.791831 0.533631 0.177845 0 0 0.0743269
28 1 0.541732 0.415577 0.282011 0 0 0.00915158
30 1 0.391585 0.450298 0.427832 0 0 -0.00114918
31 1 0.945209 0.832043 0.037108 0 0 0.314968
32 1 0.492734 0.741916 0.0540781 0 0 0.00736547
33 1 0.441366 0.790578 0.656999 0 0 -0.00751615
34 1 0.587861 0.617167 0.922722 0 0 -0.314968
37 1 0.741239 0.915579 0.781985 0 0 -0.0743276
39 1 0.841609 0.873911 0.407005 0 0 -0.000635386
40 1 0.991338 0.700299 0.677819 0 0 -0.00915122
41 1 0.691461 0.908632 0.552825 0 0 0.000635266
43 1 0.791831 0.866964 0.177845 0 0 0.0743272
44 1 0.541732 0.748911 0.282011 0 0 0.0091517
46 1 0.391585 0.783632 0.427832 0 0 -0.00114906
ITEM: TIMESTEP
2
ITEM: NUMBER OF ATOMS
48
ITEM: BOX BOUNDS xy xz yz pp pp pp
-3.8019290566444397e+00 8.6109705567359924e+00 2.5110912919044495e+00
-1.0506033897399902e-02 9.6185076832771301e+00 -3.7873722314834595e+00
-2.6944518089294434e-02 1.9544072151184082e+01 3.6519104242324829e-01
ITEM: ATOMS id type xs ys zs fx fy fz
5 1 0.29051 0.158676 0.801702 0 0 -0.101302
6 1 0.0402764 0.0406308 0.905658 0 0 0.072089
13 1 0.24256 0.290533 0.158128 0 0 0.101301
19 1 0.29051 0.49201 0.801702 0 0 -0.101302
20 1 0.0402764 0.373964 0.905658 0 0 0.0720892
22 1 0.141495 0.332244 0.532013 0 0 -0.004022
26 1 0.0917644 0.325295 0.302927 0 0 0.027714
29 1 0.24256 0.623867 0.158128 0 0 0.101302
35 1 0.29051 0.825343 0.801702 0 0 -0.101302
36 1 0.0402764 0.707297 0.905658 0 0 0.0720888
38 1 0.141495 0.665577 0.532013 0 0 -0.00402224
42 1 0.0917644 0.658628 0.302927 0 0 0.0277139
45 1 0.24256 0.9572 0.158128 0 0 0.101302
47 1 0.141495 0.998911 0.532013 0 0 -0.00402224
48 1 0.0917644 0.991961 0.302927 0 0 0.0277141
1 1 0.947761 0.165218 0.0411231 0 0 -0.0563843
2 1 0.492793 0.0752456 0.054172 0 0 -0.0720888
3 1 0.441305 0.123915 0.656903 0 0 -0.027714
4 1 0.585309 0.950658 0.918707 0 0 0.0563841
7 1 0.740636 0.248949 0.781037 0 0 -0.0825957
8 1 0.841603 0.207245 0.406997 0 0 0.00312388
9 1 0.991264 0.0336369 0.677702 0 0 -0.0306044
10 1 0.691466 0.241965 0.552833 0 0 -0.003124
11 1 0.792433 0.20026 0.178793 0 0 0.0825961
12 1 0.541806 0.0822395 0.282128 0 0 0.0306042
14 1 0.391575 0.116966 0.427817 0 0 0.00402248
15 1 0.947761 0.498552 0.0411231 0 0 -0.0563843
16 1 0.492793 0.408579 0.054172 0 0 -0.0720888
17 1 0.441305 0.457248 0.656903 0 0 -0.027714
18 1 0.585309 0.283991 0.918707 0 0 0.0563844
21 1 0.740636 0.582283 0.781037 0 0 -0.0825958
23 1 0.841603 0.540578 0.406997 0 0 0.00312388
24 1 0.991264 0.36697 0.677702 0 0 -0.0306041
25 1 0.691466 0.575298 0.552833 0 0 -0.00312364
27 1 0.792433 0.533594 0.178793 0 0 0.0825961
28 1 0.541806 0.415573 0.282128 0 0 0.0306041
30 1 0.391575 0.450299 0.427817 0 0 0.004022
31 1 0.947761 0.831885 0.0411231 0 0 -0.0563842
32 1 0.492793 0.741912 0.054172 0 0 -0.0720888
33 1 0.441305 0.790582 0.656903 0 0 -0.0277141
34 1 0.585309 0.617325 0.918707 0 0 0.0563843
37 1 0.740636 0.915616 0.781037 0 0 -0.0825958
39 1 0.841603 0.873911 0.406997 0 0 0.00312412
40 1 0.991264 0.700304 0.677702 0 0 -0.0306041
41 1 0.691466 0.908632 0.552833 0 0 -0.003124
43 1 0.792433 0.866927 0.178793 0 0 0.0825958
44 1 0.541806 0.748906 0.282128 0 0 0.0306046
46 1 0.391575 0.783632 0.427817 0 0 0.00402176
ITEM: TIMESTEP
3
ITEM: NUMBER OF ATOMS
48
ITEM: BOX BOUNDS xy xz yz pp pp pp
-3.8019290566444397e+00 8.6109705567359924e+00 2.5110912919044495e+00
-1.0506033897399902e-02 9.6185076832771301e+00 -3.7873722314834595e+00
-2.6944518089294434e-02 1.9544072151184082e+01 3.6519104242324829e-01
ITEM: ATOMS id type xs ys zs fx fy fz
5 1 0.28907 0.158766 0.799437 0 0 0.0133542
6 1 0.0410858 0.0405806 0.906932 0 0 -0.018029
13 1 0.244 0.290444 0.160393 0 0 -0.0133537
19 1 0.28907 0.492099 0.799437 0 0 0.0133544
20 1 0.0410858 0.373914 0.906932 0 0 -0.0180289
22 1 0.141452 0.332247 0.531946 0 0 -0.0168297
26 1 0.0921072 0.325273 0.303467 0 0 0.0507818
29 1 0.244 0.623777 0.160393 0 0 -0.0133537
35 1 0.28907 0.825432 0.799437 0 0 0.0133541
36 1 0.0410858 0.707247 0.906932 0 0 -0.0180287
38 1 0.141452 0.66558 0.531946 0 0 -0.0168293
42 1 0.0921072 0.658607 0.303467 0 0 0.0507818
45 1 0.244 0.957111 0.160393 0 0 -0.0133538
47 1 0.141452 0.998913 0.531946 0 0 -0.0168304
48 1 0.0921072 0.99194 0.303467 0 0 0.0507816
1 1 0.948074 0.165199 0.0416147 0 0 -0.00226927
2 1 0.491984 0.0752958 0.0528986 0 0 0.0180286
3 1 0.440963 0.123936 0.656364 0 0 -0.0507816
4 1 0.584996 0.950678 0.918215 0 0 0.00226915
7 1 0.739456 0.249022 0.77918 0 0 0.0142788
8 1 0.841637 0.207243 0.407051 0 0 0.0144095
9 1 0.990883 0.0336605 0.677102 0 0 -0.0505948
10 1 0.691432 0.241967 0.55278 0 0 -0.0144094
11 1 0.793614 0.200187 0.18065 0 0 -0.014279
12 1 0.542187 0.0822159 0.282728 0 0 0.050595
14 1 0.391618 0.116963 0.427885 0 0 0.0168298
15 1 0.948074 0.498532 0.0416147 0 0 -0.00226927
16 1 0.491984 0.408629 0.0528986 0 0 0.0180289
17 1 0.440963 0.45727 0.656364 0 0 -0.0507817
18 1 0.584996 0.284011 0.918215 0 0 0.00226879
21 1 0.739456 0.582356 0.77918 0 0 0.0142789
23 1 0.841637 0.540576 0.407051 0 0 0.0144097
24 1 0.990883 0.366994 0.677102 0 0 -0.050595
25 1 0.691432 0.5753 0.55278 0 0 -0.0144099
27 1 0.793614 0.533521 0.18065 0 0 -0.014279
28 1 0.542187 0.415549 0.282728 0 0 0.0505949
30 1 0.391618 0.450296 0.427885 0 0 0.0168297
31 1 0.948074 0.831866 0.0416147 0 0 -0.00226939
32 1 0.491984 0.741962 0.0528986 0 0 0.0180289
33 1 0.440963 0.790603 0.656364 0 0 -0.0507816
34 1 0.584996 0.617344 0.918215 0 0 0.00226879
37 1 0.739456 0.915689 0.77918 0 0 0.0142789
39 1 0.841637 0.873909 0.407051 0 0 0.0144094
40 1 0.990883 0.700327 0.677102 0 0 -0.0505952
41 1 0.691432 0.908634 0.55278 0 0 -0.0144094
43 1 0.793614 0.866854 0.18065 0 0 -0.0142787
44 1 0.542187 0.748883 0.282728 0 0 0.0505948
46 1 0.391618 0.78363 0.427885 0 0 0.01683
ITEM: TIMESTEP
4
ITEM: NUMBER OF ATOMS
48
ITEM: BOX BOUNDS xy xz yz pp pp pp
-3.8019290566444397e+00 8.6109705567359924e+00 2.5110912919044495e+00
-1.0506033897399902e-02 9.6185076832771301e+00 -3.7873722314834595e+00
-2.6944518089294434e-02 1.9544072151184082e+01 3.6519104242324829e-01
ITEM: ATOMS id type xs ys zs fx fy fz
5 1 0.288766 0.158784 0.79896 0 0 -0.000941992
6 1 0.0410853 0.0405806 0.906931 0 0 -0.0252289
13 1 0.244303 0.290425 0.16087 0 0 0.000941873
19 1 0.288766 0.492118 0.79896 0 0 -0.000942469
20 1 0.0410853 0.373914 0.906931 0 0 -0.025229
22 1 0.141163 0.332265 0.531491 0 0 -0.0194598
26 1 0.0930562 0.325214 0.30496 0 0 -0.00515938
29 1 0.244303 0.623759 0.16087 0 0 0.000942111
35 1 0.288766 0.825451 0.79896 0 0 -0.000941873
36 1 0.0410853 0.707247 0.906931 0 0 -0.0252287
38 1 0.141163 0.665598 0.531491 0 0 -0.0194602
42 1 0.0930562 0.658548 0.30496 0 0 -0.00515914
45 1 0.244303 0.957092 0.16087 0 0 0.000941873
47 1 0.141163 0.998931 0.531491 0 0 -0.0194588
48 1 0.0930562 0.991881 0.30496 0 0 -0.00515878
1 1 0.94815 0.165194 0.0417343 0 0 0.00107801
2 1 0.491985 0.0752957 0.0528994 0 0 0.0252287
3 1 0.440014 0.123995 0.65487 0 0 0.00515878
4 1 0.58492 0.950682 0.918096 0 0 -0.00107753
7 1 0.739261 0.249035 0.778874 0 0 -0.00730264
8 1 0.841884 0.207227 0.407438 0 0 0.0172129
9 1 0.989923 0.03372 0.675592 0 0 0.00765347
10 1 0.691186 0.241982 0.552392 0 0 -0.0172127
11 1 0.793808 0.200175 0.180956 0 0 0.0073024
12 1 0.543147 0.0821563 0.284238 0 0 -0.00765371
14 1 0.391907 0.116945 0.428339 0 0 0.0194596
15 1 0.94815 0.498527 0.0417343 0 0 0.00107765
16 1 0.491985 0.408629 0.0528994 0 0 0.0252287
17 1 0.440014 0.457329 0.65487 0 0 0.00515938
18 1 0.58492 0.284016 0.918096 0 0 -0.00107729
21 1 0.739261 0.582368 0.778874 0 0 -0.00730264
23 1 0.841884 0.540561 0.407438 0 0 0.017213
24 1 0.989923 0.367053 0.675592 0 0 0.00765395
25 1 0.691186 0.575316 0.552392 0 0 -0.0172127
27 1 0.793808 0.533509 0.180956 0 0 0.0073024
28 1 0.543147 0.41549 0.284238 0 0 -0.00765407
30 1 0.391907 0.450278 0.428339 0 0 0.01946
31 1 0.94815 0.831861 0.0417343 0 0 0.00107789
32 1 0.491985 0.741962 0.0528994 0 0 0.0252287
33 1 0.440014 0.790662 0.65487 0 0 0.0051589
34 1 0.58492 0.617349 0.918096 0 0 -0.00107718
37 1 0.739261 0.915701 0.778874 0 0 -0.00730264
39 1 0.841884 0.873894 0.407438 0 0 0.0172126
40 1 0.989923 0.700387 0.675592 0 0 0.00765395
41 1 0.691186 0.908649 0.552392 0 0 -0.0172125
43 1 0.793808 0.866842 0.180956 0 0 0.00730228
44 1 0.543147 0.748823 0.284238 0 0 -0.00765419
46 1 0.391907 0.783612 0.428339 0 0 0.0194597
ITEM: TIMESTEP
5
ITEM: NUMBER OF ATOMS
48
ITEM: BOX BOUNDS xy xz yz pp pp pp
-3.8019290566444397e+00 8.6109705567359924e+00 2.5110912919044495e+00
-1.0506033897399902e-02 9.6185076832771301e+00 -3.7873722314834595e+00
-2.6944518089294434e-02 1.9544072151184082e+01 3.6519104242324829e-01
ITEM: ATOMS id type xs ys zs fx fy fz
5 1 0.288719 0.158787 0.798886 0 0 -0.00313103
6 1 0.040818 0.0405972 0.90651 0 0 -0.00825107
13 1 0.244351 0.290422 0.160944 0 0 0.00313056
19 1 0.288719 0.492121 0.798886 0 0 -0.00313079
20 1 0.040818 0.373931 0.90651 0 0 -0.00825167
22 1 0.140921 0.33228 0.531111 0 0 0.00591481
26 1 0.0931177 0.325211 0.305056 0 0 0.00151861
29 1 0.244351 0.623756 0.160944 0 0 0.00313032
35 1 0.288719 0.825454 0.798886 0 0 -0.00313115
36 1 0.040818 0.707264 0.90651 0 0 -0.00825131
38 1 0.140921 0.665613 0.531111 0 0 0.00591481
42 1 0.0931176 0.658544 0.305056 0 0 0.00151849
45 1 0.244351 0.957089 0.160944 0 0 0.00313091
47 1 0.140921 0.998946 0.531111 0 0 0.00591469
48 1 0.0931176 0.991877 0.305056 0 0 0.00151825
1 1 0.94817 0.165193 0.0417669 0 0 -0.00802493
2 1 0.492252 0.0752792 0.0533199 0 0 0.00825131
3 1 0.439952 0.123999 0.654774 0 0 -0.00151801
4 1 0.584899 0.950684 0.918063 0 0 0.00802457
7 1 0.73916 0.249041 0.778715 0 0 -0.00707042
8 1 0.842096 0.207214 0.407773 0 0 -0.00681329
9 1 0.989887 0.0337223 0.675535 0 0 -0.000282645
10 1 0.690973 0.241996 0.552058 0 0 0.00681365
11 1 0.793909 0.200169 0.181115 0 0 0.00707102
12 1 0.543183 0.0821541 0.284295 0 0 0.000282407
14 1 0.392149 0.11693 0.428719 0 0 -0.00591505
15 1 0.948171 0.498526 0.0417669 0 0 -0.00802445
16 1 0.492252 0.408612 0.0533199 0 0 0.00825131
17 1 0.439952 0.457332 0.654774 0 0 -0.00151861
18 1 0.584899 0.284017 0.918063 0 0 0.00802469
21 1 0.73916 0.582374 0.778715 0 0 -0.00707054
23 1 0.842096 0.540547 0.407773 0 0 -0.00681388
24 1 0.989887 0.367056 0.675535 0 0 -0.000282764
25 1 0.690973 0.575329 0.552058 0 0 0.00681388
27 1 0.793909 0.533502 0.181115 0 0 0.00707078
28 1 0.543183 0.415487 0.284295 0 0 0.000282407
30 1 0.392149 0.450263 0.428719 0 0 -0.00591481
31 1 0.94817 0.83186 0.0417669 0 0 -0.00802445
32 1 0.492252 0.741946 0.0533199 0 0 0.00825179
33 1 0.439952 0.790666 0.654774 0 0 -0.00151837
34 1 0.584899 0.61735 0.918063 0 0 0.00802445
37 1 0.73916 0.915707 0.778715 0 0 -0.00707066
39 1 0.842096 0.873881 0.407773 0 0 -0.00681376
40 1 0.989887 0.700389 0.675535 0 0 -0.000282288
41 1 0.690973 0.908662 0.552058 0 0 0.00681365
43 1 0.79391 0.866836 0.181115 0 0 0.00707042
44 1 0.543183 0.748821 0.284295 0 0 0.000282645
46 1 0.392149 0.783597 0.428719 0 0 -0.00591445
ITEM: TIMESTEP
6
ITEM: NUMBER OF ATOMS
48
ITEM: BOX BOUNDS xy xz yz pp pp pp
-3.8019290566444397e+00 8.6109705567359924e+00 2.5110912919044495e+00
-1.0506033897399902e-02 9.6185076832771301e+00 -3.7873722314834595e+00
-2.6944518089294434e-02 1.9544072151184082e+01 3.6519104242324829e-01
ITEM: ATOMS id type xs ys zs fx fy fz
5 1 0.288665 0.158791 0.798801 0 0 0.00154126
6 1 0.0406414 0.0406082 0.906232 0 0 -0.00279856
13 1 0.244405 0.290419 0.16103 0 0 -0.00154114
19 1 0.288665 0.492124 0.798801 0 0 0.00154126
20 1 0.0406414 0.373942 0.906232 0 0 -0.00279844
22 1 0.140945 0.332278 0.531149 0 0 0.00139594
26 1 0.093153 0.325208 0.305112 0 0 0.00144267
29 1 0.244405 0.623752 0.16103 0 0 -0.00154138
35 1 0.288665 0.825457 0.798801 0 0 0.00154161
36 1 0.0406414 0.707275 0.906232 0 0 -0.00279832
38 1 0.140945 0.665611 0.531149 0 0 0.00139594
42 1 0.093153 0.658542 0.305112 0 0 0.00144279
45 1 0.244405 0.957086 0.16103 0 0 -0.0015415
47 1 0.140945 0.998945 0.531149 0 0 0.00139582
48 1 0.093153 0.991875 0.305112 0 0 0.00144279
1 1 0.948065 0.165199 0.0416011 0 0 0.00449717
2 1 0.492428 0.0752682 0.0535977 0 0 0.0027982
3 1 0.439917 0.124001 0.654718 0 0 -0.00144267
4 1 0.585005 0.950677 0.918229 0 0 -0.00449705
7 1 0.739039 0.249048 0.778525 0 0 0.000894904
8 1 0.842053 0.207217 0.407704 0 0 -0.00120866
9 1 0.989874 0.0337231 0.675515 0 0 -0.00109255
10 1 0.691017 0.241993 0.552126 0 0 0.00120807
11 1 0.794031 0.200161 0.181306 0 0 -0.000895262
12 1 0.543196 0.0821533 0.284315 0 0 0.00109291
14 1 0.392124 0.116932 0.428681 0 0 -0.00139534
15 1 0.948065 0.498533 0.0416011 0 0 0.00449681
16 1 0.492428 0.408602 0.0535977 0 0 0.00279868
17 1 0.439917 0.457335 0.654718 0 0 -0.00144291
18 1 0.585005 0.28401 0.918229 0 0 -0.00449729
21 1 0.739039 0.582382 0.778525 0 0 0.000894785
23 1 0.842053 0.54055 0.407704 0 0 -0.00120842
24 1 0.989874 0.367056 0.675515 0 0 -0.00109279
25 1 0.691017 0.575326 0.552126 0 0 0.00120878
27 1 0.794031 0.533495 0.181306 0 0 -0.000894785
28 1 0.543196 0.415487 0.284315 0 0 0.00109339
30 1 0.392124 0.450265 0.428681 0 0 -0.00139618
31 1 0.948065 0.831866 0.0416011 0 0 0.00449693
32 1 0.492428 0.741935 0.0535978 0 0 0.0027982
33 1 0.439917 0.790668 0.654718 0 0 -0.00144279
34 1 0.585005 0.617344 0.918229 0 0 -0.00449693
37 1 0.739039 0.915715 0.778525 0 0 0.000895143
39 1 0.842053 0.873883 0.407704 0 0 -0.00120819
40 1 0.989874 0.70039 0.675515 0 0 -0.00109291
41 1 0.691017 0.90866 0.552126 0 0 0.00120831
43 1 0.794031 0.866828 0.181306 0 0 -0.000894785
44 1 0.543196 0.74882 0.284315 0 0 0.00109291
46 1 0.392124 0.783598 0.428681 0 0 -0.00139642
ITEM: TIMESTEP
7
ITEM: NUMBER OF ATOMS
48
ITEM: BOX BOUNDS xy xz yz pp pp pp
-3.8019290566444397e+00 8.6109705567359924e+00 2.5110912919044495e+00
-1.0506033897399902e-02 9.6185076832771301e+00 -3.7873722314834595e+00
-2.6944518089294434e-02 1.9544072151184082e+01 3.6519104242324829e-01
ITEM: ATOMS id type xs ys zs fx fy fz
5 1 0.288671 0.15879 0.79881 0 0 -0.000252843
6 1 0.0406102 0.0406101 0.906183 0 0 9.52482e-05
13 1 0.244399 0.290419 0.16102 0 0 0.000253201
19 1 0.288671 0.492124 0.79881 0 0 -0.000253081
20 1 0.0406102 0.373943 0.906183 0 0 9.56059e-05
22 1 0.140956 0.332277 0.531166 0 0 -0.000232935
26 1 0.0931651 0.325208 0.305131 0 0 0.000161886
29 1 0.244399 0.623753 0.16102 0 0 0.00025332
35 1 0.288671 0.825457 0.79881 0 0 -0.000253201
36 1 0.0406102 0.707277 0.906183 0 0 9.52482e-05
38 1 0.140956 0.665611 0.531166 0 0 -0.000233293
42 1 0.093165 0.658541 0.305131 0 0 0.000161648
45 1 0.244399 0.957086 0.16102 0 0 0.00025332
47 1 0.140956 0.998944 0.531166 0 0 -0.000233173
48 1 0.093165 0.991874 0.305131 0 0 0.000161886
1 1 0.948087 0.165198 0.0416349 0 0 0.000344753
2 1 0.49246 0.0752663 0.0536469 0 0 -9.5129e-05
3 1 0.439905 0.124002 0.654699 0 0 -0.000162125
4 1 0.584983 0.950678 0.918195 0 0 -0.000344276
7 1 0.739036 0.249048 0.77852 0 0 -0.000261188
8 1 0.842042 0.207217 0.407687 0 0 0.000388741
9 1 0.989866 0.0337236 0.675503 0 0 -5.26905e-05
10 1 0.691028 0.241992 0.552143 0 0 -0.00038898
11 1 0.794034 0.200161 0.18131 0 0 0.000261188
12 1 0.543204 0.0821528 0.284327 0 0 5.28097e-05
14 1 0.392113 0.116932 0.428664 0 0 0.000232697
15 1 0.948087 0.498531 0.0416349 0 0 0.000343919
16 1 0.49246 0.4086 0.0536469 0 0 -9.53674e-05
17 1 0.439905 0.457335 0.654699 0 0 -0.000161648
18 1 0.584983 0.284012 0.918195 0 0 -0.000344634
21 1 0.739036 0.582382 0.77852 0 0 -0.00026083
23 1 0.842042 0.540551 0.407687 0 0 0.000389338
24 1 0.989866 0.367057 0.675503 0 0 -5.26905e-05
25 1 0.691028 0.575326 0.552143 0 0 -0.000389576
27 1 0.794034 0.533495 0.18131 0 0 0.000261188
28 1 0.543204 0.415486 0.284327 0 0 5.29289e-05
30 1 0.392113 0.450266 0.428664 0 0 0.000233293
31 1 0.948087 0.831865 0.0416349 0 0 0.000344038
32 1 0.49246 0.741933 0.0536469 0 0 -9.56059e-05
33 1 0.439905 0.790669 0.654699 0 0 -0.000161648
34 1 0.584983 0.617345 0.918195 0 0 -0.000344396
37 1 0.739036 0.915715 0.77852 0 0 -0.000260949
39 1 0.842042 0.873884 0.407687 0 0 0.000389099
40 1 0.989866 0.70039 0.675503 0 0 -5.32866e-05
41 1 0.691028 0.908659 0.552143 0 0 -0.000389099
43 1 0.794034 0.866828 0.18131 0 0 0.000261188
44 1 0.543204 0.748819 0.284327 0 0 5.26905e-05
46 1 0.392114 0.783599 0.428664 0 0 0.000233412
ITEM: TIMESTEP
8
ITEM: NUMBER OF ATOMS
48
ITEM: BOX BOUNDS xy xz yz pp pp pp
-3.8019290566444397e+00 8.6109705567359924e+00 2.5110912919044495e+00
-1.0506033897399902e-02 9.6185076832771301e+00 -3.7873722314834595e+00
-2.6944518089294434e-02 1.9544072151184082e+01 3.6519104242324829e-01
ITEM: ATOMS id type xs ys zs fx fy fz
5 1 0.288668 0.158791 0.798805 0 0 -0.0001688
6 1 0.0406109 0.0406101 0.906184 0 0 0.000116587
13 1 0.244402 0.290419 0.161026 0 0 0.000168443
19 1 0.288668 0.492124 0.798805 0 0 -0.000168562
20 1 0.0406109 0.373943 0.906184 0 0 0.000116348
22 1 0.140953 0.332278 0.531161 0 0 9.57251e-05
26 1 0.0931676 0.325208 0.305135 0 0 0.000239968
29 1 0.244402 0.623753 0.161026 0 0 0.000168443
35 1 0.288668 0.825457 0.798805 0 0 -0.000168443
36 1 0.0406109 0.707277 0.906184 0 0 0.000116467
38 1 0.140953 0.665611 0.531161 0 0 9.59635e-05
42 1 0.0931676 0.658541 0.305135 0 0 0.000239968
45 1 0.244402 0.957086 0.161026 0 0 0.000168324
47 1 0.140953 0.998944 0.531161 0 0 9.58443e-05
48 1 0.0931676 0.991874 0.305135 0 0 0.000239849
1 1 0.948092 0.165198 0.0416433 0 0 -0.000191927
2 1 0.492459 0.0752663 0.0536457 0 0 -0.000116348
3 1 0.439902 0.124002 0.654695 0 0 -0.00023973
4 1 0.584978 0.950679 0.918187 0 0 0.000191331
7 1 0.739032 0.249049 0.778514 0 0 -0.000134706
8 1 0.842047 0.207217 0.407695 0 0 -0.000136495
9 1 0.989865 0.0337236 0.675501 0 0 -0.000275493
10 1 0.691023 0.241993 0.552135 0 0 0.000136614
11 1 0.794038 0.200161 0.181316 0 0 0.000134945
12 1 0.543205 0.0821527 0.284329 0 0 0.000275612
14 1 0.392117 0.116932 0.428669 0 0 -9.56059e-05
15 1 0.948092 0.498531 0.0416433 0 0 -0.000191212
16 1 0.492459 0.4086 0.0536457 0 0 -0.000116467
17 1 0.439902 0.457335 0.654695 0 0 -0.000240088
18 1 0.584978 0.284012 0.918187 0 0 0.000192165
21 1 0.739032 0.582382 0.778514 0 0 -0.000134826
23 1 0.842047 0.54055 0.407695 0 0 -0.000137091
24 1 0.989865 0.367057 0.675501 0 0 -0.000275731
25 1 0.691023 0.575326 0.552135 0 0 0.000137329
27 1 0.794038 0.533494 0.181316 0 0 0.000134349
28 1 0.543205 0.415486 0.284329 0 0 0.000275612
30 1 0.392117 0.450265 0.428669 0 0 -9.60827e-05
31 1 0.948092 0.831864 0.0416433 0 0 -0.000191212
32 1 0.492459 0.741933 0.0536457 0 0 -0.000116467
33 1 0.439902 0.790669 0.654695 0 0 -0.000240088
34 1 0.584978 0.617345 0.918187 0 0 0.00019145
37 1 0.739032 0.915715 0.778514 0 0 -0.000134826
39 1 0.842047 0.873884 0.407695 0 0 -0.000136614
40 1 0.989865 0.70039 0.675501 0 0 -0.000275493
41 1 0.691023 0.908659 0.552135 0 0 0.000136495
43 1 0.794038 0.866828 0.181316 0 0 0.000134826
44 1 0.543205 0.748819 0.284329 0 0 0.00027597
46 1 0.392117 0.783599 0.428669 0 0 -9.63211e-05
ITEM: TIMESTEP
9
ITEM: NUMBER OF ATOMS
48
ITEM: BOX BOUNDS xy xz yz pp pp pp
-3.8019290566444397e+00 8.6109705567359924e+00 2.5110912919044495e+00
-1.0506033897399902e-02 9.6185076832771301e+00 -3.7873722314834595e+00
-2.6944518089294434e-02 1.9544072151184082e+01 3.6519104242324829e-01
ITEM: ATOMS id type xs ys zs fx fy fz
5 1 0.288664 0.158791 0.798798 0 0 2.77758e-05
6 1 0.0406129 0.0406099 0.906188 0 0 -0.000151277
13 1 0.244406 0.290419 0.161032 0 0 -2.7895e-05
19 1 0.288664 0.492124 0.798798 0 0 2.76566e-05
20 1 0.0406129 0.373943 0.906188 0 0 -0.000151277
22 1 0.140953 0.332278 0.531161 0 0 -3.95775e-05
26 1 0.0931722 0.325207 0.305142 0 0 4.17233e-05
29 1 0.244406 0.623752 0.161032 0 0 -2.7895e-05
35 1 0.288664 0.825457 0.798798 0 0 2.80142e-05
36 1 0.0406129 0.707277 0.906188 0 0 -0.0001508
38 1 0.140953 0.665611 0.531161 0 0 -3.89814e-05
42 1 0.0931721 0.658541 0.305142 0 0 4.17233e-05
45 1 0.244406 0.957086 0.161032 0 0 -2.77758e-05
47 1 0.140953 0.998944 0.531161 0 0 -3.88622e-05
48 1 0.0931721 0.991874 0.305142 0 0 4.13656e-05
1 1 0.948092 0.165198 0.0416433 0 0 7.1764e-05
2 1 0.492457 0.0752664 0.0536427 0 0 0.000151038
3 1 0.439898 0.124002 0.654688 0 0 -4.17233e-05
4 1 0.584978 0.950679 0.918187 0 0 -7.1764e-05
7 1 0.739029 0.249049 0.778508 0 0 4.43459e-05
8 1 0.842048 0.207217 0.407696 0 0 -6.02007e-05
9 1 0.989861 0.0337239 0.675495 0 0 -9.87053e-05
10 1 0.691022 0.241993 0.552134 0 0 6.02007e-05
11 1 0.794041 0.200161 0.181322 0 0 -4.44651e-05
12 1 0.543209 0.0821525 0.284335 0 0 9.87053e-05
14 1 0.392117 0.116932 0.428669 0 0 3.94583e-05
15 1 0.948092 0.498531 0.0416433 0 0 7.21216e-05
16 1 0.492457 0.4086 0.0536426 0 0 0.000151396
17 1 0.439898 0.457336 0.654688 0 0 -4.18425e-05
18 1 0.584978 0.284012 0.918187 0 0 -7.18832e-05
21 1 0.739029 0.582382 0.778508 0 0 4.41074e-05
23 1 0.842048 0.54055 0.407696 0 0 -6.00815e-05
24 1 0.989861 0.367057 0.675495 0 0 -9.85861e-05
25 1 0.691022 0.575326 0.552134 0 0 6.00815e-05
27 1 0.794041 0.533494 0.181322 0 0 -4.42266e-05
28 1 0.543209 0.415486 0.284335 0 0 9.85861e-05
30 1 0.392117 0.450265 0.428669 0 0 3.93391e-05
31 1 0.948092 0.831864 0.0416433 0 0 7.16448e-05
32 1 0.492457 0.741933 0.0536426 0 0 0.000151038
33 1 0.439898 0.790669 0.654688 0 0 -4.1604e-05
34 1 0.584978 0.617345 0.918187 0 0 -7.15256e-05
37 1 0.739029 0.915716 0.778508 0 0 4.42266e-05
39 1 0.842048 0.873884 0.407696 0 0 -6.03199e-05
40 1 0.989861 0.700391 0.675495 0 0 -9.82285e-05
41 1 0.691022 0.908659 0.552134 0 0 5.99623e-05
43 1 0.794041 0.866827 0.181322 0 0 -4.45843e-05
44 1 0.543209 0.748819 0.284335 0 0 9.88245e-05
46 1 0.392117 0.783599 0.428669 0 0 3.89814e-05
ITEM: TIMESTEP
10
ITEM: NUMBER OF ATOMS
48
ITEM: BOX BOUNDS xy xz yz pp pp pp
-3.8019290566444397e+00 8.6109705567359924e+00 2.5110912919044495e+00
-1.0506033897399902e-02 9.6185076832771301e+00 -3.7873722314834595e+00
-2.6944518089294434e-02 1.9544072151184082e+01 3.6519104242324829e-01
ITEM: ATOMS id type xs ys zs fx fy fz
5 1 0.288663 0.158791 0.798798 0 0 -3.12328e-05
6 1 0.0406117 0.04061 0.906186 0 0 -5.13792e-05
13 1 0.244407 0.290419 0.161032 0 0 3.18289e-05
19 1 0.288663 0.492124 0.798798 0 0 -3.1352e-05
20 1 0.0406117 0.373943 0.906186 0 0 -5.17368e-05
22 1 0.140953 0.332278 0.53116 0 0 -5.45979e-05
26 1 0.0931731 0.325207 0.305144 0 0 -2.43187e-05
29 1 0.244406 0.623752 0.161032 0 0 3.15905e-05
35 1 0.288663 0.825457 0.798798 0 0 -3.1352e-05
36 1 0.0406117 0.707277 0.906186 0 0 -5.17368e-05
38 1 0.140953 0.665611 0.53116 0 0 -5.48363e-05
42 1 0.0931731 0.658541 0.305144 0 0 -2.40803e-05
45 1 0.244406 0.957086 0.161032 0 0 3.14713e-05
47 1 0.140953 0.998944 0.53116 0 0 -5.48363e-05
48 1 0.0931731 0.991874 0.305144 0 0 -2.36034e-05
1 1 0.948093 0.165198 0.0416444 0 0 -5.40018e-05
2 1 0.492458 0.0752664 0.0536445 0 0 5.126e-05
3 1 0.439897 0.124002 0.654686 0 0 2.41995e-05
4 1 0.584977 0.950679 0.918186 0 0 5.44786e-05
7 1 0.739029 0.249049 0.778508 0 0 -3.19481e-05
8 1 0.842048 0.207217 0.407696 0 0 1.96695e-05
9 1 0.98986 0.033724 0.675492 0 0 1.58548e-05
10 1 0.691022 0.241993 0.552134 0 0 -1.94311e-05
11 1 0.794041 0.200161 0.181322 0 0 3.19481e-05
12 1 0.54321 0.0821524 0.284338 0 0 -1.62125e-05
14 1 0.392117 0.116932 0.42867 0 0 5.45979e-05
15 1 0.948093 0.498531 0.0416444 0 0 -5.40018e-05
16 1 0.492458 0.4086 0.0536445 0 0 5.13792e-05
17 1 0.439897 0.457336 0.654686 0 0 2.38419e-05
18 1 0.584977 0.284012 0.918186 0 0 5.40018e-05
21 1 0.739029 0.582382 0.778508 0 0 -3.21865e-05
23 1 0.842048 0.54055 0.407696 0 0 1.96695e-05
24 1 0.98986 0.367057 0.675492 0 0 1.5974e-05
25 1 0.691022 0.575326 0.552134 0 0 -1.94311e-05
27 1 0.794041 0.533494 0.181322 0 0 3.23057e-05
28 1 0.54321 0.415486 0.284338 0 0 -1.63317e-05
30 1 0.392117 0.450265 0.42867 0 0 5.44786e-05
31 1 0.948093 0.831864 0.0416444 0 0 -5.40018e-05
32 1 0.492458 0.741933 0.0536445 0 0 5.16176e-05
33 1 0.439897 0.790669 0.654686 0 0 2.38419e-05
34 1 0.584977 0.617345 0.918186 0 0 5.40018e-05
37 1 0.739029 0.915716 0.778508 0 0 -3.23057e-05
39 1 0.842048 0.873884 0.407696 0 0 1.94311e-05
40 1 0.98986 0.700391 0.675492 0 0 1.65701e-05
41 1 0.691022 0.908659 0.552134 0 0 -1.95503e-05
43 1 0.794041 0.866827 0.181322 0 0 3.20673e-05
44 1 0.54321 0.748819 0.284338 0 0 -1.64509e-05
46 1 0.392117 0.783599 0.42867 0 0 5.48363e-05
ITEM: TIMESTEP
11
ITEM: NUMBER OF ATOMS
48
ITEM: BOX BOUNDS xy xz yz pp pp pp
-3.8019290566444397e+00 8.6109705567359924e+00 2.5110912919044495e+00
-1.0506033897399902e-02 9.6185076832771301e+00 -3.7873722314834595e+00
-2.6944518089294434e-02 1.9544072151184082e+01 3.6519104242324829e-01
ITEM: ATOMS id type xs ys zs fx fy fz
5 1 0.288663 0.158791 0.798797 0 0 2.5034e-06
6 1 0.0406106 0.0406101 0.906184 0 0 -9.53674e-06
13 1 0.244407 0.290419 0.161033 0 0 -2.98023e-06
19 1 0.288663 0.492124 0.798797 0 0 2.5034e-06
20 1 0.0406106 0.373943 0.906184 0 0 -8.82149e-06
22 1 0.140952 0.332278 0.531159 0 0 1.81198e-05
26 1 0.0931732 0.325207 0.305144 0 0 1.38283e-05
29 1 0.244407 0.623752 0.161033 0 0 -2.98023e-06
35 1 0.288663 0.825457 0.798797 0 0 2.5034e-06
36 1 0.0406107 0.707277 0.906184 0 0 -9.53674e-06
38 1 0.140952 0.665611 0.531159 0 0 1.7643e-05
42 1 0.0931731 0.658541 0.305144 0 0 1.38283e-05
45 1 0.244407 0.957086 0.161033 0 0 -2.74181e-06
47 1 0.140952 0.998944 0.531159 0 0 1.78814e-05
48 1 0.0931731 0.991874 0.305144 0 0 1.34706e-05
1 1 0.948092 0.165198 0.0416437 0 0 -6.67572e-06
2 1 0.492459 0.0752663 0.0536462 0 0 9.65595e-06
3 1 0.439897 0.124002 0.654686 0 0 -1.37091e-05
4 1 0.584978 0.950679 0.918186 0 0 6.07967e-06
7 1 0.739028 0.249049 0.778507 0 0 -1.50204e-05
8 1 0.842048 0.207217 0.407696 0 0 3.57628e-07