ITEM: TIMESTEP
0
ITEM: NUMBER OF ATOMS
32
ITEM: BOX BOUNDS xy xz yz pp pp pp
-4.0532350540161133e-03 6.4008854031562805e+00 0.0000000000000000e+00
-9.1640949249267578e-03 1.0506231009960175e+01 0.0000000000000000e+00
-4.7960281372070312e-02 2.0773346722126007e+01 4.9766357541084290e+00
ITEM: ATOMS id type xs ys zs fx fy fz
1 1 0.999986 0.612472 0.0597509 0 0 0.0621948
2 1 0.499986 0.612472 0.0597509 0 0 0.0621948
3 1 0.249986 0.112471 0.0597519 0 0 0.0621662
4 1 0.749986 0.112471 0.0597519 0 0 0.0621662
5 1 0.999986 0.387856 0.309753 0 0 3.8147e-06
6 1 0.249986 0.334512 0.184753 0 0 -0.00180435
7 1 0.749986 0.334512 0.184753 0 0 -0.00180435
8 1 0.499986 0.387856 0.309753 0 0 3.8147e-06
9 1 0.999986 0.83451 0.184753 0 0 -0.00177956
10 1 0.249986 0.887856 0.309753 0 0 -4.76837e-05
11 1 0.499986 0.83451 0.184753 0 0 -0.00177956
12 1 0.749986 0.887856 0.309753 0 0 -4.76837e-05
13 1 0.999986 0.163218 0.559749 0 0 6.10352e-05
14 1 0.499986 0.163218 0.559749 0 0 6.10352e-05
15 1 0.249986 0.663216 0.55975 0 0 4.95911e-05
16 1 0.749986 0.663216 0.55975 0 0 4.95911e-05
17 1 0.249986 0.109885 0.434752 0 0 -6.10352e-05
18 1 0.749986 0.109885 0.434752 0 0 -6.10352e-05
19 1 0.999986 0.609885 0.434752 0 0 -3.8147e-05
20 1 0.499986 0.609885 0.434752 0 0 -3.8147e-05
21 1 0.999986 0.938582 0.809748 0 0 0.00178528
22 1 0.249986 0.885242 0.684748 0 0 1.90735e-05
23 1 0.499986 0.938582 0.809748 0 0 0.00178528
24 1 0.749986 0.885242 0.684748 0 0 1.90735e-05
25 1 0.999986 0.385242 0.684749 0 0 -3.8147e-06
26 1 0.249986 0.438582 0.809748 0 0 0.00180435
27 1 0.749986 0.438582 0.809748 0 0 0.00180435
28 1 0.499986 0.385242 0.684749 0 0 -3.8147e-06
29 1 0.249986 0.660619 0.934749 0 0 -0.0621643
30 1 0.749986 0.660619 0.934749 0 0 -0.0621643
31 1 0.999986 0.160619 0.93475 0 0 -0.0621853
32 1 0.499986 0.160619 0.93475 0 0 -0.0621853
ITEM: TIMESTEP
1
ITEM: NUMBER OF ATOMS
32
ITEM: BOX BOUNDS xy xz yz pp pp pp
-4.0532350540161133e-03 6.4008854031562805e+00 0.0000000000000000e+00
-9.1640949249267578e-03 1.0506231009960175e+01 0.0000000000000000e+00
-4.7960281372070312e-02 2.0773346722126007e+01 4.9766357541084290e+00
ITEM: ATOMS id type xs ys zs fx fy fz
1 1 0.999986 0.611798 0.0605006 0 0 -0.0015564
2 1 0.499986 0.611798 0.0605006 0 0 -0.0015564
3 1 0.249986 0.111798 0.0605012 0 0 -0.00156593
4 1 0.749986 0.111798 0.0605012 0 0 -0.00156593
5 1 0.999986 0.387855 0.309753 0 0 0.000713348
6 1 0.249986 0.334531 0.184732 0 0 0.0174198
7 1 0.749986 0.334531 0.184732 0 0 0.0174198
8 1 0.499986 0.387855 0.309753 0 0 0.000713348
9 1 0.999986 0.834529 0.184732 0 0 0.0174198
10 1 0.249986 0.887856 0.309753 0 0 0.000711441
11 1 0.499986 0.834529 0.184732 0 0 0.0174198
12 1 0.749986 0.887856 0.309753 0 0 0.000711441
13 1 0.999986 0.163217 0.55975 0 0 0.000112534
14 1 0.499986 0.163217 0.55975 0 0 0.000112534
15 1 0.249986 0.663215 0.55975 0 0 9.72748e-05
16 1 0.749986 0.663215 0.55975 0 0 9.72748e-05
17 1 0.249986 0.109886 0.434752 0 0 -0.000116348
18 1 0.749986 0.109886 0.434752 0 0 -0.000116348
19 1 0.999986 0.609885 0.434751 0 0 -0.000104904
20 1 0.499986 0.609885 0.434751 0 0 -0.000104904
21 1 0.999986 0.938563 0.80977 0 0 -0.0174255
22 1 0.249986 0.885242 0.684748 0 0 -0.000701904
23 1 0.499986 0.938563 0.80977 0 0 -0.0174255
24 1 0.749986 0.885242 0.684748 0 0 -0.000701904
25 1 0.999986 0.385242 0.684749 0 0 -0.000707626
26 1 0.249986 0.438563 0.80977 0 0 -0.0174294
27 1 0.749986 0.438563 0.80977 0 0 -0.0174294
28 1 0.499986 0.385242 0.684749 0 0 -0.000707626
29 1 0.249986 0.661292 0.934 0 0 0.00157356
30 1 0.749986 0.661292 0.934 0 0 0.00157356
31 1 0.999986 0.161292 0.934001 0 0 0.00156021
32 1 0.499986 0.161292 0.934001 0 0 0.00156021
ITEM: TIMESTEP
2
ITEM: NUMBER OF ATOMS
32
ITEM: BOX BOUNDS xy xz yz pp pp pp
-4.0532350540161133e-03 6.4008854031562805e+00 0.0000000000000000e+00
-9.1640949249267578e-03 1.0506231009960175e+01 0.0000000000000000e+00
-4.7960281372070312e-02 2.0773346722126007e+01 4.9766357541084290e+00
ITEM: ATOMS id type xs ys zs fx fy fz
1 1 0.999986 0.611686 0.0606257 0 0 -0.00205231
2 1 0.499986 0.611686 0.0606257 0 0 -0.00205231
3 1 0.249986 0.111686 0.0606261 0 0 -0.00206184
4 1 0.749986 0.111686 0.0606261 0 0 -0.00206184
5 1 0.999986 0.387841 0.309769 0 0 0.00952721
6 1 0.249986 0.334175 0.185128 0 0 0.000314713
7 1 0.749986 0.334175 0.185128 0 0 0.000314713
8 1 0.499986 0.387841 0.309769 0 0 0.00952721
9 1 0.999986 0.834173 0.185128 0 0 0.000312805
10 1 0.249986 0.887841 0.309769 0 0 0.00954247
11 1 0.499986 0.834173 0.185128 0 0 0.000312805
12 1 0.749986 0.887841 0.309769 0 0 0.00954247
13 1 0.999986 0.163214 0.559753 0 0 -0.00110435
14 1 0.499986 0.163214 0.559753 0 0 -0.00110435
15 1 0.249986 0.663213 0.559753 0 0 -0.00109673
16 1 0.749986 0.663213 0.559753 0 0 -0.00109673
17 1 0.249986 0.109888 0.434749 0 0 0.00110435
18 1 0.749986 0.109888 0.434749 0 0 0.00110435
19 1 0.999986 0.609888 0.434749 0 0 0.00110054
20 1 0.499986 0.609888 0.434749 0 0 0.00110054
21 1 0.999986 0.938919 0.809373 0 0 -0.000299454
22 1 0.249986 0.885256 0.684732 0 0 -0.00954437
23 1 0.499986 0.938919 0.809373 0 0 -0.000299454
24 1 0.749986 0.885256 0.684732 0 0 -0.00954437
25 1 0.999986 0.385256 0.684732 0 0 -0.00954437
26 1 0.249986 0.438919 0.809373 0 0 -0.000303268
27 1 0.749986 0.438919 0.809373 0 0 -0.000303268
28 1 0.499986 0.385256 0.684732 0 0 -0.00954437
29 1 0.249986 0.661404 0.933875 0 0 0.00205231
30 1 0.749986 0.661404 0.933875 0 0 0.00205231
31 1 0.999986 0.161405 0.933876 0 0 0.00205231
32 1 0.499986 0.161405 0.933876 0 0 0.00205231
ITEM: TIMESTEP
3
ITEM: NUMBER OF ATOMS
32
ITEM: BOX BOUNDS xy xz yz pp pp pp
-4.0532350540161133e-03 6.4008854031562805e+00 0.0000000000000000e+00
-9.1640949249267578e-03 1.0506231009960175e+01 0.0000000000000000e+00
-4.7960281372070312e-02 2.0773346722126007e+01 4.9766357541084290e+00
ITEM: ATOMS id type xs ys zs fx fy fz
1 1 0.999986 0.611701 0.0606093 0 0 0.0029068
2 1 0.499986 0.611701 0.0606093 0 0 0.0029068
3 1 0.249986 0.111701 0.0606093 0 0 0.00292397
4 1 0.749986 0.111701 0.0606093 0 0 0.00292397
5 1 0.999986 0.387605 0.310032 0 0 -9.15527e-05
6 1 0.249986 0.334057 0.18526 0 0 -0.00053978
7 1 0.749986 0.334057 0.18526 0 0 -0.00053978
8 1 0.499986 0.387605 0.310032 0 0 -9.15527e-05
9 1 0.999986 0.834055 0.18526 0 0 -0.000543594
10 1 0.249986 0.887605 0.310032 0 0 -9.91821e-05
11 1 0.499986 0.834055 0.18526 0 0 -0.000543594
12 1 0.749986 0.887605 0.310032 0 0 -9.91821e-05
13 1 0.999986 0.163241 0.559724 0 0 -0.00505066
14 1 0.499986 0.163241 0.559724 0 0 -0.00505066
15 1 0.249986 0.663239 0.559724 0 0 -0.00505066
16 1 0.749986 0.663239 0.559724 0 0 -0.00505066
17 1 0.249986 0.109862 0.434778 0 0 0.00505257
18 1 0.749986 0.109862 0.434778 0 0 0.00505257
19 1 0.999986 0.609862 0.434778 0 0 0.00504494
20 1 0.499986 0.609862 0.434778 0 0 0.00504494
21 1 0.999986 0.939037 0.809242 0 0 0.000530243
22 1 0.249986 0.885493 0.68447 0 0 0.000106812
23 1 0.499986 0.939037 0.809242 0 0 0.000530243
24 1 0.749986 0.885493 0.68447 0 0 0.000106812
25 1 0.999986 0.385492 0.68447 0 0 0.000101089
26 1 0.249986 0.439038 0.809241 0 0 0.000535965
27 1 0.749986 0.439038 0.809241 0 0 0.000535965
28 1 0.499986 0.385492 0.68447 0 0 0.000101089
29 1 0.249986 0.661389 0.933892 0 0 -0.00291061
30 1 0.749986 0.661389 0.933892 0 0 -0.00291061
31 1 0.999986 0.16139 0.933892 0 0 -0.00291634
32 1 0.499986 0.16139 0.933892 0 0 -0.00291634
ITEM: TIMESTEP
4
ITEM: NUMBER OF ATOMS
32
ITEM: BOX BOUNDS xy xz yz pp pp pp
-4.0532350540161133e-03 6.4008854031562805e+00 0.0000000000000000e+00
-9.1640949249267578e-03 1.0506231009960175e+01 0.0000000000000000e+00
-4.7960281372070312e-02 2.0773346722126007e+01 4.9766357541084290e+00
ITEM: ATOMS id type xs ys zs fx fy fz
1 1 0.999986 0.611664 0.0606502 0 0 0.000148773
2 1 0.499986 0.611664 0.0606502 0 0 0.000148773
3 1 0.249986 0.111664 0.0606504 0 0 0.000144958
4 1 0.749986 0.111664 0.0606504 0 0 0.000144958
5 1 0.999986 0.387557 0.310085 0 0 -0.00043869
6 1 0.249986 0.334039 0.185279 0 0 0.000883102
7 1 0.749986 0.334039 0.185279 0 0 0.000883102
8 1 0.499986 0.387557 0.310085 0 0 -0.00043869
9 1 0.999986 0.834037 0.185279 0 0 0.000875473
10 1 0.249986 0.887557 0.310085 0 0 -0.000450134
11 1 0.499986 0.834037 0.185279 0 0 0.000875473
12 1 0.749986 0.887557 0.310085 0 0 -0.000450134
13 1 0.999986 0.163315 0.559641 0 0 -2.67029e-05
14 1 0.499986 0.163315 0.559641 0 0 -2.67029e-05
15 1 0.249986 0.663314 0.559641 0 0 -2.86102e-05
16 1 0.749986 0.663314 0.559641 0 0 -2.86102e-05
17 1 0.249986 0.109788 0.434861 0 0 2.67029e-05
18 1 0.749986 0.109788 0.434861 0 0 2.67029e-05
19 1 0.999986 0.609787 0.434861 0 0 2.67029e-05
20 1 0.499986 0.609787 0.434861 0 0 2.67029e-05
21 1 0.999986 0.939055 0.809222 0 0 -0.000886917
22 1 0.249986 0.885541 0.684416 0 0 0.000440598
23 1 0.499986 0.939055 0.809222 0 0 -0.000886917
24 1 0.749986 0.885541 0.684416 0 0 0.000440598
25 1 0.999986 0.385541 0.684416 0 0 0.000450134
26 1 0.249986 0.439055 0.809222 0 0 -0.000873566
27 1 0.749986 0.439055 0.809222 0 0 -0.000873566
28 1 0.499986 0.385541 0.684416 0 0 0.000450134
29 1 0.249986 0.661426 0.933851 0 0 -0.000143051
30 1 0.749986 0.661426 0.933851 0 0 -0.000143051
31 1 0.999986 0.161427 0.933851 0 0 -0.000148773
32 1 0.499986 0.161427 0.933851 0 0 -0.000148773
ITEM: TIMESTEP
5
ITEM: NUMBER OF ATOMS
32
ITEM: BOX BOUNDS xy xz yz pp pp pp
-4.0532350540161133e-03 6.4008854031562805e+00 0.0000000000000000e+00
-9.1640949249267578e-03 1.0506231009960175e+01 0.0000000000000000e+00
-4.7960281372070312e-02 2.0773346722126007e+01 4.9766357541084290e+00
ITEM: ATOMS id type xs ys zs fx fy fz
1 1 0.999986 0.611661 0.0606536 0 0 0.000221252
2 1 0.499986 0.611661 0.0606536 0 0 0.000221252
3 1 0.249986 0.111661 0.0606537 0 0 0.00021553
4 1 0.749986 0.111661 0.0606537 0 0 0.00021553
5 1 0.999986 0.387562 0.31008 0 0 0.000259399
6 1 0.249986 0.334026 0.185293 0 0 8.39233e-05
7 1 0.749986 0.334026 0.185293 0 0 8.39233e-05
8 1 0.499986 0.387562 0.31008 0 0 0.000259399
9 1 0.999986 0.834025 0.185293 0 0 8.96454e-05
10 1 0.249986 0.887562 0.31008 0 0 0.000263214
11 1 0.499986 0.834025 0.185293 0 0 8.96454e-05
12 1 0.749986 0.887562 0.31008 0 0 0.000263214
13 1 0.999986 0.163318 0.559638 0 0 0.000286102
14 1 0.499986 0.163318 0.559638 0 0 0.000286102
15 1 0.249986 0.663316 0.559638 0 0 0.000293732
16 1 0.749986 0.663316 0.559638 0 0 0.000293732
17 1 0.249986 0.109785 0.434863 0 0 -0.000291824
18 1 0.749986 0.109785 0.434863 0 0 -0.000291824
19 1 0.999986 0.609785 0.434863 0 0 -0.000299454
20 1 0.499986 0.609785 0.434863 0 0 -0.000299454
21 1 0.999986 0.939068 0.809208 0 0 -8.2016e-05
22 1 0.249986 0.885536 0.684422 0 0 -0.000259399
23 1 0.499986 0.939068 0.809208 0 0 -8.2016e-05
24 1 0.749986 0.885536 0.684422 0 0 -0.000259399
25 1 0.999986 0.385536 0.684422 0 0 -0.000253677
26 1 0.249986 0.439068 0.809208 0 0 -9.91821e-05
27 1 0.749986 0.439068 0.809208 0 0 -9.91821e-05
28 1 0.499986 0.385536 0.684422 0 0 -0.000253677
29 1 0.249986 0.661429 0.933848 0 0 -0.000217438
30 1 0.749986 0.661429 0.933848 0 0 -0.000217438
31 1 0.999986 0.16143 0.933848 0 0 -0.000209808
32 1 0.499986 0.16143 0.933848 0 0 -0.000209808
ITEM: TIMESTEP
6
ITEM: NUMBER OF ATOMS
32
ITEM: BOX BOUNDS xy xz yz pp pp pp
-4.0532350540161133e-03 6.4008854031562805e+00 0.0000000000000000e+00
-9.1640949249267578e-03 1.0506231009960175e+01 0.0000000000000000e+00
-4.7960281372070312e-02 2.0773346722126007e+01 4.9766357541084290e+00
ITEM: ATOMS id type xs ys zs fx fy fz
1 1 0.999986 0.611657 0.060658 0 0 -1.52588e-05
2 1 0.499986 0.611657 0.060658 0 0 -1.52588e-05
3 1 0.249986 0.111657 0.0606581 0 0 1.90735e-06
4 1 0.749986 0.111657 0.0606581 0 0 1.90735e-06
5 1 0.999986 0.387559 0.310083 0 0 0.000137329
6 1 0.249986 0.334022 0.185298 0 0 1.52588e-05
7 1 0.749986 0.334022 0.185298 0 0 1.52588e-05
8 1 0.499986 0.387559 0.310083 0 0 0.000137329
9 1 0.999986 0.83402 0.185298 0 0 9.53674e-06
10 1 0.249986 0.887559 0.310083 0 0 0.000139236
11 1 0.499986 0.83402 0.185298 0 0 9.53674e-06
12 1 0.749986 0.887559 0.310083 0 0 0.000139236
13 1 0.999986 0.163314 0.559642 0 0 -0.000120163
14 1 0.499986 0.163314 0.559642 0 0 -0.000120163
15 1 0.249986 0.663312 0.559642 0 0 -0.000118256
16 1 0.749986 0.663312 0.559642 0 0 -0.000118256
17 1 0.249986 0.109789 0.434859 0 0 0.00012207
18 1 0.749986 0.109789 0.434859 0 0 0.00012207
19 1 0.999986 0.609789 0.434859 0 0 0.000120163
20 1 0.499986 0.609789 0.434859 0 0 0.000120163
21 1 0.999986 0.939072 0.809203 0 0 -1.33514e-05
22 1 0.249986 0.885538 0.684419 0 0 -0.000143051
23 1 0.499986 0.939072 0.809203 0 0 -1.33514e-05
24 1 0.749986 0.885538 0.684419 0 0 -0.000143051
25 1 0.999986 0.385538 0.684419 0 0 -0.000143051
26 1 0.249986 0.439072 0.809203 0 0 -7.62939e-06
27 1 0.749986 0.439072 0.809203 0 0 -7.62939e-06
28 1 0.499986 0.385538 0.684419 0 0 -0.000143051
29 1 0.249986 0.661433 0.933843 0 0 1.33514e-05
30 1 0.749986 0.661433 0.933843 0 0 1.33514e-05
31 1 0.999986 0.161433 0.933843 0 0 1.90735e-06
32 1 0.499986 0.161433 0.933843 0 0 1.90735e-06
ITEM: TIMESTEP
7
ITEM: NUMBER OF ATOMS
32
ITEM: BOX BOUNDS xy xz yz pp pp pp
-4.0532350540161133e-03 6.4008854031562805e+00 0.0000000000000000e+00
-9.1640949249267578e-03 1.0506231009960175e+01 0.0000000000000000e+00
-4.7960281372070312e-02 2.0773346722126007e+01 4.9766357541084290e+00
ITEM: ATOMS id type xs ys zs fx fy fz
1 1 0.999986 0.611657 0.060658 0 0 -1.52588e-05
2 1 0.499986 0.611657 0.060658 0 0 -1.52588e-05
3 1 0.249986 0.111657 0.0606581 0 0 1.90735e-06
4 1 0.749986 0.111657 0.0606581 0 0 1.90735e-06
5 1 0.999986 0.387559 0.310083 0 0 0.000137329
6 1 0.249986 0.334022 0.185298 0 0 1.52588e-05
7 1 0.749986 0.334022 0.185298 0 0 1.52588e-05
8 1 0.499986 0.387559 0.310083 0 0 0.000137329
9 1 0.999986 0.83402 0.185298 0 0 9.53674e-06
10 1 0.249986 0.887559 0.310083 0 0 0.000139236
11 1 0.499986 0.83402 0.185298 0 0 9.53674e-06
12 1 0.749986 0.887559 0.310083 0 0 0.000139236
13 1 0.999986 0.163314 0.559642 0 0 -0.000120163
14 1 0.499986 0.163314 0.559642 0 0 -0.000120163
15 1 0.249986 0.663312 0.559642 0 0 -0.000118256
16 1 0.749986 0.663312 0.559642 0 0 -0.000118256
17 1 0.249986 0.109789 0.434859 0 0 0.00012207
18 1 0.749986 0.109789 0.434859 0 0 0.00012207
19 1 0.999986 0.609789 0.434859 0 0 0.000120163
20 1 0.499986 0.609789 0.434859 0 0 0.000120163
21 1 0.999986 0.939072 0.809203 0 0 -1.33514e-05
22 1 0.249986 0.885538 0.684419 0 0 -0.000143051
23 1 0.499986 0.939072 0.809203 0 0 -1.33514e-05
24 1 0.749986 0.885538 0.684419 0 0 -0.000143051
25 1 0.999986 0.385538 0.684419 0 0 -0.000143051
26 1 0.249986 0.439072 0.809203 0 0 -7.62939e-06
27 1 0.749986 0.439072 0.809203 0 0 -7.62939e-06
28 1 0.499986 0.385538 0.684419 0 0 -0.000143051
29 1 0.249986 0.661433 0.933843 0 0 1.33514e-05
30 1 0.749986 0.661433 0.933843 0 0 1.33514e-05
31 1 0.999986 0.161433 0.933843 0 0 1.90735e-06
32 1 0.499986 0.161433 0.933843 0 0 1.90735e-06
