ITEM: TIMESTEP
0
ITEM: NUMBER OF ATOMS
48
ITEM: BOX BOUNDS xy xz yz pp pp pp
-2.1244622468948364e+00 8.6109705567359924e+00 2.5110912919044495e+00
-1.0506033897399902e-02 9.6185076832771301e+00 -2.1099054217338562e+00
-2.6944518089294434e-02 1.9544072151184082e+01 3.6519104242324829e-01
ITEM: ATOMS id type xs ys zs fx fy fz
1 1 0.933183 0.165578 0.0319985 0 0 0.25514
2 1 0.477447 0.0752984 0.0528317 0 0 0.35261
3 1 0.261122 0.123911 0.656998 0 0 -0.000822186
4 1 0.336562 0.950298 0.927832 0 0 -0.25514
5 1 0.0709743 0.158632 0.802832 0 0 0.00522041
6 1 0.792298 0.040578 0.906998 0 0 -0.35261
7 1 0.52671 0.248911 0.781998 0 0 -0.00185716
8 1 0.729946 0.207245 0.406998 0 0 0.000432491
9 1 0.805387 0.0336318 0.677832 0 0 0.000699043
10 1 0.539799 0.241965 0.552832 0 0 -0.000432134
11 1 0.743035 0.200298 0.177832 0 0 0.00185728
12 1 0.464358 0.0822446 0.281998 0 0 -0.000698805
13 1 0.198771 0.290578 0.156998 0 0 -0.00522041
14 1 0.274211 0.116965 0.427832 0 0 0.000133753
15 1 0.933183 0.498911 0.0319984 0 0 0.255141
16 1 0.477447 0.408632 0.0528317 0 0 0.35261
17 1 0.261122 0.457245 0.656998 0 0 -0.000822425
18 1 0.336562 0.283632 0.927832 0 0 -0.25514
19 1 0.0709743 0.491965 0.802832 0 0 0.00522041
20 1 0.792298 0.373911 0.906998 0 0 -0.35261
21 1 0.52671 0.582245 0.781998 0 0 -0.00185776
22 1 0.995534 0.332245 0.531998 0 0 -0.000132799
23 1 0.729946 0.540578 0.406998 0 0 0.000432491
24 1 0.805387 0.366965 0.677832 0 0 0.000699043
25 1 0.539799 0.575298 0.552832 0 0 -0.000432611
26 1 0.00862316 0.325298 0.302832 0 0 0.00082171
27 1 0.743035 0.533632 0.177832 0 0 0.0018568
28 1 0.464358 0.415578 0.281998 0 0 -0.000699043
29 1 0.198771 0.623911 0.156998 0 0 -0.00522041
30 1 0.274211 0.450298 0.427832 0 0 0.000133157
31 1 0.933183 0.832245 0.0319985 0 0 0.25514
32 1 0.477447 0.741965 0.0528317 0 0 0.35261
33 1 0.261122 0.790578 0.656998 0 0 -0.000822067
34 1 0.336562 0.616965 0.927832 0 0 -0.25514
35 1 0.0709743 0.825298 0.802832 0 0 0.00522065
36 1 0.792298 0.707245 0.906998 0 0 -0.35261
37 1 0.52671 0.915578 0.781998 0 0 -0.00185776
38 1 0.995534 0.665578 0.531998 0 0 -0.000133991
39 1 0.729946 0.873911 0.406998 0 0 0.00043273
40 1 0.805387 0.700298 0.677832 0 0 0.000699878
41 1 0.539799 0.908632 0.552832 0 0 -0.000433445
42 1 0.00862313 0.658632 0.302832 0 0 0.000822186
43 1 0.743035 0.866965 0.177832 0 0 0.00185704
44 1 0.464358 0.748911 0.281998 0 0 -0.000699162
45 1 0.198771 0.957245 0.156998 0 0 -0.00522053
46 1 0.274211 0.783632 0.427832 0 0 0.000133753
47 1 0.995534 0.998911 0.531998 0 0 -0.000133514
48 1 0.00862313 0.991965 0.302832 0 0 0.000822186
ITEM: TIMESTEP
1
ITEM: NUMBER OF ATOMS
48
ITEM: BOX BOUNDS xy xz yz pp pp pp
-2.1244622468948364e+00 8.6109705567359924e+00 2.5110912919044495e+00
-1.0506033897399902e-02 9.6185076832771301e+00 -2.1099054217338562e+00
-2.6944518089294434e-02 1.9544072151184082e+01 3.6519104242324829e-01
ITEM: ATOMS id type xs ys zs fx fy fz
1 1 0.934168 0.16547 0.0347262 0 0 -0.0515568
2 1 0.478809 0.0751498 0.0566015 0 0 0.0206245
3 1 0.261119 0.123912 0.65699 0 0 -0.00855398
4 1 0.335577 0.950406 0.925104 0 0 0.0515571
5 1 0.0709945 0.15863 0.802888 0 0 -0.0723273
6 1 0.790936 0.0407266 0.903229 0 0 -0.0206246
7 1 0.526702 0.248912 0.781979 0 0 -0.0828784
8 1 0.729948 0.207244 0.407003 0 0 -0.00165498
9 1 0.805389 0.0336315 0.677839 0 0 -0.00459957
10 1 0.539797 0.241965 0.552827 0 0 0.00165486
11 1 0.743042 0.200298 0.177852 0 0 0.0828781
12 1 0.464356 0.0822449 0.281991 0 0 0.00459933
13 1 0.198751 0.29058 0.156943 0 0 0.0723273
14 1 0.274211 0.116965 0.427833 0 0 -0.00120354
15 1 0.934168 0.498804 0.0347262 0 0 -0.0515568
16 1 0.478809 0.408483 0.0566015 0 0 0.0206245
17 1 0.261119 0.457245 0.65699 0 0 -0.00855398
18 1 0.335577 0.283739 0.925104 0 0 0.0515571
19 1 0.0709944 0.491963 0.802888 0 0 -0.0723274
20 1 0.790936 0.37406 0.903229 0 0 -0.0206245
21 1 0.526702 0.582245 0.781979 0 0 -0.0828784
22 1 0.995533 0.332245 0.531997 0 0 0.00120378
23 1 0.729948 0.540578 0.407003 0 0 -0.00165498
24 1 0.805389 0.366965 0.677839 0 0 -0.00459874
25 1 0.539797 0.575299 0.552827 0 0 0.00165474
26 1 0.00862633 0.325298 0.30284 0 0 0.00855398
27 1 0.743042 0.533631 0.177852 0 0 0.0828779
28 1 0.464356 0.415578 0.281991 0 0 0.00459933
29 1 0.198751 0.623913 0.156943 0 0 0.0723271
30 1 0.274211 0.450298 0.427833 0 0 -0.00120401
31 1 0.934168 0.832137 0.0347262 0 0 -0.0515568
32 1 0.478809 0.741816 0.0566015 0 0 0.0206244
33 1 0.261119 0.790578 0.65699 0 0 -0.0085541
34 1 0.335577 0.617073 0.925104 0 0 0.0515568
35 1 0.0709945 0.825296 0.802888 0 0 -0.0723271
36 1 0.790936 0.707393 0.903229 0 0 -0.0206245
37 1 0.526702 0.915579 0.781979 0 0 -0.082878
38 1 0.995534 0.665578 0.531997 0 0 0.00120413
39 1 0.729948 0.873911 0.407003 0 0 -0.00165486
40 1 0.805389 0.700298 0.677839 0 0 -0.00459921
41 1 0.539797 0.908632 0.552827 0 0 0.00165462
42 1 0.0086263 0.658631 0.30284 0 0 0.00855398
43 1 0.743042 0.866964 0.177852 0 0 0.0828784
44 1 0.464356 0.748912 0.281991 0 0 0.00459969
45 1 0.198751 0.957247 0.156943 0 0 0.072327
46 1 0.274211 0.783632 0.427833 0 0 -0.00120389
47 1 0.995534 0.998911 0.531997 0 0 0.00120378
48 1 0.00862631 0.991965 0.30284 0 0 0.0085541
ITEM: TIMESTEP
2
ITEM: NUMBER OF ATOMS
48
ITEM: BOX BOUNDS xy xz yz pp pp pp
-2.1244622468948364e+00 8.6109705567359924e+00 2.5110912919044495e+00
-1.0506033897399902e-02 9.6185076832771301e+00 -2.1099054217338562e+00
-2.6944518089294434e-02 1.9544072151184082e+01 3.6519104242324829e-01
ITEM: ATOMS id type xs ys zs fx fy fz
1 1 0.933954 0.165494 0.0341339 0 0 -0.0142089
2 1 0.479377 0.0750878 0.0581742 0 0 0.00187814
3 1 0.261037 0.123921 0.656765 0 0 -0.0451995
4 1 0.335791 0.950383 0.925696 0 0 0.0142086
5 1 0.0703199 0.158703 0.80102 0 0 0.0113258
6 1 0.790368 0.0407886 0.901656 0 0 -0.00187802
7 1 0.525921 0.248997 0.779816 0 0 0.00608444
8 1 0.729933 0.207246 0.406961 0 0 0.00756943
9 1 0.805347 0.0336361 0.677722 0 0 -0.0423677
10 1 0.539812 0.241964 0.552869 0 0 -0.00756991
11 1 0.743824 0.200212 0.180014 0 0 -0.00608385
12 1 0.464398 0.0822403 0.282109 0 0 0.0423678
13 1 0.199425 0.290507 0.15881 0 0 -0.0113258
14 1 0.2742 0.116966 0.427802 0 0 0.010304
15 1 0.933954 0.498827 0.0341339 0 0 -0.0142089
16 1 0.479377 0.408421 0.0581742 0 0 0.00187814
17 1 0.261037 0.457254 0.656765 0 0 -0.0451998
18 1 0.335791 0.283716 0.925696 0 0 0.0142081
19 1 0.0703199 0.492036 0.80102 0 0 0.0113258
20 1 0.790368 0.374122 0.901656 0 0 -0.00187826
21 1 0.525921 0.582331 0.779816 0 0 0.00608397
22 1 0.995545 0.332243 0.532028 0 0 -0.0103039
23 1 0.729933 0.540579 0.406961 0 0 0.00756955
24 1 0.805347 0.366969 0.677722 0 0 -0.0423685
25 1 0.539812 0.575297 0.552869 0 0 -0.00756943
26 1 0.00870763 0.325289 0.303066 0 0 0.0452
27 1 0.743824 0.533546 0.180014 0 0 -0.00608349
28 1 0.464398 0.415574 0.282109 0 0 0.0423675
29 1 0.199425 0.62384 0.15881 0 0 -0.0113255
30 1 0.2742 0.4503 0.427802 0 0 0.0103046
31 1 0.933954 0.83216 0.0341339 0 0 -0.0142088
32 1 0.479377 0.741754 0.0581742 0 0 0.0018779
33 1 0.261037 0.790587 0.656765 0 0 -0.0451999
34 1 0.335791 0.617049 0.925696 0 0 0.014209
35 1 0.0703199 0.82537 0.80102 0 0 0.0113256
36 1 0.790368 0.707455 0.901656 0 0 -0.0018779
37 1 0.525921 0.915664 0.779816 0 0 0.00608361
38 1 0.995545 0.665577 0.532028 0 0 -0.0103042
39 1 0.729933 0.873913 0.406961 0 0 0.00757003
40 1 0.805347 0.700303 0.677722 0 0 -0.0423682
41 1 0.539812 0.90863 0.552869 0 0 -0.00756896
42 1 0.0087076 0.658622 0.303066 0 0 0.0451995
43 1 0.743824 0.866879 0.180014 0 0 -0.00608385
44 1 0.464398 0.748907 0.282109 0 0 0.0423673
45 1 0.199425 0.957173 0.15881 0 0 -0.0113254
46 1 0.2742 0.783633 0.427802 0 0 0.010304
47 1 0.995545 0.99891 0.532028 0 0 -0.0103039
48 1 0.00870761 0.991956 0.303066 0 0 0.0451996
ITEM: TIMESTEP
3
ITEM: NUMBER OF ATOMS
48
ITEM: BOX BOUNDS xy xz yz pp pp pp
-2.1244622468948364e+00 8.6109705567359924e+00 2.5110912919044495e+00
-1.0506033897399902e-02 9.6185076832771301e+00 -2.1099054217338562e+00
-2.6944518089294434e-02 1.9544072151184082e+01 3.6519104242324829e-01
ITEM: ATOMS id type xs ys zs fx fy fz
1 1 0.933766 0.165514 0.033612 0 0 0.0114392
2 1 0.479552 0.0750688 0.0586566 0 0 0.000259519
3 1 0.260603 0.123968 0.655564 0 0 0.00212657
4 1 0.335979 0.950362 0.926218 0 0 -0.0114393
5 1 0.0702364 0.158712 0.800789 0 0 -0.0030055
6 1 0.790193 0.0408076 0.901174 0 0 -0.000259519
7 1 0.52576 0.249015 0.779371 0 0 -0.00171518
8 1 0.729998 0.207239 0.40714 0 0 0.0172532
9 1 0.804949 0.0336795 0.676622 0 0 0.00120354
10 1 0.539747 0.241971 0.55269 0 0 -0.0172526
11 1 0.743984 0.200195 0.180459 0 0 0.00171506
12 1 0.464796 0.0821969 0.283209 0 0 -0.00120342
13 1 0.199509 0.290497 0.159041 0 0 0.00300562
14 1 0.274291 0.116956 0.428053 0 0 0.0193909
15 1 0.933766 0.498848 0.033612 0 0 0.0114396
16 1 0.479552 0.408402 0.0586566 0 0 0.000259757
17 1 0.260603 0.457301 0.655564 0 0 0.00212681
18 1 0.335979 0.283695 0.926218 0 0 -0.0114388
19 1 0.0702364 0.492046 0.800789 0 0 -0.00300562
20 1 0.790193 0.374141 0.901174 0 0 -0.000259399
21 1 0.52576 0.582348 0.779371 0 0 -0.00171483
22 1 0.995454 0.332253 0.531777 0 0 -0.0193917
23 1 0.729998 0.540572 0.40714 0 0 0.0172526
24 1 0.804949 0.367013 0.676622 0 0 0.00120366
25 1 0.539747 0.575304 0.55269 0 0 -0.0172526
26 1 0.00914154 0.325242 0.304267 0 0 -0.00212646
27 1 0.743984 0.533528 0.180459 0 0 0.00171494
28 1 0.464796 0.41553 0.283209 0 0 -0.00120342
29 1 0.199509 0.623831 0.159041 0 0 0.00300467
30 1 0.274291 0.45029 0.428053 0 0 0.0193909
31 1 0.933766 0.832181 0.033612 0 0 0.0114391
32 1 0.479552 0.741735 0.0586566 0 0 0.000260115
33 1 0.260603 0.790635 0.655564 0 0 0.00212669
34 1 0.335979 0.617029 0.926218 0 0 -0.0114398
35 1 0.0702364 0.825379 0.800789 0 0 -0.00300527
36 1 0.790193 0.707474 0.901174 0 0 -0.000260115
37 1 0.52576 0.915682 0.779371 0 0 -0.00171506
38 1 0.995454 0.665587 0.531777 0 0 -0.0193912
39 1 0.729998 0.873906 0.40714 0 0 0.0172524
40 1 0.804949 0.700346 0.676622 0 0 0.00120378
41 1 0.539747 0.908637 0.55269 0 0 -0.017253
42 1 0.00914151 0.658575 0.304267 0 0 -0.00212598
43 1 0.743984 0.866861 0.180459 0 0 0.00171494
44 1 0.464796 0.748864 0.283209 0 0 -0.00120342
45 1 0.199509 0.957164 0.159041 0 0 0.00300491
46 1 0.274291 0.783623 0.428053 0 0 0.0193914
47 1 0.995454 0.99892 0.531777 0 0 -0.0193914
48 1 0.00914151 0.991908 0.304267 0 0 -0.00212634
ITEM: TIMESTEP
4
ITEM: NUMBER OF ATOMS
48
ITEM: BOX BOUNDS xy xz yz pp pp pp
-2.1244622468948364e+00 8.6109705567359924e+00 2.5110912919044495e+00
-1.0506033897399902e-02 9.6185076832771301e+00 -2.1099054217338562e+00
-2.6944518089294434e-02 1.9544072151184082e+01 3.6519104242324829e-01
ITEM: ATOMS id type xs ys zs fx fy fz
1 1 0.933807 0.16551 0.0337268 0 0 0.00526667
2 1 0.479574 0.0750664 0.0587179 0 0 -0.0044421
3 1 0.260564 0.123972 0.655454 0 0 -0.00122666
4 1 0.335938 0.950367 0.926103 0 0 -0.00526643
5 1 0.0702097 0.158715 0.800715 0 0 -0.00477922
6 1 0.790171 0.04081 0.901112 0 0 0.0044421
7 1 0.525732 0.249018 0.779292 0 0 -0.00287557
8 1 0.730102 0.207228 0.407428 0 0 -0.00196123
9 1 0.804909 0.0336839 0.67651 0 0 -0.00164986
10 1 0.539643 0.241982 0.552402 0 0 0.00196147
11 1 0.744013 0.200192 0.180538 0 0 0.00287533
12 1 0.464836 0.0821925 0.283321 0 0 0.00164974
13 1 0.199535 0.290494 0.159115 0 0 0.00477886
14 1 0.27441 0.116943 0.428383 0 0 -0.00134623
15 1 0.933807 0.498843 0.0337268 0 0 0.0052669
16 1 0.479574 0.4084 0.0587179 0 0 -0.00444281
17 1 0.260564 0.457306 0.655454 0 0 -0.00122654
18 1 0.335938 0.2837 0.926103 0 0 -0.00526595
19 1 0.0702097 0.492049 0.800715 0 0 -0.00477874
20 1 0.790171 0.374143 0.901112 0 0 0.00444221
21 1 0.525732 0.582351 0.779292 0 0 -0.00287545
22 1 0.995335 0.332266 0.531447 0 0 0.00134599
23 1 0.730102 0.540561 0.407428 0 0 -0.00196123
24 1 0.804909 0.367017 0.67651 0 0 -0.00164974
25 1 0.539643 0.575315 0.552402 0 0 0.00196111
26 1 0.00918115 0.325237 0.304376 0 0 0.00122595
27 1 0.744013 0.533525 0.180538 0 0 0.00287569
28 1 0.464836 0.415526 0.283321 0 0 0.00164986
29 1 0.199535 0.623828 0.159115 0 0 0.00477922
30 1 0.27441 0.450277 0.428383 0 0 -0.00134611
31 1 0.933807 0.832176 0.0337268 0 0 0.00526667
32 1 0.479574 0.741733 0.0587179 0 0 -0.00444293
33 1 0.260564 0.790639 0.655454 0 0 -0.00122654
34 1 0.335938 0.617033 0.926103 0 0 -0.00526631
35 1 0.0702097 0.825382 0.800715 0 0 -0.00477886
36 1 0.790171 0.707477 0.901112 0 0 0.00444233
37 1 0.525732 0.915685 0.779292 0 0 -0.00287485
38 1 0.995335 0.6656 0.531447 0 0 0.00134599
39 1 0.730102 0.873894 0.407428 0 0 -0.00196135
40 1 0.804909 0.700351 0.67651 0 0 -0.00164962
41 1 0.539643 0.908649 0.552402 0 0 0.00196123
42 1 0.00918113 0.658571 0.304376 0 0 0.00122619
43 1 0.744013 0.866858 0.180538 0 0 0.00287521
44 1 0.464836 0.748859 0.283321 0 0 0.00164998
45 1 0.199535 0.957161 0.159115 0 0 0.00477898
46 1 0.27441 0.78361 0.428383 0 0 -0.00134587
47 1 0.995335 0.998933 0.531447 0 0 0.00134635
48 1 0.00918113 0.991904 0.304376 0 0 0.00122619
ITEM: TIMESTEP
5
ITEM: NUMBER OF ATOMS
48
ITEM: BOX BOUNDS xy xz yz pp pp pp
-2.1244622468948364e+00 8.6109705567359924e+00 2.5110912919044495e+00
-1.0506033897399902e-02 9.6185076832771301e+00 -2.1099054217338562e+00
-2.6944518089294434e-02 1.9544072151184082e+01 3.6519104242324829e-01
ITEM: ATOMS id type xs ys zs fx fy fz
1 1 0.93388 0.165502 0.0339289 0 0 0.00160754
2 1 0.479524 0.0750718 0.058579 0 0 0.00121665
3 1 0.260541 0.123975 0.65539 0 0 -0.00173485
4 1 0.335865 0.950375 0.925901 0 0 -0.00160789
5 1 0.0701457 0.158722 0.800538 0 0 0.00121725
6 1 0.790221 0.0408045 0.901251 0 0 -0.00121617
7 1 0.525691 0.249023 0.779178 0 0 0.00149238
8 1 0.730098 0.207228 0.407419 0 0 9.2864e-05
9 1 0.804881 0.033687 0.676431 0 0 -0.00156701
10 1 0.539647 0.241982 0.552411 0 0 -9.34601e-05
11 1 0.744054 0.200187 0.180652 0 0 -0.0014925
12 1 0.464864 0.0821894 0.283399 0 0 0.00156736
13 1 0.199599 0.290488 0.159292 0 0 -0.00121677
14 1 0.274417 0.116943 0.428403 0 0 -0.000491142
15 1 0.93388 0.498835 0.0339289 0 0 0.00160682
16 1 0.479524 0.408405 0.058579 0 0 0.00121796
17 1 0.260541 0.457308 0.65539 0 0 -0.00173533
18 1 0.335865 0.283708 0.925901 0 0 -0.00160873
19 1 0.0701457 0.492056 0.800538 0 0 0.00121665
20 1 0.790221 0.374138 0.901251 0 0 -0.00121641
21 1 0.525691 0.582356 0.779178 0 0 0.00149238
22 1 0.995328 0.332267 0.531427 0 0 0.000491619
23 1 0.730098 0.540561 0.407419 0 0 9.27448e-05
24 1 0.804881 0.36702 0.676431 0 0 -0.00156724
25 1 0.539647 0.575315 0.552411 0 0 -9.29832e-05
26 1 0.00920412 0.325235 0.30444 0 0 0.00173545
27 1 0.744054 0.533521 0.180652 0 0 -0.00149345
28 1 0.464864 0.415523 0.283399 0 0 0.00156784
29 1 0.199599 0.623821 0.159292 0 0 -0.00121689
30 1 0.274417 0.450276 0.428403 0 0 -0.000491381
31 1 0.93388 0.832169 0.0339289 0 0 0.00160742
32 1 0.479524 0.741738 0.058579 0 0 0.00121784
33 1 0.260541 0.790641 0.65539 0 0 -0.00173509
34 1 0.335865 0.617041 0.925901 0 0 -0.00160825
35 1 0.0701457 0.825389 0.800538 0 0 0.00121641
36 1 0.790221 0.707471 0.901251 0 0 -0.00121617
37 1 0.525691 0.915689 0.779178 0 0 0.00149167
38 1 0.995328 0.6656 0.531427 0 0 0.000491858
39 1 0.730098 0.873895 0.407419 0 0 9.32217e-05
40 1 0.804881 0.700354 0.676431 0 0 -0.00156748
41 1 0.539647 0.908648 0.552411 0 0 -9.31025e-05
42 1 0.0092041 0.658568 0.30444 0 0 0.00173557
43 1 0.744054 0.866854 0.180652 0 0 -0.00149238
44 1 0.464864 0.748856 0.283399 0 0 0.0015676
45 1 0.199599 0.957154 0.159292 0 0 -0.00121689
46 1 0.274417 0.783609 0.428403 0 0 -0.000491619
47 1 0.995328 0.998934 0.531427 0 0 0.000490904
48 1 0.0092041 0.991902 0.30444 0 0 0.00173521
ITEM: TIMESTEP
6
ITEM: NUMBER OF ATOMS
48
ITEM: BOX BOUNDS xy xz yz pp pp pp
-2.1244622468948364e+00 8.6109705567359924e+00 2.5110912919044495e+00
-1.0506033897399902e-02 9.6185076832771301e+00 -2.1099054217338562e+00
-2.6944518089294434e-02 1.9544072151184082e+01 3.6519104242324829e-01
ITEM: ATOMS id type xs ys zs fx fy fz
1 1 0.933892 0.165501 0.0339606 0 0 -0.000370026
2 1 0.479526 0.0750716 0.0585851 0 0 -0.000198722
3 1 0.260532 0.123976 0.655365 0 0 -0.000313044
4 1 0.335853 0.950376 0.92587 0 0 0.000370145
5 1 0.070147 0.158722 0.800542 0 0 1.46627e-05
6 1 0.790219 0.0408048 0.901245 0 0 0.000198245
7 1 0.525695 0.249022 0.779189 0 0 1.16825e-05
8 1 0.730098 0.207228 0.40742 0 0 0.000601411
9 1 0.804872 0.0336879 0.676407 0 0 -0.000255942
10 1 0.539647 0.241982 0.55241 0 0 -0.00060153
11 1 0.74405 0.200188 0.180641 0 0 -1.15633e-05
12 1 0.464873 0.0821885 0.283423 0 0 0.000256062
13 1 0.199598 0.290488 0.159288 0 0 -1.40667e-05
14 1 0.274416 0.116943 0.428398 0 0 0.000295281
15 1 0.933892 0.498834 0.0339606 0 0 -0.000370264
16 1 0.479526 0.408405 0.0585851 0 0 -0.000198245
17 1 0.260532 0.457309 0.655365 0 0 -0.000312924
18 1 0.335853 0.283709 0.92587 0 0 0.000369549
19 1 0.070147 0.492055 0.800542 0 0 1.44243e-05
20 1 0.790219 0.374138 0.901245 0 0 0.000198126
21 1 0.525695 0.582355 0.779189 0 0 1.15633e-05
22 1 0.995329 0.332267 0.531432 0 0 -0.000295043
23 1 0.730098 0.540561 0.40742 0 0 0.000602007
24 1 0.804872 0.367021 0.676407 0 0 -0.0002563
25 1 0.539647 0.575315 0.55241 0 0 -0.00060153
26 1 0.00921308 0.325234 0.304465 0 0 0.000313401
27 1 0.74405 0.533521 0.180641 0 0 -1.14441e-05
28 1 0.464873 0.415522 0.283423 0 0 0.000255942
29 1 0.199598 0.623821 0.159288 0 0 -1.45435e-05
30 1 0.274416 0.450276 0.428398 0 0 0.000295281
31 1 0.933892 0.832167 0.0339606 0 0 -0.000369668
32 1 0.479526 0.741738 0.0585851 0 0 -0.000198483
33 1 0.260532 0.790642 0.655365 0 0 -0.000312567
34 1 0.335853 0.617042 0.92587 0 0 0.000370026
35 1 0.070147 0.825389 0.800542 0 0 1.41859e-05
36 1 0.790219 0.707471 0.901245 0 0 0.000198483
37 1 0.525695 0.915689 0.779189 0 0 1.07288e-05
38 1 0.995329 0.6656 0.531432 0 0 -0.000295401
39 1 0.730098 0.873895 0.40742 0 0 0.000601053
40 1 0.804872 0.700355 0.676407 0 0 -0.000255942
41 1 0.539647 0.908648 0.55241 0 0 -0.000601053
42 1 0.00921306 0.658567 0.304465 0 0 0.000312805
43 1 0.74405 0.866854 0.180641 0 0 -1.15633e-05
44 1 0.464873 0.748855 0.283423 0 0 0.000255823
45 1 0.199598 0.957154 0.159288 0 0 -1.41859e-05
46 1 0.274416 0.783609 0.428398 0 0 0.000295162
47 1 0.995329 0.998934 0.531432 0 0 -0.000295401
48 1 0.00921306 0.991901 0.304465 0 0 0.000313401
ITEM: TIMESTEP
7
ITEM: NUMBER OF ATOMS
48
ITEM: BOX BOUNDS xy xz yz pp pp pp
-2.1244622468948364e+00 8.6109705567359924e+00 2.5110912919044495e+00
-1.0506033897399902e-02 9.6185076832771301e+00 -2.1099054217338562e+00
-2.6944518089294434e-02 1.9544072151184082e+01 3.6519104242324829e-01
ITEM: ATOMS id type xs ys zs fx fy fz
1 1 0.93389 0.165501 0.0339562 0 0 -3.12328e-05
2 1 0.479525 0.0750717 0.0585818 0 0 8.91685e-05
3 1 0.260529 0.123976 0.655357 0 0 -3.23057e-05
4 1 0.335855 0.950376 0.925874 0 0 3.09944e-05
5 1 0.0701473 0.158722 0.800542 0 0 -0.000124574
6 1 0.79022 0.0408046 0.901248 0 0 -8.90493e-05
7 1 0.525695 0.249022 0.77919 0 0 -0.000151277
8 1 0.730103 0.207228 0.407432 0 0 -2.61068e-05
9 1 0.804869 0.0336882 0.6764 0 0 -7.30753e-05
10 1 0.539642 0.241982 0.552399 0 0 2.63453e-05
11 1 0.74405 0.200188 0.18064 0 0 0.000151038
12 1 0.464876 0.0821882 0.28343 0 0 7.28369e-05
13 1 0.199598 0.290488 0.159288 0 0 0.000123739
14 1 0.274417 0.116943 0.428403 0 0 -9.05991e-06
15 1 0.93389 0.498834 0.0339562 0 0 -3.14713e-05
16 1 0.479525 0.408405 0.0585818 0 0 8.84533e-05
17 1 0.260529 0.457309 0.655357 0 0 -3.21865e-05
18 1 0.335855 0.283709 0.925874 0 0 3.17097e-05
19 1 0.0701472 0.492055 0.800542 0 0 -0.000124216
20 1 0.79022 0.374138 0.901248 0 0 -8.85725e-05
21 1 0.525695 0.582355 0.77919 0 0 -0.000151038
22 1 0.995327 0.332267 0.531427 0 0 9.17912e-06
23 1 0.730103 0.540561 0.407432 0 0 -2.64645e-05
24 1 0.804869 0.367022 0.6764 0 0 -7.24792e-05
25 1 0.539642 0.575315 0.552399 0 0 2.64645e-05
26 1 0.00921609 0.325234 0.304473 0 0 3.25441e-05
27 1 0.74405 0.533521 0.18064 0 0 0.000151277
28 1 0.464876 0.415522 0.28343 0 0 7.27177e-05
29 1 0.199598 0.623821 0.159288 0 0 0.000124335
30 1 0.274417 0.450276 0.428403 0 0 -9.17912e-06
31 1 0.93389 0.832167 0.0339562 0 0 -3.17097e-05
32 1 0.479525 0.741738 0.0585818 0 0 8.90493e-05
33 1 0.260529 0.790643 0.655357 0 0 -3.3021e-05
34 1 0.335855 0.617042 0.925874 0 0 3.14713e-05
35 1 0.0701473 0.825389 0.800542 0 0 -0.000123978
36 1 0.79022 0.707471 0.901248 0 0 -8.90493e-05
37 1 0.525695 0.915689 0.77919 0 0 -0.000150561
38 1 0.995327 0.6656 0.531427 0 0 9.17912e-06
39 1 0.730103 0.873894 0.407432 0 0 -2.55108e-05
40 1 0.804869 0.700355 0.6764 0 0 -7.30753e-05
41 1 0.539642 0.908649 0.552399 0 0 2.57492e-05
42 1 0.00921607 0.658567 0.304473 0 0 3.26633e-05
43 1 0.74405 0.866854 0.18064 0 0 0.000151157
44 1 0.464876 0.748855 0.28343 0 0 7.28369e-05
45 1 0.199598 0.957154 0.159288 0 0 0.000124097
46 1 0.274417 0.783609 0.428403 0 0 -9.29832e-06
47 1 0.995327 0.998934 0.531427 0 0 8.9407e-06
48 1 0.00921607 0.9919 0.304473 0 0 3.25441e-05
ITEM: TIMESTEP
8
ITEM: NUMBER OF ATOMS
48
ITEM: BOX BOUNDS xy xz yz pp pp pp
-2.1244622468948364e+00 8.6109705567359924e+00 2.5110912919044495e+00
-1.0506033897399902e-02 9.6185076832771301e+00 -2.1099054217338562e+00
-2.6944518089294434e-02 1.9544072151184082e+01 3.6519104242324829e-01
ITEM: ATOMS id type xs ys zs fx fy fz
1 1 0.93389 0.165501 0.0339544 0 0 0.000103235
2 1 0.479526 0.0750716 0.0585848 0 0 0.000112772
3 1 0.260528 0.123976 0.655355 0 0 -4.91142e-05
4 1 0.335855 0.950376 0.925876 0 0 -0.000102997
5 1 0.0701455 0.158722 0.800538 0 0 2.71797e-05
6 1 0.790219 0.0408048 0.901245 0 0 -0.000113249
7 1 0.525693 0.249022 0.779185 0 0 3.46899e-05
8 1 0.730103 0.207228 0.407432 0 0 9.05991e-06
9 1 0.804868 0.0336883 0.676397 0 0 -9.17912e-06
10 1 0.539642 0.241982 0.552398 0 0 -9.05991e-06
11 1 0.744052 0.200187 0.180646 0 0 -3.34978e-05
12 1 0.464877 0.082188 0.283434 0 0 9.41753e-06
13 1 0.199599 0.290487 0.159293 0 0 -2.65837e-05
14 1 0.274418 0.116943 0.428404 0 0 4.1008e-05
15 1 0.93389 0.498834 0.0339544 0 0 0.000104666
16 1 0.479526 0.408405 0.0585848 0 0 0.000114322
17 1 0.260528 0.457309 0.655355 0 0 -4.88758e-05
18 1 0.335855 0.283709 0.925876 0 0 -0.000105023
19 1 0.0701455 0.492056 0.800538 0 0 2.67029e-05
20 1 0.790219 0.374138 0.901245 0 0 -0.000114202
21 1 0.525693 0.582356 0.779185 0 0 3.38554e-05
22 1 0.995327 0.332267 0.531426 0 0 -4.06504e-05
23 1 0.730103 0.540561 0.407432 0 0 9.05991e-06
24 1 0.804868 0.367022 0.676397 0 0 -9.65595e-06
25 1 0.539642 0.575316 0.552398 0 0 -8.9407e-06
26 1 0.00921695 0.325234 0.304475 0 0 4.81606e-05
27 1 0.744052 0.533521 0.180646 0 0 -3.38554e-05
28 1 0.464877 0.415521 0.283434 0 0 9.53674e-06
29 1 0.199599 0.623821 0.159293 0 0 -2.69413e-05
30 1 0.274418 0.450276 0.428404 0 0 4.11272e-05
31 1 0.93389 0.832168 0.0339544 0 0 0.000104308
32 1 0.479526 0.741738 0.0585848 0 0 0.00011313
33 1 0.260528 0.790643 0.655355 0 0 -4.78029e-05
34 1 0.335855 0.617042 0.925876 0 0 -0.000104308
35 1 0.0701455 0.825389 0.800538 0 0 2.63453e-05
36 1 0.790219 0.707471 0.901245 0 0 -0.000113606
37 1 0.525693 0.915689 0.779185 0 0 3.32594e-05
38 1 0.995327 0.665601 0.531426 0 0 -4.1008e-05
39 1 0.730103 0.873894 0.407432 0 0 8.10623e-06
40 1 0.804868 0.700355 0.676397 0 0 -9.05991e-06
41 1 0.539642 0.908649 0.552398 0 0 -8.82149e-06
42 1 0.00921693 0.658567 0.304475 0 0 4.82798e-05
43 1 0.744052 0.866854 0.180646 0 0 -3.34978e-05
44 1 0.464877 0.748855 0.283434 0 0 9.29832e-06
45 1 0.199599 0.957154 0.159293 0 0 -2.64645e-05
46 1 0.274418 0.783609 0.428404 0 0 4.11272e-05
47 1 0.995327 0.998934 0.531426 0 0 -4.07696e-05
48 1 0.00921693 0.9919 0.304475 0 0 4.85182e-05
ITEM: TIMESTEP
9
ITEM: NUMBER OF ATOMS
48
ITEM: BOX BOUNDS xy xz yz pp pp pp
-2.1244622468948364e+00 8.6109705567359924e+00 2.5110912919044495e+00
-1.0506033897399902e-02 9.6185076832771301e+00 -2.1099054217338562e+00
-2.6944518089294434e-02 1.9544072151184082e+01 3.6519104242324829e-01
ITEM: ATOMS id type xs ys zs fx fy fz
1 1 0.93389 0.165501 0.0339555 0 0 1.78814e-06
2 1 0.479527 0.0750715 0.0585869 0 0 -1.80006e-05
3 1 0.260528 0.123976 0.655354 0 0 -2.09808e-05
4 1 0.335855 0.950376 0.925875 0 0 -1.78814e-06
5 1 0.0701453 0.158722 0.800537 0 0 -3.69549e-06
6 1 0.790218 0.0408048 0.901243 0 0 1.80006e-05
7 1 0.525693 0.249022 0.779184 0 0 -2.14577e-06
8 1 0.730103 0.207228 0.407432 0 0 7.15256e-06
9 1 0.804868 0.0336884 0.676396 0 0 9.29832e-06
10 1 0.539642 0.241982 0.552398 0 0 -7.39098e-06
11 1 0.744052 0.200187 0.180646 0 0 2.02656e-06
12 1 0.464877 0.082188 0.283434 0 0 -9.29832e-06
13 1 0.1996 0.290487 0.159293 0 0 4.76837e-06
14 1 0.274418 0.116942 0.428404 0 0 2.36034e-05
15 1 0.93389 0.498834 0.0339555 0 0 1.43051e-06
16 1 0.479527 0.408405 0.0585869 0 0 -1.78814e-05
17 1 0.260528 0.45731 0.655354 0 0 -2.09808e-05
18 1 0.335855 0.283709 0.925875 0 0 -1.3113e-06
19 1 0.0701453 0.492056 0.800537 0 0 -3.93391e-06
20 1 0.790218 0.374138 0.901243 0 0 1.77622e-05
21 1 0.525693 0.582356 0.779184 0 0 -2.02656e-06
22 1 0.995327 0.332267 0.531426 0 0 -2.36034e-05
23 1 0.730103 0.540561 0.407432 0 0 7.86781e-06
24 1 0.804868 0.367022 0.676396 0 0 8.82149e-06
25 1 0.539642 0.575316 0.552398 0 0 -8.22544e-06
26 1 0.00921736 0.325234 0.304477 0 0 2.08616e-05
27 1 0.744052 0.533521 0.180646 0 0 1.54972e-06
28 1 0.464877 0.415521 0.283434 0 0 -9.05991e-06
29 1 0.1996 0.623821 0.159293 0 0 3.8147e-06
30 1 0.274418 0.450276 0.428404 0 0 2.34842e-05
31 1 0.93389 0.832167 0.0339555 0 0 1.90735e-06
32 1 0.479527 0.741738 0.0585869 0 0 -1.81198e-05
33 1 0.260528 0.790643 0.655354 0 0 -2.00272e-05
34 1 0.335855 0.617042 0.925875 0 0 -1.43051e-06
35 1 0.0701453 0.825389 0.800537 0 0 -4.41074e-06
36 1 0.790218 0.707472 0.901243 0 0 1.80006e-05
37 1 0.525693 0.915689 0.779184 0 0 -2.38419e-06
38 1 0.995327 0.665601 0.531426 0 0 -2.34842e-05
39 1 0.730103 0.873894 0.407432 0 0 6.55651e-06
40 1 0.804868 0.700355 0.676396 0 0 9.17912e-06
41 1 0.539642 0.908649 0.552398 0 0 -7.03335e-06
42 1 0.00921733 0.658567 0.304477 0 0 2.08616e-05
43 1 0.744052 0.866854 0.180646 0 0 1.78814e-06
44 1 0.464877 0.748855 0.283434 0 0 -8.58307e-06
45 1 0.1996 0.957154 0.159293 0 0 4.29153e-06
46 1 0.274418 0.783609 0.428404 0 0 2.38419e-05
47 1 0.995327 0.998934 0.531426 0 0 -2.34842e-05
48 1 0.00921734 0.9919 0.304477 0 0 2.06232e-05
ITEM: TIMESTEP
10
ITEM: NUMBER OF ATOMS
48
ITEM: BOX BOUNDS xy xz yz pp pp pp
-2.1244622468948364e+00 8.6109705567359924e+00 2.5110912919044495e+00
-1.0506033897399902e-02 9.6185076832771301e+00 -2.1099054217338562e+00
-2.6944518089294434e-02 1.9544072151184082e+01 3.6519104242324829e-01
ITEM: ATOMS id type xs ys zs fx fy fz
1 1 0.93389 0.165501 0.0339556 0 0 4.29153e-06
2 1 0.479526 0.0750715 0.0585867 0 0 -7.03335e-06
3 1 0.260527 0.123976 0.655353 0 0 -4.05312e-06
4 1 0.335855 0.950376 0.925875 0 0 -4.17233e-06
5 1 0.0701453 0.158722 0.800537 0 0 -2.98023e-06
6 1 0.790218 0.0408048 0.901243 0 0 7.39098e-06
7 1 0.525693 0.249022 0.779184 0 0 -2.86102e-06
8 1 0.730103 0.207228 0.407432 0 0 -7.15256e-06
9 1 0.804868 0.0336884 0.676396 0 0 -6.4373e-06
10 1 0.539642 0.241982 0.552398 0 0 6.91414e-06
11 1 0.744052 0.200187 0.180646 0 0 2.26498e-06
12 1 0.464877 0.082188 0.283434 0 0 6.31809e-06
13 1 0.1996 0.290487 0.159293 0 0 2.6226e-06
14 1 0.274418 0.116942 0.428405 0 0 -4.41074e-06
15 1 0.93389 0.498834 0.0339556 0 0 3.93391e-06
16 1 0.479526 0.408405 0.0585867 0 0 -7.15256e-06
17 1 0.260527 0.45731 0.655353 0 0 -4.41074e-06
18 1 0.335855 0.283709 0.925875 0 0 -4.41074e-06
19 1 0.0701453 0.492056 0.800537 0 0 -2.86102e-06
20 1 0.790219 0.374138 0.901243 0 0 7.27177e-06
21 1 0.525693 0.582356 0.779184 0 0 -2.26498e-06
22 1 0.995327 0.332267 0.531425 0 0 3.93391e-06
23 1 0.730103 0.540561 0.407432 0 0 -7.03335e-06
24 1 0.804868 0.367022 0.676396 0 0 -6.19888e-06
25 1 0.539642 0.575316 0.552398 0 0 7.27177e-06
26 1 0.00921755 0.325234 0.304477 0 0 4.52995e-06
27 1 0.744052 0.533521 0.180646 0 0 2.26498e-06
28 1 0.464877 0.415521 0.283434 0 0 6.19888e-06
29 1 0.1996 0.623821 0.159293 0 0 3.09944e-06
30 1 0.274418 0.450276 0.428405 0 0 -4.17233e-06
31 1 0.93389 0.832167 0.0339556 0 0 4.05312e-06
32 1 0.479526 0.741738 0.0585867 0 0 -6.79493e-06
33 1 0.260527 0.790643 0.655353 0 0 -5.126e-06
34 1 0.335855 0.617042 0.925875 0 0 -4.41074e-06
35 1 0.0701453 0.825389 0.800537 0 0 -2.14577e-06
36 1 0.790219 0.707471 0.901243 0 0 7.39098e-06
37 1 0.525693 0.915689 0.779184 0 0 -2.26498e-06
38 1 0.995327 0.665601 0.531425 0 0 4.29153e-06
39 1 0.730103 0.873894 0.407432 0 0 -6.55651e-06
40 1 0.804868 0.700355 0.676396 0 0 -6.55651e-06
41 1 0.539642 0.908649 0.552398 0 0 7.27177e-06
42 1 0.00921752 0.658567 0.304477 0 0 4.17233e-06
43 1 0.744052 0.866854 0.180646 0 0 2.38419e-06
44 1 0.464877 0.748855 0.283434 0 0 5.96046e-06
45 1 0.1996 0.957154 0.159293 0 0 2.86102e-06
46 1 0.274418 0.783609 0.428405 0 0 -4.41074e-06
47 1 0.995327 0.998934 0.531425 0 0 4.41074e-06
48 1 0.00921753 0.9919 0.304477 0 0 4.76837e-06
ITEM: TIMESTEP
11
ITEM: NUMBER OF ATOMS
48
ITEM: BOX BOUNDS xy xz yz pp pp pp
-2.1244622468948364e+00 8.6109705567359924e+00 2.5110912919044495e+00
-1.0506033897399902e-02 9.6185076832771301e+00 -2.1099054217338562e+00
-2.6944518089294434e-02 1.9544072151184082e+01 3.6519104242324829e-01
ITEM: ATOMS id type xs ys zs fx fy fz
1 1 0.93389 0.165501 0.0339557 0 0 5.24521e-06
2 1 0.479526 0.0750715 0.0585865 0 0 9.53674e-07
3 1 0.260527 0.123976 0.655353 0 0 2.5034e-06
4 1 0.335855 0.950376 0.925874 0 0 -5.00679e-06
5 1 0.0701453 0.158722 0.800537 0 0 -1.43051e-06
6 1 0.790219 0.0408048 0.901244 0 0 -1.43051e-06
7 1 0.525693 0.249022 0.779184 0 0 -5.96046e-07
8 1 0.730103 0.207228 0.407432 0 0 3.45707e-06
9 1 0.804868 0.0336884 0.676396 0 0 -1.07288e-06
10 1 0.539642 0.241982 0.552398 0 0 -2.86102e-06
11 1 0.744052 0.200187 0.180646 0 0 1.3113e-06
12 1 0.464877 0.082188 0.283434 0 0 1.43051e-06
13 1 0.1996 0.290487 0.159293 0 0 1.3113e-06
14 1 0.274418 0.116942 0.428405 0 0 7.15256e-07
15 1 0.93389 0.498834 0.0339557 0 0 5.24521e-06
16 1 0.479526 0.408405 0.0585865 0 0 9.53674e-07
17 1 0.260527 0.45731 0.655353 0 0 2.38419e-06
18 1 0.335855 0.283709 0.925874 0 0 -4.88758e-06
19 1 0.0701453 0.492056 0.800537 0 0 -1.78814e-06