ITEM: TIMESTEP
0
ITEM: NUMBER OF ATOMS
48
ITEM: BOX BOUNDS xy xz yz pp pp pp
-1.4596629738807678e+00 8.5902721881866455e+00 2.5049497485160828e+00
0.0000000000000000e+00 9.2428106069564819e+00 -1.4596629738807678e+00
0.0000000000000000e+00 1.9517127633094788e+01 0.0000000000000000e+00
ITEM: ATOMS id type xs ys zs fx fy fz
1 1 0.918114 0.167011 0.0319649 0.0927849 0.000617981 0.00128746
2 1 0.460041 0.0749164 0.0533944 0.0643196 -0.00139809 0.00209999
3 1 0.183785 0.12472 0.656965 0.000101089 0.00037384 0.000417709
4 1 0.231937 0.948865 0.927865 -0.0927887 -0.000619888 -0.00128937
5 1 0.978834 0.157171 0.8026 0.00727654 -0.000499725 -0.000993729
6 1 0.69001 0.04096 0.906436 -0.0643139 0.00139999 -0.00209427
7 1 0.436917 0.249555 0.781869 -0.0049324 0.000480652 0.00047493
8 1 0.677499 0.208207 0.407109 0.000104904 0.00125694 -1.90735e-06
9 1 0.725732 0.0324994 0.677648 -0.000209808 -0.00117874 2.86102e-05
10 1 0.472552 0.241003 0.552721 -0.000102997 -0.00126076 1.90735e-06
11 1 0.713134 0.199655 0.177961 0.00492859 -0.000478745 -0.000480652
12 1 0.424319 0.083377 0.282182 0.000205994 0.00117874 -3.05176e-05
13 1 0.171217 0.292039 0.15723 -0.00726891 0.000497818 0.000993729
14 1 0.219419 0.116069 0.427789 -0.000150681 -0.00078392 0.000337601
15 1 0.918114 0.500344 0.0319649 0.092783 0.000617981 0.00128555
16 1 0.460041 0.40825 0.0533945 0.0643196 -0.00139999 0.00209999
17 1 0.183785 0.458053 0.656965 0.000102997 0.000375748 0.000421524
18 1 0.231937 0.282199 0.927865 -0.0927925 -0.000612259 -0.00128746
19 1 0.978834 0.490504 0.8026 0.00727081 -0.000501633 -0.000993729
20 1 0.69001 0.374293 0.906436 -0.0643177 0.00139999 -0.00209618
21 1 0.436917 0.582888 0.781869 -0.00493622 0.000478745 0.000476837
22 1 0.930632 0.33314 0.532041 0.000152588 0.000780106 -0.000333786
23 1 0.677499 0.54154 0.407109 0.000101089 0.00125885 5.72205e-06
24 1 0.725732 0.365833 0.677648 -0.000207901 -0.00118065 2.86102e-05
25 1 0.472552 0.574336 0.552721 -0.000104904 -0.00125885 1.90735e-06
26 1 0.966266 0.32449 0.302865 -0.000101089 -0.00037384 -0.000421524
27 1 0.713134 0.532988 0.177961 0.00493622 -0.000478745 -0.000478745
28 1 0.424319 0.41671 0.282182 0.000211716 0.00117683 -3.24249e-05
29 1 0.171217 0.625372 0.15723 -0.00727272 0.000499725 0.000993729
30 1 0.219419 0.449403 0.427789 -0.000154495 -0.000778198 0.000333786
31 1 0.918114 0.833678 0.0319649 0.0927868 0.000614166 0.00128746
32 1 0.460041 0.741583 0.0533944 0.0643215 -0.0014019 0.00209999
33 1 0.183785 0.791386 0.656965 0.000104904 0.000375748 0.000417709
34 1 0.231937 0.615532 0.927865 -0.0927887 -0.000617981 -0.00128555
35 1 0.978834 0.823838 0.8026 0.00727081 -0.000499725 -0.000991821
36 1 0.69001 0.707627 0.906436 -0.0643139 0.00139999 -0.00209427
37 1 0.436917 0.916222 0.781869 -0.0049305 0.000488281 0.000473022
38 1 0.930632 0.666474 0.532041 0.000152588 0.000782013 -0.000339508
39 1 0.677499 0.874873 0.407109 0.000101089 0.00125885 0
40 1 0.725732 0.699166 0.677648 -0.000207901 -0.00117874 2.86102e-05
41 1 0.472552 0.90767 0.552721 -0.000101089 -0.00125885 0
42 1 0.966266 0.657823 0.302865 -0.000106812 -0.00037384 -0.000417709
43 1 0.713134 0.866321 0.177961 0.00493622 -0.000482559 -0.000476837
44 1 0.424319 0.750044 0.282182 0.000211716 0.00117874 -3.05176e-05
45 1 0.171217 0.958706 0.15723 -0.00727463 0.000497818 0.000993729
46 1 0.219419 0.782736 0.427789 -0.000152588 -0.000780106 0.000333786
47 1 0.930632 0.999807 0.532041 0.000152588 0.00078392 -0.000335693
48 1 0.966266 0.991157 0.302865 -0.000106812 -0.000375748 -0.000417709
ITEM: TIMESTEP
1
ITEM: NUMBER OF ATOMS
48
ITEM: BOX BOUNDS xy xz yz pp pp pp
-1.4596629738807678e+00 8.5902721881866455e+00 2.5049497485160828e+00
0.0000000000000000e+00 9.2428106069564819e+00 -1.4596629738807678e+00
0.0000000000000000e+00 1.9517127633094788e+01 0.0000000000000000e+00
ITEM: ATOMS id type xs ys zs fx fy fz
1 1 0.918114 0.167011 0.0319649 0.0927849 0.000617981 0.00128746
2 1 0.460041 0.0749164 0.0533944 0.0643196 -0.00139809 0.00209999
3 1 0.183785 0.12472 0.656965 0.000101089 0.00037384 0.000417709
4 1 0.231937 0.948865 0.927865 -0.0927887 -0.000619888 -0.00128937
5 1 0.978834 0.157171 0.8026 0.00727654 -0.000499725 -0.000993729
6 1 0.69001 0.04096 0.906436 -0.0643139 0.00139999 -0.00209427
7 1 0.436917 0.249555 0.781869 -0.0049324 0.000480652 0.00047493
8 1 0.677499 0.208207 0.407109 0.000104904 0.00125694 -1.90735e-06
9 1 0.725732 0.0324994 0.677648 -0.000209808 -0.00117874 2.86102e-05
10 1 0.472552 0.241003 0.552721 -0.000102997 -0.00126076 1.90735e-06
11 1 0.713134 0.199655 0.177961 0.00492859 -0.000478745 -0.000480652
12 1 0.424319 0.083377 0.282182 0.000205994 0.00117874 -3.05176e-05
13 1 0.171217 0.292039 0.15723 -0.00726891 0.000497818 0.000993729
14 1 0.219419 0.116069 0.427789 -0.000150681 -0.00078392 0.000337601
15 1 0.918114 0.500344 0.0319649 0.092783 0.000617981 0.00128555
16 1 0.460041 0.40825 0.0533945 0.0643196 -0.00139999 0.00209999
17 1 0.183785 0.458053 0.656965 0.000102997 0.000375748 0.000421524
18 1 0.231937 0.282199 0.927865 -0.0927925 -0.000612259 -0.00128746
19 1 0.978834 0.490504 0.8026 0.00727081 -0.000501633 -0.000993729
20 1 0.69001 0.374293 0.906436 -0.0643177 0.00139999 -0.00209618
21 1 0.436917 0.582888 0.781869 -0.00493622 0.000478745 0.000476837
22 1 0.930632 0.33314 0.532041 0.000152588 0.000780106 -0.000333786
23 1 0.677499 0.54154 0.407109 0.000101089 0.00125885 5.72205e-06
24 1 0.725732 0.365833 0.677648 -0.000207901 -0.00118065 2.86102e-05
25 1 0.472552 0.574336 0.552721 -0.000104904 -0.00125885 1.90735e-06
26 1 0.966266 0.32449 0.302865 -0.000101089 -0.00037384 -0.000421524
27 1 0.713134 0.532988 0.177961 0.00493622 -0.000478745 -0.000478745
28 1 0.424319 0.41671 0.282182 0.000211716 0.00117683 -3.24249e-05
29 1 0.171217 0.625372 0.15723 -0.00727272 0.000499725 0.000993729
30 1 0.219419 0.449403 0.427789 -0.000154495 -0.000778198 0.000333786
31 1 0.918114 0.833678 0.0319649 0.0927868 0.000614166 0.00128746
32 1 0.460041 0.741583 0.0533944 0.0643215 -0.0014019 0.00209999
33 1 0.183785 0.791386 0.656965 0.000104904 0.000375748 0.000417709
34 1 0.231937 0.615532 0.927865 -0.0927887 -0.000617981 -0.00128555
35 1 0.978834 0.823838 0.8026 0.00727081 -0.000499725 -0.000991821
36 1 0.69001 0.707627 0.906436 -0.0643139 0.00139999 -0.00209427
37 1 0.436917 0.916222 0.781869 -0.0049305 0.000488281 0.000473022
38 1 0.930632 0.666474 0.532041 0.000152588 0.000782013 -0.000339508
39 1 0.677499 0.874873 0.407109 0.000101089 0.00125885 0
40 1 0.725732 0.699166 0.677648 -0.000207901 -0.00117874 2.86102e-05
41 1 0.472552 0.90767 0.552721 -0.000101089 -0.00125885 0
42 1 0.966266 0.657823 0.302865 -0.000106812 -0.00037384 -0.000417709
43 1 0.713134 0.866321 0.177961 0.00493622 -0.000482559 -0.000476837
44 1 0.424319 0.750044 0.282182 0.000211716 0.00117874 -3.05176e-05
45 1 0.171217 0.958706 0.15723 -0.00727463 0.000497818 0.000993729
46 1 0.219419 0.782736 0.427789 -0.000152588 -0.000780106 0.000333786
47 1 0.930632 0.999807 0.532041 0.000152588 0.00078392 -0.000335693
48 1 0.966266 0.991157 0.302865 -0.000106812 -0.000375748 -0.000417709
ITEM: TIMESTEP
2
ITEM: NUMBER OF ATOMS
48
ITEM: BOX BOUNDS xy xz yz pp pp pp
-1.4593949317932129e+00 8.5900594592094421e+00 2.5050413012504578e+00
-1.6885995864868164e-04 9.2429794669151306e+00 -1.4596992135047913e+00
-2.4211406707763672e-04 1.9517369747161865e+01 0.0000000000000000e+00
ITEM: ATOMS id type xs ys zs fx fy fz
1 1 0.918115 0.167011 0.0319649 0.0927525 0.000648499 0.00121498
2 1 0.460042 0.0749164 0.0533945 0.0643368 -0.00140762 0.00211906
3 1 0.183785 0.12472 0.656965 9.34601e-05 0.00038147 0.000333786
4 1 0.231936 0.948865 0.927865 -0.0927505 -0.000652313 -0.00122261
5 1 0.978834 0.157171 0.8026 0.00728989 -0.000505447 -0.000980377
6 1 0.690009 0.04096 0.906436 -0.0643387 0.00140762 -0.00212288
7 1 0.436917 0.249555 0.781869 -0.00494003 0.000501633 0.000457764
8 1 0.677499 0.208207 0.407109 8.2016e-05 0.00127029 -3.05176e-05
9 1 0.725732 0.0324994 0.677648 -0.000179291 -0.00120544 7.24792e-05
10 1 0.472552 0.241003 0.552721 -8.2016e-05 -0.00127029 2.86102e-05
11 1 0.713134 0.199655 0.177961 0.00494003 -0.000501633 -0.000457764
12 1 0.424319 0.083377 0.282182 0.000185013 0.00120163 -7.05719e-05
13 1 0.171217 0.292039 0.15723 -0.00728798 0.000507355 0.000984192
14 1 0.219419 0.116069 0.427789 -0.000133514 -0.000787735 0.000368118
15 1 0.918115 0.500344 0.0319649 0.0927544 0.000652313 0.00122261
16 1 0.460042 0.40825 0.0533945 0.0643349 -0.00141144 0.00211716
17 1 0.183785 0.458053 0.656965 9.34601e-05 0.000379562 0.000335693
18 1 0.231936 0.282199 0.927865 -0.0927505 -0.000652313 -0.00122261
19 1 0.978834 0.490504 0.8026 0.00729179 -0.00050354 -0.00097847
20 1 0.690009 0.374293 0.906436 -0.0643406 0.00140762 -0.00212097
21 1 0.436916 0.582888 0.781869 -0.00494003 0.000501633 0.000455856
22 1 0.930632 0.33314 0.532041 0.000133514 0.000789642 -0.000362396
23 1 0.677499 0.54154 0.407109 8.2016e-05 0.00127029 -3.05176e-05
24 1 0.725732 0.365833 0.677648 -0.000188828 -0.00119781 7.05719e-05
25 1 0.472552 0.574336 0.552721 -8.01086e-05 -0.00126839 3.05176e-05
26 1 0.966266 0.32449 0.302865 -9.15527e-05 -0.000379562 -0.000335693
27 1 0.713134 0.532988 0.177961 0.00493431 -0.00050354 -0.000457764
28 1 0.424319 0.41671 0.282182 0.000185013 0.00120163 -7.05719e-05
29 1 0.171217 0.625372 0.15723 -0.00728416 0.000507355 0.000982285
30 1 0.219419 0.449403 0.427789 -0.000137329 -0.000789642 0.000370026
31 1 0.918115 0.833678 0.0319649 0.0927544 0.000658035 0.00122261
32 1 0.460042 0.741583 0.0533945 0.0643349 -0.00141335 0.00211716
33 1 0.183785 0.791386 0.656965 9.53674e-05 0.000377655 0.000335693
34 1 0.231936 0.615532 0.927865 -0.0927505 -0.000652313 -0.00122261
35 1 0.978834 0.823838 0.8026 0.00728607 -0.00050354 -0.00097847
36 1 0.690009 0.707627 0.906436 -0.0643406 0.0014019 -0.00212097
37 1 0.436917 0.916222 0.781869 -0.00493813 0.000501633 0.000455856
38 1 0.930632 0.666474 0.532041 0.000133514 0.000789642 -0.000364304
39 1 0.677499 0.874873 0.407109 8.2016e-05 0.00127029 -3.05176e-05
40 1 0.725732 0.699166 0.677648 -0.00018692 -0.00120163 7.05719e-05
41 1 0.472552 0.90767 0.552721 -8.01086e-05 -0.00127029 3.05176e-05
42 1 0.966266 0.657823 0.302865 -9.34601e-05 -0.000375748 -0.000337601
43 1 0.713134 0.866321 0.177961 0.00493622 -0.00050354 -0.000455856
44 1 0.424319 0.750044 0.282182 0.000185013 0.00120163 -7.24792e-05
45 1 0.171217 0.958706 0.15723 -0.00728607 0.000505447 0.000980377
46 1 0.219419 0.782736 0.427789 -0.000135422 -0.00079155 0.000370026
47 1 0.930632 0.999807 0.532041 0.000133514 0.000789642 -0.000364304
48 1 0.966266 0.991157 0.302865 -9.34601e-05 -0.000375748 -0.000335693
ITEM: TIMESTEP
3
ITEM: NUMBER OF ATOMS
48
ITEM: BOX BOUNDS xy xz yz pp pp pp
-1.4591280221939087e+00 8.5898483991622925e+00 2.5051345229148865e+00
-3.4093856811523438e-04 9.2431515455245972e+00 -1.4597365856170654e+00
-4.9215555191040039e-04 1.9517619788646698e+01 0.0000000000000000e+00
ITEM: ATOMS id type xs ys zs fx fy fz
1 1 0.918116 0.167011 0.0319649 0.0926933 0.000665665 0.00115585
2 1 0.460043 0.0749164 0.0533945 0.0643272 -0.00144958 0.00212479
3 1 0.183785 0.12472 0.656965 7.82013e-05 0.000415802 0.000310898
4 1 0.231934 0.948865 0.927865 -0.0926971 -0.000663757 -0.00115585
5 1 0.978834 0.157171 0.8026 0.00731087 -0.000513077 -0.000955582
6 1 0.690008 0.0409601 0.906436 -0.0643253 0.00144196 -0.00213051
7 1 0.436917 0.249555 0.781869 -0.00497246 0.000507355 0.000406265
8 1 0.677499 0.208207 0.407109 5.91278e-05 0.00128746 -5.34058e-05
9 1 0.725732 0.0324993 0.677648 -0.000165939 -0.0012207 9.34601e-05
10 1 0.472552 0.241003 0.552721 -5.72205e-05 -0.00129128 5.53131e-05
11 1 0.713135 0.199655 0.177961 0.00497055 -0.000509262 -0.000406265
12 1 0.424319 0.083377 0.282182 0.000165939 0.00122261 -9.15527e-05
13 1 0.171217 0.292039 0.15723 -0.00730705 0.000520706 0.000953674
14 1 0.219419 0.116069 0.427789 -0.0001297 -0.000802994 0.000402451
15 1 0.918116 0.500344 0.0319649 0.0926971 0.00066185 0.00115395
16 1 0.460043 0.40825 0.0533945 0.0643272 -0.00144958 0.00212479
17 1 0.183785 0.458053 0.656965 7.82013e-05 0.000417709 0.000310898
18 1 0.231934 0.282199 0.927865 -0.092701 -0.000663757 -0.00115585
19 1 0.978834 0.490504 0.8026 0.00731277 -0.000511169 -0.000953674
20 1 0.690008 0.374293 0.906436 -0.0643272 0.00144386 -0.00212669
21 1 0.436916 0.582888 0.781869 -0.00497246 0.000507355 0.000406265
22 1 0.930632 0.33314 0.532041 0.00012207 0.000801086 -0.000391006
23 1 0.677499 0.54154 0.407109 5.72205e-05 0.00128937 -5.34058e-05
24 1 0.725732 0.365833 0.677648 -0.000169754 -0.0012207 9.15527e-05
25 1 0.472552 0.574336 0.552721 -5.91278e-05 -0.00129128 5.53131e-05
26 1 0.966266 0.32449 0.302865 -7.05719e-05 -0.000413895 -0.000314713
27 1 0.713134 0.532988 0.177961 0.00496864 -0.000507355 -0.000408173
28 1 0.424319 0.41671 0.282182 0.000164032 0.00122452 -9.72748e-05
29 1 0.171217 0.625372 0.15723 -0.00730705 0.000520706 0.00094986
30 1 0.219419 0.449403 0.427789 -0.000127792 -0.000801086 0.000400543
31 1 0.918116 0.833678 0.0319649 0.0926971 0.00066185 0.00115776
32 1 0.460043 0.741583 0.0533945 0.0643253 -0.00144768 0.0021286
33 1 0.183785 0.791386 0.656965 7.82013e-05 0.000413895 0.000310898
34 1 0.231934 0.615532 0.927865 -0.092701 -0.000663757 -0.00115585
35 1 0.978834 0.823838 0.8026 0.00731087 -0.000509262 -0.000957489
36 1 0.690008 0.707627 0.906436 -0.0643234 0.00144005 -0.0021286
37 1 0.436916 0.916222 0.781869 -0.00497055 0.000507355 0.000408173
38 1 0.930632 0.666474 0.532041 0.000125885 0.000801086 -0.000394821
39 1 0.677499 0.874873 0.407109 5.72205e-05 0.00128937 -5.14984e-05
40 1 0.725732 0.699166 0.677648 -0.000167847 -0.0012207 9.34601e-05
41 1 0.472552 0.90767 0.552721 -5.91278e-05 -0.00129128 5.34058e-05
42 1 0.966266 0.657823 0.302865 -7.24792e-05 -0.000413895 -0.000314713
43 1 0.713134 0.866321 0.177961 0.00496674 -0.000507355 -0.000408173
44 1 0.424319 0.750044 0.282182 0.000169754 0.00122261 -9.15527e-05
45 1 0.171217 0.958706 0.15723 -0.00730705 0.000516891 0.000953674
46 1 0.219419 0.782736 0.427789 -0.000127792 -0.000802994 0.000402451
47 1 0.930632 0.999807 0.532041 0.000125885 0.000801086 -0.000391006
48 1 0.966266 0.991157 0.302865 -7.05719e-05 -0.000415802 -0.00031662
ITEM: TIMESTEP
4
ITEM: NUMBER OF ATOMS
48
ITEM: BOX BOUNDS xy xz yz pp pp pp
-1.4588623046875000e+00 8.5896389484405518e+00 2.5052293539047241e+00
-5.1581859588623047e-04 9.2433264255523682e+00 -1.4597751498222351e+00
-7.4994564056396484e-04 1.9517877578735352e+01 0.0000000000000000e+00
ITEM: ATOMS id type xs ys zs fx fy fz
1 1 0.918118 0.167011 0.0319649 0.0926571 0.000699997 0.00110054
2 1 0.460043 0.0749163 0.0533945 0.0643311 -0.00145531 0.00216103
3 1 0.183785 0.12472 0.656965 4.95911e-05 0.000417709 0.000284195
4 1 0.231933 0.948865 0.927865 -0.0926647 -0.000696182 -0.00110817
5 1 0.978834 0.157171 0.8026 0.00732613 -0.000537872 -0.00091362
6 1 0.690007 0.0409601 0.906436 -0.0643311 0.0014534 -0.00216103
7 1 0.436916 0.249555 0.781869 -0.00498962 0.000518799 0.000368118
8 1 0.677499 0.208207 0.407109 4.76837e-05 0.00129509 -0.000104904
9 1 0.725732 0.0324993 0.677648 -0.000141144 -0.0012188 0.000146866
10 1 0.472552 0.241003 0.552721 -4.76837e-05 -0.00129509 0.000102997
11 1 0.713135 0.199655 0.177961 0.00498581 -0.000516891 -0.000366211
12 1 0.424319 0.083377 0.282182 0.000143051 0.00122261 -0.000141144
13 1 0.171217 0.292039 0.15723 -0.0073185 0.00053215 0.000911713
14 1 0.219419 0.116069 0.427789 -0.000110626 -0.000801086 0.000453949
15 1 0.918118 0.500344 0.0319649 0.0926609 0.000699997 0.00110245
16 1 0.460043 0.40825 0.0533945 0.0643311 -0.00145149 0.00216103
17 1 0.183785 0.458053 0.656965 4.95911e-05 0.000417709 0.00028038
18 1 0.231933 0.282199 0.927865 -0.0926647 -0.000696182 -0.00110435
19 1 0.978834 0.490504 0.8026 0.00732613 -0.000535965 -0.00091362
20 1 0.690007 0.374293 0.906436 -0.0643291 0.00144768 -0.00215912
21 1 0.436916 0.582888 0.781869 -0.00498962 0.000516891 0.000368118
22 1 0.930632 0.33314 0.532041 0.000106812 0.000797272 -0.000453949
23 1 0.677499 0.54154 0.407109 5.14984e-05 0.00129509 -0.000101089
24 1 0.725732 0.365833 0.677648 -0.000139236 -0.00121689 0.000148773
25 1 0.472552 0.574336 0.552721 -4.76837e-05 -0.001297 0.000106812
26 1 0.966266 0.32449 0.302865 -5.14984e-05 -0.000417709 -0.000284195
27 1 0.713135 0.532988 0.177961 0.00498772 -0.000516891 -0.000370026
28 1 0.424319 0.41671 0.282182 0.000141144 0.0012207 -0.000143051
29 1 0.171217 0.625372 0.15723 -0.00732422 0.000535965 0.000911713
30 1 0.219419 0.449403 0.427789 -0.000108719 -0.000801086 0.000450134
31 1 0.918118 0.833678 0.0319649 0.092659 0.000699997 0.00110245
32 1 0.460043 0.741583 0.0533945 0.0643311 -0.00145721 0.00216103
33 1 0.183785 0.791386 0.656965 5.14984e-05 0.000415802 0.000282288
34 1 0.231933 0.615532 0.927865 -0.0926628 -0.00069809 -0.00110435
35 1 0.978834 0.823838 0.8026 0.00732613 -0.000534058 -0.000909805
36 1 0.690007 0.707627 0.906436 -0.064333 0.0014534 -0.00215912
37 1 0.436916 0.916222 0.781869 -0.00498772 0.000520706 0.000368118
38 1 0.930632 0.666474 0.532041 0.000106812 0.000802994 -0.000452042
39 1 0.677499 0.874873 0.407109 4.95911e-05 0.00129509 -0.000104904
40 1 0.725732 0.699166 0.677648 -0.000141144 -0.0012188 0.000144958
41 1 0.472552 0.90767 0.552721 -4.95911e-05 -0.00129509 0.000104904
42 1 0.966266 0.657823 0.302865 -4.95911e-05 -0.000417709 -0.000284195
43 1 0.713135 0.866321 0.177961 0.00499153 -0.000522614 -0.000371933
44 1 0.424319 0.750044 0.282182 0.000141144 0.0012188 -0.000143051
45 1 0.171217 0.958706 0.15723 -0.00732422 0.000534058 0.000911713
46 1 0.219419 0.782736 0.427789 -0.000104904 -0.000795364 0.000452042
47 1 0.930632 0.999807 0.532041 0.000106812 0.000797272 -0.000452042
48 1 0.966266 0.991157 0.302865 -4.76837e-05 -0.000415802 -0.00028038
ITEM: TIMESTEP
5
ITEM: NUMBER OF ATOMS
48
ITEM: BOX BOUNDS xy xz yz pp pp pp
-1.4585977792739868e+00 8.5894308686256409e+00 2.5053255558013916e+00
-6.9332122802734375e-04 9.2435039281845093e+00 -1.4598149061203003e+00
-1.0158419609069824e-03 1.9518143475055695e+01 0.0000000000000000e+00
ITEM: ATOMS id type xs ys zs fx fy fz
1 1 0.918119 0.167011 0.0319649 0.0925903 0.000722885 0.00104141
2 1 0.460044 0.0749163 0.0533945 0.0643349 -0.00145912 0.0022068
3 1 0.183785 0.12472 0.656965 5.53131e-05 0.000423431 0.000242233
4 1 0.231932 0.948865 0.927865 -0.0925903 -0.000720978 -0.00104523
5 1 0.978834 0.157171 0.8026 0.00734138 -0.000543594 -0.000858307
6 1 0.690007 0.0409601 0.906436 -0.0643311 0.00145721 -0.00221062
7 1 0.436916 0.249555 0.781869 -0.00502014 0.00053978 0.00034523
8 1 0.677499 0.208207 0.407109 3.62396e-05 0.00131035 -0.000133514
9 1 0.725732 0.0324993 0.677648 -0.000135422 -0.00122643 0.000173569
10 1 0.472552 0.241003 0.552721 -3.43323e-05 -0.00130844 0.000133514
11 1 0.713135 0.199655 0.177961 0.00501823 -0.000537872 -0.000341415
12 1 0.424319 0.083377 0.282182 0.000133514 0.00122643 -0.000177383
13 1 0.171217 0.292039 0.15723 -0.00733757 0.000541687 0.000864029
14 1 0.219419 0.116069 0.427789 -8.7738e-05 -0.000810623 0.000497818
15 1 0.918119 0.500344 0.0319649 0.0925884 0.000722885 0.00104904
16 1 0.460044 0.40825 0.0533945 0.064333 -0.00146484 0.00220108
17 1 0.183785 0.458053 0.656965 5.34058e-05 0.000423431 0.000240326
18 1 0.231932 0.282199 0.927865 -0.0925922 -0.000724792 -0.00104904
19 1 0.978834 0.490504 0.8026 0.00733948 -0.000545502 -0.000864029
20 1 0.690007 0.374293 0.906436 -0.0643311 0.00146103 -0.00221443
21 1 0.436916 0.582888 0.781869 -0.00501823 0.000535965 0.00034523
22 1 0.930632 0.33314 0.532041 8.58307e-05 0.000818253 -0.000497818
23 1 0.677499 0.54154 0.407109 3.62396e-05 0.00130844 -0.000133514
24 1 0.725732 0.365833 0.677648 -0.000139236 -0.00122261 0.000175476
25 1 0.472552 0.574336 0.552721 -3.62396e-05 -0.00130844 0.000133514
26 1 0.966266 0.32449 0.302865 -4.3869e-05 -0.000421524 -0.000234604
27 1 0.713135 0.532988 0.177961 0.00501633 -0.000537872 -0.000343323
28 1 0.424319 0.41671 0.282182 0.000139236 0.00122643 -0.000175476
29 1 0.171217 0.625372 0.15723 -0.00734138 0.000543594 0.000864029
30 1 0.219419 0.449403 0.427789 -8.96454e-05 -0.000818253 0.000497818
31 1 0.918119 0.833678 0.0319649 0.0925884 0.000724792 0.00104332
32 1 0.460044 0.741583 0.0533945 0.0643349 -0.00146484 0.0022068
33 1 0.183785 0.791386 0.656965 4.95911e-05 0.000423431 0.000244141
34 1 0.231932 0.615532 0.927865 -0.0925884 -0.0007267 -0.00105095
35 1 0.978834 0.823838 0.8026 0.00733757 -0.00053978 -0.000865936
36 1 0.690006 0.707627 0.906436 -0.064333 0.00145912 -0.00220871
37 1 0.436916 0.916222 0.781869 -0.00502205 0.00053978 0.000339508
38 1 0.930632 0.666474 0.532041 8.39233e-05 0.000812531 -0.000494003
39 1 0.677499 0.874873 0.407109 3.43323e-05 0.00131226 -0.000133514
40 1 0.725732 0.699166 0.677648 -0.000135422 -0.00122833 0.000173569
41 1 0.472552 0.90767 0.552721 -3.43323e-05 -0.00131035 0.000133514
42 1 0.966266 0.657823 0.302865 -5.14984e-05 -0.000423431 -0.000232697
43 1 0.713135 0.866321 0.177961 0.00501633 -0.000537872 -0.00034523
44 1 0.424319 0.750044 0.282182 0.000137329 0.00122452 -0.000179291
45 1 0.171217 0.958706 0.15723 -0.00733948 0.000541687 0.000865936
46 1 0.219419 0.782736 0.427789 -8.96454e-05 -0.000814438 0.000501633
47 1 0.930632 0.999807 0.532041 8.58307e-05 0.000816345 -0.000495911
48 1 0.966266 0.991157 0.302865 -4.76837e-05 -0.000419617 -0.000234604
ITEM: TIMESTEP
6
ITEM: NUMBER OF ATOMS
48
ITEM: BOX BOUNDS xy xz yz pp pp pp
-1.4583345055580139e+00 8.5892243981361389e+00 2.5054233670234680e+00
-8.7380409240722656e-04 9.2436844110488892e+00 -1.4598559141159058e+00
-1.2897849082946777e-03 1.9518417418003082e+01 0.0000000000000000e+00
ITEM: ATOMS id type xs ys zs fx fy fz
1 1 0.91812 0.167011 0.0319649 0.0925388 0.000751495 0.000989914
2 1 0.460045 0.0749163 0.0533945 0.0643196 -0.00147247 0.00221252
3 1 0.183785 0.12472 0.656965 4.57764e-05 0.000427246 0.000205994
4 1 0.231931 0.948865 0.927865 -0.0925388 -0.000753403 -0.000988007
5 1 0.978834 0.157171 0.8026 0.00734329 -0.000555038 -0.000865936
6 1 0.690006 0.0409601 0.906436 -0.0643215 0.00147629 -0.00221062
7 1 0.436916 0.249555 0.781869 -0.00502396 0.000551224 0.000312805
8 1 0.677499 0.208207 0.407109 2.09808e-05 0.00133896 -0.000177383
9 1 0.725732 0.0324993 0.677648 -0.000116348 -0.00123978 0.000217438
10 1 0.472552 0.241003 0.552721 -1.71661e-05 -0.00133896 0.000181198
11 1 0.713135 0.199655 0.177961 0.00502205 -0.000547409 -0.000314713
12 1 0.424319 0.0833771 0.282182 0.00012207 0.00124359 -0.000219345
13 1 0.171217 0.292039 0.15723 -0.0073452 0.000556946 0.000871658
14 1 0.219419 0.116069 0.427789 -6.86646e-05 -0.000844955 0.000524521
15 1 0.91812 0.500344 0.0319649 0.0925446 0.000749588 0.000988007
16 1 0.460045 0.40825 0.0533945 0.0643177 -0.00147247 0.00221443
17 1 0.183785 0.458053 0.656965 5.34058e-05 0.000427246 0.000200272
18 1 0.231931 0.282199 0.927865 -0.0925446 -0.000753403 -0.000991821
19 1 0.978834 0.490504 0.8026 0.0073452 -0.000553131 -0.000871658
20 1 0.690006 0.374293 0.906436 -0.0643177 0.00147629 -0.00221252
21 1 0.436916 0.582888 0.781869 -0.00502014 0.000547409 0.000314713
22 1 0.930632 0.33314 0.532041 6.48499e-05 0.000846863 -0.000520706
23 1 0.677499 0.54154 0.407109 1.90735e-05 0.00133896 -0.000179291
24 1 0.725732 0.365833 0.677648 -0.000120163 -0.00124168 0.00021553
25 1 0.472552 0.574336 0.552721 -1.71661e-05 -0.00134087 0.000183105
26 1 0.966266 0.32449 0.302865 -4.76837e-05 -0.000429153 -0.000209808
27 1 0.713135 0.532988 0.177961 0.00502014 -0.000549316 -0.000312805
28 1 0.424319 0.41671 0.282182 0.000116348 0.00123978 -0.000221252
29 1 0.171216 0.625372 0.15723 -0.0073452 0.000553131 0.000867844
30 1 0.219419 0.449403 0.427789 -7.05719e-05 -0.000844955 0.000524521
31 1 0.91812 0.833678 0.0319649 0.0925388 0.000751495 0.000986099
32 1 0.460045 0.741583 0.0533945 0.0643234 -0.00147247 0.00220871
33 1 0.183785 0.791386 0.656965 5.14984e-05 0.000425339 0.000202179
34 1 0.231931 0.615532 0.927865 -0.0925407 -0.000759125 -0.000991821
35 1 0.978834 0.823838 0.8026 0.00734329 -0.000555038 -0.000867844
36 1 0.690006 0.707627 0.906436 -0.0643253 0.00147438 -0.0022068
37 1 0.436916 0.916222 0.781869 -0.00502014 0.000549316 0.000312805
38 1 0.930632 0.666474 0.532041 6.86646e-05 0.00084877 -0.000520706
39 1 0.677499 0.874873 0.407109 1.90735e-05 0.00134087 -0.000179291
40 1 0.725732 0.699166 0.677648 -0.000118256 -0.00124359 0.000213623
41 1 0.472552 0.90767 0.552721 -1.90735e-05 -0.00134087 0.000183105
42 1 0.966266 0.657823 0.302865 -4.3869e-05 -0.000425339 -0.000207901
43 1 0.713135 0.866321 0.177961 0.00502014 -0.000551224 -0.000314713
44 1 0.424319 0.750044 0.282182 0.000120163 0.00124168 -0.000219345
45 1 0.171216 0.958706 0.15723 -0.00734711 0.000555038 0.000873566
46 1 0.219419 0.782736 0.427789 -7.05719e-05 -0.000846863 0.000524521
47 1 0.930632 0.999807 0.532041 6.67572e-05 0.000846863 -0.000520706
48 1 0.966266 0.991157 0.302865 -4.57764e-05 -0.000427246 -0.000204086
ITEM: TIMESTEP
7
ITEM: NUMBER OF ATOMS
48
ITEM: BOX BOUNDS xy xz yz pp pp pp
-1.4580723643302917e+00 8.5890194773674011e+00 2.5055227279663086e+00
-1.0570883750915527e-03 9.2438676953315735e+00 -1.4598980545997620e+00
-1.5714168548583984e-03 1.9518699049949646e+01 0.0000000000000000e+00
ITEM: ATOMS id type xs ys zs fx fy fz
1 1 0.918121 0.167011 0.0319649 0.0925064 0.00078392 0.000938416
2 1 0.460046 0.0749163 0.0533945 0.064312 -0.00147438 0.00222015
3 1 0.183785 0.12472 0.656965 9.53674e-06 0.000442505 0.000181198
4 1 0.23193 0.948865 0.927865 -0.0925121 -0.00078392 -0.000934601
5 1 0.978834 0.157171 0.8026 0.00736427 -0.000564575 -0.000831604
6 1 0.690005 0.0409601 0.906436 -0.0643063 0.00147438 -0.00221634
7 1 0.436916 0.249555 0.781869 -0.00502396 0.000579834 0.000259399
8 1 0.677499 0.208207 0.407109 5.72205e-06 0.00133896 -0.000207901
9 1 0.725732 0.0324993 0.677648 -0.000102997 -0.00127411 0.00025177
10 1 0.472552 0.241003 0.552721 0 -0.00133896 0.000205994
11 1 0.713135 0.199655 0.177961 0.00502205 -0.000574112 -0.000265121
12 1 0.424319 0.0833771 0.282182 0.000106812 0.00126839 -0.00025177
13 1 0.171216 0.292039 0.15723 -0.00736046 0.00056076 0.000833511
14 1 0.219419 0.116069 0.427789 -4.95911e-05 -0.00084877 0.000556946
15 1 0.918121 0.500344 0.0319649 0.0925102 0.000785828 0.000934601
16 1 0.460046 0.40825 0.0533945 0.0643101 -0.0014782 0.00222015
17 1 0.183785 0.458053 0.656965 1.33514e-05 0.000440598 0.00018692
18 1 0.23193 0.282199 0.927865 -0.0925121 -0.00078392 -0.000936508
19 1 0.978834 0.490504 0.8026 0.00736427 -0.000556946 -0.000833511
20 1 0.690005 0.374293 0.906436 -0.0643063 0.00147438 -0.00222206
21 1 0.436916 0.582888 0.781869 -0.00502396 0.000577927 0.000259399
22 1 0.930632 0.33314 0.532041 4.76837e-05 0.000850677 -0.000551224
23 1 0.677499 0.54154 0.407109 3.8147e-06 0.00133896 -0.000204086
24 1 0.725732 0.365833 0.677648 -0.000106812 -0.0012722 0.000247955
25 1 0.472552 0.574336 0.552721 -1.90735e-06 -0.00133705 0.000205994
26 1 0.966266 0.32449 0.302865 -9.53674e-06 -0.000440598 -0.000185013
27 1 0.713135 0.532988 0.177961 0.00502205 -0.000577927 -0.000263214
28 1 0.424319 0.41671 0.282182 0.000104904 0.00126266 -0.000246048
29 1 0.171216 0.625372 0.15723 -0.00736237 0.00056076 0.000825882
30 1 0.219419 0.449403 0.427789 -5.14984e-05 -0.000850677 0.000549316
31 1 0.918121 0.833678 0.0319649 0.0925121 0.00078392 0.000932693
32 1 0.460046 0.741583 0.0533945 0.0643063 -0.00147438 0.00221825
33 1 0.183785 0.791386 0.656965 5.72205e-06 0.000442505 0.000183105
34 1 0.231929 0.615532 0.927865 -0.0925102 -0.000785828 -0.000932693
35 1 0.978834 0.823838 0.8026 0.00736618 -0.000562668 -0.000837326
36 1 0.690005 0.707627 0.906436 -0.0643101 0.0014801 -0.00221634
37 1 0.436916 0.916222 0.781869 -0.00502014 0.000577927 0.000261307
38 1 0.930632 0.666474 0.532041 4.57764e-05 0.000850677 -0.000551224
39 1 0.677499 0.874873 0.407109 5.72205e-06 0.00133896 -0.000204086
40 1 0.725732 0.699166 0.677648 -0.000104904 -0.00127411 0.00025177
41 1 0.472552 0.90767 0.552721 -1.90735e-06 -0.00133896 0.000205994
42 1 0.966266 0.657823 0.302865 -1.52588e-05 -0.000436783 -0.000179291
43 1 0.713135 0.866321 0.177961 0.00502014 -0.000572205 -0.000265121
44 1 0.424319 0.750044 0.282182 0.000106812 0.00126457 -0.000246048
45 1 0.171216 0.958706 0.15723 -0.00736237 0.000556946 0.000827789
46 1 0.219419 0.782736 0.427789 -4.95911e-05 -0.000850677 0.000551224
47 1 0.930632 0.999807 0.532041 4.3869e-05 0.000850677 -0.000549316
48 1 0.966266 0.991157 0.302865 -1.14441e-05 -0.000434875 -0.000179291
ITEM: TIMESTEP
8
ITEM: NUMBER OF ATOMS
48
ITEM: BOX BOUNDS xy xz yz pp pp pp
-1.4578113555908203e+00 8.5888162851333618e+00 2.5056238174438477e+00
-1.2435913085937500e-03 9.2440541982650757e+00 -1.4599413275718689e+00
-1.8610954284667969e-03 1.9518988728523254e+01 0.0000000000000000e+00
ITEM: ATOMS id type xs ys zs fx fy fz
1 1 0.918123 0.167011 0.0319649 0.0924435 0.000810623 0.000869751
2 1 0.460047 0.0749163 0.0533945 0.0643253 -0.00146484 0.00226212
3 1 0.183785 0.12472 0.656965 7.62939e-06 0.000455856 0.000137329
4 1 0.231928 0.948865 0.927865 -0.0924435 -0.000806808 -0.000871658
5 1 0.978835 0.157171 0.8026 0.00737953 -0.000566483 -0.000776291
6 1 0.690004 0.0409601 0.906436 -0.0643291 0.00146294 -0.00226593
7 1 0.436916 0.249555 0.781869 -0.00505257 0.000581741 0.000225067
8 1 0.677499 0.208207 0.407109 -7.62939e-06 0.00135994 -0.000257492
9 1 0.725732 0.0324993 0.677648 -8.96454e-05 -0.00128555 0.00028038
10 1 0.472552 0.241003 0.552721 3.8147e-06 -0.00136375 0.000261307
11 1 0.713135 0.199655 0.177961 0.00505257 -0.000577927 -0.00021553
12 1 0.424319 0.0833771 0.282182 8.96454e-05 0.00128555 -0.000278473
13 1 0.171216 0.292039 0.15723 -0.00737762 0.000570297 0.000774384
14 1 0.219419 0.116069 0.427789 -3.43323e-05 -0.000881195 0.000597
15 1 0.918123 0.500344 0.0319649 0.0924454 0.000808716 0.000869751
16 1 0.460047 0.40825 0.0533945 0.0643253 -0.00146294 0.0022583
17 1 0.183785 0.458053 0.656965 7.62939e-06 0.000455856 0.000137329