LAMMPS (4 May 2022)
clear
units 	metal
dimension	3
boundary	p	p    p
atom_style	atomic
box         tilt large
read_data   input.dat
Reading data file ...
  triclinic box = (0 0 0) to (6.0853224 9.2428106 19.517128) with tilt (2.5049497 -1.459663 0)
  1 by 1 by 1 MPI processor grid
  reading atoms ...
  48 atoms
  read_data CPU = 0.000 seconds
mass            1 24.305
mass            2 65.409
mass            3 88.906
neigh_modify    every 1 delay 0 check no
pair_style nvnmd model.pb
pair_coeff * *
change_box  all triclinic
Changing box ...
  triclinic box = (0 0 0) to (6.0853224 9.2428106 19.517128) with tilt (2.5049497 -1.459663 0)
compute         mype all pe
# thermo          100
thermo          1
thermo_style    custom step pe pxx pyy pzz pxy pxz pyz lx ly lz vol c_mype
# dump            1 all custom 100 dump.relax id type xs ys zs fx fy fz
dump            1 all custom 1 dump.relax id type xs ys zs fx fy fz
min_style       cg
fix             1 all box/relax iso 0.0
minimize        1.000000e-12 1.000000e-06 5000 500000
WARNING: Using 'neigh_modify every 1 delay 0 check yes' setting during minimization (../min.cpp:187)
Generated 0 of 3 mixed pair_coeff terms from geometric mixing rule
Neighbor list info ...
  update every 1 steps, delay 0 steps, check yes
  max neighbors/atom: 2000, page size: 100000
  master list distance cutoff = 10
  ghost atom cutoff = 10
  binsize = 5, bins = 3 2 4
  1 neighbor lists, perpetual/occasional/extra = 1 0 0
  (1) pair nvnmd, perpetual
      attributes: full, newton on
      pair build: full/bin/atomonly
      stencil: full/bin/3d
      bin: standard
Per MPI rank memory allocation (min/avg/max) = 5.492 | 5.492 | 5.492 Mbytes
   Step         PotEng          Pxx            Pyy            Pzz            Pxy            Pxz            Pyz             Lx             Ly             Lz           Volume         c_mype    
         0  -13.423357     -1991.4334      727.63608      494.1232       1106.9028      3455.6054      3137.7937      6.0853224      9.2428106      19.517128      1097.7503     -13.423357    
         1  -13.423357     -1991.4334      727.63608      494.1232       1106.9028      3455.6054      3137.7937      6.0853224      9.2428106      19.517128      1097.7503     -13.423357    
Loop time of 0.00221682 on 1 procs for 1 steps with 48 atoms

39.8% CPU use with 1 MPI tasks x no OpenMP threads

Minimization stats:
  Stopping criterion = linesearch alpha is zero
  Energy initial, next-to-last, final = 
     -13.4233570098877  -13.4233570098877  -13.4233570098877
  Force two-norm initial, final = 0.59592419 0.59592419
  Force max component initial, final = 0.52735138 0.52735138
  Final line search alpha, max atom move = 2.3147813e-08 1.2207031e-08
  Iterations, force evaluations = 1 14

MPI task timing breakdown:
Section |  min time  |  avg time  |  max time  |%varavg| %total
---------------------------------------------------------------
Pair    | 0.0019311  | 0.0019311  | 0.0019311  |   0.0 | 87.11
Neigh   | 0          | 0          | 0          |   0.0 |  0.00
Comm    | 4.9754e-05 | 4.9754e-05 | 4.9754e-05 |   0.0 |  2.24
Output  | 0          | 0          | 0          |   0.0 |  0.00
Modify  | 0          | 0          | 0          |   0.0 |  0.00
Other   |            | 0.000236   |            |       | 10.65

Nlocal:             48 ave          48 max          48 min
Histogram: 1 0 0 0 0 0 0 0 0 0
Nghost:           1272 ave        1272 max        1272 min
Histogram: 1 0 0 0 0 0 0 0 0 0
Neighs:              0 ave           0 max           0 min
Histogram: 1 0 0 0 0 0 0 0 0 0
FullNghs:         8754 ave        8754 max        8754 min
Histogram: 1 0 0 0 0 0 0 0 0 0

Total # of neighbors = 8754
Ave neighs/atom = 182.375
Neighbor list builds = 0
Dangerous builds not checked
fix             1 all box/relax aniso 0.0
minimize        1.000000e-12 1.000000e-06 5000 500000
WARNING: Using 'neigh_modify every 1 delay 0 check yes' setting during minimization (../min.cpp:187)
Generated 0 of 3 mixed pair_coeff terms from geometric mixing rule
Per MPI rank memory allocation (min/avg/max) = 5.492 | 5.492 | 5.492 Mbytes
   Step         PotEng          Pxx            Pyy            Pzz            Pxy            Pxz            Pyz             Lx             Ly             Lz           Volume         c_mype    
         1  -13.423357     -1991.4334      727.63608      494.1232       1106.9028      3455.6054      3137.7937      6.0853224      9.2428106      19.517128      1097.7503     -13.423357    
         2  -13.423504     -1939.1369      722.08249      496.95126      1097.6613      3456.073       3139.5436      6.0847139      9.2431483      19.517612      1097.7078     -13.423504    
         3  -13.42368      -1888.1225      714.68718      498.96308      1087.0727      3453.9019      3142.1909      6.0841053      9.2434925      19.518112      1097.667      -13.42368     
         4  -13.423849     -1836.8178      705.78134      500.64582      1078.6452      3452.8896      3144.3636      6.0834967      9.2438422      19.518628      1097.6278     -13.423849    
         5  -13.423998     -1785.2535      697.56717      501.40642      1068.7037      3451.6385      3146.8606      6.0828882      9.2441972      19.519159      1097.59       -13.423998    
         6  -13.424171     -1735.1812      688.58575      501.14172      1058.1614      3451.5155      3148.3731      6.0822796      9.2445582      19.519707      1097.5539     -13.424171    
         7  -13.424314     -1684.3236      680.39078      500.32222      1048.0485      3450.416       3150.3769      6.0816711      9.2449248      19.52027       1097.5192     -13.424314    
         8  -13.424479     -1635.5069      668.58004      499.57153      1037.6828      3448.4341      3152.5154      6.0810625      9.2452978      19.52085       1097.4863     -13.424479    
         9  -13.42462      -1586.0475      658.43011      496.44493      1027.7245      3449.0762      3155.9447      6.0804539      9.2456752      19.521445      1097.4547     -13.42462     
        10  -13.424776     -1536.4551      646.63857      492.86357      1017.327       3447.4832      3157.0976      6.0798454      9.2460585      19.522056      1097.4247     -13.424776    
        11  -13.424911     -1487.9245      632.12211      489.32593      1006.3623      3446.81        3159.5969      6.0792368      9.246447       19.522681      1097.3961     -13.424911    
        12  -13.42505      -1441.715       619.38363      483.98301      995.78856      3445.6398      3161.3074      6.0786282      9.246839       19.523322      1097.3688     -13.42505     
        13  -13.425201     -1392.43        607.17294      478.11294      985.91214      3446.5626      3162.4629      6.0780197      9.2472355      19.523976      1097.3427     -13.425201    
        14  -13.425318     -1345.7167      594.43173      472.73766      975.14552      3444.3894      3164.38        6.0774111      9.2476379      19.524645      1097.3182     -13.425318    
        15  -13.425442     -1299.0944      578.32215      466.87413      964.18774      3443.1139      3166.8332      6.0768026      9.2480454      19.52533       1097.2951     -13.425442    
        16  -13.425588     -1251.6164      564.16635      458.76792      953.40668      3442.5725      3168.0687      6.076194       9.2484561      19.52603       1097.2733     -13.425588    
        17  -13.425698     -1204.7422      547.08221      451.3738       943.25901      3440.5228      3170.4672      6.0755854      9.2488718      19.526744      1097.2529     -13.425698    
        18  -13.425815     -1158.8927      530.72096      441.30242      932.33287      3440.2712      3173.3886      6.0749769      9.2492906      19.527474      1097.2336     -13.425815    
        19  -13.42593      -1113.1714      514.72906      434.11012      920.95147      3438.0861      3174.6137      6.0743683      9.2497128      19.528215      1097.2155     -13.42593     
        20  -13.426039     -1066.6812      496.20701      423.494        910.13666      3437.0689      3176.7481      6.0737597      9.2501391      19.528975      1097.1988     -13.426039    
        21  -13.426156     -1021.6508      477.36086      412.3619       898.64107      3436.352       3178.2529      6.0731512      9.2505679      19.529747      1097.1831     -13.426156    
        22  -13.426267     -976.59333      459.50812      401.21244      887.68754      3435.6016      3180.237       6.0725426      9.2509985      19.530533      1097.1684     -13.426267    
        23  -13.426358     -931.07688      442.60982      389.19048      875.81367      3433.4995      3183.0172      6.071934       9.2514321      19.531333      1097.1548     -13.426358    
        24  -13.426446     -887.10691      421.38219      375.85589      865.67654      3432.6608      3185.128       6.0713255      9.25187        19.532146      1097.1424     -13.426446    
        25  -13.426545     -842.81521      402.16491      362.45675      855.33542      3430.642       3186.2569      6.0707169      9.2523077      19.532971      1097.1306     -13.426545    
        26  -13.426636     -798.44948      384.16969      349.74503      843.16895      3429.3892      3187.4082      6.0701084      9.2527472      19.533807      1097.1198     -13.426636    
        27  -13.42671      -755.71146      361.67803      334.47286      832.48869      3428.9569      3190.8817      6.0694998      9.2531903      19.534659      1097.1101     -13.42671     
        28  -13.426827     -710.12307      341.92679      320.33683      821.05882      3427.7161      3192.0149      6.0688912      9.253631       19.53552       1097.1007     -13.426827    
        29  -13.426884     -665.88967      320.98824      303.95514      809.09582      3425.959       3192.8744      6.0682827      9.2540743      19.536397      1097.0925     -13.426884    
        30  -13.426982     -623.31263      299.52833      288.55632      800.88703      3424.5482      3195.8324      6.0676741      9.254518       19.537285      1097.085      -13.426982    
        31  -13.427046     -579.55924      279.1237       272.5722       788.35188      3422.2109      3198.0479      6.0670655      9.2549603      19.538185      1097.0779     -13.427046    
        32  -13.42712      -536.77701      257.72416      255.28684      776.30897      3420.818       3199.6815      6.066457       9.2554035      19.539099      1097.0717     -13.42712     
        33  -13.427168     -494.04425      238.16554      238.35217      764.61663      3419.3123      3201.4366      6.0658484      9.2558453      19.540023      1097.0659     -13.427168    
        34  -13.427223     -450.90119      215.45329      220.78203      753.89847      3418.5503      3203.0776      6.0652398      9.2562889      19.540961      1097.061      -13.427223    
        35  -13.427318     -407.72978      193.49845      202.52365      742.71484      3418.0772      3205.3027      6.0646313      9.2567284      19.541912      1097.0565     -13.427318    
        36  -13.42737      -366.02588      173.5657       182.89734      731.54478      3416.0985      3206.9222      6.0640227      9.257165       19.542877      1097.0523     -13.42737     
        37  -13.427429     -323.24913      151.59093      165.37116      720.6781       3414.6512      3209.087       6.0634142      9.257601       19.543848      1097.0483     -13.427429    
        38  -13.427484     -279.4496       130.64659      146.33777      708.88887      3413.7058      3209.9656      6.0628056      9.2580322      19.544841      1097.0451     -13.427484    
        39  -13.42754      -239.9338       108.48192      125.32915      697.82867      3412.3057      3211.8548      6.062197       9.258462       19.545858      1097.0429     -13.42754     
        40  -13.427585     -195.26761      87.46498       106.07277      686.61917      3411.1621      3213.9139      6.0615885      9.2588775      19.546872      1097.039      -13.427585    
        41  -13.427661     -152.76527      67.289031      85.197674      675.57842      3408.7705      3214.7672      6.0609799      9.2592891      19.547926      1097.0368     -13.427661    
        42  -13.427739     -112.9675       47.110184      63.63719       664.59846      3406.6218      3217.2033      6.0603713      9.2596939      19.549009      1097.0353     -13.427739    
        43  -13.427827     -68.138944      27.806015      39.756306      652.21847      3405.6825      3218.2691      6.0597628      9.260077       19.550102      1097.0319     -13.427827    
        44  -13.427976     -26.906316      10.437723      15.747117      641.51466      3404.5808      3218.9331      6.0591542      9.2604519      19.551234      1097.0296     -13.427976    
        45  -13.428351      16.76672      -8.2371144     -9.7302132      630.54177      3403.998       3220.2744      6.0585456      9.2608082      19.552369      1097.0254     -13.428351    
        46  -13.428985     -23.276879      16.939528      8.9920733      639.71025      3409.1908      3215.7331      6.0591542      9.260357       19.551244      1097.0189     -13.428985    
        47  -13.42938       16.164955     -21.524489     -12.407153      627.26322      3407.6188      3217.4194      6.0585456      9.2610255      19.551993      1097.03       -13.42938     
        48  -13.429838      8.0204549      49.716234      32.165395      638.60539      3411.9918      3214.9822      6.0590052      9.2601013      19.550868      1096.9406     -13.429838    
        49  -13.430049     -55.341947     -53.804438     -54.701318      632.09422      3408.9904      3213.6349      6.0591096      9.2610255      19.552132      1097.1399     -13.430049    
        50  -13.430224      76.992005      75.743817      74.857827      630.62453      3414.4369      3215.7048      6.0585011      9.2601954      19.550291      1096.8281     -13.430224    
        51  -13.430395     -59.290856     -60.391053     -62.271136      630.46287      3410.582       3212.0369      6.0591096      9.2611109      19.552184      1097.153      -13.430395    
        52  -13.430628      73.514488      72.767809      71.4249        630.18628      3414.59        3214.1735      6.0585353      9.2602239      19.550233      1096.8344     -13.430628    
        53  -13.430804     -62.518856     -62.407444     -64.504776      629.53642      3411.5921      3211.2621      6.0591438      9.2611285      19.552091      1097.156      -13.430804    
        54  -13.431003      72.494666      70.781207      69.507953      629.65045      3416.3989      3213.4974      6.0585591      9.2602451      19.550139      1096.836      -13.431003    
        55  -13.431174     -63.624692     -63.691539     -65.58276       629.56497      3412.8354      3210.1126      6.0591677      9.2611382      19.551971      1097.1548     -13.431174    
        56  -13.431372      70.160004      70.870464      68.095492      629.24179      3417.014       3212.7972      6.0585837      9.2602507      19.55002       1096.8344     -13.431372    
        57  -13.431542     -65.398777     -66.443264     -67.287209      628.52737      3413.5906      3208.9993      6.0591896      9.2611749      19.551869      1097.1573     -13.431542    
        58  -13.431744      68.747413      69.023238      66.780415      627.8596       3418.7064      3211.8958      6.0586028      9.2602742      19.549917      1096.8349     -13.431744    
        59  -13.431934     -66.245445     -67.618595     -68.927683      627.24275      3415.1972      3208.2192      6.0592113      9.2611942      19.551777      1097.1584     -13.431934    
        60  -13.432107      66.418037      67.005906      64.59035       626.89946      3420.143       3210.8896      6.0586321      9.2602985      19.549825      1096.8379     -13.432107    
        61  -13.432292     -68.565388     -70.030449     -70.682206      626.2688       3416.6993      3206.8113      6.0592406      9.2612225      19.551681      1097.1617     -13.432292    
        62  -13.432463      64.548498      65.668513      63.751672      626.28314      3422.1096      3209.8418      6.0586551      9.2603171      19.54973       1096.8389     -13.432463    
        63  -13.432654     -69.902257     -71.473157     -72.92986       625.37967      3417.9243      3206.226       6.0592578      9.2612413      19.551605      1097.1627     -13.432654    
        64  -13.432822      61.698124      62.141113      61.854145      626.06391      3422.5282      3208.659       6.0586783      9.2603458      19.549654      1096.8422     -13.432822    
        65  -13.433018     -74.962651     -74.664627     -77.371906      624.90786      3418.8138      3205.0642      6.0592869      9.2612678      19.551577      1097.1696     -13.433018    
        66  -13.43319       58.421326      59.106702      56.930773      625.51969      3423.6781      3208.1078      6.0586981      9.260384       19.549625      1096.8488     -13.43319     
        67  -13.43338      -75.30236      -78.084837     -78.368934      623.79298      3419.79        3204.0575      6.0593011      9.2613082      19.55147       1097.1709     -13.43338     
        68  -13.433536      55.665909      58.03965       55.080832      624.61719      3424.852       3206.7046      6.058721       9.2603968      19.549519      1096.8484     -13.433536    
        69  -13.433728     -75.054774     -77.19665      -78.218845      623.92919      3420.5976      3203.1596      6.0593081      9.2613211      19.551342      1097.1665     -13.433728    
        70  -13.433892      57.844795      58.159623      55.858313      623.343        3427.1272      3205.6498      6.0587271      9.2604213      19.54939       1096.8452     -13.433892    
        71  -13.434091     -77.10191      -77.795443     -79.112877      623.18241      3422.5232      3202.1135      6.0593356      9.2613403      19.551222      1097.1671     -13.434091    
        72  -13.434244      56.362615      57.783522      54.493148      621.90281      3428.3264      3203.67        6.0587475      9.2604432      19.549271      1096.8448     -13.434244    
        73  -13.434437     -76.183052     -78.405707     -78.213523      621.48291      3424.7474      3200.9443      6.0593427      9.2613674      19.55107       1097.163      -13.434437    
        74  -13.434591      57.109604      57.460653      56.672185      621.70287      3429.797       3203.0692      6.0587544      9.2604536      19.549118      1096.8387     -13.434591    
        75  -13.434765     -77.221862     -79.514147     -80.43886       621.2175       3424.6733      3200.5335      6.0593629      9.2613723      19.55102       1097.1644     -13.434765    
        76  -13.434932      55.855684      56.883754      53.348196      620.80105      3430.3994      3201.4936      6.0587817      9.2604642      19.549068      1096.8421     -13.434932    
        77  -13.435113     -78.155149     -79.62021      -79.731622      620.14412      3426.4683      3199.0468      6.0593856      9.2613884      19.550858      1097.1614     -13.435113    
        78  -13.435265      55.164974      56.279417      54.975518      620.1546       3431.1555      3201.3237      6.0587952      9.2604797      19.548906      1096.8373     -13.435265    
        79  -13.435435     -78.17187      -80.918164     -81.65905       619.45066      3428.0786      3197.4623      6.0593953      9.2614039      19.550792      1097.1612     -13.435435    
        80  -13.435598      53.348342      56.223603      53.668745      619.67159      3432.8438      3200.1817      6.0588153      9.2604954      19.54884       1096.8391     -13.435598    
        81  -13.435794     -77.099904     -79.821142     -80.793212      618.86035      3429.8748      3196.3607      6.0593938      9.2614197      19.55067       1097.156      -13.435794    
        82  -13.435927      54.844684      56.143014      53.72188       618.96621      3433.879       3198.7253      6.0588152      9.2605191      19.548718      1096.835      -13.435927    
        83  -13.436124     -77.573425     -81.478417     -81.088475      618.43993      3430.0818      3195.5817      6.0594146      9.2614434      19.550548      1097.1557     -13.436124    
        84  -13.436238      54.468656      56.471877      53.12296       618.26243      3434.5037      3198.5416      6.0588383      9.260525       19.548596      1096.8331     -13.436238    
        85  -13.436433     -76.409496     -79.24773      -78.657244      618.30053      3431.166       3193.9019      6.0594321      9.2614492      19.550395      1097.151      -13.436433    
        86  -13.43657       55.981851      57.564377      56.07658       618.72302      3436.4297      3196.496       6.0588461      9.2605307      19.548443      1096.8266     -13.43657     
        87  -13.436759     -77.139328     -79.977565     -80.537414      616.76089      3432.267       3192.4736      6.0594433      9.2614549      19.550326      1097.1499     -13.436759    
        88  -13.4369        54.229322      56.179617      54.039865      618.45221      3437.1121      3196.0306      6.0588632      9.2605451      19.548375      1096.8276     -13.4369      
        89  -13.437074     -78.200683     -80.465149     -80.857879      617.17708      3433.591       3193.0813      6.0594549      9.2614694      19.550221      1097.1478     -13.437074    
        90  -13.437193      54.516443      56.745357      53.357408      617.39795      3438.4728      3194.0668      6.0588691      9.2605606      19.54827       1096.8246     -13.437193    
        91  -13.437375     -75.69439      -78.429593     -78.153844      615.77453      3434.9031      3191.9017      6.0594551      9.2614849      19.55006       1097.1406     -13.437375    
        92  -13.437515      57.082866      58.715556      55.834666      615.49639      3439.7414      3193.3027      6.0588706      9.2605723      19.548108      1096.8172     -13.437515    
        93  -13.437686     -75.19608      -78.098415     -77.558057      614.31997      3436.2773      3190.1443      6.059467       9.2614965      19.549927      1097.1367     -13.437686    
        94  -13.43784       57.852084      60.064305      57.492668      615.04199      3440.5106      3192.1289      6.0588828      9.2605784      19.547976      1096.8127     -13.43784     
        95  -13.437986     -74.714523     -76.650349     -75.898301      615.04391      3436.9934      3189.152       6.0594731      9.2615026      19.549814      1097.1322     -13.437986    
        96  -13.438129      60.245817      62.179434      59.830674      614.58925      3441.5594      3191.5377      6.0588756      9.2605797      19.547863      1096.8052     -13.438129    
        97  -13.438284     -72.486653     -75.430796     -75.461436      613.8414       3437.7347      3189.4462      6.0594674      9.2615039      19.549717      1097.1258     -13.438284    
        98  -13.43842       59.134233      61.505286      58.794317      613.64583      3442.6633      3190.3732      6.0588872      9.2605915      19.547765      1096.8032     -13.43842     
        99  -13.438589     -71.481372     -74.979817     -73.999361      613.42565      3439.2865      3188.1394      6.0594763      9.2615157      19.549598      1097.1222     -13.438589    
       100  -13.438715      60.739381      63.141094      59.878442      613.12504      3444.3547      3189.8623      6.0588937      9.2605915      19.547648      1096.7978     -13.438715    
       101  -13.43887      -71.013795     -73.122343     -72.913438      612.18933      3440.3433      3186.8579      6.0594849      9.2615157      19.549469      1097.1165     -13.43887     
       102  -13.438998      62.9575        63.921533      62.38911       612.96075      3445.0898      3189.621       6.0588976      9.2606043      19.547517      1096.7927     -13.438998    
       103  -13.439161     -71.60424      -73.448174     -73.509453      611.46183      3441.644       3186.0252      6.0595031      9.2615285      19.549399      1097.1174     -13.439161    
       104  -13.439281      60.034727      64.423027      59.95114       612.58714      3445.1747      3188.6333      6.058915       9.2606144      19.547447      1096.7931     -13.439281    
       105  -13.439445     -66.55235      -70.574515     -69.109377      609.7257       3443.1489      3186.5074      6.0594782      9.2615386      19.549217      1097.1038     -13.439445    
       106  -13.439556      66.176366      67.845334      65.560604      611.71972      3447.3844      3186.68        6.0588971      9.2606144      19.547267      1096.7797     -13.439556    
       107  -13.439726     -69.087143     -69.906061     -70.126111      609.48938      3444.2795      3185.5655      6.0594996      9.2615386      19.549134      1097.103      -13.439726    
       108  -13.439844      65.357302      67.118219      66.1486        611.24416      3447.5649      3186.0187      6.0589041      9.2606305      19.547182      1096.7782     -13.439844    
       109  -13.440006     -67.822626     -69.936774     -71.382416      609.16133      3443.829       3184.2541      6.0594973      9.2615547      19.549087      1097.1019     -13.440006    
       110  -13.440122      62.420327      64.5936        63.534826      610.99923      3448.7349      3185.387       6.0589233      9.2606616      19.547135      1096.7827     -13.440122    
       111  -13.440268     -70.148257     -72.869622     -73.688538      608.46873      3445.1056      3183.6735      6.0595143      9.2615858      19.549024      1097.1052     -13.440268    
       112  -13.440396      60.751248      63.50127       61.361436      609.27896      3449.737       3184.5674      6.0589395      9.2606839      19.547073      1096.7848     -13.440396    
       113  -13.44055      -70.635792     -72.90592      -73.819542      607.50848      3445.2741      3182.4573      6.0595244      9.2616081      19.548922      1097.1039     -13.44055     
       114  -13.440659      60.171761      62.286521      60.614774      608.6275       3450.3306      3183.2717      6.0589473      9.2607129      19.54697       1096.7838     -13.440659    
       115  -13.440803     -72.393356     -74.989378     -75.384909      607.67523      3446.9042      3182.5027      6.0595374      9.2616371      19.548831      1097.1045     -13.440803    
       116  -13.440924      59.18269       61.72932       59.333147      607.85061      3451.236       3181.934       6.0589582      9.2607321      19.546879      1096.783      -13.440924    
       117  -13.441071     -71.064908     -74.354512     -74.179029      606.1589       3448.5157      3180.2277      6.0595438      9.2616563      19.548714      1097.1014     -13.441071    
       118  -13.441189      59.701114      61.682143      59.586878      607.77445      3452.4001      3182.2725      6.0589672      9.2607455      19.546762      1096.7796     -13.441189    
       119  -13.441352     -73.212524     -75.538367     -74.605245      605.72473      3448.6152      3179.9427      6.0595626      9.2616698      19.548613      1097.1008     -13.441352    
       120  -13.441465      61.757663      63.446143      61.43167       607.19499      3452.5362      3180.8582      6.0589697      9.2607455      19.546661      1096.7744     -13.441465    
       121  -13.441603     -71.989977     -73.686317     -74.594374      605.56816      3449.7614      3179.0323      6.059567       9.2616698      19.548528      1097.0968     -13.441603    
       122  -13.441735      62.025064      62.250751      59.946509      607.32794      3454.3427      3180.3107      6.0589862      9.2607728      19.546576      1096.7759     -13.441735    
       123  -13.441871     -73.296399     -74.262951     -73.193337      605.74401      3450.159       3178.4938      6.0595948      9.261688       19.548388      1097.0961     -13.441871    
       124  -13.441994      62.106279      64.831265      62.231662      607.57996      3454.3602      3179.9139      6.0589945      9.260765       19.546436      1096.7686     -13.441994    
       125  -13.442113     -69.673131     -72.377829     -71.628535      604.68244      3451.5205      3177.2346      6.0595753      9.2616892      19.548278      1097.0866     -13.442113    
       126  -13.442232      65.218981      66.587056      64.63943       606.5669       3456.3747      3178.7225      6.058986       9.2607697      19.546327      1096.7615     -13.442232    
       127  -13.442382     -70.258186     -71.648141     -72.138386      603.9257       3452.9602      3176.2394      6.0595888      9.261694       19.548195      1097.0849     -13.442382    
       128  -13.442497      64.065379      64.511187      63.47747       605.24829      3457.3237      3177.9833      6.0590039      9.2607924      19.546243      1096.7627     -13.442497    
       129  -13.442631     -72.207862     -73.057432     -73.72316       603.37561      3453.2533      3175.7643      6.0596125      9.2617122      19.548124      1097.0874     -13.442631    
       130  -13.442752      61.666278      64.148867      61.638415      604.08266      3457.6861      3177.8919      6.0590239      9.26081        19.546172      1096.7644     -13.442752    
       131  -13.442903     -70.575922     -71.893458     -72.400417      602.00813      3454.6213      3174.5405      6.0596069      9.2617342      19.547999      1097.0819     -13.442903    
       132  -13.442996      63.402397      63.892787      62.168064      603.90679      3459.3078      3176.8209      6.0590187      9.2608397      19.546047      1096.76       -13.442996    
       133  -13.443145     -70.781958     -72.871071     -72.110634      601.90987      3456.1434      3173.8735      6.0596263      9.2617639      19.547899      1097.0834     -13.443145    
       134  -13.44327       62.928805      65.539578      63.391333      603.20541      3460.2846      3175.5879      6.0590391      9.2608442      19.545947      1096.7586     -13.44327     
       135  -13.443377     -69.411803     -71.97446      -71.771119      601.55875      3456.8577      3172.8874      6.059626       9.2617685      19.547804      1097.0786     -13.443377    
       136  -13.443521      63.54754       65.545329      64.029573      602.05909      3461.2749      3175.4516      6.0590429      9.2608578      19.545853      1096.7556     -13.443521    
       137  -13.443631     -70.333842     -72.08592      -72.241908      601.33903      3456.1994      3171.9476      6.0596374      9.2617821      19.547728      1097.0779     -13.443631    
       138  -13.443755      63.494657      64.316621      64.063066      602.09028      3462.2002      3173.8189      6.0590498      9.260875       19.545776      1096.7546     -13.443755    
       139  -13.443874     -73.060572     -74.107916     -75.38924       600.83539      3456.8578      3171.387       6.0596569      9.2617992      19.547702      1097.082      -13.443874    
       140  -13.444015      60.457247      62.329644      58.832832      601.12024      3462.1958      3173.1139      6.0590723      9.2609022      19.54575       1096.7604     -13.444015    
       141  -13.444132     -71.982983     -73.4593       -71.899418      599.92226      3457.7431      3170.8418      6.0596626      9.2618264      19.547519      1097.076      -13.444132    
       142  -13.444242      64.52591       65.515058      63.227478      600.31833      3463.6604      3171.636       6.0590631      9.2609086      19.545567      1096.7493     -13.444242    
       143  -13.444368     -69.991643     -72.02507      -70.579387      598.84401      3459.468       3169.5515      6.059666       9.2618328      19.547412      1097.0714     -13.444368    
       144  -13.444486      64.099801      66.242498      63.787731      599.94126      3465.1703      3170.7988      6.059074       9.2609086      19.545471      1096.7458     -13.444486    
       145  -13.444619     -68.443201     -69.941814     -70.657695      598.7436       3460.4972      3169.2118      6.0596668      9.2618328      19.547323      1097.0665     -13.444619    
       146  -13.444739      64.289241      65.010904      63.835068      599.47286      3465.7231      3170.5716      6.0590864      9.2609416      19.545371      1096.7464     -13.444739    
       147  -13.444859     -71.456878     -72.593369     -72.582227      598.32356      3461.1781      3167.7238      6.0596936      9.2618659      19.547238      1097.0706     -13.444859    
       148  -13.444914      65.509888      65.64642       65.091936      599.62822      3466.7133      3169.0224      6.059091       9.2609419      19.545287      1096.7425     -13.444914    
       149  -13.445028     -70.237099     -69.53236      -71.877775      598.74655      3462.0971      3166.8673      6.0596996      9.2618504      19.547175      1097.0662     -13.445028    
       150  -13.445131      62.472579      62.943471      63.904759      599.02457      3467.2323      3167.759       6.0591106      9.26097        19.545223      1096.7458     -13.445131    
       151  -13.445257     -73.910727     -72.933013     -75.127995      597.89026      3461.3808      3165.3981      6.0597125      9.2618942      19.547168      1097.0734     -13.445257    
       152  -13.445366      60.432731      59.769584      59.908901      598.56797      3467.4969      3167.5874      6.0591111      9.2610098      19.545217      1096.7503     -13.445366    
       153  -13.445467     -75.077726     -75.102796     -77.398052      596.24578      3462.7648      3164.3787      6.0597196      9.2619256      19.547113      1097.0753     -13.445467    
       154  -13.445588      57.320065      55.890686      56.342069      598.4363       3467.8946      3166.6968      6.059139       9.2610475      19.545161      1096.7567     -13.445588    
       155  -13.445727     -76.395338     -75.740744     -76.854947      595.54994      3463.7846      3164.1057      6.0597475      9.2619301      19.546996      1097.0743     -13.445727    
       156  -13.445832      57.958443      58.772051      58.365247      597.33892      3468.1975      3166.3822      6.0591537      9.2610304      19.545044      1096.7508     -13.445832    
       157  -13.44597      -77.807507     -77.788009     -79.283825      594.67186      3463.7474      3163.4087      6.059754       9.2619547      19.546944      1097.0755     -13.44597     
       158  -13.446064      56.54844       56.712833      54.46427       597.1454       3468.3433      3164.726       6.0591597      9.2610655      19.544993      1096.7531     -13.446064    
       159  -13.446206     -77.89686      -77.782654     -78.320258      593.66516      3465.2501      3162.2421      6.059766       9.2619897      19.546777      1097.0725     -13.446206    
       160  -13.446325      55.537073      56.22251       56.634886      596.36596      3470.0334      3163.7909      6.0591772      9.2611065      19.544825      1096.7517     -13.446325    
       161  -13.44645      -80.305988     -80.87423      -79.640253      593.35066      3466.2688      3161.457       6.0597749      9.2620307      19.546745      1097.0771     -13.44645     
       162  -13.44654       57.150404      56.657223      55.450743      594.53026      3470.2786      3162.8991      6.0591664      9.2611122      19.544832      1096.7508     -13.44654     
       163  -13.446693     -79.690712     -78.434446     -80.531937      593.48397      3466.4081      3160.3416      6.0597749      9.2620173      19.546695      1097.0727     -13.446693    
       164  -13.446782      55.461853      55.952247      53.865287      594.26519      3471.586       3161.4148      6.0591819      9.2611367      19.544743      1096.7515     -13.446782    
       165  -13.44695      -77.87209      -78.908304     -77.713315      592.68415      3467.1604      3160.0425      6.0597786      9.2620609      19.546511      1097.0682     -13.44695     
       166  -13.447033      57.513017      57.813942      57.585462      594.09127      3472.378       3161.0481      6.0591825      9.2611541      19.544559      1096.7434     -13.447033    
       167  -13.447177     -79.078115     -80.958341     -78.813491      592.09283      3467.6794      3158.5369      6.059791       9.2620755      19.546466      1097.0697     -13.447177    
       168  -13.447257      56.242281      58.075693      54.386578      594.03105      3473.1204      3159.2642      6.0591982      9.2611513      19.54457       1096.7465     -13.447257    
       169  -13.447435     -77.072995     -79.226215     -78.390554      592.1771       3469.126       3157.4552      6.0597914      9.2620755      19.54635       1097.0632     -13.447435    
       170  -13.447523      56.468225      58.234773      56.568534      594.31232      3474.9859      3158.016       6.0592095      9.2611744      19.544398      1096.7417     -13.447523    
       171  -13.447663     -76.460385     -78.63868      -76.981281      591.25947      3469.6925      3156.4944      6.059801       9.2620987      19.546217      1097.0603     -13.447663    
       172  -13.447768      60.099289      60.935201      58.140469      594.05204      3475.6415      3157.0196      6.0592048      9.2611759      19.544266      1096.7335     -13.447768    
       173  -13.447916     -75.884252     -76.104311     -74.538826      590.74784      3470.6752      3155.7481      6.0598133      9.262099       19.546055      1097.0534     -13.447916    
       174  -13.448012      60.417343      62.117042      61.150164      592.7325       3475.2469      3156.2134      6.0592086      9.2611847      19.544103      1096.7261     -13.448012    
       175  -13.448173     -72.444515     -74.965462     -73.617243      589.92682      3471.6513      3154.8281      6.059792       9.2621089      19.545986      1097.0469     -13.448173    
       176  -13.448275      62.6579        63.056356      60.721349      592.89415      3477.3505      3155.6349      6.0591959      9.2611847      19.544051      1096.7209     -13.448275    
       177  -13.448431     -71.846048     -72.263887     -72.428237      589.90809      3471.6026      3153.5323      6.0598045      9.2620944      19.545859      1097.0403     -13.448431    
       178  -13.448514      60.735343      64.346529      62.39047       591.65759      3477.5435      3155.0223      6.0592223      9.2612028      19.543907      1096.7198     -13.448514    
       179  -13.448669     -67.53171      -70.23933      -69.024801      588.49221      3472.9094      3152.4743      6.0597815      9.262127       19.545706      1097.0314     -13.448669    
       180  -13.448777      68.791659      67.206174      66.286648      590.44967      3478.5346      3153.2399      6.059187       9.2612205      19.543754      1096.7069     -13.448777    
       181  -13.44893      -65.228681     -65.058757     -63.991855      588.39803      3474.4357      3151.4373      6.0597956      9.2620944      19.545527      1097.02       -13.44893     
       182  -13.449031      71.113649      74.649686      71.233467      590.15328      3479.6757      3152.1394      6.0591989      9.2611701      19.543579      1096.6932     -13.449031    
       183  -13.449175     -59.198436     -60.089853     -60.089853      587.71113      3475.08        3149.9719      6.0597722      9.2620944      19.545378      1097.0075     -13.449175    
       184  -13.449281      74.36309       73.975768      73.281932      588.71035      3481.3501      3151.2262      6.0591808      9.2612188      19.543427      1096.6872     -13.449281    
       185  -13.449439     -62.343312     -63.215227     -62.025746      585.93521      3475.6647      3148.4264      6.0597894      9.2621413      19.545272      1097.0102     -13.449439    
       186  -13.449569      72.788888      74.405056      72.738731      589.04328      3481.659       3150.1633      6.0591956      9.2612256      19.54332       1096.6847     -13.449569    
       187  -13.449716     -60.88099      -62.694466     -62.471612      585.05085      3476.7934      3147.1864      6.0597945      9.2621498      19.545188      1097.0074     -13.449716    
       188  -13.449852      70.060702      72.512812      69.743042      588.17774      3482.4569      3149.1844      6.0592212      9.2612534      19.543236      1096.6879     -13.449852    
       189  -13.449985     -62.836671     -62.346391     -61.343545      584.75126      3477.4388      3145.7864      6.0598132      9.2621776      19.545027      1097.005      -13.449985    
       190  -13.450143      73.845157      73.154104      72.019997      585.44739      3483.9416      3147.3569      6.0592046      9.2612993      19.543086      1096.6819     -13.450143    
       191  -13.450287     -61.012116     -63.045668     -62.416103      583.87164      3478.2311      3144.2662      6.0598075      9.2622235      19.544927      1097.0038     -13.450287    
       192  -13.450461      69.626103      71.256201      70.467624      586.14161      3483.6876      3145.7807      6.0592439      9.2613301      19.542975      1096.6864     -13.450461    
       193  -13.450601     -66.179149     -65.747371     -65.911725      583.4334       3479.2566      3143.5277      6.0598524      9.2622534      19.544841      1097.0107     -13.450601    
       194  -13.450765      67.207246      69.592478      67.536051      584.74679      3484.9405      3144.7413      6.0592584      9.2613732      19.54289       1096.6894     -13.450765    
       195  -13.450938     -62.229551     -64.293748     -63.087544      581.69128      3479.5871      3141.6633      6.0598274      9.2622974      19.544678      1097.0022     -13.450938    
       196  -13.451107      70.317446      70.414973      68.3446        584.3997       3485.296       3142.6061      6.0592392      9.2614163      19.542727      1096.6819     -13.451107    
       197  -13.451296     -63.05418      -65.391378     -63.93446       582.14873      3479.7801      3139.4519      6.0598465      9.2623405      19.544506      1097.0011     -13.451296    
       198  -13.451482      64.615893      67.260271      65.945048      584.54966      3485.4268      3140.061       6.0592994      9.2614584      19.542554      1096.6881     -13.451482    
       199  -13.451652     -68.964995     -68.527643     -67.978865      580.457        3481.9341      3137.9365      6.0598997      9.2623826      19.544366      1097.0079     -13.451652    
       200  -13.451869      62.952339      65.972892      65.192675      583.16737      3487.4709      3138.9816      6.0593055      9.2615181      19.542415      1096.6884     -13.451869    
       201  -13.452085     -63.032064     -66.55319      -67.561614      579.08602      3482.252       3135.9113      6.0598508      9.2624424      19.544225      1096.9981     -13.452085    
       202  -13.452346      62.69024       60.383034      61.071294      580.04773      3488.852       3136.3956      6.0592975      9.2616224      19.542273      1096.6914     -13.452346    
       203  -13.452563     -66.865093     -68.079657     -68.040657      578.89298      3483.6315      3133.9986      6.0599061      9.2624938      19.543965      1096.9997     -13.452563    
       204  -13.452829      51.995256      59.175952      57.022022      580.3852       3488.7424      3133.0207      6.0594112      9.2616553      19.542014      1096.7013     -13.452829    
       205  -13.45308      -71.973931     -72.397357     -69.692449      577.55758      3484.6587      3131.0429      6.0599439      9.2625796      19.543698      1097.0017     -13.45308     
       206  -13.453458      56.33097       50.504493      52.382563      575.28867      3489.8479      3129.9494      6.0593353      9.2618364      19.54188       1096.7015     -13.453458    
       207  -13.453724     -76.705747     -81.012366     -81.750565      573.28186      3485.5736      3125.4695      6.0599439      9.2627202      19.543676      1097.0171     -13.453724    
       208  -13.454358      27.871829      40.067669      30.443627      575.18839      3490.9361      3122.2104      6.0595703      9.2619098      19.541724      1096.7439     -13.454358    
       209  -13.454546     -74.97409      -77.35307      -73.809671      571.04718      3487.5014      3119.5228      6.0599962      9.2628341      19.543001      1097.0022     -13.454546    
       210  -13.455233      8.5199291     -43.694587      6.2520343      559.21716      3489.9975      3116.6558      6.0594617      9.2631783      19.541049      1096.8366     -13.455233    
       211  -13.455247      17.743125      22.705516      20.044605      569.39048      3492.2332      3116.1391      6.0595811      9.2622541      19.541329      1096.7645     -13.455247    
       212  -13.455249      17.196995      22.320987      19.648932      569.36487      3492.3915      3116.1557      6.0595834      9.2622557      19.541336      1096.7655     -13.455249    
       213  -13.455249      17.196995      22.320987      19.648932      569.36487      3492.3915      3116.1557      6.0595834      9.2622557      19.541336      1096.7655     -13.455249    
Loop time of 0.0485798 on 1 procs for 212 steps with 48 atoms

65.5% CPU use with 1 MPI tasks x no OpenMP threads

Minimization stats:
  Stopping criterion = linesearch alpha is zero
  Energy initial, next-to-last, final = 
     -13.4233570098877  -13.4552494287491  -13.4552494287491
  Force two-norm initial, final = 1.5172117 0.051295615
  Force max component initial, final = 1.3644543 0.015247692
  Final line search alpha, max atom move = 3.202329e-06 4.8828125e-08
  Iterations, force evaluations = 212 240

MPI task timing breakdown:
Section |  min time  |  avg time  |  max time  |%varavg| %total
---------------------------------------------------------------
Pair    | 0.030603   | 0.030603   | 0.030603   |   0.0 | 62.99
Neigh   | 0          | 0          | 0          |   0.0 |  0.00
Comm    | 0.00083403 | 0.00083403 | 0.00083403 |   0.0 |  1.72
Output  | 0.013556   | 0.013556   | 0.013556   |   0.0 | 27.90
Modify  | 0          | 0          | 0          |   0.0 |  0.00
Other   |            | 0.003587   |            |       |  7.38

Nlocal:             48 ave          48 max          48 min
Histogram: 1 0 0 0 0 0 0 0 0 0
Nghost:           1272 ave        1272 max        1272 min
Histogram: 1 0 0 0 0 0 0 0 0 0
Neighs:              0 ave           0 max           0 min
Histogram: 1 0 0 0 0 0 0 0 0 0
FullNghs:         8754 ave        8754 max        8754 min
Histogram: 1 0 0 0 0 0 0 0 0 0

Total # of neighbors = 8754
Ave neighs/atom = 182.375
Neighbor list builds = 0
Dangerous builds not checked
fix             1 all box/relax tri 0.0
minimize        1.000000e-12 1.000000e-06 5000 500000
WARNING: Using 'neigh_modify every 1 delay 0 check yes' setting during minimization (../min.cpp:187)
Generated 0 of 3 mixed pair_coeff terms from geometric mixing rule
Per MPI rank memory allocation (min/avg/max) = 5.492 | 5.492 | 5.492 Mbytes
   Step         PotEng          Pxx            Pyy            Pzz            Pxy            Pxz            Pyz             Lx             Ly             Lz           Volume         c_mype    
       213  -13.455249      17.196995      22.320987      19.648932      569.36487      3492.3915      3116.1557      6.0595834      9.2622557      19.541336      1096.7655     -13.455249    
       214  -13.455401      15.957031      20.409509      16.687037      564.71787      3486.3453      3104.8951      6.0595904      9.2622696      19.541362      1096.7699     -13.455401    
       215  -13.455542      14.366013      19.328362      13.259864      560.91257      3479.707       3094.4437      6.059597       9.2622825      19.541384      1096.7739     -13.455542    
       216  -13.455729      13.075928      18.06891       10.504208      555.10978      3473.2735      3084.1692      6.0596029      9.2622947      19.541402      1096.7774     -13.455729    
       217  -13.455892      11.70784       16.692449      7.5702525      551.19073      3467.9084      3073.3526      6.0596083      9.2623061      19.541416      1096.7805     -13.455892    
       218  -13.456038      9.0441586      15.594626      4.7282616      547.50873      3461.7033      3061.9269      6.0596132      9.2623167      19.541426      1096.7832     -13.456038    
       219  -13.456207      8.417236       15.03456       2.5856322      543.45365      3455.912       3051.2216      6.059617       9.2623266      19.541432      1096.7854     -13.456207    
       220  -13.456365      7.6983717      13.783512      0.96125163     539.65502      3450.0575      3041.2748      6.0596206      9.2623363      19.541436      1096.7874     -13.456365    
       221  -13.456527      6.7148198      13.220672     -1.5240691      535.87605      3444.5939      3030.5068      6.0596238      9.2623451      19.541437      1096.7891     -13.456527    
       222  -13.456664      4.9427697      13.903281     -3.2738187      530.88244      3439.6132      3020.4753      6.0596266      9.2623537      19.541435      1096.7905     -13.456664    
       223  -13.456845      4.371588       12.613243     -5.2408904      526.95607      3433.0702      3009.2017      6.0596288      9.2623626      19.541431      1096.7917     -13.456845    
       224  -13.457         3.856133       12.663385     -6.8457506      523.95208      3427.6732      2998.4165      6.0596307      9.2623708      19.541424      1096.7926     -13.457       
       225  -13.457145      2.9896156      11.415149     -8.0048141      519.00618      3420.9393      2987.4339      6.0596324      9.2623791      19.541414      1096.7934     -13.457145    
       226  -13.457302      2.3710733      10.116765     -9.3477685      515.50366      3414.3706      2976.2933      6.0596337      9.2623866      19.541403      1096.7939     -13.457302    
       227  -13.457449      2.4574456      10.197563     -10.749235      511.07902      3408.6442      2966.2455      6.0596347      9.2623932      19.54139       1096.7941     -13.457449    
       228  -13.457622      2.5131696      11.339912     -12.120053      505.74334      3402.3162      2955.1587      6.0596358      9.2623999      19.541375      1096.7943     -13.457622    
       229  -13.457768      1.78318        11.328765     -13.867011      501.75899      3396.6821      2945.245       6.0596369      9.2624074      19.541358      1096.7944     -13.457768    
       230  -13.457934      1.5937172      10.757591     -13.906019      499.06475      3390.1179      2933.7854      6.0596376      9.2624149      19.541339      1096.7943     -13.457934    
       231  -13.458085      0.85258309     10.556985     -14.814328      495.21146      3384.2115      2923.0477      6.0596383      9.2624221      19.541319      1096.7942     -13.458085    
       232  -13.458243      1.342958       10.635001     -14.649944      491.54771      3378.8963      2912.302       6.0596387      9.2624291      19.541299      1096.7939     -13.458243    
       233  -13.458393      1.4962004      10.353595     -16.073706      486.71649      3373.3607      2902.2331      6.0596393      9.2624363      19.541278      1096.7937     -13.458393    
       234  -13.458549      1.1256334      10.863477     -17.80674       482.93017      3367.2209      2892.198       6.05964        9.2624432      19.541255      1096.7934     -13.458549    
       235  -13.458708      0.88601875     11.35107      -18.038004      478.82627      3359.9837      2881.1157      6.0596405      9.2624506      19.541229      1096.7929     -13.458708    
       236  -13.458849     -0.12816629     10.270021     -18.701133      475.12079      3354.474       2870.4763      6.0596408      9.2624583      19.541204      1096.7925     -13.458849    
       237  -13.459003     -0.50709302     10.28953      -19.581592      471.97822      3348.5358      2858.5865      6.0596408      9.2624654      19.541177      1096.7918     -13.459003    
       238  -13.459139     -0.35663711     9.8632451     -20.854912      467.49274      3342.7847      2848.5832      6.0596406      9.2624724      19.541149      1096.791      -13.459139    
       239  -13.459301      0.44858299     10.270043     -21.286795      462.83177      3335.847       2837.853       6.0596405      9.2624792      19.541118      1096.7901     -13.459301    
       240  -13.45946       1.7386087      9.852116      -21.401047      458.87568      3329.2016      2827.1031      6.0596407      9.2624862      19.541088      1096.7892     -13.45946     
       241  -13.459607      1.2788814      10.607193     -21.844074      454.90841      3323.4003      2816.2974      6.0596415      9.262493       19.541056      1096.7884     -13.459607    
       242  -13.45976       0.11423568     9.9329313     -21.693633      450.32818      3318.0699      2805.1908      6.0596421      9.2625004      19.541024      1096.7876     -13.45976     
       243  -13.459884      0.52938531     9.7490483     -23.142497      447.9352       3311.7871      2795.2185      6.0596421      9.2625073      19.540992      1096.7867     -13.459884    
       244  -13.460049      0.73835391     9.1945958     -24.087055      444.23829      3306.6163      2784.7672      6.0596424      9.2625141      19.540958      1096.7856     -13.460049    
       245  -13.460193      1.0448416      10.242233     -24.538452      440.45505      3300.621       2773.2435      6.0596427      9.2625206      19.540923      1096.7844     -13.460193    
       246  -13.460344      1.1757962      10.169801     -25.299122      435.89161      3294.3943      2762.0567      6.0596432      9.2625278      19.540886      1096.7833     -13.460344    
       247  -13.4605        0.95568371     10.43172      -24.803197      432.5235       3288.073       2752.5112      6.0596438      9.262535       19.540848      1096.7822     -13.4605      
       248  -13.460644      1.290035       11.356766     -23.825247      428.24426      3282.2977      2741.9095      6.0596443      9.2625424      19.540811      1096.781      -13.460644    
       249  -13.460775      0.22011416     10.969487     -25.037289      424.47483      3276.2739      2731.4412      6.0596449      9.2625505      19.540775      1096.7801     -13.460775    
       250  -13.460949     -0.49038143     12.518658     -26.004147      421.58593      3270.273       2721.355       6.059645       9.2625583      19.540738      1096.7789     -13.460949    
       251  -13.461078      0.59625989     12.775007     -26.377534      416.60455      3263.7455      2709.8535      6.0596448      9.2625673      19.540698      1096.7777     -13.461078    
       252  -13.46125       0.34271047     12.320859     -25.750652      412.86024      3257.8838      2699.4134      6.059645       9.2625765      19.540658      1096.7766     -13.46125     
       253  -13.461383      0.46530657     12.75553      -26.171405      409.29146      3252.0778      2689.1961      6.0596451      9.2625854      19.540619      1096.7755     -13.461383    
       254  -13.46154       0.080801821    11.468286     -26.867999      405.5722       3245.6392      2677.6748      6.0596454      9.2625947      19.540579      1096.7744     -13.46154     
       255  -13.461674      1.0142034      11.426506     -26.316349      403.47185      3239.8031      2666.5469      6.0596454      9.262603       19.540537      1096.773      -13.461674    
       256  -13.461819     -0.31763548     12.928321     -26.168706      399.01425      3234.7942      2655.6973      6.0596458      9.2626114      19.540497      1096.7718     -13.461819    
       257  -13.461971      0.42072815     13.376926     -25.675562      394.65415      3228.1635      2644.569       6.0596457      9.2626209      19.540456      1096.7706     -13.461971    
       258  -13.462117      0.14767293     12.900485     -26.146468      391.024        3221.3652      2634.3402      6.059646       9.2626308      19.540416      1096.7696     -13.462117    
       259  -13.462266      0.39007985     12.794619     -27.587005      388.27434      3215.1273      2623.7468      6.0596461      9.2626404      19.540375      1096.7685     -13.462266    
       260  -13.462401      0.93897901     12.77513      -27.422645      384.17337      3209.1349      2612.5043      6.0596463      9.2626499      19.540332      1096.7672     -13.462401    
       261  -13.462537     -0.38172186     12.474225     -27.520196      381.66335      3203.3458      2602.4403      6.0596468      9.2626594      19.540288      1096.766      -13.462537    
       262  -13.46268      -0.18389543     13.457802     -26.634189      378.23111      3196.9943      2591.5798      6.0596465      9.2626688      19.540245      1096.7646     -13.46268     
       263  -13.462831      0.05572595     13.494039     -27.14411       373.19111      3190.7871      2580.6465      6.0596464      9.262679       19.540202      1096.7634     -13.462831    
       264  -13.462971     -0.17832324     12.920076     -27.567658      369.11239      3184.2623      2570.0335      6.0596464      9.2626892      19.540159      1096.7622     -13.462971    
       265  -13.463104      1.1591025      13.794991     -26.951919      365.90023      3177.6627      2558.6323      6.0596463      9.262699       19.540115      1096.7608     -13.463104    
       266  -13.463248      1.680143       13.109573     -28.398039      362.56817      3171.8285      2548.5317      6.0596469      9.2627095      19.540071      1096.7598     -13.463248    
       267  -13.463391      2.0395789      12.775231     -28.177952      360.0609       3165.2759      2538.8577      6.0596477      9.2627195      19.540025      1096.7585     -13.463391    
       268  -13.463548      2.4408102      13.343653     -27.849199      356.76509      3158.6815      2528.4119      6.0596488      9.2627293      19.53998       1096.7573     -13.463548    
       269  -13.463672      1.4683884      14.650449     -28.8523        353.72558      3152.6941      2517.1772      6.05965        9.2627397      19.539934      1096.7562     -13.463672    
       270  -13.463824      1.2705614      14.460995     -28.211478      349.5437       3146.1496      2505.9093      6.0596507      9.262751       19.539887      1096.755      -13.463824    
       271  -13.463946      0.87769135     13.881455     -28.289525      346.02494      3140.3657      2494.9951      6.0596513      9.2627623      19.539841      1096.7539     -13.463946    
       272  -13.464107      1.9866497      12.700069     -28.222685      342.83778      3134.2979      2485.1316      6.0596518      9.2627732      19.539794      1096.7526     -13.464107    
       273  -13.46423       0.47924844     13.343725     -27.829845      339.07105      3127.8539      2474.4516      6.0596529      9.2627832      19.539747      1096.7514     -13.46423     
       274  -13.464376      0.8944124      13.611229     -27.531741      335.22075      3121.7668      2464.6384      6.0596531      9.2627937      19.539701      1096.75       -13.464376    
       275  -13.464498      1.1674742      14.717419     -27.98873       331.01654      3115.6403      2453.5654      6.0596536      9.2628045      19.539655      1096.7488     -13.464498    
       276  -13.464648      1.35416        14.918051     -27.28103       327.89062      3109.5665      2441.7233      6.0596542      9.2628162      19.539608      1096.7477     -13.464648    
       277  -13.46479       1.0504502      14.455533     -27.846683      324.0625       3103.2389      2432.135       6.0596549      9.2628281      19.539562      1096.7466     -13.46479     
       278  -13.464931      0.66314966     13.324293     -28.108629      321.56907      3097.09        2420.6551      6.0596555      9.2628397      19.539514      1096.7455     -13.464931    
       279  -13.465067      0.72166375     13.299232     -27.328487      318.5017       3091.0753      2410.2984      6.0596558      9.2628504      19.539467      1096.7441     -13.465067    
       280  -13.465206      0.83033224     13.63361      -26.757317      315.27827      3084.5115      2399.5822      6.0596562      9.2628611      19.53942       1096.7428     -13.465206    
       281  -13.465331      1.3290903      14.0265       -27.256103      312.00186      3077.5713      2387.818       6.0596567      9.2628722      19.539374      1096.7416     -13.465331    
       282  -13.465472      1.6133         14.218773     -27.083378      308.61398      3070.7619      2377.5918      6.0596574      9.2628837      19.539327      1096.7405     -13.465472    
       283  -13.465604      1.6829606      14.34696      -27.933245      306.2626       3063.9077      2366.7441      6.0596582      9.2628953      19.53928       1096.7394     -13.465604    
       284  -13.465744      2.635898       14.054407     -27.649065      303.13941      3057.7782      2356.6377      6.0596592      9.2629071      19.539231      1096.7382     -13.465744    
       285  -13.465863      2.103705       15.486612     -27.67417       299.35583      3051.8964      2345.8456      6.0596606      9.2629188      19.539183      1096.7371     -13.465863    
       286  -13.466009      1.8027793      15.617586     -27.663049      295.95116      3045.3122      2334.0001      6.0596618      9.2629317      19.539134      1096.7362     -13.466009    
       287  -13.466144      1.7777036      14.62008      -27.74388       292.48519      3038.4689      2323.3444      6.0596628      9.2629448      19.539085      1096.7351     -13.466144    
       288  -13.466287      2.1232156      14.110189     -28.139573      290.06414      3031.4142      2313.5555      6.0596637      9.2629571      19.539036      1096.734      -13.466287    
       289  -13.466429      2.1761591      14.59782      -27.702143      285.99634      3025.3543      2302.9252      6.0596649      9.262969       19.538986      1096.7328     -13.466429    
       290  -13.466539      2.6721365      13.129413     -28.34861       283.50003      3018.7202      2292.565       6.0596661      9.2629814      19.538936      1096.7317     -13.466539    
       291  -13.466677      2.9563506      13.174011     -27.640902      279.86414      3013.3711      2281.7426      6.0596675      9.2629926      19.538885      1096.7304     -13.466677    
       292  -13.466806      3.3882432      14.547712     -27.72731       276.49291      3006.6061      2271.6778      6.0596692      9.2630039      19.538835      1096.7293     -13.466806    
       293  -13.466934      3.4133238      15.286118     -26.757672      273.20522      3000.0608      2260.264       6.0596711      9.2630165      19.538785      1096.7283     -13.466934    
       294  -13.467056      2.6749333      14.759502     -27.922403      270.58622      2994.1532      2250.1957      6.059673       9.2630297      19.538736      1096.7274     -13.467056    
       295  -13.467185      2.5495483      15.035369     -27.69116       267.00876      2987.427       2239.5232      6.0596746      9.2630424      19.538685      1096.7264     -13.467185    
       296  -13.467312      1.7219917      14.035068     -27.721837      263.64027      2980.4973      2228.4718      6.059676       9.2630556      19.538634      1096.7253     -13.467312    
       297  -13.467462      2.1065165      13.993288     -26.526504      260.32754      2973.8579      2217.7495      6.0596769      9.2630678      19.538583      1096.7241     -13.467462    
       298  -13.467583      1.7554322      13.224256     -26.231172      257.2349       2967.8311      2207.4977      6.0596781      9.2630801      19.538533      1096.723      -13.467583    
       299  -13.467692      1.9504823      13.533561     -26.543277      254.53515      2959.8401      2196.4325      6.0596792      9.2630918      19.538484      1096.7218     -13.467692    
       300  -13.467838      1.8446009      13.948749     -26.403985      252.04158      2954.4404      2185.5706      6.0596804      9.2631038      19.538435      1096.7206     -13.467838    
       301  -13.467969      2.4631856      13.831734     -26.437449      249.37525      2948.096       2174.6418      6.0596815      9.2631164      19.538385      1096.7195     -13.467969    
       302  -13.468097      1.975566       14.191195     -26.144902      245.12343      2940.8598      2164.8803      6.0596829      9.2631288      19.538335      1096.7184     -13.468097    
       303  -13.46822       1.2427409      13.653431     -26.281462      243.32643      2934.7576      2153.7702      6.0596841      9.2631415      19.538285      1096.7174     -13.46822     
       304  -13.468351      0.56006994     13.723107     -25.796654      239.5539       2928.2686      2142.3428      6.0596848      9.2631539      19.538234      1096.7161     -13.468351    
       305  -13.468457      0.39009891     12.664282     -27.003204      236.07114      2922.0944      2131.9936      6.0596852      9.2631664      19.538185      1096.7149     -13.468457    
       306  -13.468589      1.8473995      12.633649     -27.215009      233.46337      2914.4887      2121.1462      6.0596854      9.263178       19.538133      1096.7134     -13.468589    
       307  -13.468725      2.0675297      13.296835     -26.877886      231.37663      2907.7966      2110.4574      6.0596865      9.2631897      19.53808       1096.712      -13.468725    
       308  -13.468861      2.1093285      13.845777     -25.546003      228.60161      2900.1595      2099.1859      6.0596878      9.263202       19.538027      1096.7107     -13.468861    
       309  -13.468962      2.3851875      12.589109     -25.401133      225.77639      2894.6201      2088.4713      6.0596891      9.2632148      19.537977      1096.7097     -13.468962    
       310  -13.469092      1.7554553      13.007088     -24.855018      222.92332      2888.6073      2076.8708      6.0596905      9.2632266      19.537927      1096.7085     -13.469092    
       311  -13.469217      2.452067       14.141182     -25.412331      219.19808      2881.1035      2066.1674      6.0596916      9.2632389      19.537878      1096.7074     -13.469217    
       312  -13.469345      3.3548766      13.360991     -25.409568      215.85454      2873.488       2056.7511      6.0596932      9.2632523      19.537827      1096.7064     -13.469345    
       313  -13.469465      1.5186124      13.043348     -24.481704      213.30793      2866.7753      2046.3707      6.0596952      9.2632649      19.537776      1096.7054     -13.469465    
       314  -13.469612      2.1706428      13.472475     -24.738083      211.21274      2859.6282      2035.0849      6.0596961      9.2632773      19.537727      1096.7043     -13.469612    
       315  -13.469724      2.413066       13.648034     -24.607143      207.69644      2853.4339      2025.0946      6.0596974      9.2632902      19.537677      1096.7032     -13.469724    
       316  -13.469845      1.9282254      12.369064     -25.769116      204.99098      2845.665       2014.2488      6.059699       9.2633033      19.537627      1096.7023     -13.469845    
       317  -13.469973      2.4966648      12.335642     -25.036309      203.21347      2839.2791      2003.5818      6.0597002      9.2633153      19.537574      1096.7009     -13.469973    
       318  -13.4701        2.8254697      11.920473     -24.752117      200.56376      2831.8256      1993.079       6.0597017      9.2633274      19.537522      1096.6998     -13.4701      
       319  -13.470228      2.6276339      12.321736     -25.387457      197.3484       2825.4615      1981.9632      6.0597035      9.263339       19.537471      1096.6986     -13.470228    
       320  -13.470311      3.0233149      12.575318     -24.841338      194.98012      2818.6295      1972.3549      6.0597052      9.2633512      19.537418      1096.6974     -13.470311    
       321  -13.470447      2.5635507      12.884629     -24.963968      191.83997      2811.0197      1961.1023      6.0597071      9.2633636      19.537366      1096.6963     -13.470447    
       322  -13.470562      2.5719127      14.144127     -23.944145      189.63049      2804.1511      1951.7306      6.0597088      9.2633765      19.537314      1096.6951     -13.470562    
       323  -13.470685      2.0759225      13.216242     -24.632422      186.29245      2797.58        1940.224       6.0597104      9.2633907      19.537263      1096.6943     -13.470685    
       324  -13.470815      2.8282731      12.881878     -24.16432       183.63155      2790.7532      1929.9467      6.0597118      9.263404       19.537211      1096.6932     -13.470815    
       325  -13.47094       2.4381687      13.015641     -24.774581      181.36353      2782.8199      1919.3822      6.0597137      9.263417       19.537159      1096.6922     -13.47094     
       326  -13.471042      2.9843216      12.516874     -24.259107      179.037        2777.155       1907.7728      6.0597153      9.2634302      19.537106      1096.691      -13.471042    
       327  -13.471167      1.7025418      12.906994     -24.454184      175.9609       2769.6286      1897.7461      6.0597174      9.2634431      19.537054      1096.69       -13.471167    
       328  -13.471288      2.8254979      12.483462     -23.671208      173.72911      2761.7375      1886.4964      6.0597185      9.2634563      19.537001      1096.6888     -13.471288    
       329  -13.471411      3.1933172      12.054355     -23.04427       170.87591      2755.6266      1876.386       6.0597205      9.2634692      19.536949      1096.6877     -13.471411    
       330  -13.471522      3.3465772      11.380034     -22.796293      168.18431      2748.242       1865.6067      6.0597226      9.2634817      19.536898      1096.6868     -13.471522    
       331  -13.471638      3.480332       11.675413     -23.28395       165.71284      2741.2728      1854.3816      6.0597249      9.2634937      19.536848      1096.6858     -13.471638    
       332  -13.471771      2.700116       12.01259      -22.361641      163.12992      2733.7963      1843.9117      6.0597273      9.2635059      19.536796      1096.6847     -13.471771    
       333  -13.471875      1.9003929      12.018174     -22.406245      160.37699      2726.9997      1833.1908      6.0597292      9.2635187      19.536746      1096.6838     -13.471875    
       334  -13.47199       1.7694291      12.085061     -21.534092      157.64917      2719.4008      1822.5176      6.0597305      9.2635314      19.536696      1096.6827     -13.47199     
       335  -13.472098      1.3403089      12.327498     -21.751458      155.35601      2711.6344      1810.9831      6.0597317      9.2635444      19.536647      1096.6817     -13.472098    
       336  -13.472242      1.5409387      12.497487     -21.099436      153.44462      2704.6651      1800.2065      6.0597326      9.2635578      19.536597      1096.6807     -13.472242    
       337  -13.472355      1.683052       11.915116     -21.977204      150.52727      2697.3834      1790.1738      6.0597337      9.2635714      19.536549      1096.6798     -13.472355    
       338  -13.472465      2.4270526      12.48915      -21.578754      148.70504      2689.9768      1779.8376      6.0597349      9.2635844      19.536498      1096.6787     -13.472465    
       339  -13.472587      2.9843574      11.739587     -21.247176      145.77374      2682.55        1770.3509      6.0597367      9.2635981      19.536448      1096.6779     -13.472587    
       340  -13.472694      2.9091238      11.190652     -21.138518      143.21304      2675.1483      1759.4152      6.0597388      9.2636111      19.536399      1096.677      -13.472694    
       341  -13.472808      2.6221148      11.081988     -20.957412      141.16229      2667.5852      1747.2452      6.059741       9.2636235      19.536349      1096.6761     -13.472808    
       342  -13.472944      2.6471958      11.037413     -21.060532      138.91647      2660.6379      1737.3184      6.0597429      9.2636359      19.5363        1096.6751     -13.472944    
       343  -13.473038      2.0425224      10.664029     -20.305403      137.01898      2653.1446      1726.0846      6.0597448      9.2636483      19.53625       1096.6741     -13.473038    
       344  -13.473143      2.1539853      11.226917     -20.885019      134.5586       2646.111       1715.6674      6.0597463      9.2636603      19.536202      1096.6731     -13.473143    
       345  -13.473273      2.0480992      10.569306     -21.127467      132.64716      2639.0691      1705.0049      6.0597479      9.2636729      19.536152      1096.6721     -13.473273    
       346  -13.473384      1.0115113      11.031882     -21.30304       130.84163      2631.2027      1693.568       6.0597494      9.2636849      19.536102      1096.671      -13.473384    
       347  -13.473494      0.51272254     10.310182     -21.286345      128.26702      2624.2366      1683.8644      6.0597501      9.2636974      19.536051      1096.6697     -13.473494    
       348  -13.47359       1.3988427      11.862297     -20.695626      125.58375      2617.2681      1673.0939      6.0597505      9.2637091      19.536         1096.6683     -13.47359     
       349  -13.473699      2.1094121      11.82051      -20.430924      122.34869      2609.1978      1662.9301      6.0597516      9.2637227      19.53595       1096.6673     -13.473699    
       350  -13.473827      1.8976364      11.809373     -20.272107      119.78795      2602.2559      1653.0197      6.0597531      9.2637361      19.5359        1096.6664     -13.473827    
       351  -13.473922      1.7276587      10.652966     -19.820703      117.78731      2594.5309      1642.1841      6.0597546      9.2637497      19.535851      1096.6655     -13.473922    
       352  -13.474037      2.0091017      10.892619     -20.442122      116.14057      2587.2353      1631.3014      6.0597559      9.263762       19.535803      1096.6645     -13.474037    
       353  -13.474138      3.2853441      10.104036     -20.414276      114.51333      2580.4915      1620.7642      6.0597574      9.2637745      19.535753      1096.6635     -13.474138    
       354  -13.474241      2.7252497      11.11835      -19.489158      111.88014      2573.1011      1611.1437      6.0597599      9.2637862      19.535703      1096.6625     -13.474241    
       355  -13.474346      2.045332       9.3154563     -20.723616      109.62311      2566.0334      1600.5141      6.0597619      9.2637991      19.535656      1096.6617     -13.474346    
       356  -13.474466      2.2543264      10.360427     -20.027001      107.92901      2558.5935      1591.6798      6.0597635      9.2638099      19.535605      1096.6604     -13.474466    
       357  -13.474568      2.6973918      10.120793     -20.798897      105.92836      2550.7741      1581.4797      6.0597652      9.263822       19.535555      1096.6594     -13.474568    
       358  -13.47466       2.2710502      8.4990222     -20.255539      104.65222      2542.9771      1571.1543      6.0597672      9.2638338      19.535504      1096.6583     -13.47466     
       359  -13.474773      3.3466682      10.118028     -19.603506      101.4673       2535.2586      1559.6532      6.059769       9.2638438      19.535454      1096.657      -13.474773    
       360  -13.474876      1.6050644      10.304736     -19.205041      99.745278      2528.1408      1550.077       6.0597716      9.2638557      19.535405      1096.6561     -13.474876    
       361  -13.474959      0.92792874     9.3489517     -18.973774      97.176153      2521.4276      1540.8494      6.0597728      9.2638679      19.535357      1096.6551     -13.474959    
       362  -13.475082      1.5214704      9.5328761     -18.279938      95.395639      2513.9819      1530.7692      6.0597735      9.2638789      19.53531       1096.6538     -13.475082    
       363  -13.475181      1.758331       10.10692      -18.876282      93.681981      2507.0178      1519.7887      6.0597747      9.2638903      19.535264      1096.6528     -13.475181    
       364  -13.475277      2.5357887      9.8449907     -18.633867      91.823417      2499.3263      1510.5777      6.059776       9.2639023      19.535217      1096.6518     -13.475277    
       365  -13.475387      2.828382       10.583443     -18.193602      90.1599        2492.8551      1500.4943      6.059778       9.2639141      19.53517       1096.651      -13.475387    
       366  -13.475478      3.6364933      10.00384      -18.739784      88.919925      2484.7504      1490.4384      6.0597803      9.2639267      19.535124      1096.6503     -13.475478    
       367  -13.475568      2.6026721      10.519365     -17.619588      87.005599      2477.3815      1482.3499      6.0597832      9.2639388      19.535076      1096.6496     -13.475568    
       368  -13.475672      2.7865884      9.7251937     -18.946015      85.16093       2470.9042      1471.7033      6.0597852      9.2639514      19.535031      1096.6489     -13.475672    
       369  -13.475753      3.2603112      8.5297544     -18.714744      83.631163      2463.2961      1462.4307      6.0597873      9.2639632      19.534983      1096.648      -13.475753    
       370  -13.47586       3.2909667      8.839074      -17.731093      82.003868      2455.9724      1453.1304      6.05979        9.2639736      19.534935      1096.647      -13.47586     
       371  -13.475962      2.5441616      8.6997508     -18.193681      79.872183      2447.999       1442.3501      6.0597926      9.2639843      19.534889      1096.6462     -13.475962    
       372  -13.476051      2.8785557      8.5687886     -18.190911      77.863119      2441.5725      1434.1979      6.0597946      9.2639949      19.534843      1096.6452     -13.476051    
       373  -13.47615       2.5971116      7.796908      -17.956853      76.439237      2434.611       1423.9918      6.0597969      9.2640054      19.534796      1096.6442     -13.47615     
       374  -13.476248      2.7615238      7.5377618     -17.190556      74.502625      2427.6163      1414.6442      6.0597989      9.264015       19.534749      1096.6431     -13.476248    
       375  -13.476334      2.0565151      7.9752658     -17.834277      72.067199      2420.7579      1405.0958      6.0598012      9.2640243      19.534705      1096.6421     -13.476334    
       376  -13.476422      3.1293615      9.0425451     -16.571962      70.888538      2412.7684      1395.6674      6.0598028      9.2640342      19.534658      1096.6409     -13.476422    
       377  -13.476529      1.5549286      8.9505923     -17.104214      69.169241      2405.3658      1385.8928      6.0598053      9.2640454      19.534615      1096.6403     -13.476529    
       378  -13.476614      2.3937004      8.945027      -16.948179      67.667318      2397.5097      1376.6313      6.0598066      9.2640564      19.53457       1096.6393     -13.476614    
       379  -13.476704      1.5716508      8.2762463     -17.853842      65.488237      2390.2162      1366.3219      6.0598086      9.2640675      19.534526      1096.6385     -13.476704    
       380  -13.476803      1.4964138      8.5772099     -16.438259      64.331861      2382.5862      1357.9941      6.0598099      9.2640779      19.534478      1096.6373     -13.476803    
       381  -13.476885      2.3324012      9.1902739     -16.541378      62.651585      2375.2037      1348.1558      6.0598111      9.2640886      19.534435      1096.6363     -13.476885    
       382  -13.476971      2.7838356      9.3630507     -16.613842      61.436661      2368.4032      1339.7327      6.059813       9.2641002      19.534391      1096.6356     -13.476971    
[...]
       512  -13.484902      3.5114221      2.6335666     -7.9898788     -19.206922      1442.7207      435.43306      6.0602913      9.2650144      19.529375      1096.5487     -13.484902    
       513  -13.484943      3.8987949      2.5861913     -7.256942      -19.716922      1435.64        430.13545      6.0602961      9.2650199      19.52934       1096.5483     -13.484943    
       514  -13.484986      5.0497624      2.7756972     -7.9341466     -20.10151       1428.4474      425.6933       6.0603014      9.2650253      19.529308      1096.5481     -13.484986    
       515  -13.485011      4.4589515      2.3353758     -8.1543075     -20.636585      1421.4106      421.55763      6.0603083      9.2650311      19.529273      1096.5481     -13.485011    
       516  -13.485055      4.6623926      2.0845605     -7.7836597     -21.046258      1414.3994      416.44391      6.0603144      9.265036       19.529237      1096.5477     -13.485055    
       517  -13.485109      3.8402741      1.867187      -7.7530062     -21.280358      1407.4828      411.38309      6.0603208      9.2650404      19.529202      1096.5475     -13.485109    
       518  -13.485144      4.0743711      1.2011313     -7.8700574     -21.302663      1400.6055      406.90482      6.0603262      9.2650443      19.529168      1096.5469     -13.485144    
       519  -13.485168      4.4310902      0.60195943    -7.0284337     -21.561852      1393.0707      403.08708      6.0603319      9.2650468      19.529132      1096.5463     -13.485168    
       520  -13.485213      3.2383203      0.56015695    -7.3935144     -21.355635      1386.3216      398.90699      6.0603381      9.2650481      19.5291        1096.5458     -13.485213    
       521  -13.485249      4.0381498      0.96425109    -7.8394171     -20.70353       1379.5368      394.09165      6.0603426      9.2650493      19.529067      1096.5449     -13.485249    
       522  -13.485284      4.2722483      0.57130522    -6.7358278     -20.363547      1373.0248      389.15639      6.0603483      9.2650514      19.529031      1096.5441     -13.485284    
       523  -13.485332      3.9071721      1.1286767     -6.4850138     -19.967823      1365.6458      385.10169      6.0603544      9.2650526      19.529         1096.5436     -13.485332    
       524  -13.485373      4.3920865      1.2791673     -6.972716      -19.371442      1358.1831      381.32563      6.06036        9.2650551      19.52897       1096.5433     -13.485373    
       525  -13.485413      4.0604517      1.0394979     -7.0507501     -19.951115      1351.0631      376.67169      6.0603663      9.2650579      19.528938      1096.5429     -13.485413    
       526  -13.48543       3.9434056      0.20065385    -7.1064907     -19.987353      1344.6539      372.27421      6.0603722      9.2650602      19.528905      1096.5424     -13.48543     
       527  -13.485472      4.6317631     -0.26196494    -6.2007658     -20.240972      1337.6013      367.79877      6.0603779      9.2650607      19.528872      1096.5416     -13.485472    
       528  -13.485522      4.3140628      0.027868623   -7.6109209     -19.574921      1330.4062      363.89733      6.0603847      9.2650601      19.528842      1096.5411     -13.485522    
       529  -13.485551      5.3089768      0.43753772    -7.1092913     -19.254447      1323.3872      359.03454      6.060391       9.2650602      19.528806      1096.5403     -13.485551    
       530  -13.485587      4.6819339     -0.064097904   -7.6332243     -19.457894      1315.4646      354.41403      6.0603989      9.2650611      19.528773      1096.5399     -13.485587    
       531  -13.485605      4.7488222      0.22016253    -7.63323       -19.310205      1309.51        349.89121      6.0604058      9.265061       19.528736      1096.5391     -13.485605    
       532  -13.485651      4.4980071      0.28983441    -6.5881591     -19.073334      1302.2455      345.95917      6.0604128      9.2650615      19.528699      1096.5384     -13.485651    
       533  -13.485691      3.9935855      0.52393166    -6.802751      -19.940059      1295.3346      342.06606      6.0604196      9.2650622      19.528667      1096.5379     -13.485691    
       534  -13.485714      4.4924379      0.30376907    -6.8863611     -19.547121      1288.75        337.76055      6.0604256      9.2650634      19.528634      1096.5373     -13.485714    
       535  -13.485771      4.5537515      0.18114679    -6.5658743     -19.823032      1281.6414      333.72533      6.0604324      9.2650641      19.528601      1096.5367     -13.485771    
       536  -13.485786      5.0916205      0.34278561    -5.8496504     -19.120749      1273.8359      329.44763      6.0604393      9.2650646      19.528568      1096.5362     -13.485786    
       537  -13.485835      5.2058829      0.8778657     -5.9248967     -19.410586      1267.4235      325.18375      6.060447       9.2650654      19.528539      1096.536      -13.485835    
       538  -13.485865      4.3503121      0.67442379    -6.2844035     -20.193697      1260.0131      321.179        6.060455       9.2650675      19.52851       1096.5361     -13.485865    
       539  -13.485884      4.8603118      0.52671957    -7.0452227     -19.611247      1253.6623      317.23846      6.0604618      9.265069       19.528479      1096.5357     -13.485884    
       540  -13.485916      4.6568718      1.0060627     -6.4014569     -19.471911      1246.7708      313.22549      6.0604694      9.2650703      19.528443      1096.5353     -13.485916    
       541  -13.485956      3.4557284      0.58245745    -6.6076872     -18.791917      1240.4365      309.73359      6.0604767      9.2650727      19.528411      1096.5351     -13.485956    
       542  -13.485994      3.0739282      1.5132756     -6.5101507     -18.914552      1232.9824      305.06299      6.0604822      9.2650741      19.528377      1096.5343     -13.485994    
       543  -13.486037      2.8816349      1.9118004     -6.6188423     -18.722266      1225.9489      301.81642      6.0604871      9.2650778      19.528344      1096.5338     -13.486037    
       544  -13.48607       3.3275375      1.3572117     -6.4488458     -18.270801      1218.6396      297.82297      6.0604916      9.2650825      19.52831       1096.5332     -13.48607     
       545  -13.486102      3.377703       1.3154091     -6.2286849     -18.114744      1211.7398      293.76262      6.060497       9.2650858      19.528277      1096.5327     -13.486102    
       546  -13.486137      3.7149174      1.0534424     -5.6936056     -18.399013      1204.4721      289.72454      6.0605025      9.265089       19.528244      1096.5323     -13.486137    
       547  -13.486158      3.3665576      0.59639349    -6.4154103     -18.490985      1198.358       286.52527      6.0605085      9.2650917      19.528214      1096.532      -13.486158    
       548  -13.486189      4.6903313      0.83885308    -7.0145954     -17.788702      1191.2104      282.93037      6.060514       9.2650931      19.528181      1096.5313     -13.486189    
       549  -13.486225      3.7260699      0.58524657    -6.8724669     -18.881169      1183.795       279.34376      6.0605217      9.2650952      19.528144      1096.5308     -13.486225    
       550  -13.486267      4.9718125      0.15606586    -6.331815      -18.259706      1176.9345      274.34149      6.0605279      9.2650967      19.528107      1096.5301     -13.486267    
       551  -13.486287      4.564928       0.44590261    -6.0503411     -17.192333      1168.5324      271.5324       6.0605361      9.265097       19.528073      1096.5297     -13.486287    
       552  -13.486323      3.8180422     -0.66606722    -6.6160819     -17.955946      1161.925       267.39115      6.0605437      9.2650982      19.52804       1096.5294     -13.486323    
       553  -13.486342      5.0303451     -0.57131343    -6.6606786     -17.702356      1155.3825      263.68205      6.0605502      9.2650965      19.528005      1096.5284     -13.486342    
       554  -13.486367      5.4818255     -0.31213241    -6.3429765     -17.019577      1148.1986      260.86466      6.0605586      9.2650951      19.527968      1096.5277     -13.486367    
       555  -13.486409      3.9936241      0.4403298     -5.7855991     -17.234174      1140.7524      257.409        6.0605679      9.2650943      19.527933      1096.5273     -13.486409    
       556  -13.486429      4.2500203     -0.15327942    -5.713142      -17.075327      1133.6992      254.12056      6.0605747      9.2650955      19.527901      1096.5269     -13.486429    
       557  -13.486465      4.450679      -0.71344636    -6.1534748     -16.626644      1126.7436      250.97705      6.060582       9.2650951      19.52787       1096.5264     -13.486465    
       558  -13.486489      4.8046186     -0.56852796    -6.1033148     -16.977805      1119.766       247.38491      6.0605897      9.2650932      19.527835      1096.5256     -13.486489    
       559  -13.486524      4.3559298      0.38459265    -5.8831528     -16.618304      1113.588       243.2242       6.0605981      9.2650917      19.527801      1096.525      -13.486524    
       560  -13.486541      4.8492133      0.05295118    -5.7493834     -17.025198      1106.5124      239.99426      6.0606057      9.2650927      19.527768      1096.5247     -13.486541    
       561  -13.486599      5.3815134      0.14213215    -6.6774241     -16.816184      1099.1191      236.48839      6.0606143      9.2650928      19.527735      1096.5244     -13.486599    
       562  -13.486616      5.2783997      0.17836198    -6.5631633     -16.768813      1092.0797      233.10795      6.0606238      9.2650932      19.527697      1096.524      -13.486616    
       563  -13.486645      5.2198764     -0.85558039    -6.6439858     -16.885868      1085.0013      228.85521      6.0606332      9.2650937      19.527659      1096.5236     -13.486645    
       564  -13.48667       4.3838074      0.52951265    -5.8329999     -16.983422      1077.9763      225.73682      6.0606427      9.2650913      19.52762       1096.5229     -13.48667     
       565  -13.486698      4.6569257      1.0200089     -5.108405      -17.030804      1070.9619      223.34571      6.0606506      9.2650927      19.527586      1096.5226     -13.486698    
       566  -13.486733      4.4590544      0.67443198    -4.86873       -16.866373      1064.5964      220.2522       6.0606591      9.2650956      19.527556      1096.5228     -13.486733    
       567  -13.486761      3.5393741     -0.3177076     -4.4144635     -16.306203      1057.6458      216.84937      6.0606673      9.2650975      19.527527      1096.5229     -13.486761    
       568  -13.486781      3.8152795     -0.10868948    -5.0610282     -16.080469      1050.7542      213.965        6.0606739      9.2650965      19.527501      1096.5225     -13.486781    
       569  -13.486821      4.1859403      0.097541885   -4.7851262     -15.765556      1043.4418      211.16425      6.0606809      9.2650962      19.52747       1096.522      -13.486821    
       570  -13.486846      3.3192115     -0.59918596    -5.5654621     -15.606704      1036.235       208.14327      6.0606888      9.2650964      19.527442      1096.5218     -13.486846    
       571  -13.486887      3.561676      -0.61312106    -5.3898915     -16.178035      1029.3188      204.77965      6.060695       9.2650948      19.527408      1096.5208     -13.486887    
       572  -13.486912      3.884961      -0.23410095    -5.211533      -15.982963      1021.8116      202.22978      6.0607018      9.265093       19.527375      1096.52       -13.486912    
       573  -13.486934      4.119064      -0.33721701    -6.0559716     -14.840335      1014.6358      199.28132      6.0607092      9.2650923      19.527342      1096.5194     -13.486934    
       574  -13.486948      3.8626704      0.42361176    -5.2366217     -15.068874      1008.4803      196.17962      6.060717       9.2650913      19.527305      1096.5186     -13.486948    
       575  -13.486996      3.8933277     -0.43475957    -5.6435136     -15.152486      1001.6136      193.27014      6.0607246      9.2650926      19.527272      1096.5183     -13.486996    
       576  -13.48702       4.6039956     -0.24803608    -5.5097453     -14.372158      994.26517      190.77598      6.0607322      9.2650913      19.527237      1096.5175     -13.48702     
       577  -13.487039      4.1441549      0.31770926    -5.6936843     -14.22167       987.04462      188.05322      6.0607412      9.2650906      19.527202      1096.5171     -13.487039    
       578  -13.487057      3.4697209      0.85279887    -6.340253      -14.19938       979.57606      184.48604      6.0607495      9.2650915      19.527165      1096.5167     -13.487057    
       579  -13.48709       3.2969338      0.91411182    -5.3453246     -13.84545       972.34185      181.26726      6.0607564      9.2650942      19.527125      1096.516      -13.48709     
       580  -13.487106      4.4256405     -0.38738289    -4.8464666     -13.681026      966.10228      178.12924      6.0607631      9.265097       19.52709       1096.5156     -13.487106    
       581  -13.487135      3.6536627     -0.15606797    -4.1636705     -13.065119      959.95458      175.4622       6.060772       9.2650958      19.527058      1096.5153     -13.487135    
       582  -13.487155      3.5979249     -0.46263016    -4.1079329     -12.822659      952.98469      173.8932       6.0607794      9.2650954      19.527031      1096.515      -13.487155    
       583  -13.487191      4.0800649      0.3762355     -4.5622037     -13.413492      946.40785      170.03336      6.0607868      9.2650939      19.527004      1096.5147     -13.487191    
       584  -13.48721       3.8766192     -0.356727      -5.0081126     -13.644808      939.12842      167.88464      6.0607952      9.2650951      19.526973      1096.5146     -13.48721     
       585  -13.487237      3.3053003     -1.1593633     -4.7990954     -13.3494        931.60976      165.11452      6.0608034      9.2650939      19.52694       1096.5141     -13.487237    
       586  -13.487254      3.3554681     -0.60476461    -3.6035052     -13.399577      924.7464       161.87626      6.0608103      9.2650902      19.526907      1096.5131     -13.487254    
       587  -13.487301      3.3471084     -0.74968539    -4.002038      -12.870064      918.3646       159.58544      6.0608173      9.2650883      19.526883      1096.5127     -13.487301    
       588  -13.487331      4.4089325      0             -4.8018905     -13.154337      911.06605      157.38105      6.0608245      9.2650859      19.526855      1096.5122     -13.487331    
       589  -13.487348      4.5705755     -0.32049767    -4.2249954     -12.739086      903.65294      154.4548       6.0608339      9.2650859      19.526822      1096.512      -13.487348    
       590  -13.487378      4.1246657     -0.59361742    -3.5505568     -12.75302       897.30429      151.59818      6.0608438      9.2650849      19.526793      1096.512      -13.487378    
       591  -13.487405      4.682053      -0.53509177    -4.3866377     -12.71679       890.71042      149.04535      6.0608527      9.2650828      19.526768      1096.512      -13.487405    
       592  -13.487419      3.8264639     -0.66050396    -4.3949989     -12.120387      883.01855      146.3922       6.060863       9.265081       19.526737      1096.5119     -13.487419    
       593  -13.487447      3.4864592     -1.1147751     -5.1335395     -11.348411      875.8398       143.92862      6.0608714      9.2650788      19.526705      1096.5114     -13.487447    
       594  -13.487459      4.7600947     -0.49886238    -5.4846992     -10.687917      868.82597      141.50691      6.0608792      9.265075       19.526668      1096.5103     -13.487459    
       595  -13.48748       4.991413       0.0055738839  -4.9161656     -10.793826      862.96263      138.91791      6.0608899      9.2650733      19.526629      1096.5098     -13.48748     
       596  -13.487509      3.8766361      0.42918904    -4.8130486     -10.551362      855.12851      136.07801      6.0609012      9.2650733      19.526593      1096.5098     -13.487509    
       597  -13.487562      2.7534991     -1.0562512     -5.8860223     -10.283817      847.41164      134.25816      6.06091        9.2650748      19.526557      1096.5096     -13.487562    
       598  -13.487563      2.7618599     -1.0729728     -5.8971701     -10.27267       847.43951      134.23587      6.06091        9.2650748      19.526557      1096.5096     -13.487563    
       599  -13.487563      2.7618599     -1.0729728     -5.8971701     -10.27267       847.43951      134.23587      6.06091        9.2650748      19.526557      1096.5096     -13.487563    
Loop time of 0.0826766 on 1 procs for 386 steps with 48 atoms

65.4% CPU use with 1 MPI tasks x no OpenMP threads

Minimization stats:
  Stopping criterion = linesearch alpha is zero
  Energy initial, next-to-last, final = 
     -13.4552494287491  -13.4875625371933  -13.4875625371933
  Force two-norm initial, final = 1.2804334 0.20670057
  Force max component initial, final = 1.011079 0.17998151
  Final line search alpha, max atom move = 2.712895e-07 4.8827093e-08
  Iterations, force evaluations = 386 406

MPI task timing breakdown:
Section |  min time  |  avg time  |  max time  |%varavg| %total
---------------------------------------------------------------
Pair    | 0.051108   | 0.051108   | 0.051108   |   0.0 | 61.82
Neigh   | 0          | 0          | 0          |   0.0 |  0.00
Comm    | 0.0014049  | 0.0014049  | 0.0014049  |   0.0 |  1.70
Output  | 0.02427    | 0.02427    | 0.02427    |   0.0 | 29.36
Modify  | 0          | 0          | 0          |   0.0 |  0.00
Other   |            | 0.005894   |            |       |  7.13

Nlocal:             48 ave          48 max          48 min
Histogram: 1 0 0 0 0 0 0 0 0 0
Nghost:           1272 ave        1272 max        1272 min
Histogram: 1 0 0 0 0 0 0 0 0 0
Neighs:              0 ave           0 max           0 min
Histogram: 1 0 0 0 0 0 0 0 0 0
FullNghs:         8664 ave        8664 max        8664 min
Histogram: 1 0 0 0 0 0 0 0 0 0

Total # of neighbors = 8664
Ave neighs/atom = 180.5
Neighbor list builds = 0
Dangerous builds not checked
variable        N equal count(all)
variable        V equal vol
variable        E equal "c_mype"
variable        tmplx equal lx
variable        tmply equal ly
variable        Pxx equal pxx
variable        Pyy equal pyy
variable        Pzz equal pzz
variable        Pxy equal pxy
variable        Pxz equal pxz
variable        Pyz equal pyz
variable        Epa equal ${E}/${N}
variable        Epa equal -13.4875625371933/${N}
variable        Epa equal -13.4875625371933/48
variable        Vpa equal ${V}/${N}
variable        Vpa equal 1096.50961957098/${N}
variable        Vpa equal 1096.50961957098/48
variable        AA equal (${tmplx}*${tmply})
variable        AA equal (6.06091004610062*${tmply})
variable        AA equal (6.06091004610062*9.26507484912872)
write_data      min.dat
System init for write_data ...
Generated 0 of 3 mixed pair_coeff terms from geometric mixing rule
print "All done"
All done
print "Total number of atoms = ${N}"
Total number of atoms = 48
print "Final energy per atoms = ${Epa}"
Final energy per atoms = -0.280990886191527
print "Final volume per atoms = ${Vpa}"
Final volume per atoms = 22.8439504077288
print "Final Base area = ${AA}"
Final Base area = 56.1547852309584
print "Final Stress (xx yy zz xy xz yz) = ${Pxx} ${Pyy} ${Pzz} ${Pxy} ${Pxz} ${Pyz}"
ERROR: Compute pressure thermo_press used in variable thermo keyword between runs is not current (../thermo.cpp:1174)
Last command: Final Stress (xx yy zz xy xz yz) = ${Pxx
