ITEM: TIMESTEP
0
ITEM: NUMBER OF ATOMS
48
ITEM: BOX BOUNDS xy xz yz pp pp pp
-4.5688992738723755e+00 8.5982638597488403e+00 2.5251476168632507e+00
-1.1132121086120605e-02 9.5149352550506592e+00 -4.5811054706573486e+00
-4.7147274017333984e-03 1.9521842360496521e+01 2.6099252700805664e-01
ITEM: ATOMS id type xs ys zs fx fy fz
1 1 0.945058 0.166857 0.0318549 0 0 2.4066
2 1 0.498422 0.0743484 0.0530456 0 0 -0.098217
3 1 0.544939 0.124689 0.656895 0 0 -0.00130272
4 1 0.733963 0.949019 0.927975 0 0 -2.4066
5 1 0.417948 0.157245 0.802828 0 0 0.000406265
6 1 0.180599 0.041528 0.906785 0 0 0.0982208
7 1 0.864478 0.249629 0.781799 0 0 -0.0138435
8 1 0.901806 0.208292 0.407038 0 0 -0.00130272
9 1 0.0985401 0.032398 0.677762 0 0 0.00473213
10 1 0.777215 0.240917 0.552793 0 0 0.00130463
11 1 0.814543 0.199581 0.178031 0 0 0.0138378
12 1 0.580481 0.0834783 0.282068 0 0 -0.00473022
13 1 0.261073 0.291965 0.157002 0 0 -0.000408173
14 1 0.455436 0.116061 0.427856 0 0 -0.00251389
15 1 0.945058 0.50019 0.0318549 0 0 2.4066
16 1 0.498422 0.407682 0.0530456 0 0 -0.0982208
17 1 0.544939 0.458022 0.656895 0 0 -0.00130463
18 1 0.733963 0.282353 0.927975 0 0 -2.4066
19 1 0.417948 0.490578 0.802828 0 0 0.000404358
20 1 0.180599 0.374861 0.906785 0 0 0.0982189
21 1 0.864478 0.582962 0.781799 0 0 -0.0138416
22 1 0.223586 0.333148 0.531974 0 0 0.0025177
23 1 0.901806 0.541626 0.407038 0 0 -0.00130653
24 1 0.09854 0.365731 0.677762 0 0 0.00472832
25 1 0.777215 0.574251 0.552793 0 0 0.00130272
26 1 0.134082 0.324521 0.302936 0 0 0.00130844
27 1 0.814543 0.532914 0.178031 0 0 0.0138397
28 1 0.580481 0.416812 0.282068 0 0 -0.00472832
29 1 0.261073 0.625298 0.157002 0 0 -0.000404358
30 1 0.455436 0.449395 0.427856 0 0 -0.00251007
31 1 0.945058 0.833524 0.031855 0 0 2.4066
32 1 0.498422 0.741015 0.0530456 0 0 -0.098217
33 1 0.544939 0.791356 0.656895 0 0 -0.00130081
34 1 0.733963 0.615686 0.927975 0 0 -2.4066
35 1 0.417948 0.823911 0.802828 0 0 0.000408173
36 1 0.180599 0.708195 0.906785 0 0 0.0982227
37 1 0.864478 0.916296 0.781799 0 0 -0.0138416
38 1 0.223586 0.666482 0.531974 0 0 0.00251198
39 1 0.901806 0.874959 0.407038 0 0 -0.00130653
40 1 0.09854 0.699065 0.677762 0 0 0.00472832
41 1 0.777215 0.907584 0.552793 0 0 0.00130463
42 1 0.134082 0.657854 0.302936 0 0 0.00130081
43 1 0.814543 0.866247 0.178031 0 0 0.0138378
44 1 0.580481 0.750145 0.282068 0 0 -0.00472641
45 1 0.261073 0.958632 0.157002 0 0 -0.000408173
46 1 0.455436 0.782728 0.427856 0 0 -0.00251579
47 1 0.223585 0.999815 0.531974 0 0 0.00251198
48 1 0.134082 0.991187 0.302936 0 0 0.00130081
ITEM: TIMESTEP
1
ITEM: NUMBER OF ATOMS
48
ITEM: BOX BOUNDS xy xz yz pp pp pp
-4.5688992738723755e+00 8.5982638597488403e+00 2.5251476168632507e+00
-1.1132121086120605e-02 9.5149352550506592e+00 -4.5811054706573486e+00
-4.7147274017333984e-03 1.9521842360496521e+01 2.6099252700805664e-01
ITEM: ATOMS id type xs ys zs fx fy fz
1 1 0.948989 0.166713 0.0369762 0 0 1.19335
2 1 0.498262 0.0743543 0.0528366 0 0 -0.114082
3 1 0.544937 0.124689 0.656892 0 0 -0.00481033
4 1 0.730032 0.949164 0.922854 0 0 -1.19335
5 1 0.417949 0.157245 0.802829 0 0 -0.0837364
6 1 0.180759 0.0415221 0.906994 0 0 0.114086
7 1 0.864455 0.24963 0.781769 0 0 -0.0693951
8 1 0.901804 0.208292 0.407035 0 0 -0.000736237
9 1 0.0985478 0.0323978 0.677772 0 0 0.00486374
10 1 0.777217 0.240917 0.552795 0 0 0.000738144
11 1 0.814566 0.19958 0.178061 0 0 0.0693951
12 1 0.580473 0.0834786 0.282058 0 0 -0.00487328
13 1 0.261072 0.291965 0.157002 0 0 0.083744
14 1 0.455432 0.116061 0.427851 0 0 -0.00157356
15 1 0.948989 0.500046 0.0369762 0 0 1.19335
16 1 0.498262 0.407688 0.0528366 0 0 -0.114084
17 1 0.544937 0.458022 0.656892 0 0 -0.00481224
18 1 0.730032 0.282497 0.922854 0 0 -1.19335
19 1 0.417949 0.490578 0.802829 0 0 -0.0837326
20 1 0.180759 0.374855 0.906994 0 0 0.114084
21 1 0.864455 0.582963 0.781769 0 0 -0.069397
22 1 0.22359 0.333148 0.531979 0 0 0.00156975
23 1 0.901804 0.541626 0.407035 0 0 -0.000732422
24 1 0.0985478 0.365731 0.677772 0 0 0.00486946
25 1 0.777217 0.574251 0.552795 0 0 0.000740051
26 1 0.134084 0.324521 0.302938 0 0 0.00481033
27 1 0.814566 0.532913 0.178061 0 0 0.0693951
28 1 0.580473 0.416812 0.282058 0 0 -0.00487137
29 1 0.261072 0.625298 0.157002 0 0 0.0837383
30 1 0.455432 0.449395 0.427851 0 0 -0.00157166
31 1 0.948989 0.83338 0.0369762 0 0 1.19335
32 1 0.498262 0.741021 0.0528366 0 0 -0.114088
33 1 0.544937 0.791356 0.656892 0 0 -0.00480843
34 1 0.730032 0.61583 0.922854 0 0 -1.19335
35 1 0.417949 0.823911 0.802829 0 0 -0.083744
36 1 0.180759 0.708189 0.906994 0 0 0.114088
37 1 0.864455 0.916297 0.781769 0 0 -0.0693951
38 1 0.22359 0.666481 0.531979 0 0 0.00157166
39 1 0.901804 0.874959 0.407035 0 0 -0.000738144
40 1 0.0985478 0.699064 0.677772 0 0 0.00486755
41 1 0.777217 0.907584 0.552795 0 0 0.000736237
42 1 0.134084 0.657854 0.302938 0 0 0.00480652
43 1 0.814566 0.866246 0.178061 0 0 0.0693989
44 1 0.580473 0.750145 0.282058 0 0 -0.00487137
45 1 0.261072 0.958632 0.157002 0 0 0.083744
46 1 0.455432 0.782728 0.427851 0 0 -0.00156975
47 1 0.22359 0.999815 0.531979 0 0 0.00157166
48 1 0.134084 0.991187 0.302938 0 0 0.00481224
ITEM: TIMESTEP
2
ITEM: NUMBER OF ATOMS
48
ITEM: BOX BOUNDS xy xz yz pp pp pp
-4.5688992738723755e+00 8.5982638597488403e+00 2.5251476168632507e+00
-1.1132121086120605e-02 9.5149352550506592e+00 -4.5811054706573486e+00
-4.7147274017333984e-03 1.9521842360496521e+01 2.6099252700805664e-01
ITEM: ATOMS id type xs ys zs fx fy fz
1 1 0.95292 0.166569 0.0420974 0 0 0.288425
2 1 0.497886 0.0743681 0.052347 0 0 -0.104109
3 1 0.544921 0.12469 0.656871 0 0 -0.0164585
4 1 0.726101 0.949308 0.917733 0 0 -0.288429
5 1 0.417673 0.157255 0.802469 0 0 -0.161428
6 1 0.181135 0.0415083 0.907483 0 0 0.104109
7 1 0.864226 0.249638 0.781472 0 0 -0.126162
8 1 0.901802 0.208292 0.407032 0 0 -0.000324249
9 1 0.0985638 0.0323972 0.677793 0 0 -0.00570107
10 1 0.77722 0.240917 0.552799 0 0 0.000320435
11 1 0.814794 0.199571 0.178359 0 0 0.126162
12 1 0.580457 0.0834792 0.282037 0 0 0.00569916
13 1 0.261348 0.291955 0.157361 0 0 0.161427
14 1 0.455426 0.116062 0.427844 0 0 1.14441e-05
15 1 0.95292 0.499902 0.0420974 0 0 0.288425
16 1 0.497886 0.407701 0.052347 0 0 -0.104107
17 1 0.544921 0.458023 0.656871 0 0 -0.0164566
18 1 0.726101 0.282641 0.917733 0 0 -0.288422
19 1 0.417673 0.490588 0.802469 0 0 -0.161427
20 1 0.181135 0.374842 0.907483 0 0 0.104109
21 1 0.864226 0.582972 0.781472 0 0 -0.126158
22 1 0.223595 0.333148 0.531986 0 0 -3.8147e-06
23 1 0.901802 0.541626 0.407032 0 0 -0.000318527
24 1 0.0985638 0.365731 0.677793 0 0 -0.00570107
25 1 0.77722 0.574251 0.552799 0 0 0.000318527
26 1 0.1341 0.32452 0.302959 0 0 0.0164585
27 1 0.814794 0.532905 0.178359 0 0 0.126156
28 1 0.580457 0.416813 0.282037 0 0 0.00570107
29 1 0.261348 0.625288 0.157361 0 0 0.161428
30 1 0.455426 0.449395 0.427844 0 0 5.72205e-06
31 1 0.95292 0.833235 0.0420974 0 0 0.288424
32 1 0.497886 0.741035 0.052347 0 0 -0.104107
33 1 0.544921 0.791356 0.656871 0 0 -0.0164566
34 1 0.726101 0.615974 0.917733 0 0 -0.288425
35 1 0.417673 0.823921 0.802469 0 0 -0.161425
36 1 0.181135 0.708175 0.907483 0 0 0.104107
37 1 0.864227 0.916305 0.781472 0 0 -0.126158
38 1 0.223595 0.666481 0.531986 0 0 -3.8147e-06
39 1 0.901802 0.874959 0.407032 0 0 -0.000326157
40 1 0.0985638 0.699064 0.677793 0 0 -0.00570297
41 1 0.77722 0.907584 0.552799 0 0 0.000322342
42 1 0.1341 0.657853 0.302959 0 0 0.0164585
43 1 0.814795 0.866238 0.178359 0 0 0.126162
44 1 0.580457 0.750146 0.282037 0 0 0.00569916
45 1 0.261348 0.958622 0.157361 0 0 0.161423
46 1 0.455426 0.782728 0.427844 0 0 5.72205e-06
47 1 0.223595 0.999815 0.531986 0 0 -3.8147e-06
48 1 0.1341 0.991187 0.302959 0 0 0.0164566
ITEM: TIMESTEP
3
ITEM: NUMBER OF ATOMS
48
ITEM: BOX BOUNDS xy xz yz pp pp pp
-4.5688992738723755e+00 8.5982638597488403e+00 2.5251476168632507e+00
-1.1132121086120605e-02 9.5149352550506592e+00 -4.5811054706573486e+00
-4.7147274017333984e-03 1.9521842360496521e+01 2.6099252700805664e-01
ITEM: ATOMS id type xs ys zs fx fy fz
1 1 0.955597 0.16647 0.0455855 0 0 -0.128061
2 1 0.496919 0.0744035 0.0510879 0 0 -0.0109253
3 1 0.544768 0.124695 0.656672 0 0 -0.0561962
4 1 0.723424 0.949406 0.914245 0 0 0.128059
5 1 0.416174 0.15731 0.800517 0 0 -0.107038
6 1 0.182101 0.0414729 0.908742 0 0 0.0109291
7 1 0.863055 0.249681 0.779946 0 0 -0.0842915
8 1 0.901799 0.208293 0.407028 0 0 0.00317574
9 1 0.0985109 0.0323991 0.677724 0 0 -0.0518627
10 1 0.777223 0.240917 0.552802 0 0 -0.00317192
11 1 0.815966 0.199528 0.179884 0 0 0.0842915
12 1 0.58051 0.0834772 0.282106 0 0 0.0518589
13 1 0.262846 0.2919 0.159313 0 0 0.107038
14 1 0.455426 0.116062 0.427844 0 0 0.00594521
15 1 0.955597 0.499804 0.0455855 0 0 -0.128061
16 1 0.496919 0.407737 0.051088 0 0 -0.0109272
17 1 0.544768 0.458028 0.656672 0 0 -0.0561943
18 1 0.723424 0.282739 0.914245 0 0 0.128057
19 1 0.416175 0.490643 0.800517 0 0 -0.107031
20 1 0.182101 0.374806 0.908742 0 0 0.0109291
21 1 0.863055 0.583015 0.779946 0 0 -0.0842991
22 1 0.223595 0.333148 0.531986 0 0 -0.00595284
23 1 0.901799 0.541626 0.407028 0 0 0.00317192
24 1 0.0985109 0.365732 0.677724 0 0 -0.0518589
25 1 0.777223 0.57425 0.552802 0 0 -0.00316811
26 1 0.134253 0.324515 0.303158 0 0 0.0561943
27 1 0.815966 0.532862 0.179884 0 0 0.0842915
28 1 0.58051 0.416811 0.282106 0 0 0.0518627
29 1 0.262846 0.625233 0.159313 0 0 0.107033
30 1 0.455426 0.449395 0.427844 0 0 0.00594902
31 1 0.955597 0.833137 0.0455855 0 0 -0.128054
32 1 0.496919 0.74107 0.051088 0 0 -0.010931
33 1 0.544768 0.791362 0.656672 0 0 -0.0561981
34 1 0.723424 0.616073 0.914245 0 0 0.128059
35 1 0.416175 0.823976 0.800517 0 0 -0.107037
36 1 0.182102 0.70814 0.908742 0 0 0.0109291
37 1 0.863055 0.916348 0.779946 0 0 -0.0842991
38 1 0.223595 0.666481 0.531986 0 0 -0.00595093
39 1 0.901799 0.874959 0.407028 0 0 0.00317574
40 1 0.0985109 0.699066 0.677724 0 0 -0.0518532
41 1 0.777223 0.907584 0.552802 0 0 -0.00317001
42 1 0.134253 0.657848 0.303158 0 0 0.0561981
43 1 0.815966 0.866195 0.179884 0 0 0.0842857
44 1 0.58051 0.750144 0.282106 0 0 0.0518646
45 1 0.262846 0.958567 0.159313 0 0 0.107038
46 1 0.455426 0.782728 0.427844 0 0 0.00594902
47 1 0.223595 0.999815 0.531986 0 0 -0.00595093
48 1 0.134253 0.991181 0.303158 0 0 0.0561962
ITEM: TIMESTEP
4
ITEM: NUMBER OF ATOMS
48
ITEM: BOX BOUNDS xy xz yz pp pp pp
-4.5688992738723755e+00 8.5982638597488403e+00 2.5251476168632507e+00
-1.1132121086120605e-02 9.5149352550506592e+00 -4.5811054706573486e+00
-4.7147274017333984e-03 1.9521842360496521e+01 2.6099252700805664e-01
ITEM: ATOMS id type xs ys zs fx fy fz
1 1 0.955318 0.166481 0.0452216 0 0 0.00577164
2 1 0.496435 0.0744213 0.0504563 0 0 0.0649796
3 1 0.544134 0.124718 0.655845 0 0 -0.065609
4 1 0.723703 0.949396 0.914608 0 0 -0.00576973
5 1 0.414499 0.157371 0.798335 0 0 0.0262146
6 1 0.182586 0.0414551 0.909374 0 0 -0.0649815
7 1 0.86174 0.24973 0.778232 0 0 0.0149708
8 1 0.90183 0.208291 0.407069 0 0 0.0194416
9 1 0.0979591 0.0324194 0.677005 0 0 -0.0683746
10 1 0.777191 0.240918 0.552762 0 0 -0.019434
11 1 0.817281 0.19948 0.181598 0 0 -0.0149689
12 1 0.581062 0.083457 0.282825 0 0 0.0683804
13 1 0.264521 0.291839 0.161495 0 0 -0.0262165
14 1 0.455487 0.116059 0.427924 0 0 0.0232334
15 1 0.955318 0.499814 0.0452217 0 0 0.00576973
16 1 0.496435 0.407755 0.0504563 0 0 0.0649853
17 1 0.544133 0.458052 0.655845 0 0 -0.0656033
18 1 0.723703 0.282729 0.914609 0 0 -0.00576973
19 1 0.4145 0.490705 0.798335 0 0 0.026207
20 1 0.182586 0.374788 0.909374 0 0 -0.0649834
21 1 0.86174 0.583063 0.778232 0 0 0.0149708
22 1 0.223534 0.33315 0.531906 0 0 -0.0232315
23 1 0.90183 0.541625 0.407069 0 0 0.0194359
24 1 0.097959 0.365753 0.677005 0 0 -0.0683784
25 1 0.777191 0.574252 0.552762 0 0 -0.0194416
26 1 0.134887 0.324491 0.303985 0 0 0.0656071
27 1 0.817281 0.532813 0.181598 0 0 -0.0149632
28 1 0.581062 0.41679 0.282825 0 0 0.0683746
29 1 0.264521 0.625172 0.161495 0 0 -0.0262146
30 1 0.455487 0.449393 0.427924 0 0 0.0232391
31 1 0.955318 0.833147 0.0452217 0 0 0.00576591
32 1 0.496435 0.741088 0.0504563 0 0 0.0649796
33 1 0.544134 0.791385 0.655845 0 0 -0.0655956
34 1 0.723703 0.616062 0.914608 0 0 -0.00576591
35 1 0.4145 0.824038 0.798335 0 0 0.0262032
36 1 0.182586 0.708122 0.909374 0 0 -0.0649834
37 1 0.86174 0.916396 0.778232 0 0 0.0149708
38 1 0.223534 0.666484 0.531906 0 0 -0.0232353
39 1 0.90183 0.874958 0.407069 0 0 0.0194378
40 1 0.0979591 0.699086 0.677005 0 0 -0.0683746
41 1 0.777191 0.907585 0.552762 0 0 -0.0194397
42 1 0.134888 0.657825 0.303985 0 0 0.0655975
43 1 0.817281 0.866147 0.181598 0 0 -0.0149632
44 1 0.581062 0.750124 0.282825 0 0 0.0683746
45 1 0.264521 0.958505 0.161495 0 0 -0.0262051
46 1 0.455487 0.782726 0.427924 0 0 0.0232315
47 1 0.223534 0.999817 0.531906 0 0 -0.0232372
48 1 0.134887 0.991158 0.303985 0 0 0.0655975
ITEM: TIMESTEP
5
ITEM: NUMBER OF ATOMS
48
ITEM: BOX BOUNDS xy xz yz pp pp pp
-4.5688992738723755e+00 8.5982638597488403e+00 2.5251476168632507e+00
-1.1132121086120605e-02 9.5149352550506592e+00 -4.5811054706573486e+00
-4.7147274017333984e-03 1.9521842360496521e+01 2.6099252700805664e-01
ITEM: ATOMS id type xs ys zs fx fy fz
1 1 0.955268 0.166482 0.0451562 0 0 0.0343895
2 1 0.497275 0.0743905 0.0515518 0 0 0.0158939
3 1 0.54269 0.124771 0.653965 0 0 0.0161438
4 1 0.723753 0.949394 0.914674 0 0 -0.0343857
5 1 0.414057 0.157387 0.797758 0 0 -0.00179482
6 1 0.181745 0.0414859 0.908278 0 0 -0.015892
7 1 0.861297 0.249746 0.777655 0 0 -0.0147095
8 1 0.902175 0.208279 0.407518 0 0 0.0302067
9 1 0.0965128 0.0324724 0.675121 0 0 0.0149899
10 1 0.776846 0.240931 0.552312 0 0 -0.0302143
11 1 0.817724 0.199464 0.182175 0 0 0.0147095
12 1 0.582508 0.0834039 0.284709 0 0 -0.0149937
13 1 0.264964 0.291822 0.162072 0 0 0.00180054
14 1 0.455912 0.116044 0.428477 0 0 0.0319462
15 1 0.955268 0.499816 0.0451562 0 0 0.0343857
16 1 0.497276 0.407724 0.0515519 0 0 0.0158825
17 1 0.54269 0.458105 0.653965 0 0 0.0161304
18 1 0.723753 0.282727 0.914674 0 0 -0.0343857
19 1 0.414057 0.490721 0.797758 0 0 -0.00178909
20 1 0.181745 0.374819 0.908278 0 0 -0.0158882
21 1 0.861297 0.583079 0.777655 0 0 -0.0147038
22 1 0.223109 0.333166 0.531353 0 0 -0.0319519
23 1 0.902175 0.541612 0.407518 0 0 0.0302143
24 1 0.0965127 0.365806 0.675121 0 0 0.0149899
25 1 0.776846 0.574264 0.552312 0 0 -0.0302124
26 1 0.136331 0.324438 0.305865 0 0 -0.0161343
27 1 0.817724 0.532797 0.182175 0 0 0.0147057
28 1 0.582508 0.416737 0.284709 0 0 -0.0149879
29 1 0.264964 0.625156 0.162072 0 0 0.00179863
30 1 0.455912 0.449377 0.428477 0 0 0.0319386
31 1 0.955268 0.833149 0.0451562 0 0 0.0343876
32 1 0.497275 0.741057 0.0515517 0 0 0.0158939
33 1 0.54269 0.791438 0.653965 0 0 0.0161285
34 1 0.723753 0.616061 0.914674 0 0 -0.0343933
35 1 0.414057 0.824054 0.797758 0 0 -0.00178528
36 1 0.181746 0.708153 0.908278 0 0 -0.0158997
37 1 0.861297 0.916413 0.777655 0 0 -0.0147076
38 1 0.223109 0.666499 0.531353 0 0 -0.0319424
39 1 0.902175 0.874945 0.407518 0 0 0.0302086
40 1 0.0965128 0.699139 0.675121 0 0 0.0149841
41 1 0.776846 0.907598 0.552312 0 0 -0.0302124
42 1 0.136331 0.657772 0.305865 0 0 -0.0161209
43 1 0.817724 0.86613 0.182175 0 0 0.0147057
44 1 0.582508 0.750071 0.284709 0 0 -0.0149918
45 1 0.264964 0.958489 0.162073 0 0 0.00178528
46 1 0.455912 0.782711 0.428477 0 0 0.0319481
47 1 0.223109 0.999832 0.531353 0 0 -0.0319462
48 1 0.136331 0.991105 0.305865 0 0 -0.0161247
ITEM: TIMESTEP
6
ITEM: NUMBER OF ATOMS
48
ITEM: BOX BOUNDS xy xz yz pp pp pp
-4.5688992738723755e+00 8.5982638597488403e+00 2.5251476168632507e+00
-1.1132121086120605e-02 9.5149352550506592e+00 -4.5811054706573486e+00
-4.7147274017333984e-03 1.9521842360496521e+01 2.6099252700805664e-01
ITEM: ATOMS id type xs ys zs fx fy fz
1 1 0.955546 0.166472 0.0455183 0 0 -0.00643158
2 1 0.497512 0.0743818 0.0518604 0 0 0.00133133
3 1 0.542642 0.124773 0.653902 0 0 0.00347519
4 1 0.723475 0.949404 0.914312 0 0 0.00643921
5 1 0.413986 0.15739 0.797666 0 0 -0.00858688
6 1 0.181509 0.0414946 0.90797 0 0 -0.00133133
7 1 0.86112 0.249752 0.777424 0 0 -0.0132179
8 1 0.902468 0.208268 0.4079 0 0 -0.0019722
9 1 0.0964551 0.0324746 0.675046 0 0 0.00392342
10 1 0.776553 0.240942 0.551931 0 0 0.00196457
11 1 0.817901 0.199457 0.182406 0 0 0.013216
12 1 0.582566 0.0834018 0.284784 0 0 -0.00392723
13 1 0.265035 0.29182 0.162164 0 0 0.00858688
14 1 0.456229 0.116032 0.42889 0 0 -0.00150299
15 1 0.955546 0.499806 0.0455182 0 0 -0.00642586
16 1 0.497512 0.407715 0.0518604 0 0 0.00132942
17 1 0.542642 0.458106 0.653903 0 0 0.0034771
18 1 0.723475 0.282737 0.914312 0 0 0.00642776
19 1 0.413986 0.490723 0.797666 0 0 -0.00858879
20 1 0.181509 0.374828 0.90797 0 0 -0.00132561
21 1 0.86112 0.583086 0.777424 0 0 -0.013216
22 1 0.222792 0.333177 0.53094 0 0 0.00151062
23 1 0.902468 0.541601 0.407899 0 0 -0.00196838
24 1 0.0964551 0.365808 0.675046 0 0 0.00392342
25 1 0.776553 0.574275 0.551931 0 0 0.0019722
26 1 0.136379 0.324437 0.305928 0 0 -0.0034771
27 1 0.817901 0.532791 0.182406 0 0 0.0132198
28 1 0.582566 0.416735 0.284784 0 0 -0.00392532
29 1 0.265035 0.625153 0.162164 0 0 0.00858879
30 1 0.456229 0.449365 0.42889 0 0 -0.0015049
31 1 0.955546 0.833139 0.0455183 0 0 -0.00643539
32 1 0.497512 0.741048 0.0518603 0 0 0.00132942
33 1 0.542642 0.79144 0.653903 0 0 0.00346756
34 1 0.723475 0.616071 0.914312 0 0 0.00642014
35 1 0.413986 0.824057 0.797666 0 0 -0.00858116
36 1 0.181509 0.708161 0.90797 0 0 -0.00132751
37 1 0.86112 0.916419 0.777424 0 0 -0.0132179
38 1 0.222792 0.666511 0.53094 0 0 0.00150299
39 1 0.902468 0.874935 0.407899 0 0 -0.00196648
40 1 0.0964552 0.699141 0.675046 0 0 0.0039196
41 1 0.776553 0.907608 0.551931 0 0 0.00196838
42 1 0.136379 0.65777 0.305928 0 0 -0.0034771
43 1 0.817901 0.866124 0.182406 0 0 0.013216
44 1 0.582566 0.750068 0.284784 0 0 -0.00392723
45 1 0.265035 0.958486 0.162164 0 0 0.00858498
46 1 0.456229 0.782699 0.42889 0 0 -0.00150108
47 1 0.222792 0.999844 0.53094 0 0 0.00151062
48 1 0.136379 0.991103 0.305928 0 0 -0.00346947
ITEM: TIMESTEP
7
ITEM: NUMBER OF ATOMS
48
ITEM: BOX BOUNDS xy xz yz pp pp pp
-4.5688992738723755e+00 8.5982638597488403e+00 2.5251476168632507e+00
-1.1132121086120605e-02 9.5149352550506592e+00 -4.5811054706573486e+00
-4.7147274017333984e-03 1.9521842360496521e+01 2.6099252700805664e-01
ITEM: ATOMS id type xs ys zs fx fy fz
1 1 0.955512 0.166474 0.0454745 0 0 0.0039978
2 1 0.497543 0.0743807 0.0518999 0 0 0.00226021
3 1 0.542669 0.124772 0.653937 0 0 -0.00286674
4 1 0.723509 0.949403 0.914356 0 0 -0.00401306
5 1 0.413906 0.157393 0.797562 0 0 -0.000295639
6 1 0.181478 0.0414957 0.90793 0 0 -0.00226212
7 1 0.860991 0.249757 0.777257 0 0 -0.00195312
8 1 0.902474 0.208268 0.407908 0 0 -0.00373077
9 1 0.0964845 0.0324735 0.675084 0 0 -0.00239754
10 1 0.776547 0.240942 0.551923 0 0 0.00372887
11 1 0.81803 0.199453 0.182573 0 0 0.00195503
12 1 0.582536 0.0834029 0.284746 0 0 0.00240135
13 1 0.265115 0.291817 0.162268 0 0 0.000295639
14 1 0.456241 0.116032 0.428906 0 0 -0.00367165
15 1 0.955512 0.499807 0.0454744 0 0 0.00400162
16 1 0.497543 0.407714 0.0518999 0 0 0.00225639
17 1 0.542669 0.458106 0.653937 0 0 -0.00286674
18 1 0.723509 0.282736 0.914356 0 0 -0.00400352
19 1 0.413906 0.490726 0.797562 0 0 -0.000303268
20 1 0.181478 0.374829 0.90793 0 0 -0.00226021
21 1 0.860991 0.58309 0.777257 0 0 -0.00195885
22 1 0.22278 0.333178 0.530924 0 0 0.00366783
23 1 0.902474 0.541601 0.407908 0 0 -0.00373077
24 1 0.0964845 0.365807 0.675084 0 0 -0.00239182
25 1 0.776547 0.574275 0.551923 0 0 0.00373268
26 1 0.136352 0.324437 0.305893 0 0 0.00286484
27 1 0.81803 0.532786 0.182573 0 0 0.00195312
28 1 0.582537 0.416736 0.284746 0 0 0.00239754
29 1 0.265115 0.62515 0.162268 0 0 0.000297546
30 1 0.456241 0.449365 0.428906 0 0 -0.00366974
31 1 0.955512 0.83314 0.0454744 0 0 0.00400925
32 1 0.497543 0.741047 0.0518998 0 0 0.0022583
33 1 0.542669 0.791439 0.653937 0 0 -0.00286674
34 1 0.723509 0.61607 0.914356 0 0 -0.00399017
35 1 0.413906 0.82406 0.797562 0 0 -0.000299454
36 1 0.181478 0.708162 0.90793 0 0 -0.00225449
37 1 0.860991 0.916424 0.777257 0 0 -0.0019474
38 1 0.22278 0.666511 0.530924 0 0 0.00367355
39 1 0.902474 0.874934 0.407907 0 0 -0.00373077
40 1 0.0964845 0.69914 0.675084 0 0 -0.00239944
41 1 0.776547 0.907609 0.551923 0 0 0.00372887
42 1 0.136352 0.657771 0.305893 0 0 0.00287247
43 1 0.81803 0.866119 0.182573 0 0 0.00195503
44 1 0.582537 0.75007 0.284746 0 0 0.00240326
45 1 0.265115 0.958483 0.162268 0 0 0.000289917
46 1 0.456241 0.782698 0.428906 0 0 -0.00367165
47 1 0.22278 0.999845 0.530924 0 0 0.00366974
48 1 0.136352 0.991104 0.305893 0 0 0.00286484
ITEM: TIMESTEP
8
ITEM: NUMBER OF ATOMS
48
ITEM: BOX BOUNDS xy xz yz pp pp pp
-4.5688992738723755e+00 8.5982638597488403e+00 2.5251476168632507e+00
-1.1132121086120605e-02 9.5149352550506592e+00 -4.5811054706573486e+00
-4.7147274017333984e-03 1.9521842360496521e+01 2.6099252700805664e-01
ITEM: ATOMS id type xs ys zs fx fy fz
1 1 0.955545 0.166472 0.0455179 0 0 0.00030899
2 1 0.497574 0.0743795 0.0519404 0 0 0.000984192
3 1 0.542645 0.124773 0.653906 0 0 -0.00125122
4 1 0.723475 0.949404 0.914312 0 0 -0.000297546
5 1 0.413883 0.157394 0.797532 0 0 -0.00038147
6 1 0.181447 0.0414969 0.90789 0 0 -0.000986099
7 1 0.860939 0.249759 0.777189 0 0 0.00012207
8 1 0.902437 0.208269 0.407859 0 0 0.00127983
9 1 0.0964669 0.0324741 0.675061 0 0 -0.000991821
10 1 0.776585 0.240941 0.551971 0 0 -0.00127029
11 1 0.818082 0.199451 0.182642 0 0 -0.000127792
12 1 0.582554 0.0834022 0.284769 0 0 0.000989914
13 1 0.265138 0.291816 0.162298 0 0 0.00038147
14 1 0.456206 0.116033 0.42886 0 0 0.00123978
15 1 0.955545 0.499806 0.0455179 0 0 0.000305176
16 1 0.497574 0.407713 0.0519404 0 0 0.000988007
17 1 0.542645 0.458106 0.653906 0 0 -0.00125694
18 1 0.723476 0.282737 0.914312 0 0 -0.000305176
19 1 0.413883 0.490727 0.797532 0 0 -0.000379562
20 1 0.181447 0.37483 0.90789 0 0 -0.000986099
21 1 0.860939 0.583092 0.777189 0 0 0.0001297
22 1 0.222815 0.333177 0.53097 0 0 -0.00123787
23 1 0.902437 0.541602 0.407859 0 0 0.00128174
24 1 0.0964669 0.365807 0.675061 0 0 -0.000995636
25 1 0.776585 0.574274 0.551971 0 0 -0.00127602
26 1 0.136376 0.324437 0.305924 0 0 0.00124741
27 1 0.818082 0.532784 0.182642 0 0 -0.000127792
28 1 0.582554 0.416736 0.284769 0 0 0.000991821
29 1 0.265138 0.625149 0.162298 0 0 0.000385284
30 1 0.456206 0.449366 0.42886 0 0 0.00123787
31 1 0.955545 0.833139 0.0455179 0 0 0.000299454
32 1 0.497574 0.741046 0.0519403 0 0 0.000988007
33 1 0.542645 0.79144 0.653906 0 0 -0.00124931
34 1 0.723476 0.616071 0.914312 0 0 -0.000310898
35 1 0.413883 0.82406 0.797532 0 0 -0.00038147
36 1 0.181447 0.708164 0.90789 0 0 -0.000988007
37 1 0.860939 0.916426 0.777189 0 0 0.000116348
38 1 0.222815 0.66651 0.53097 0 0 -0.00124168
39 1 0.902437 0.874936 0.407859 0 0 0.00128365
40 1 0.0964668 0.699141 0.675061 0 0 -0.000991821
41 1 0.776585 0.907607 0.551971 0 0 -0.00127602
42 1 0.136376 0.65777 0.305924 0 0 0.00124741
43 1 0.818082 0.866117 0.182642 0 0 -0.00012207
44 1 0.582554 0.750069 0.284769 0 0 0.000989914
45 1 0.265138 0.958483 0.162298 0 0 0.000385284
46 1 0.456206 0.7827 0.42886 0 0 0.00124359
47 1 0.222815 0.999843 0.53097 0 0 -0.00124359
48 1 0.136376 0.991103 0.305924 0 0 0.00124931
ITEM: TIMESTEP
9
ITEM: NUMBER OF ATOMS
48
ITEM: BOX BOUNDS xy xz yz pp pp pp
-4.5688992738723755e+00 8.5982638597488403e+00 2.5251476168632507e+00
-1.1132121086120605e-02 9.5149352550506592e+00 -4.5811054706573486e+00
-4.7147274017333984e-03 1.9521842360496521e+01 2.6099252700805664e-01
ITEM: ATOMS id type xs ys zs fx fy fz
1 1 0.955558 0.166472 0.0455345 0 0 -0.00131798
2 1 0.497599 0.0743786 0.0519739 0 0 -0.000566483
3 1 0.542616 0.124774 0.653868 0 0 1.90735e-06
4 1 0.723463 0.949405 0.914296 0 0 0.001297
5 1 0.413871 0.157394 0.797516 0 0 -0.00101662
6 1 0.181421 0.0414978 0.907856 0 0 0.000572205
7 1 0.860931 0.249759 0.777178 0 0 -0.000930786
8 1 0.902454 0.208268 0.407882 0 0 0.000137329
9 1 0.0964437 0.032475 0.675031 0 0 -0.000198364
10 1 0.776567 0.240941 0.551948 0 0 -0.000150681
11 1 0.81809 0.19945 0.182652 0 0 0.000932693
12 1 0.582577 0.0834014 0.284799 0 0 0.000211716
13 1 0.26515 0.291816 0.162314 0 0 0.00101662
14 1 0.456224 0.116032 0.428883 0 0 0.000244141
15 1 0.955558 0.499805 0.0455344 0 0 -0.00132179
16 1 0.497599 0.407712 0.0519739 0 0 -0.000574112
17 1 0.542616 0.458107 0.653868 0 0 9.53674e-06
18 1 0.723463 0.282738 0.914296 0 0 0.00131226
19 1 0.413871 0.490728 0.797516 0 0 -0.00102234
20 1 0.181421 0.374831 0.907856 0 0 0.000562668
21 1 0.860931 0.583093 0.777178 0 0 -0.000938416
22 1 0.222798 0.333177 0.530947 0 0 -0.00025177
23 1 0.902454 0.541602 0.407882 0 0 0.000131607
24 1 0.0964437 0.365808 0.675031 0 0 -0.000200272
25 1 0.776567 0.574275 0.551948 0 0 -0.000137329
26 1 0.136405 0.324436 0.305962 0 0 3.8147e-06
27 1 0.81809 0.532784 0.182652 0 0 0.000936508
28 1 0.582577 0.416735 0.284799 0 0 0.000204086
29 1 0.26515 0.625149 0.162314 0 0 0.0010128
30 1 0.456224 0.449366 0.428883 0 0 0.000249863
31 1 0.955558 0.833138 0.0455343 0 0 -0.00130081
32 1 0.497599 0.741045 0.0519738 0 0 -0.00056839
33 1 0.542616 0.791441 0.653868 0 0 5.72205e-06
34 1 0.723463 0.616071 0.914296 0 0 0.0013237
35 1 0.413871 0.824061 0.797516 0 0 -0.00101852
36 1 0.181421 0.708164 0.907856 0 0 0.000576019
37 1 0.860931 0.916426 0.777178 0 0 -0.000925064
38 1 0.222798 0.666511 0.530947 0 0 -0.000247955
39 1 0.902454 0.874935 0.407882 0 0 0.000133514
40 1 0.0964437 0.699142 0.675031 0 0 -0.000200272
41 1 0.776567 0.907608 0.551948 0 0 -0.000137329
42 1 0.136405 0.657769 0.305962 0 0 1.90735e-06
43 1 0.81809 0.866117 0.182652 0 0 0.000921249
44 1 0.582577 0.750068 0.284799 0 0 0.000205994
45 1 0.26515 0.958482 0.162314 0 0 0.00102043
46 1 0.456224 0.782699 0.428883 0 0 0.000242233
47 1 0.222797 0.999844 0.530947 0 0 -0.000244141
48 1 0.136405 0.991102 0.305962 0 0 1.90735e-06
ITEM: TIMESTEP
10
ITEM: NUMBER OF ATOMS
48
ITEM: BOX BOUNDS xy xz yz pp pp pp
-4.5688992738723755e+00 8.5982638597488403e+00 2.5251476168632507e+00
-1.1132121086120605e-02 9.5149352550506592e+00 -4.5811054706573486e+00
-4.7147274017333984e-03 1.9521842360496521e+01 2.6099252700805664e-01
ITEM: ATOMS id type xs ys zs fx fy fz
1 1 0.95555 0.166472 0.0455243 0 0 0.000459671
2 1 0.497601 0.0743785 0.051976 0 0 -0.000356674
3 1 0.542609 0.124774 0.653859 0 0 -4.19617e-05
4 1 0.723471 0.949404 0.914306 0 0 -0.000459671
5 1 0.41386 0.157395 0.797501 0 0 -0.000200272
6 1 0.18142 0.0414979 0.907854 0 0 0.000352859
7 1 0.860921 0.24976 0.777165 0 0 -0.000293732
8 1 0.90246 0.208268 0.407889 0 0 -0.000259399
9 1 0.0964364 0.0324752 0.675022 0 0 -0.000230789
10 1 0.776561 0.240941 0.551941 0 0 0.000253677
11 1 0.8181 0.19945 0.182665 0 0 0.000301361
12 1 0.582585 0.0834011 0.284809 0 0 0.000228882
13 1 0.265161 0.291815 0.162329 0 0 0.000196457
14 1 0.45623 0.116032 0.428891 0 0 -0.000167847
15 1 0.95555 0.499805 0.0455242 0 0 0.000471115
16 1 0.497601 0.407712 0.0519759 0 0 -0.000347137
17 1 0.542609 0.458108 0.653859 0 0 -2.67029e-05
18 1 0.723471 0.282738 0.914306 0 0 -0.000457764
19 1 0.41386 0.490728 0.797501 0 0 -0.000196457
20 1 0.18142 0.374831 0.907854 0 0 0.000347137
21 1 0.860921 0.583093 0.777166 0 0 -0.000297546
22 1 0.222791 0.333177 0.530939 0 0 0.000173569
23 1 0.90246 0.541602 0.407889 0 0 -0.000261307
24 1 0.0964363 0.365809 0.675021 0 0 -0.000230789
25 1 0.776561 0.574275 0.551941 0 0 0.000246048
26 1 0.136412 0.324435 0.305971 0 0 3.62396e-05
27 1 0.8181 0.532783 0.182665 0 0 0.000293732
28 1 0.582585 0.416734 0.284809 0 0 0.000230789
29 1 0.265161 0.625148 0.162329 0 0 0.00018692
30 1 0.45623 0.449365 0.428891 0 0 -0.000165939
31 1 0.95555 0.833139 0.0455243 0 0 0.000463486
32 1 0.497601 0.741045 0.0519759 0 0 -0.00034523
33 1 0.542609 0.791441 0.653859 0 0 -4.57764e-05
34 1 0.723471 0.616071 0.914306 0 0 -0.0004673
35 1 0.41386 0.824061 0.797501 0 0 -0.000192642
36 1 0.18142 0.708165 0.907854 0 0 0.000347137
37 1 0.860921 0.916426 0.777165 0 0 -0.000284195
38 1 0.222791 0.666511 0.530939 0 0 0.000171661
39 1 0.90246 0.874935 0.407889 0 0 -0.000261307
40 1 0.0964363 0.699142 0.675022 0 0 -0.000234604
41 1 0.776561 0.907608 0.551941 0 0 0.000257492
42 1 0.136412 0.657769 0.305972 0 0 4.00543e-05
43 1 0.8181 0.866117 0.182665 0 0 0.000295639
44 1 0.582585 0.750068 0.284809 0 0 0.000230789
45 1 0.265161 0.958482 0.162329 0 0 0.000192642
46 1 0.45623 0.782699 0.428891 0 0 -0.000167847
47 1 0.222791 0.999844 0.530939 0 0 0.000181198
48 1 0.136412 0.991102 0.305971 0 0 3.43323e-05
ITEM: TIMESTEP
11
ITEM: NUMBER OF ATOMS
48
ITEM: BOX BOUNDS xy xz yz pp pp pp
-4.5688992738723755e+00 8.5982638597488403e+00 2.5251476168632507e+00
-1.1132121086120605e-02 9.5149352550506592e+00 -4.5811054706573486e+00
-4.7147274017333984e-03 1.9521842360496521e+01 2.6099252700805664e-01
ITEM: ATOMS id type xs ys zs fx fy fz
1 1 0.955554 0.166472 0.0455298 0 0 0.000108719
2 1 0.497597 0.0743787 0.0519705 0 0 4.19617e-05
3 1 0.542607 0.124774 0.653856 0 0 -4.00543e-05
4 1 0.723466 0.949405 0.9143 0 0 -9.91821e-05
5 1 0.413855 0.157395 0.797495 0 0 1.14441e-05
6 1 0.181424 0.0414977 0.90786 0 0 -4.76837e-05
7 1 0.860915 0.24976 0.777158 0 0 9.53674e-06
8 1 0.902458 0.208268 0.407886 0 0 8.39233e-05
9 1 0.0964318 0.0324754 0.675016 0 0 -1.90735e-05
10 1 0.776563 0.240941 0.551944 0 0 -8.01086e-05
11 1 0.818106 0.19945 0.182672 0 0 -1.33514e-05
12 1 0.582589 0.0834009 0.284815 0 0 1.90735e-05
13 1 0.265166 0.291815 0.162336 0 0 -1.33514e-05
14 1 0.456229 0.116032 0.42889 0 0 8.39233e-05
15 1 0.955554 0.499805 0.0455298 0 0 8.7738e-05
16 1 0.497597 0.407712 0.0519706 0 0 4.19617e-05
17 1 0.542607 0.458108 0.653856 0 0 -5.72205e-05
18 1 0.723467 0.282738 0.9143 0 0 -0.000108719
19 1 0.413855 0.490728 0.797495 0 0 1.71661e-05
20 1 0.181424 0.374831 0.90786 0 0 -4.00543e-05
21 1 0.860915 0.583093 0.777158 0 0 7.62939e-06
22 1 0.222792 0.333177 0.53094 0 0 -8.58307e-05
23 1 0.902458 0.541602 0.407886 0 0 8.2016e-05
24 1 0.0964317 0.365809 0.675016 0 0 -2.09808e-05
25 1 0.776563 0.574275 0.551944 0 0 -7.24792e-05
26 1 0.136414 0.324435 0.305974 0 0 4.57764e-05