ITEM: TIMESTEP
0
ITEM: NUMBER OF ATOMS
56
ITEM: BOX BOUNDS xy xz yz pp pp pp
-6.0254098176956177e+00 1.2206987559795380e+01 -4.7683715820312500e-07
-7.5370073318481445e-03 5.5339480042457581e+00 -6.0035216212272644e+00
-3.2569408416748047e-02 1.9052529454231262e+01 2.8610229492187500e-06
ITEM: ATOMS id type xs ys zs fx fy fz
1 1 0.614554 1 0.132369 0 -0.0509467 0.113289
2 1 0.364554 0.166667 0.132369 0 0.0509466 0.113289
3 1 0.321581 1 0.275226 0 0.000336409 -0.00470924
4 1 0.0715813 0.166667 0.275226 0 -0.000336766 -0.00470984
5 1 0.0286098 5.00995e-07 0.418084 0 2.5034e-06 1.68085e-05
6 1 0.114554 1 0.132369 0 -0.050947 0.113289
7 1 0.0110407 0.5 0.0609408 0 0.34025 0.325328
8 1 0.864554 0.166667 0.132369 0 0.0509465 0.113289
9 1 0.761041 0.666667 0.0609408 0 -0.340249 0.325328
10 1 0.821581 1 0.275226 0 0.000336766 -0.00470972
11 1 0.77861 0.166667 0.418084 0 -1.90735e-06 1.74046e-05
12 1 0.735639 5.53965e-07 0.560941 0 2.64645e-05 0.000145912
13 1 0.485639 0.166667 0.560941 0 -2.63453e-05 0.000145674
14 1 0.442667 1.60387e-07 0.703798 0 8.2612e-05 -0.000404596
15 1 0.192667 0.166667 0.703798 0 -8.21352e-05 -0.000404358
16 1 0.149695 1 0.846655 0 -0.00145948 0.0117358
17 1 0.718068 0.5 0.203798 0 -0.00145912 -0.0117353
18 1 0.571581 0.166667 0.275226 0 -0.000336647 -0.00470984
19 1 0.468068 0.666667 0.203798 0 0.00145972 -0.0117353
20 1 0.52861 5.02326e-07 0.418084 0 2.26498e-06 1.68085e-05
21 1 0.425095 0.5 0.346655 0 8.23736e-05 0.000404358
22 1 0.27861 0.166667 0.418084 0 -1.90735e-06 1.71661e-05
23 1 0.175095 0.666667 0.346655 0 -8.27312e-05 0.000404358
24 1 0.235639 5.42012e-07 0.560941 0 2.69413e-05 0.000145435
25 1 0.132124 0.500001 0.489512 0 2.6226e-05 -0.000145316
26 1 0.985639 0.166667 0.560941 0 -2.6226e-05 0.000144839
27 1 0.882124 0.666667 0.489512 0 -2.67029e-05 -0.000145316
28 1 0.511041 0.5 0.0609408 0 0.340249 0.325328
29 1 0.261041 0.666667 0.0609408 0 -0.34025 0.325328
30 1 0.218068 0.5 0.203798 0 -0.00145853 -0.0117356
31 1 0.968068 0.666667 0.203798 0 0.00145948 -0.0117353
32 1 0.925095 0.5 0.346655 0 8.24928e-05 0.000404358
33 1 0.899695 0.166667 0.846655 0 0.00145876 0.0117356
34 1 0.856722 1 0.989512 0 0.340249 -0.325329
35 1 0.606722 0.166667 0.989512 0 -0.340249 -0.325328
36 1 0.942667 1.92026e-07 0.703798 0 8.27312e-05 -0.000404358
37 1 0.839153 0.500001 0.632369 0 1.66893e-06 -1.70469e-05
38 1 0.692667 0.166667 0.703798 0 -8.22544e-05 -0.000404716
39 1 0.589153 0.666667 0.632369 0 -2.38419e-06 -1.69277e-05
40 1 0.649695 1 0.846655 0 -0.0014596 0.0117357
41 1 0.546182 0.5 0.775226 0 0.000337124 0.00470984
42 1 0.399695 0.166667 0.846655 0 0.00145924 0.0117352
43 1 0.296182 0.666667 0.775226 0 -0.000336528 0.00470936
44 1 0.356722 1 0.989512 0 0.34025 -0.325328
45 1 0.253209 0.5 0.918083 0 -0.0509471 -0.113289
46 1 0.675095 0.666667 0.346655 0 -8.29697e-05 0.000404239
47 1 0.632124 0.500001 0.489512 0 2.64645e-05 -0.000145555
48 1 0.382124 0.666667 0.489512 0 -2.68221e-05 -0.000145555
49 1 0.339153 0.5 0.632369 0 1.66893e-06 -1.69277e-05
50 1 0.0891531 0.666667 0.632369 0 -2.5034e-06 -1.68085e-05
51 1 0.0461816 0.5 0.775226 0 0.000336766 0.00470948
52 1 0.106722 0.166667 0.989512 0 -0.34025 -0.325328
53 1 0.00320874 0.666667 0.918083 0 0.0509474 -0.113289
54 1 0.796182 0.666667 0.775226 0 -0.000336409 0.00470912
55 1 0.753209 0.5 0.918083 0 -0.0509467 -0.113289
56 1 0.503209 0.666667 0.918083 0 0.0509468 -0.113289
ITEM: TIMESTEP
1
ITEM: NUMBER OF ATOMS
56
ITEM: BOX BOUNDS xy xz yz pp pp pp
-6.0254098176956177e+00 1.2206987559795380e+01 -4.7683715820312500e-07
-7.5370073318481445e-03 5.5339480042457581e+00 -6.0035216212272644e+00
-3.2569408416748047e-02 1.9052529454231262e+01 2.8610229492187500e-06
ITEM: ATOMS id type xs ys zs fx fy fz
1 1 0.61519 0.997994 0.133664 0 0.0743959 0.00863314
2 1 0.36519 0.168673 0.133664 0 -0.074397 0.00863361
3 1 0.321555 1.00001 0.275173 0 -0.00338745 0.0234244
4 1 0.0715549 0.166654 0.275173 0 0.00338793 0.0234255
5 1 0.0286099 5.99543e-07 0.418084 0 -0.000384092 -0.00169325
6 1 0.11519 0.997994 0.133664 0 0.0743968 0.00863326
7 1 0.0128663 0.513394 0.0646594 0 0.0305431 -0.0414295
8 1 0.86519 0.168673 0.133664 0 -0.0743966 0.00863373
9 1 0.762866 0.653273 0.0646594 0 -0.0305425 -0.0414298
10 1 0.821555 1.00001 0.275173 0 -0.00338745 0.0234249
11 1 0.77861 0.166667 0.418084 0 0.000383615 -0.00169277
12 1 0.73564 1.59576e-06 0.560942 0 0.000238538 0.00098598
13 1 0.48564 0.166666 0.560942 0 -0.000238419 0.000986338
14 1 0.442665 3.41248e-06 0.703793 0 -0.0014019 -0.00468314
15 1 0.192665 0.166664 0.703793 0 0.00140178 -0.0046823
16 1 0.149761 0.999942 0.846789 0 -0.0185082 -0.0872121
17 1 0.718002 0.499942 0.203664 0 -0.0185082 0.0872117
18 1 0.571555 0.166654 0.275173 0 0.00338781 0.0234255
19 1 0.468002 0.666725 0.203664 0 0.0185084 0.0872118
20 1 0.52861 5.91489e-07 0.418084 0 -0.000383854 -0.00169289
21 1 0.425098 0.500003 0.34666 0 -0.00140202 0.00468254
22 1 0.27861 0.166667 0.418084 0 0.000383735 -0.00169277
23 1 0.175098 0.666664 0.34666 0 0.00140154 0.0046829
24 1 0.23564 1.60258e-06 0.560942 0 0.000238538 0.000985742
25 1 0.132123 0.500002 0.48951 0 0.000238538 -0.000985742
26 1 0.98564 0.166666 0.560942 0 -0.00023818 0.000985742
27 1 0.882123 0.666666 0.48951 0 -0.000238657 -0.00098598
28 1 0.512866 0.513394 0.0646594 0 0.0305434 -0.0414295
29 1 0.262866 0.653273 0.0646593 0 -0.0305427 -0.0414296
30 1 0.218002 0.499942 0.203664 0 -0.0185081 0.0872118
31 1 0.968002 0.666725 0.203664 0 0.0185082 0.0872122
32 1 0.925098 0.500003 0.34666 0 -0.0014019 0.00468278
33 1 0.899761 0.166725 0.846789 0 0.0185084 -0.0872118
34 1 0.854897 1.01339 0.985793 0 0.0305427 0.0414294
35 1 0.604897 0.153273 0.985793 0 -0.0305432 0.0414293
36 1 0.942665 3.44881e-06 0.703793 0 -0.00140238 -0.0046829
37 1 0.839153 0.500001 0.632369 0 -0.000383615 0.00169301
38 1 0.692665 0.166664 0.703793 0 0.00140166 -0.00468338
39 1 0.589153 0.666667 0.632369 0 0.000383735 0.00169313
40 1 0.649761 0.999942 0.846789 0 -0.0185078 -0.0872116
41 1 0.546208 0.500013 0.77528 0 -0.00338781 -0.0234249
42 1 0.399761 0.166725 0.846789 0 0.0185084 -0.0872121
43 1 0.296208 0.666654 0.77528 0 0.00338781 -0.0234249
44 1 0.354897 1.01339 0.985793 0 0.0305426 0.0414298
45 1 0.252573 0.497994 0.916789 0 0.0743968 -0.00863349
46 1 0.675098 0.666664 0.34666 0 0.00140202 0.00468266
47 1 0.632123 0.500002 0.48951 0 0.000238538 -0.000986218
48 1 0.382123 0.666666 0.48951 0 -0.000238538 -0.000985742
49 1 0.339153 0.500001 0.632369 0 -0.000383615 0.00169277
50 1 0.089153 0.666667 0.632369 0 0.000383973 0.00169277
51 1 0.046208 0.500013 0.77528 0 -0.00338793 -0.023425
52 1 0.104897 0.153273 0.985793 0 -0.030543 0.0414292
53 1 0.00257303 0.668673 0.916789 0 -0.0743972 -0.00863302
54 1 0.796208 0.666654 0.77528 0 0.00338781 -0.0234246
55 1 0.752573 0.497994 0.916789 0 0.0743964 -0.00863361
56 1 0.502573 0.668673 0.916789 0 -0.0743966 -0.0086329
ITEM: TIMESTEP
2
ITEM: NUMBER OF ATOMS
56
ITEM: BOX BOUNDS xy xz yz pp pp pp
-6.0254098176956177e+00 1.2206987559795380e+01 -4.7683715820312500e-07
-7.5370073318481445e-03 5.5339480042457581e+00 -6.0035216212272644e+00
-3.2569408416748047e-02 1.9052529454231262e+01 2.8610229492187500e-06
ITEM: ATOMS id type xs ys zs fx fy fz
1 1 0.615428 1.00377 0.134148 0 0.00262749 0.0191606
2 1 0.365428 0.162896 0.134148 0 -0.00262606 0.0191604
3 1 0.321828 0.999734 0.275728 0 -0.00359178 0.0229255
4 1 0.0718277 0.166934 0.275728 0 0.00359166 0.022925
5 1 0.0285898 -3.14047e-05 0.418043 0 -0.00255466 0.0133537
6 1 0.115428 1.00377 0.134148 0 0.0026269 0.0191602
7 1 0.0127618 0.518787 0.0644466 0 -0.00694263 -0.00165045
8 1 0.865428 0.162896 0.134148 0 -0.0026263 0.0191602
9 1 0.762762 0.64788 0.0644466 0 0.0069418 -0.00165009
10 1 0.821828 0.999734 0.275728 0 -0.0035919 0.0229253
11 1 0.77859 0.166699 0.418043 0 0.00255466 0.0133535
12 1 0.735651 2.17062e-05 0.560967 0 -0.00151932 -0.00512338
13 1 0.485651 0.166645 0.560967 0 0.00151861 -0.00512397
14 1 0.442609 -0.000112785 0.703679 0 -0.00448906 -0.0368413
15 1 0.192609 0.16678 0.703679 0 0.00448942 -0.0368429
16 1 0.148739 0.998387 0.844706 0 0.0246065 0.0141379
17 1 0.719024 0.498387 0.205747 0 0.0246067 -0.0141371
18 1 0.571828 0.166934 0.275728 0 0.0035919 0.0229249
19 1 0.469024 0.66828 0.205747 0 -0.0246068 -0.014137
20 1 0.52859 -3.13949e-05 0.418043 0 -0.00255454 0.0133535
21 1 0.425154 0.499887 0.346774 0 -0.0044893 0.0368422
22 1 0.27859 0.166699 0.418043 0 0.00255442 0.013353
23 1 0.175154 0.66678 0.346774 0 0.00448966 0.0368422
24 1 0.235651 2.1717e-05 0.560967 0 -0.00151944 -0.00512326
25 1 0.132111 0.500022 0.489486 0 -0.00151861 0.00512278
26 1 0.985651 0.166645 0.560967 0 0.00151861 -0.00512314
27 1 0.882111 0.666645 0.489486 0 0.00151932 0.00512338
28 1 0.512762 0.518787 0.0644466 0 -0.00694358 -0.00165069
29 1 0.262762 0.64788 0.0644466 0 0.00694215 -0.00165009
30 1 0.219024 0.498387 0.205747 0 0.0246065 -0.0141369
31 1 0.969024 0.66828 0.205747 0 -0.0246067 -0.0141377
32 1 0.925154 0.499887 0.346774 0 -0.00448918 0.0368422
33 1 0.898739 0.16828 0.844706 0 -0.0246068 0.0141366
34 1 0.855001 1.01879 0.986006 0 -0.00694227 0.00165045
35 1 0.605001 0.14788 0.986006 0 0.00694275 0.00165057
36 1 0.942609 -0.000112788 0.703679 0 -0.00448895 -0.0368419
37 1 0.839173 0.499969 0.63241 0 -0.00255477 -0.0133536
38 1 0.692609 0.16678 0.703679 0 0.00448895 -0.0368412
39 1 0.589173 0.666699 0.63241 0 0.00255477 -0.0133538
40 1 0.648739 0.998387 0.844706 0 0.0246063 0.0141369
41 1 0.545935 0.499734 0.774725 0 -0.00359178 -0.0229254
42 1 0.398739 0.16828 0.844706 0 -0.0246065 0.0141371
43 1 0.295935 0.666934 0.774725 0 0.0035919 -0.0229253
44 1 0.355001 1.01879 0.986006 0 -0.00694263 0.00164986
45 1 0.252335 0.503771 0.916304 0 0.00262654 -0.0191606
46 1 0.675154 0.66678 0.346774 0 0.00448906 0.0368419
47 1 0.632111 0.500022 0.489486 0 -0.00151873 0.00512326
48 1 0.382111 0.666645 0.489486 0 0.0015192 0.00512338
49 1 0.339173 0.499969 0.63241 0 -0.00255442 -0.0133528
50 1 0.0891731 0.666699 0.63241 0 0.00255454 -0.0133531
51 1 0.0459352 0.499734 0.774725 0 -0.00359166 -0.0229249
52 1 0.105001 0.14788 0.986006 0 0.00694263 0.00165081
53 1 0.00233533 0.662896 0.916304 0 -0.0026269 -0.0191607
54 1 0.795935 0.666934 0.774725 0 0.00359201 -0.0229253
55 1 0.752335 0.503771 0.916304 0 0.00262702 -0.01916
56 1 0.502335 0.662896 0.916304 0 -0.00262666 -0.0191605
ITEM: TIMESTEP
3
ITEM: NUMBER OF ATOMS
56
ITEM: BOX BOUNDS xy xz yz pp pp pp
-6.0254098176956177e+00 1.2206987559795380e+01 -4.7683715820312500e-07
-7.5370073318481445e-03 5.5339480042457581e+00 -6.0035216212272644e+00
-3.2569408416748047e-02 1.9052529454231262e+01 2.8610229492187500e-06
ITEM: ATOMS id type xs ys zs fx fy fz
1 1 0.615826 1.00605 0.134959 0 -0.0151849 0.00415242
2 1 0.365825 0.160616 0.134959 0 0.0151836 0.00415277
3 1 0.3223 0.999222 0.27669 0 0.00651979 0.00683308
4 1 0.0722999 0.167446 0.27669 0 -0.00652015 0.00683284
5 1 0.0288036 -0.000338557 0.418478 0 -0.0019362 0.0139937
6 1 0.115826 1.00605 0.134959 0 -0.0151845 0.00415373
7 1 0.0126988 0.519826 0.0643183 0 -0.00188541 -0.000115871
8 1 0.865825 0.160616 0.134959 0 0.015183 0.00415325
9 1 0.762699 0.646841 0.0643183 0 0.00188601 -0.000116229
10 1 0.8223 0.999221 0.27669 0 0.00652003 0.0068332
11 1 0.778804 0.167006 0.418478 0 0.00193667 0.0139933
12 1 0.735571 -0.00014758 0.560802 0 -0.0054121 -0.0116612
13 1 0.485571 0.166815 0.560802 0 0.00541329 -0.0116608
14 1 0.441981 -0.000673017 0.702399 0 0.000575781 0.00784123
15 1 0.191981 0.16734 0.702399 0 -0.000576258 0.0078429
16 1 0.148623 1.00071 0.84447 0 0.00290549 -0.00397456
17 1 0.71914 0.500708 0.205983 0 0.00290537 0.00397325
18 1 0.5723 0.167446 0.27669 0 -0.00652015 0.0068332
19 1 0.46914 0.665959 0.205983 0 -0.00290465 0.00397289
20 1 0.528804 -0.000338527 0.418478 0 -0.00193739 0.0139935
21 1 0.425782 0.499327 0.348053 0 0.000576138 -0.00784171
22 1 0.278804 0.167006 0.418478 0 0.00193691 0.0139939
23 1 0.175782 0.66734 0.348053 0 -0.000576019 -0.00784218
24 1 0.235571 -0.000147582 0.560802 0 -0.00541186 -0.0116612
25 1 0.132192 0.499852 0.48965 0 -0.00541341 0.0116622
26 1 0.985571 0.166815 0.560802 0 0.00541282 -0.0116613
27 1 0.882192 0.666815 0.48965 0 0.00541234 0.0116609
28 1 0.512699 0.519826 0.0643183 0 -0.00188458 -0.000114799
29 1 0.262699 0.646841 0.0643183 0 0.00188589 -0.000116706
30 1 0.21914 0.500708 0.205983 0 0.00290561 0.00397253
31 1 0.96914 0.665959 0.205983 0 -0.00290453 0.00397384
32 1 0.925782 0.499327 0.348053 0 0.0005759 -0.0078423
33 1 0.898623 0.165959 0.84447 0 -0.00290525 -0.00397241
34 1 0.855064 1.01983 0.986135 0 -0.00188577 0.000116348
35 1 0.605064 0.146841 0.986135 0 0.00188506 0.000115395
36 1 0.941981 -0.000673019 0.702399 0 0.000575781 0.00784159
37 1 0.838959 0.499661 0.631974 0 -0.00193632 -0.0139931
38 1 0.691981 0.16734 0.702399 0 -0.000575423 0.00784099
39 1 0.588959 0.667006 0.631974 0 0.00193608 -0.0139934
40 1 0.648623 1.00071 0.84447 0 0.00290537 -0.00397325
41 1 0.545463 0.499221 0.773763 0 0.00652051 -0.00683296
42 1 0.398623 0.165959 0.84447 0 -0.00290549 -0.00397301
43 1 0.295463 0.667446 0.773763 0 -0.00652015 -0.00683296
44 1 0.355064 1.01983 0.986135 0 -0.00188529 0.000117064
45 1 0.251937 0.506051 0.915494 0 -0.0151842 -0.0041523
46 1 0.675782 0.66734 0.348053 0 -0.000575423 -0.00784135
47 1 0.632192 0.499852 0.48965 0 -0.00541306 0.0116616
48 1 0.382192 0.666815 0.48965 0 0.0054121 0.0116609
49 1 0.338959 0.499661 0.631974 0 -0.00193715 -0.0139943
50 1 0.0889593 0.667006 0.631974 0 0.00193691 -0.0139942
51 1 0.045463 0.499221 0.773763 0 0.00652003 -0.00683367
52 1 0.105064 0.146841 0.986135 0 0.00188541 0.000115395
53 1 0.00193736 0.660616 0.915494 0 0.0151846 -0.00415266
54 1 0.795463 0.667446 0.773763 0 -0.00652099 -0.0068332
55 1 0.751937 0.506051 0.915494 0 -0.0151843 -0.00415313
56 1 0.501937 0.660616 0.915494 0 0.0151844 -0.00415325
ITEM: TIMESTEP
4
ITEM: NUMBER OF ATOMS
56
ITEM: BOX BOUNDS xy xz yz pp pp pp
-6.0254098176956177e+00 1.2206987559795380e+01 -4.7683715820312500e-07
-7.5370073318481445e-03 5.5339480042457581e+00 -6.0035216212272644e+00
-3.2569408416748047e-02 1.9052529454231262e+01 2.8610229492187500e-06
ITEM: ATOMS id type xs ys zs fx fy fz
1 1 0.615911 1.00525 0.135132 0 -0.00185835 0.000604749
2 1 0.365911 0.161416 0.135132 0 0.00185883 0.00060451
3 1 0.32242 0.999617 0.276934 0 0.00339282 0.00363326
4 1 0.0724196 0.16705 0.276934 0 -0.00339234 0.00363338
5 1 0.0289655 -0.000506727 0.418808 0 -0.00315976 -0.0003618
6 1 0.115911 1.00525 0.135132 0 -0.00185823 0.000603795
7 1 0.0126907 0.51981 0.0643018 0 -0.00319338 -0.00229299
8 1 0.865911 0.161416 0.135132 0 0.00185943 0.00060451
9 1 0.762691 0.646857 0.0643018 0 0.00319314 -0.00229287
10 1 0.82242 0.999617 0.276934 0 0.00339258 0.00363278
11 1 0.778966 0.167174 0.418808 0 0.00315988 -0.000362277
12 1 0.735447 -0.000541411 0.56055 0 -0.00154138 0.0057888
13 1 0.485447 0.167209 0.56055 0 0.00154126 0.00578868
14 1 0.441989 -0.000695079 0.702416 0 0.00143147 -0.00199807
15 1 0.191989 0.167362 0.702416 0 -0.00143087 -0.00199783
16 1 0.14857 1.00117 0.844364 0 -0.00479257 -0.00151587
17 1 0.719192 0.501166 0.206089 0 -0.00479269 0.00151622
18 1 0.57242 0.16705 0.276934 0 -0.00339246 0.00363278
19 1 0.469192 0.665501 0.206089 0 0.00479233 0.00151658
20 1 0.528965 -0.000506778 0.418808 0 -0.00315917 -0.000361443
21 1 0.425774 0.499305 0.348037 0 0.00143111 0.00199735
22 1 0.278966 0.167174 0.418808 0 0.00315928 -0.000362396
23 1 0.175774 0.667362 0.348037 0 -0.00143147 0.00199783
24 1 0.235447 -0.000541398 0.56055 0 -0.00154173 0.00578856
25 1 0.132316 0.499459 0.489903 0 -0.0015415 -0.00578892
26 1 0.985447 0.167209 0.56055 0 0.00154173 0.00578856
27 1 0.882316 0.667209 0.489903 0 0.00154138 -0.00578856
28 1 0.512691 0.51981 0.0643018 0 -0.00319338 -0.00229347
29 1 0.262691 0.646857 0.0643018 0 0.0031929 -0.00229228
30 1 0.219192 0.501166 0.206089 0 -0.00479293 0.00151622
31 1 0.969192 0.665501 0.206089 0 0.00479198 0.00151598
32 1 0.925774 0.499305 0.348037 0 0.00143147 0.00199783
33 1 0.89857 0.165501 0.844364 0 0.00479233 -0.00151587
34 1 0.855072 1.01981 0.986151 0 -0.00319314 0.00229263
35 1 0.605072 0.146857 0.986151 0 0.00319362 0.00229335
36 1 0.941989 -0.000695081 0.702416 0 0.0014317 -0.00199759
37 1 0.838797 0.499493 0.631645 0 -0.00315988 0.000361919
38 1 0.691989 0.167362 0.702416 0 -0.00143147 -0.00199783
39 1 0.588797 0.667174 0.631645 0 0.00315988 0.000361681
40 1 0.64857 1.00117 0.844364 0 -0.00479209 -0.00151587
41 1 0.545343 0.499617 0.773519 0 0.0033921 -0.00363278
42 1 0.39857 0.165501 0.844364 0 0.00479257 -0.0015161
43 1 0.295343 0.66705 0.773519 0 -0.00339293 -0.0036329
44 1 0.355072 1.01981 0.986151 0 -0.00319302 0.00229239
45 1 0.251852 0.505251 0.915321 0 -0.00185895 -0.000605226
46 1 0.675774 0.667362 0.348037 0 -0.00143182 0.00199759
47 1 0.632316 0.499459 0.489903 0 -0.00154197 -0.00578856
48 1 0.382316 0.667209 0.489903 0 0.00154197 -0.00578856
49 1 0.338797 0.499493 0.631645 0 -0.00315917 0.000362754
50 1 0.0887974 0.667174 0.631645 0 0.00315964 0.0003618
51 1 0.0453433 0.499617 0.773519 0 0.0033927 -0.00363266
52 1 0.105072 0.146857 0.986151 0 0.00319314 0.00229287
53 1 0.00185232 0.661416 0.915321 0 0.00185883 -0.00060463
54 1 0.795343 0.66705 0.773519 0 -0.00339246 -0.00363266
55 1 0.751852 0.505251 0.915321 0 -0.00185919 -0.000604987
56 1 0.501852 0.661416 0.915321 0 0.00185823 -0.000604391
ITEM: TIMESTEP
5
ITEM: NUMBER OF ATOMS
56
ITEM: BOX BOUNDS xy xz yz pp pp pp
-6.0254098176956177e+00 1.2206987559795380e+01 -4.7683715820312500e-07
-7.5370073318481445e-03 5.5339480042457581e+00 -6.0035216212272644e+00
-3.2569408416748047e-02 1.9052529454231262e+01 2.8610229492187500e-06
ITEM: ATOMS id type xs ys zs fx fy fz
1 1 0.61593 1.00499 0.135172 0 -0.000478625 0.00077641
2 1 0.36593 0.161677 0.135172 0 0.000478625 0.000776529
3 1 0.322476 0.999926 0.277049 0 -0.00151801 0.000100493
4 1 0.0724762 0.166741 0.277049 0 0.00151777 0.000100136
5 1 0.0289872 -0.000763539 0.418852 0 0.000250697 0.000862479
6 1 0.11593 1.00499 0.135172 0 -0.000478745 0.000776649
7 1 0.0126656 0.519575 0.0642506 0 0.000273108 0.0018456
8 1 0.86593 0.161677 0.135172 0 0.000478506 0.00077641
9 1 0.762666 0.647092 0.0642506 0 -0.000273228 0.00184619
10 1 0.822476 0.999926 0.277049 0 -0.00151801 0.000100732
11 1 0.778987 0.167431 0.418852 0 -0.000251055 0.000863314
12 1 0.735487 -0.000715661 0.560632 0 -0.000959992 0.000790477
13 1 0.485487 0.167383 0.560632 0 0.000959277 0.000790715
14 1 0.441969 -0.000594167 0.702376 0 7.96318e-05 5.36442e-06
15 1 0.191969 0.167261 0.702376 0 -7.9751e-05 4.64916e-06
16 1 0.148546 1.00089 0.844315 0 -0.000652671 0.000339627
17 1 0.719216 0.500889 0.206138 0 -0.000652552 -0.000339866
18 1 0.572476 0.166741 0.277049 0 0.00151765 0.000100613
19 1 0.469216 0.665778 0.206138 0 0.000652552 -0.000339746
20 1 0.528987 -0.000763559 0.418852 0 0.000250816 0.00086236
21 1 0.425793 0.499406 0.348077 0 7.98702e-05 -4.64916e-06
22 1 0.278987 0.167431 0.418852 0 -0.000250697 0.000863671
23 1 0.175794 0.667261 0.348077 0 -7.93934e-05 -4.76837e-06
24 1 0.235487 -0.000715672 0.560632 0 -0.000959635 0.000791073
25 1 0.132276 0.499284 0.48982 0 -0.000959158 -0.000791311
26 1 0.985487 0.167383 0.560632 0 0.000959277 0.000790715
27 1 0.882276 0.667383 0.48982 0 0.000959992 -0.000790715
28 1 0.512666 0.519575 0.0642506 0 0.000273585 0.00184608
29 1 0.262666 0.647092 0.0642506 0 -0.000273228 0.00184572
30 1 0.219216 0.500889 0.206138 0 -0.000652432 -0.000339389
31 1 0.969216 0.665778 0.206138 0 0.000652671 -0.000339627
32 1 0.925793 0.499406 0.348077 0 7.95126e-05 -4.76837e-06
33 1 0.898546 0.165778 0.844315 0 0.000652671 0.000339508
34 1 0.855097 1.01958 0.986202 0 0.000273347 -0.00184596
35 1 0.605097 0.147092 0.986202 0 -0.000273585 -0.00184608
36 1 0.941969 -0.000594152 0.702376 0 7.90358e-05 4.64916e-06
37 1 0.838776 0.499236 0.6316 0 0.000251174 -0.000862837
38 1 0.691969 0.167261 0.702376 0 -7.92742e-05 5.24521e-06
39 1 0.588776 0.667431 0.6316 0 -0.000250816 -0.00086236
40 1 0.648546 1.00089 0.844315 0 -0.000652909 0.00033927
41 1 0.545287 0.499926 0.773404 0 -0.00151789 -0.000100851
42 1 0.398547 0.165778 0.844315 0 0.000652194 0.000339866
43 1 0.295287 0.666741 0.773404 0 0.00151825 -0.000101089
44 1 0.355097 1.01958 0.986202 0 0.000273108 -0.00184631
45 1 0.251833 0.50499 0.91528 0 -0.000478268 -0.000775814
46 1 0.675793 0.667261 0.348077 0 -7.89165e-05 -4.64916e-06
47 1 0.632276 0.499284 0.48982 0 -0.000959277 -0.000790954
48 1 0.382276 0.667383 0.48982 0 0.000959277 -0.000791073
49 1 0.338776 0.499236 0.6316 0 0.000250578 -0.000863433
50 1 0.0887757 0.667431 0.6316 0 -0.000250697 -0.000862241
51 1 0.0452867 0.499926 0.773404 0 -0.00151813 -0.000100732
52 1 0.105097 0.147092 0.986202 0 -0.000273228 -0.00184572
53 1 0.00183268 0.661677 0.915281 0 0.000478745 -0.000776052
54 1 0.795287 0.666741 0.773404 0 0.00151789 -0.000101566
55 1 0.751833 0.50499 0.91528 0 -0.000478625 -0.000775933
56 1 0.501833 0.661677 0.915281 0 0.000478983 -0.000776052
ITEM: TIMESTEP
6
ITEM: NUMBER OF ATOMS
56
ITEM: BOX BOUNDS xy xz yz pp pp pp
-6.0254098176956177e+00 1.2206987559795380e+01 -4.7683715820312500e-07
-7.5370073318481445e-03 5.5339480042457581e+00 -6.0035216212272644e+00
-3.2569408416748047e-02 1.9052529454231262e+01 2.8610229492187500e-06
ITEM: ATOMS id type xs ys zs fx fy fz
1 1 0.615939 1.00494 0.13519 0 0.000365615 -0.000377774
2 1 0.365939 0.161729 0.13519 0 -0.000365615 -0.000378013
3 1 0.322481 0.99985 0.27706 0 -0.000658989 0.000289083
4 1 0.0724815 0.166817 0.27706 0 0.000659347 0.000289083
5 1 0.0289969 -0.000766891 0.418872 0 0.000171304 0.00025022
6 1 0.115939 1.00494 0.13519 0 0.0003649 -0.000377774
7 1 0.012681 0.519575 0.0642819 0 -0.000335455 -0.000442147
8 1 0.865939 0.161729 0.13519 0 -0.000365615 -0.000378132
9 1 0.762681 0.647092 0.0642819 0 0.000335455 -0.000442624
10 1 0.822481 0.99985 0.27706 0 -0.00065887 0.000289202
11 1 0.778997 0.167434 0.418872 0 -0.000171304 0.000250936
12 1 0.735498 -0.000792178 0.560654 0 -0.000239372 -0.00013268
13 1 0.485498 0.167459 0.560654 0 0.00023973 -0.000132799
14 1 0.441968 -0.000581147 0.702373 0 -0.000437856 0.000265002
15 1 0.191968 0.167248 0.702373 0 0.000437498 0.000265479
16 1 0.148548 1.00082 0.844318 0 -0.000262976 -0.000530124
17 1 0.719215 0.500824 0.206135 0 -0.000263572 0.000530362
18 1 0.572481 0.166817 0.27706 0 0.000659466 0.00028944
19 1 0.469215 0.665843 0.206135 0 0.000262856 0.000530005
20 1 0.528997 -0.000766901 0.418872 0 0.000171423 0.000250578
21 1 0.425795 0.499419 0.34808 0 -0.000437379 -0.00026536
22 1 0.278997 0.167434 0.418872 0 -0.000171542 0.000250816
23 1 0.175795 0.667248 0.34808 0 0.000437498 -0.000265479
24 1 0.235498 -0.000792166 0.560654 0 -0.00023973 -0.00013268
25 1 0.132265 0.499208 0.489799 0 -0.000239491 0.000133157
26 1 0.985498 0.167459 0.560654 0 0.000239849 -0.000132799
27 1 0.882265 0.667459 0.489799 0 0.000239134 0.000133038
28 1 0.512681 0.519575 0.0642819 0 -0.000335813 -0.000442266
29 1 0.262681 0.647092 0.0642819 0 0.000335813 -0.000442505
30 1 0.219215 0.500824 0.206135 0 -0.000263453 0.000530124
31 1 0.969215 0.665843 0.206135 0 0.000263453 0.000530243
32 1 0.925795 0.499419 0.34808 0 -0.000437379 -0.000265479
33 1 0.898548 0.165843 0.844318 0 0.000263453 -0.000530601
34 1 0.855082 1.01957 0.986171 0 -0.000335336 0.000442624
35 1 0.605082 0.147092 0.986171 0 0.000335932 0.000442505
36 1 0.941968 -0.00058117 0.702373 0 -0.000437856 0.00026536
37 1 0.838766 0.499233 0.631581 0 0.000171304 -0.000251055
38 1 0.691968 0.167248 0.702373 0 0.000437379 0.000265121
39 1 0.588766 0.667434 0.631581 0 -0.000171423 -0.000250459
40 1 0.648548 1.00082 0.844318 0 -0.000263929 -0.000530005
41 1 0.545281 0.49985 0.773393 0 -0.00065887 -0.000289321
42 1 0.398548 0.165843 0.844318 0 0.000263691 -0.000530362
43 1 0.295281 0.666817 0.773393 0 0.000658751 -0.000288486
44 1 0.355082 1.01957 0.986171 0 -0.000335813 0.000442743
45 1 0.251824 0.504938 0.915263 0 0.000365376 0.000377774
46 1 0.675795 0.667248 0.34808 0 0.000437498 -0.000265479
47 1 0.632265 0.499208 0.489799 0 -0.000239611 0.000132561
48 1 0.382265 0.667459 0.489799 0 0.000239491 0.000133276
49 1 0.338766 0.499233 0.631581 0 0.000171781 -0.000251532
50 1 0.088766 0.667434 0.631581 0 -0.000171423 -0.000250697
51 1 0.0452814 0.49985 0.773393 0 -0.000659347 -0.000289202
52 1 0.105082 0.147092 0.986171 0 0.000335693 0.000442624
53 1 0.00182389 0.661729 0.915263 0 -0.000365496 0.000377059
54 1 0.795281 0.666817 0.773393 0 0.000659347 -0.000288129
55 1 0.751824 0.504938 0.915263 0 0.000366092 0.000378013
56 1 0.501824 0.661729 0.915263 0 -0.000365615 0.000377536
ITEM: TIMESTEP
7
ITEM: NUMBER OF ATOMS
56
ITEM: BOX BOUNDS xy xz yz pp pp pp
-6.0254098176956177e+00 1.2206987559795380e+01 -4.7683715820312500e-07
-7.5370073318481445e-03 5.5339480042457581e+00 -6.0035216212272644e+00
-3.2569408416748047e-02 1.9052529454231262e+01 2.8610229492187500e-06
ITEM: ATOMS id type xs ys zs fx fy fz
1 1 0.615937 1.00495 0.135187 0 -8.34465e-06 -1.27554e-05
2 1 0.365937 0.161716 0.135187 0 7.86781e-06 -1.27554e-05
3 1 0.322485 0.999796 0.277067 0 -3.05176e-05 5.04255e-05
4 1 0.072485 0.166871 0.277067 0 2.99215e-05 5.09024e-05
5 1 0.0290009 -0.00075699 0.41888 0 -0.000165343 -4.98295e-05
6 1 0.115937 1.00495 0.135187 0 -7.98702e-06 -1.26362e-05
7 1 0.0126799 0.519554 0.0642798 0 3.25441e-05 6.33001e-05
8 1 0.865937 0.161716 0.135187 0 8.34465e-06 -1.23978e-05
9 1 0.76268 0.647113 0.0642798 0 -3.24249e-05 6.25849e-05
10 1 0.822485 0.999796 0.277067 0 -3.03984e-05 5.03063e-05
11 1 0.779001 0.167424 0.41888 0 0.000165939 -5.04255e-05
12 1 0.735499 -0.000821047 0.560656 0 9.77516e-05 -2.20537e-05
13 1 0.485499 0.167488 0.560655 0 -9.75132e-05 -2.22921e-05
14 1 0.44197 -0.00060563 0.702377 0 -0.000263333 -0.00017488
15 1 0.19197 0.167273 0.702377 0 0.000263453 -0.000175357
16 1 0.148543 1.0008 0.844309 0 -3.31402e-05 2.55108e-05
17 1 0.719219 0.500796 0.206144 0 -3.25441e-05 -2.49147e-05
18 1 0.572485 0.166871 0.277067 0 3.016e-05 5.01871e-05
19 1 0.469219 0.665871 0.206144 0 3.3021e-05 -2.51532e-05
20 1 0.529001 -0.00075699 0.41888 0 -0.000165701 -5.00679e-05
21 1 0.425793 0.499394 0.348076 0 -0.000263929 0.000175118
22 1 0.279001 0.167424 0.41888 0 0.000165939 -5.04255e-05
23 1 0.175793 0.667273 0.348076 0 0.000263333 0.000174761
24 1 0.235499 -0.000821054 0.560656 0 9.82285e-05 -2.25306e-05
25 1 0.132264 0.499179 0.489797 0 9.7394e-05 2.21729e-05
26 1 0.985499 0.167488 0.560655 0 -9.78708e-05 -2.22921e-05
27 1 0.882264 0.667488 0.489797 0 -9.76324e-05 2.19345e-05
28 1 0.51268 0.519554 0.0642798 0 3.31402e-05 6.28233e-05
29 1 0.26268 0.647113 0.0642798 0 -3.29018e-05 6.30617e-05
30 1 0.219219 0.500796 0.206144 0 -3.26633e-05 -2.49147e-05
31 1 0.969219 0.665871 0.206144 0 3.3021e-05 -2.5034e-05
32 1 0.925793 0.499394 0.348076 0 -0.00026381 0.000175357
33 1 0.898543 0.165871 0.844309 0 3.24249e-05 2.51532e-05
34 1 0.855083 1.01955 0.986173 0 3.18289e-05 -6.29425e-05
35 1 0.605083 0.147113 0.986173 0 -3.29018e-05 -6.27041e-05
36 1 0.94197 -0.00060566 0.702377 0 -0.000262737 -0.000175238
37 1 0.838762 0.499243 0.631572 0 -0.000165939 5.04255e-05
38 1 0.69197 0.167273 0.702377 0 0.000263691 -0.000175118
39 1 0.588762 0.667424 0.631572 0 0.00016582 4.95911e-05
40 1 0.648543 1.0008 0.844309 0 -3.23057e-05 2.53916e-05
41 1 0.545278 0.499796 0.773386 0 -3.06368e-05 -5.03063e-05
42 1 0.398543 0.165871 0.844309 0 3.29018e-05 2.47955e-05
43 1 0.295278 0.666871 0.773386 0 3.05176e-05 -5.05447e-05
44 1 0.355083 1.01955 0.986173 0 3.3021e-05 -6.29425e-05
45 1 0.251826 0.504951 0.915266 0 -8.46386e-06 1.2517e-05
46 1 0.675793 0.667273 0.348076 0 0.000263095 0.00017488
47 1 0.632264 0.499179 0.489797 0 9.77516e-05 2.25306e-05
48 1 0.382264 0.667488 0.489797 0 -9.77516e-05 2.20537e-05
49 1 0.338762 0.499243 0.631572 0 -0.000166059 5.10216e-05
50 1 0.088762 0.667424 0.631572 0 0.000165343 4.99487e-05
51 1 0.0452779 0.499796 0.773386 0 -2.99215e-05 -5.01871e-05
52 1 0.105083 0.147113 0.986173 0 -3.25441e-05 -6.33001e-05
53 1 0.00182557 0.661716 0.915266 0 8.82149e-06 1.27554e-05
54 1 0.795278 0.666871 0.773386 0 3.02792e-05 -5.05447e-05
55 1 0.751826 0.504951 0.915266 0 -8.22544e-06 1.23978e-05
56 1 0.501826 0.661716 0.915266 0 7.98702e-06 1.26362e-05
ITEM: TIMESTEP
8
ITEM: NUMBER OF ATOMS
56
ITEM: BOX BOUNDS xy xz yz pp pp pp
-6.0254098176956177e+00 1.2206987559795380e+01 -4.7683715820312500e-07
-7.5370073318481445e-03 5.5339480042457581e+00 -6.0035216212272644e+00
-3.2569408416748047e-02 1.9052529454231262e+01 2.8610229492187500e-06
ITEM: ATOMS id type xs ys zs fx fy fz
1 1 0.615937 1.00495 0.135186 0 -1.87159e-05 5.57899e-05
2 1 0.365937 0.161715 0.135186 0 1.93119e-05 5.59092e-05
3 1 0.322486 0.999787 0.277069 0 -2.22921e-05 -4.50611e-05
4 1 0.072486 0.16688 0.277069 0 2.26498e-05 -4.49419e-05
5 1 0.0290008 -0.000769861 0.41888 0 -5.38826e-05 2.46763e-05
6 1 0.115937 1.00495 0.135186 0 -1.88351e-05 5.51939e-05
7 1 0.0126806 0.519555 0.0642811 0 5.48363e-06 1.09673e-05
8 1 0.865937 0.161715 0.135186 0 1.90735e-05 5.53131e-05
9 1 0.762681 0.647112 0.0642811 0 -5.96046e-06 1.2517e-05
10 1 0.822486 0.999787 0.277069 0 -2.25306e-05 -4.51803e-05
11 1 0.779001 0.167437 0.41888 0 5.30481e-05 2.45571e-05
12 1 0.735499 -0.000815965 0.560655 0 -8.34465e-06 -7.31945e-05
13 1 0.485499 0.167483 0.560655 0 7.98702e-06 -7.25985e-05
14 1 0.441968 -0.00063055 0.702373 0 1.7643e-05 -2.14577e-06
15 1 0.191968 0.167298 0.702373 0 -1.80006e-05 -1.90735e-06
16 1 0.148543 1.00079 0.844309 0 2.58684e-05 -6.96182e-05
17 1 0.71922 0.500791 0.206144 0 2.61068e-05 6.87838e-05
18 1 0.572486 0.16688 0.277069 0 2.21729e-05 -4.45843e-05
19 1 0.46922 0.665877 0.206144 0 -2.61068e-05 6.91414e-05
20 1 0.529001 -0.00076989 0.41888 0 -5.36442e-05 2.46763e-05
21 1 0.425795 0.499369 0.34808 0 1.8239e-05 2.26498e-06
22 1 0.279001 0.167437 0.41888 0 5.3525e-05 2.45571e-05
23 1 0.175795 0.667298 0.34808 0 -1.81198e-05 2.6226e-06
24 1 0.235499 -0.000815933 0.560655 0 -8.58307e-06 -7.29561e-05
25 1 0.132264 0.499184 0.489798 0 -7.86781e-06 7.33137e-05