LAMMPS (4 May 2022)
units 			metal
dimension		3
boundary		p    p    p
atom_style		atomic
box         	tilt large

neighbor 0.0 bin
neigh_modify    every 10 delay 0 check no

read_data   	copper.lmp
Reading data file ...
  triclinic box = (0 0 0) to (117 117 117) with tilt (0 0 0)
  2 by 2 by 2 MPI processor grid
  reading atoms ...
  132852 atoms
  read_data CPU = 0.126 seconds
mass            1 63.54600000

pair_style 		mdpu model.pb
pair_coeff		* *

variable        Ttarget equal 300.0			# Target tempture for annealing and MD

# compute		thermo_pe    all pe			# System potential energy
# compute 		thermo_temp  all temp
compute			mypress all  pressure thermo_temp
compute			myCNA   all cna/atom 3.10215312	# Common neighbor analysis

timestep		0.005  	# unit==psec==10^-12sec
thermo			100  	# 100==0.5psec			# Output frequency
thermo_style    custom step temp fmax fnorm c_thermo_temp c_thermo_pe press c_thermo_press[*] lx ly lz vol	# Box lengths in x,y,z

# no annealing?
# how to annealing though?

delete_atoms 	overlap 1.0 all all
System init for delete_atoms ...
Generated 0 of 0 mixed pair_coeff terms from geometric mixing rule
Neighbor list info ...
  update every 10 steps, delay 0 steps, check no
  max neighbors/atom: 2000, page size: 100000
  master list distance cutoff = 8
  ghost atom cutoff = 8
  binsize = 4, bins = 30 30 30
  3 neighbor lists, perpetual/occasional/extra = 1 2 0
  (1) command delete_atoms, occasional, copy from (2)
      attributes: full, newton on
      pair build: copy
      stencil: none
      bin: none
  (2) pair mdpu, perpetual
      attributes: full, newton on
      pair build: full/bin/atomonly
      stencil: full/bin/3d
      bin: standard
  (3) compute cna/atom, occasional, copy from (2)
      attributes: full, newton on
      pair build: copy
      stencil: none
      bin: none
Deleted 597 atoms, new total = 132255

# dump          1 all custom 100 dump.relax id type xs ys zs fx fy fz c_atom_order[*]	# dump command, fx fy fz: forces on atoms
velocity        all create ${Ttarget} 9999 dist gaussian mom yes rot yes
velocity        all create 300 9999 dist gaussian mom yes rot yes
fix             5 all npt temp ${Ttarget} ${Ttarget} $(100.0*dt) iso 0.0 0.0 $(1000.0*dt)      # Tdamp = temperature damping parameter (time units)
fix             5 all npt temp 300 ${Ttarget} $(100.0*dt) iso 0.0 0.0 $(1000.0*dt)      
fix             5 all npt temp 300 300 $(100.0*dt) iso 0.0 0.0 $(1000.0*dt)      
fix             5 all npt temp 300 300 0.5 iso 0.0 0.0 $(1000.0*dt)      
fix             5 all npt temp 300 300 0.5 iso 0.0 0.0 5      
run             10000                                                                   # Pdamp = pressure damping parameter (time units)
Generated 0 of 0 mixed pair_coeff terms from geometric mixing rule
Neighbor list info ...
  update every 10 steps, delay 0 steps, check no
  max neighbors/atom: 2000, page size: 100000
  master list distance cutoff = 8
  ghost atom cutoff = 8
  binsize = 4, bins = 30 30 30
  2 neighbor lists, perpetual/occasional/extra = 1 1 0
  (1) pair mdpu, perpetual
      attributes: full, newton on
      pair build: full/bin/atomonly
      stencil: full/bin/3d
      bin: standard
  (2) compute cna/atom, occasional, copy from (1)
      attributes: full, newton on
      pair build: copy
      stencil: none
      bin: none
Per MPI rank memory allocation (min/avg/max) = 18.71 | 18.72 | 18.72 Mbytes
   Step          Temp           Fmax          Fnorm      c_thermo_temp   c_thermo_pe       Press      c_thermo_press[1] c_thermo_press[2] c_thermo_press[3] c_thermo_press[4] c_thermo_press[5] c_thermo_press[6]       Lx             Ly             Lz           Volume    
         0   300            35.633837      1534.3594      300           -13982.302      66294.954      67468.516      66246.713      65169.632     -206.53032     -1149.5496      975.7976       117            117            117            1601613      
       100   1002.1659      6.1758671      465.77659      1002.1659     -31809.723      35753.504      35576.517      36188.304      35495.691      875.84366     -486.04437      86.500877      118.71979      118.71979      118.71979      1673282.8    
       200   839.84522      4.6469765      413.25958      839.84522     -34153.934      3014.362       2849.0499      3094.7478      3099.2882      141.58638     -636.13399     -90.410095      119.38996      119.38996      119.38996      1701779.9    
       300   726.0751       5.300705       382.33811      726.0751      -36259.492     -4507.4517     -4816.8068     -4242.1299     -4463.4182     -108.86587     -684.47777     -302.68599      119.33877      119.33877      119.33877      1699591.9    
       400   644.89006      4.326067       364.20689      644.89006     -38380.815     -3703.5397     -4062.3586     -3514.6026     -3533.6578      293.0693      -256.39215      144.47267      119.03056      119.03056      119.03056      1686457.8    
       500   576.87175      3.4089527      346.0294       576.87175     -40234.545     -3279.9207     -3054.6527     -3527.4841     -3257.6253      747.3117      -466.28629     -124.25987      118.75954      118.75954      118.75954      1674964.4    
       600   512.6236       3.1362801      329.08055      512.6236      -41664.354     -2195.7877     -1995.0387     -2344.0112     -2248.3133      370.93162     -182.75338     -235.38172      118.53986      118.53986      118.53986      1665686.2    
       700   462.72347      3.1557407      312.85781      462.72347     -42924.52      -1858.3487     -1753.7314     -2218.2758     -1603.0389      470.62322     -507.08701     -425.01461      118.35394      118.35394      118.35394      1657861.3    
       800   417.61478      2.8847218      298.72227      417.61478     -43897.519     -1202.0326     -1326.2711     -1365.3482     -914.47852      358.3423      -482.90891     -437.99705      118.20525      118.20525      118.20525      1651620.7    
       900   381.14642      2.5832748      286.44355      381.14642     -44701.19      -856.10149     -840.81893     -1114.6068     -612.87872      335.36182     -676.03567     -313.0338       118.08595      118.08595      118.08595      1646625      
      1000   352.66618      3.1768475      275.70194      352.66618     -45371.503     -706.30163     -513.99215     -1039.6279     -565.28487      488.50806     -522.21221     -555.07408      117.99116      117.99116      117.99116      1642662.9    
      1100   329.07851      2.4813652      266.77199      329.07851     -45889.669     -503.60529     -356.09518     -527.13207     -627.58862      507.21177     -159.67079     -422.4117       117.91514      117.91514      117.91514      1639489.7    
      1200   309.75233      2.25914        260.2495       309.75233     -46259.994     -250.24288      65.527153     -577.30816     -238.94764      572.6142      -454.73113     -352.01334      117.85671      117.85671      117.85671      1637053.7    
      1300   296.89915      2.5023193      254.99693      296.89915     -46524.94      -123.21566     -5.3028237     -371.69086      7.3467018      438.59878     -504.94137     -363.42381      117.82014      117.82014      117.82014      1635530.4    
      1400   291.6841       2.3487682      252.8243       291.6841      -46682.902     -51.253928      227.1756      -263.63004     -117.30734      425.08286     -672.99518     -401.35048      117.79803      117.79803      117.79803      1634609.7    
      1500   293.49063      2.3488388      253.39387      293.49063     -46690.257      99.189448      348.2795      -259.56585      208.85469      591.46334     -517.49404     -349.54432      117.79139      117.79139      117.79139      1634333.4    
      1600   299.39465      2.2177734      256.50142      299.39465     -46573.846      50.959985      337.64353     -258.49281      73.729228      671.14123     -346.55452     -416.70791      117.80672      117.80672      117.80672      1634971.6    
      1700   306.1231       2.3209782      258.47844      306.1231      -46502.385      44.650552      354.61236     -324.26642      103.60572      570.04364     -434.6635      -417.45352      117.81664      117.81664      117.81664      1635384.8    
      1800   305.89195      2.0919876      258.91988      305.89195     -46507.452     -116.389       -154.25427     -221.71712      26.804377      659.57322     -557.55519     -423.42538      117.82102      117.82102      117.82102      1635566.8    
      1900   301.43319      2.3702736      256.35149      301.43319     -46629.076     -117.83435     -371.87702     -89.183645      107.55761      466.97983     -482.86406     -406.33397      117.8042       117.8042       117.8042       1634866.5    
      2000   296.66079      2.1730576      254.34148      296.66079     -46750.819     -55.663366     -212.84548     -29.929043      75.784425      701.46131     -621.62797     -390.83631      117.78972      117.78972      117.78972      1634263.9    
      2100   294.68155      2.1227913      253.61185      294.68155     -46779.866     -42.989201     -14.088503     -49.301284     -65.577816      732.45181     -517.05683     -197.54657      117.78236      117.78236      117.78236      1633957.5    
      2200   297.16581      2.2521687      256.20402      297.16581     -46714.214      152.33813      186.21079      256.48862      14.314991      603.58235     -340.07286     -310.74384      117.78449      117.78449      117.78449      1634046      
      2300   303.54625      2.2673435      258.01721      303.54625     -46661.137     -18.898418      108.96884     -84.273591     -81.390503      746.54695     -462.62859     -380.00222      117.79846      117.79846      117.79846      1634627.5    
      2400   304.39672      2.360323       259.0389       304.39672     -46610.486     -17.768456      68.082532     -125.41924      4.03134        467.99039     -434.1636      -316.93297      117.80349      117.80349      117.80349      1634837      
      2500   301.97825      2.3186779      257.91788      301.97825     -46663.596     -75.688491     -77.69789      -145.18286     -4.1847285      630.03666     -573.81279     -389.07414      117.79759      117.79759      117.79759      1634591.3    
      2600   297.78588      2.0881729      256.42563      297.78588     -46758.507      13.86453       113.73808     -89.132031      16.987543      722.83651     -726.88378     -243.62511      117.78434      117.78434      117.78434      1634039.7    
      2700   295.25322      2.1586361      255.09079      295.25322     -46816.422      58.103617      175.65928     -231.16991      229.82148      701.76211     -484.44858     -392.7871       117.77321      117.77321      117.77321      1633576.9    
      2800   296.54358      2.3726254      255.50602      296.54358     -46804.235     -1.7956382      125.63183     -133.30995      2.291209       821.62457     -407.01712     -435.24745      117.77721      117.77721      117.77721      1633743      
      2900   300.67431      2.2727528      257.41289      300.67431     -46742.155      110.88944      87.960086      71.245771      173.46247      690.78378     -485.16836     -289.68701      117.78264      117.78264      117.78264      1633969.3    
      3000   303.14857      2.1964149      258.70659      303.14857     -46680.89      -52.423801     -114.38073     -142.37189      99.481209      506.76403     -575.01432     -335.13101      117.79401      117.79401      117.79401      1634442.5    
      3100   303.21312      2.5083733      258.44786      303.21312     -46702.14      -31.860453      95.049431     -240.95332      50.322531      585.20879     -538.15279     -307.16315      117.79135      117.79135      117.79135      1634331.6    
      3200   300.08191      2.0793686      256.98647      300.08191     -46775.778      50.536709      248.38304     -110.9491       14.176195      594.30566     -475.80665     -352.20502      117.78135      117.78135      117.78135      1633915.6    
      3300   296.86906      2.1477985      255.57633      296.86906     -46842.744     -10.718283      166.3913       2.9414929     -201.48764      573.26292     -602.74754     -268.39893      117.77217      117.77217      117.77217      1633533.4    
      3400   296.06395      2.1316032      255.56356      296.06395     -46849.276      45.759792      310.10149     -146.70491     -26.1172        408.36776     -518.39673     -306.31707      117.77053      117.77053      117.77053      1633465.4    
      3500   299.42641      2.3189335      256.35595      299.42641     -46817.488      52.472408      128.69668      137.37837     -108.65783      693.75839     -406.23864     -220.03869      117.7748       117.7748       117.7748       1633642.9    
      3600   302.75319      2.1047993      257.55595      302.75319     -46760.375     -102.51237      65.863748     -95.231827     -278.16903      587.52287     -506.88305     -251.01668      117.78598      117.78598      117.78598      1634108.3    
      3700   303.63118      2.2106838      258.02332      303.63118     -46739.651     -2.2360403      84.672801     -75.482925     -15.897998      570.1889      -493.60307     -210.41559      117.78621      117.78621      117.78621      1634117.8    
      3800   302.00463      2.1587543      257.34298      302.00463     -46786.823     -60.266829      42.613409     -109.66125     -113.75265      541.23392     -354.02018     -463.44244      117.78178      117.78178      117.78178      1633933.2    
      3900   298.19492      2.3864384      256.39372      298.19492     -46839.625      45.211443      114.56647      177.57284     -156.50498      530.02711     -482.77441     -383.79237      117.7714       117.7714       117.7714       1633501.5    
      4000   296.65713      2.3318138      255.79534      296.65713     -46879.285     -31.313703      163.84214     -209.17785     -48.60539       539.64511     -490.46854     -326.83517      117.76925      117.76925      117.76925      1633412      
      4100   296.98055      2.2486687      256.35111      296.98055     -46848.429      70.051697      356.56114      1.2947669     -147.70082      513.59712     -624.3506      -469.52899      117.76915      117.76915      117.76915      1633407.7    
      4200   300.29732      2.8887234      257.66578      300.29732     -46804.422      41.902129      170.19352     -22.788484     -21.698652      328.36857     -477.31087     -374.9775       117.77696      117.77696      117.77696      1633732.9    
      4300   302.85115      2.2733421      258.63278      302.85115     -46776.865      58.48052       184.68786     -75.828417      66.582113      586.09636     -725.15773     -288.55917      117.77912      117.77912      117.77912      1633822.8    
      4400   301.94068      2.0921288      258.30488      301.94068     -46785.939     -86.035198      136.83404     -199.49117     -195.44846      464.18258     -304.68963     -304.49233      117.7826       117.7826       117.7826       1633967.6    
      4500   299.46728      2.1698723      256.75515      299.46728     -46842.446      114.75248      320.82558     -82.509486      105.94133      493.98353     -619.08063     -350.34838      117.76977      117.76977      117.76977      1633433.5    
      4600   296.80869      2.1717453      255.88084      296.80869     -46884.084     -6.2869437      136.35462     -237.44094      82.225496      493.73784     -565.33768     -344.73561      117.76685      117.76685      117.76685      1633312.3    
      4700   298.53537      2.2710705      254.89119      298.53537     -46917.137     -32.561833     -73.103155     -191.36474      166.78239      546.45834     -509.74767     -291.16596      117.7649       117.7649       117.7649       1633231.1    
      4800   298.90225      2.2117081      257.09542      298.90225     -46845.525      66.552643      112.82095     -32.002434      118.83941      422.40817     -338.87278     -229.37112      117.7695       117.7695       117.7695       1633422.2    
      4900   302.7033       2.3952446      257.49473      302.7033      -46825.644     -75.294237     -98.294552     -98.171086     -29.417073      551.21625     -502.36575     -206.16335      117.77716      117.77716      117.77716      1633741      
      5000   302.94968      2.3148766      257.77868      302.94968     -46813.637     -44.112385      47.186659     -133.57942     -45.944399      510.52885     -375.16901     -273.20085      117.77758      117.77758      117.77758      1633758.4    
      5100   301.09788      2.5293884      257.33442      301.09788     -46849.329     -67.095364     -65.840539     -166.88728      31.441723      372.89657     -411.52308     -278.40124      117.77378      117.77378      117.77378      1633600.3    
      5200   297.7806       2.4048214      256.21454      297.7806      -46883.994     -8.365351       68.622732      25.64045      -119.35923      446.23709     -365.4059      -320.35583      117.76699      117.76699      117.76699      1633318.1    
      5300   298.4169       2.4037781      255.48244      298.4169      -46933.833      1.4016336      113.68684     -189.92278      80.440842      423.79652     -559.47553     -289.05116      117.76076      117.76076      117.76076      1633058.9    
      5400   298.24329      2.1692944      256.32844      298.24329     -46887.767      13.171391     -12.960531      67.899919     -15.425217      496.4863      -538.4141      -279.81755      117.76585      117.76585      117.76585      1633270.6    
      5500   301.95576      2.2467842      257.08365      301.95576     -46864.748     -76.625725      9.6946345     -193.60588     -45.965931      380.12522     -490.04162     -278.11965      117.77315      117.77315      117.77315      1633574.3    
      5600   301.97466      2.315773       258.4749       301.97466     -46815.524      1.7798754     -15.578514     -121.93756      142.8557       476.62236     -370.13264     -196.96373      117.7748       117.7748       117.7748       1633642.7    
      5700   301.40358      2.3385677      257.99197      301.40358     -46837.038     -16.821266      102.59755     -70.307822     -82.753524      342.96157     -436.61119     -318.86688      117.77484      117.77484      117.77484      1633644.6    
      5800   298.83865      2.2068443      256.65515      298.83865     -46879.143      21.119321     -16.549483      44.549204      35.358243      340.74205     -366.33631     -228.15177      117.76736      117.76736      117.76736      1633333.3    
      5900   298.21044      2.4081478      255.4224       298.21044     -46935.147     -8.4410773     -164.11332      26.83485       111.95523      500.484       -313.18239     -265.17408      117.76016      117.76016      117.76016      1633033.9    
      6000   298.0154       2.2167892      256.1271       298.0154      -46923.538     -28.397389     -31.040976     -8.5777784     -45.573414      372.69411     -424.15146     -228.86545      117.7643       117.7643       117.7643       1633205.9    
      6100   299.35245      2.2144432      257.31475      299.35245     -46873.921      113.01276      191.25754      104.32096      43.459783      423.35689     -465.86676     -133.51219      117.76486      117.76486      117.76486      1633229.4    
      6200   302.21043      2.5687962      257.55295      302.21043     -46853.037     -67.734387     -203.50296     -6.0923504      6.3921461      416.49683     -458.94477     -206.10108      117.77424      117.77424      117.77424      1633619.5    
      6300   302.93319      2.309454       257.8196       302.93319     -46859.721      8.9905778     -68.270222      113.12379     -17.881831      489.41865     -345.79389     -142.63676      117.77222      117.77222      117.77222      1633535.7    
      6400   300.15366      1.9838181      257.26925      300.15366     -46876.547     -28.176161     -38.952514     -63.293774      17.717804      584.12091     -319.89115     -145.66378      117.76989      117.76989      117.76989      1633438.6    
      6500   298.63144      2.0490475      256.56449      298.63144     -46928.126      64.900451      289.85293     -53.155424     -41.996151      495.05566     -377.95589     -191.00135      117.76034      117.76034      117.76034      1633041.2    
      6600   297.97502      2.4087448      255.77266      297.97502     -46943.615     -52.938482      95.425957     -282.71187      28.470471      280.81091     -316.46612     -261.60722      117.76124      117.76124      117.76124      1633078.9    
      6700   299.87369      2.3313103      255.93182      299.87369     -46929.565      8.9541817      26.899948     -125.58692      125.54951      298.73895     -241.34074     -331.45126      117.76325      117.76325      117.76325      1633162.5    
      6800   301.5083       2.2215576      256.82349      301.5083      -46883.745     -3.9011618      192.10112     -68.146444     -135.65816      343.02556     -319.86445     -352.08992      117.76775      117.76775      117.76775      1633349.6    
      6900   301.85677      2.1528149      257.82535      301.85677     -46855.1       -47.070012      89.926987     -265.25212      34.1151        319.57568     -382.92058     -279.54569      117.77235      117.77235      117.77235      1633540.8    
      7000   300.99028      2.0897655      257.05963      300.99028     -46874.54       33.702657      252.1796      -192.8247       41.753067      374.61715     -432.04305     -215.39489      117.76698      117.76698      117.76698      1633317.6    
      7100   299.40083      2.3374825      256.5321       299.40083     -46921.609     -31.676309      50.376403     -202.18623      56.780901      241.34569     -374.52786     -335.51248      117.76428      117.76428      117.76428      1633205.1    
      7200   297.81286      2.2408962      256.14189      297.81286     -46943.874      11.438154     -33.663267      33.262105      34.715625      508.44726     -387.04973     -410.1301       117.75969      117.75969      117.75969      1633014.3    
      7300   298.19137      2.310751       256.46765      298.19137     -46936.414      38.160658      88.571936      140.36032     -114.45028      313.48402     -287.94573     -286.43698      117.76092      117.76092      117.76092      1633065.6    
      7400   300.66366      2.2156448      257.26621      300.66366     -46914.668      0.38152149    -163.66769      106.01987      58.792386      178.86376     -344.33353     -285.63445      117.76511      117.76511      117.76511      1633239.5    
      7500   302.11146      2.363678       257.48456      302.11146     -46881.795      5.0457768      12.442606      66.431409     -63.736685      371.35493     -236.47756     -398.32418      117.7688       117.7688       117.7688       1633393.3    
      7600   301.36561      2.3374863      257.95278      301.36561     -46870.128     -17.558159     -15.887647     -41.543146      4.7563153      440.62083     -513.15319     -338.63631      117.76924      117.76924      117.76924      1633411.4    
      7700   300.9649       2.3941097      256.47775      300.9649      -46922.821     -26.570045      68.581289     -125.48784     -22.803582      373.00241     -452.50156     -317.08936      117.76458      117.76458      117.76458      1633217.8    
      7800   299.44208      2.1037998      255.78035      299.44208     -46962.995     -64.191306     -189.65007     -28.124867      25.201015      415.71782     -545.02298     -214.34818      117.7606       117.7606       117.7606       1633052.2    
      7900   298.72168      2.240509       255.8179       298.72168     -46967.36       11.554905      67.07935      -88.489551      56.074917      493.21638     -402.08529     -414.01189      117.7588       117.7588       117.7588       1632977      
      8000   298.46355      2.3454704      256.96057      298.46355     -46917.129      32.749003      106.3737      -134.83941      126.71273      394.37837     -399.46612     -439.02481      117.76231      117.76231      117.76231      1633123.1    
      8100   301.03223      2.4350872      257.52842      301.03223     -46892.464      32.647143      221.22008     -129.40186      6.1232093      177.25023     -415.47417     -491.2729       117.76666      117.76666      117.76666      1633304.1    
      8200   302.35695      2.1816406      257.57009      302.35695     -46886.274      31.795279      23.974742     -85.49594       156.90704      473.88944     -355.74918     -424.36732      117.76933      117.76933      117.76933      1633415.5    
      8300   300.58288      2.1597519      257.50697      300.58288     -46893.014     -1.3092749      102.63419     -166.9097       60.347686      529.53053     -392.91651     -325.17904      117.76653      117.76653      117.76653      1633298.9    
      8400   298.92784      2.3781681      256.56048      298.92784     -46933.948     -25.697795      54.126085     -93.20455      -38.014921      304.49338     -333.30245     -396.77319      117.76181      117.76181      117.76181      1633102.4    
      8500   297.90766      2.2859116      256.28899      297.90766     -46957.237      25.439016     -2.5582879      196.18077     -117.30543      265.28064     -134.82614     -400.82602      117.75915      117.75915      117.75915      1632991.7    
      8600   298.48488      2.2615891      256.60539      298.48488     -46945.218      52.948075      93.382753     -56.382407      121.84388      379.89973     -425.43517     -498.8527       117.75911      117.75911      117.75911      1632990.2    
      8700   299.98792      2.7080269      257.12543      299.98792     -46907.264     -24.735471      147.30337     -173.88605     -47.623738      375.98259     -331.96926     -597.123        117.76464      117.76464      117.76464      1633220.1    
      8800   302.22536      2.2740746      257.50051      302.22536     -46898.874     -68.960317     -52.303647     -29.49939      -125.07792      382.65951     -392.07479     -341.09359      117.76794      117.76794      117.76794      1633357.6    
      8900   301.70451      2.2903404      257.4583       301.70451     -46901.811      27.989335      257.04314     -125.2091      -47.866033      382.75451     -348.71029     -403.62362      117.76587      117.76587      117.76587      1633271.5    
      9000   300.83796      2.1339855      256.32629      300.83796     -46947.91      -31.543495      81.945541     -33.377707     -143.19832      430.11081     -411.95763     -592.8778       117.76142      117.76142      117.76142      1633086.2    
      9100   298.73326      2.1889343      256.18538      298.73326     -46967.412     -44.283226      148.15474     -57.924269     -223.08015      436.04036     -245.90671     -411.31238      117.75971      117.75971      117.75971      1633015.1    
      9200   297.89485      2.8997421      256.70156      297.89485     -46956.485      103.16719      347.4324      -91.046496      53.115651      399.94941     -355.41983     -317.11846      117.75556      117.75556      117.75556      1632842.2    
      9300   299.1603       2.28158        257.2444       299.1603      -46926.981     -20.686286      167.69274     -159.59913     -70.152464      495.20955     -206.12934     -340.0809       117.76346      117.76346      117.76346      1633171.1    
      9400   301.64321      2.4988461      257.83772      301.64321     -46909.525      32.539752      126.16808     -35.947026      7.398198       465.07448     -266.97687     -368.24834      117.76504      117.76504      117.76504      1633236.8    
      9500   302.03891      2.2613449      257.91324      302.03891     -46902.771     -53.681708      13.314004     -112.00259     -62.356534      330.56405     -305.52574     -465.15254      117.76785      117.76785      117.76785      1633353.5    
      9600   300.58943      2.5095978      257.29007      300.58943     -46921.223      21.662043      124.3777      -36.327143     -23.064431      247.51543     -325.35288     -327.2548       117.76257      117.76257      117.76257      1633134.1    
      9700   299.26771      2.2604084      256.41211      299.26771     -46961.042     -4.4586781      194.29035     -218.4086       10.742217      407.2884      -267.61763     -352.02131      117.75838      117.75838      117.75838      1632959.5    
      9800   297.99981      2.3785152      256.63244      297.99981     -46965.964     -31.775784      241.72371     -235.09003     -101.96103      467.05681     -320.83154     -534.33434      117.75783      117.75783      117.75783      1632936.8    
      9900   299.38537      2.1649208      255.76521      299.38537     -46958.67       37.539537      359.46299     -152.89678     -93.947599      499.10207     -334.59155     -265.47646      117.7578       117.7578       117.7578       1632935.5    
     10000   300.87254      2.3189182      257.34906      300.87254     -46923.99      -87.256876      138.63721     -33.846402     -366.56144      327.81081     -353.9966      -388.50676      117.76572      117.76572      117.76572      1633264.9    
Loop time of 598.067 on 8 procs for 10000 steps with 132255 atoms

Performance: 7.223 ns/day, 3.323 hours/ns, 16.721 timesteps/s
90.9% CPU use with 8 MPI tasks x no OpenMP threads

MPI task timing breakdown:
Section |  min time  |  avg time  |  max time  |%varavg| %total
---------------------------------------------------------------
Pair    | 501.72     | 519.12     | 535.63     |  47.4 | 86.80
Neigh   | 53.206     | 54.203     | 55.78      |  10.8 |  9.06
Comm    | 3.6947     | 19.558     | 35.324     | 234.8 |  3.27
Output  | 0.019856   | 0.020146   | 0.021743   |   0.4 |  0.00
Modify  | 4.6575     | 4.7331     | 4.778      |   1.5 |  0.79
Other   |            | 0.43       |            |       |  0.07

Nlocal:        16531.9 ave       16571 max       16472 min
Histogram: 1 0 0 1 1 0 1 2 1 1
Nghost:          17493 ave       17554 max       17432 min
Histogram: 1 1 0 2 0 0 1 2 0 1
Neighs:              0 ave           0 max           0 min
Histogram: 8 0 0 0 0 0 0 0 0 0
FullNghs:  2.86491e+06 ave 2.88469e+06 max  2.8411e+06 min
Histogram: 1 0 0 1 1 2 1 1 0 1

Total # of neighbors = 22919278
Ave neighs/atom = 173.29612
Neighbor list builds = 1000
Dangerous builds not checked
unfix           5

min_style       cg
min_modify      dmax 0.01 norm max
fix             1 all box/relax iso 0.0
minimize        1.000000e-13 1.000000e+3 5000 5000
WARNING: Using 'neigh_modify every 1 delay 0 check yes' setting during minimization (../min.cpp:187)
Generated 0 of 0 mixed pair_coeff terms from geometric mixing rule
Per MPI rank memory allocation (min/avg/max) = 23.59 | 23.64 | 23.98 Mbytes
   Step          Temp           Fmax          Fnorm      c_thermo_temp   c_thermo_pe       Press      c_thermo_press[1] c_thermo_press[2] c_thermo_press[3] c_thermo_press[4] c_thermo_press[5] c_thermo_press[6]       Lx             Ly             Lz           Volume    
     10000   300.87254      2.3189182      257.34906      300.87254     -46923.99      -87.256876      138.63721     -33.846402     -366.56144      327.81081     -353.9966      -388.50676      117.76572      117.76572      117.76572      1633264.9    
     10009   300.87254      2.3341408      260.14733      300.87254     -46929.144      3283.5151      3510.5671      3336.4587      3003.5195      330.89631     -357.11734     -391.61393      117.65973      117.65973      117.65973      1628859.1    
Loop time of 1.23006 on 8 procs for 9 steps with 132255 atoms

95.5% CPU use with 8 MPI tasks x no OpenMP threads

Minimization stats:
  Stopping criterion = force tolerance
  Energy initial, next-to-last, final = 
     -46923.9901957512  -46929.0327624083  -46929.1444964409
  Force two-norm initial, final = 10556.922 376.80112
  Force max component initial, final = 10553.785 272.58477
  Final line search alpha, max atom move = 7.0146073e-08 1.9120751e-05
  Iterations, force evaluations = 9 9

MPI task timing breakdown:
Section |  min time  |  avg time  |  max time  |%varavg| %total
---------------------------------------------------------------
Pair    | 0.48253    | 0.70815    | 0.7596     |  10.2 | 57.57
Neigh   | 0.45405    | 0.49006    | 0.70904    |  11.8 | 39.84
Comm    | 0.0059863  | 0.021401   | 0.036607   |   6.6 |  1.74
Output  | 0          | 0          | 0          |   0.0 |  0.00
Modify  | 0          | 0          | 0          |   0.0 |  0.00
Other   |            | 0.01045    |            |       |  0.85

Nlocal:        16531.9 ave       16571 max       16472 min
Histogram: 1 0 0 1 1 0 1 2 1 1
Nghost:        17513.9 ave       17579 max       17454 min
Histogram: 1 1 1 1 0 0 2 1 0 1
Neighs:              0 ave           0 max           0 min
Histogram: 8 0 0 0 0 0 0 0 0 0
FullNghs:  2.87174e+06 ave 2.89142e+06 max 2.84813e+06 min
Histogram: 1 0 0 1 1 2 1 1 0 1

Total # of neighbors = 22973922
Ave neighs/atom = 173.70929
Neighbor list builds = 9
Dangerous builds not checked
unfix           1
fix             1 all box/relax aniso 0.0
minimize        1.000000e-13 2.000000e+2 5000 5000
WARNING: Using 'neigh_modify every 1 delay 0 check yes' setting during minimization (../min.cpp:187)
Generated 0 of 0 mixed pair_coeff terms from geometric mixing rule
Per MPI rank memory allocation (min/avg/max) = 23.59 | 23.64 | 23.98 Mbytes
   Step          Temp           Fmax          Fnorm      c_thermo_temp   c_thermo_pe       Press      c_thermo_press[1] c_thermo_press[2] c_thermo_press[3] c_thermo_press[4] c_thermo_press[5] c_thermo_press[6]       Lx             Ly             Lz           Volume    
     10009   300.87254      2.3341408      260.14733      300.87254     -46929.144      3283.5151      3510.5671      3336.4587      3003.5195      330.89631     -357.11734     -391.61393      117.65973      117.65973      117.65973      1628859.1    
     10010   300.87254      2.3339939      260.18554      300.87254     -46929.188      3330.0641      3529.5489      3375.5556      3085.0878      333.94769     -358.77224     -390.13944      117.6618       117.6592       117.65384      1628799      
Loop time of 0.303814 on 8 procs for 1 steps with 132255 atoms

94.8% CPU use with 8 MPI tasks x no OpenMP threads

Minimization stats:
  Stopping criterion = force tolerance
  Energy initial, next-to-last, final = 
     -46929.1444964409  -46929.1444964409  -46929.1879789829
  Force two-norm initial, final = 471.04786 414.64456
  Force max component initial, final = 369.04004 286.24338
  Final line search alpha, max atom move = 1.3548666e-07 3.8782158e-05
  Iterations, force evaluations = 1 2

MPI task timing breakdown:
Section |  min time  |  avg time  |  max time  |%varavg| %total
---------------------------------------------------------------
Pair    | 0.13628    | 0.18692    | 0.19868    |   4.5 | 61.53
Neigh   | 0.10086    | 0.10882    | 0.1576     |   5.6 | 35.82
Comm    | 0.0014655  | 0.0054512  | 0.0093887  |   3.5 |  1.79
Output  | 0          | 0          | 0          |   0.0 |  0.00
Modify  | 0          | 0          | 0          |   0.0 |  0.00
Other   |            | 0.002622   |            |       |  0.86

Nlocal:        16531.9 ave       16571 max       16472 min
Histogram: 1 0 0 1 1 0 1 2 1 1
Nghost:        17514.4 ave       17579 max       17456 min
Histogram: 1 1 1 1 0 0 2 1 0 1
Neighs:              0 ave           0 max           0 min
Histogram: 8 0 0 0 0 0 0 0 0 0
FullNghs:  2.87184e+06 ave  2.8915e+06 max 2.84824e+06 min
Histogram: 1 0 0 1 1 2 1 1 0 1

Total # of neighbors = 22974726
Ave neighs/atom = 173.71537
Neighbor list builds = 2
Dangerous builds not checked
unfix           1
fix             1 all box/relax tri 0.0
minimize        1.000000e-13 1.000000e+2 5000 5000
WARNING: Using 'neigh_modify every 1 delay 0 check yes' setting during minimization (../min.cpp:187)
Generated 0 of 0 mixed pair_coeff terms from geometric mixing rule
Per MPI rank memory allocation (min/avg/max) = 23.59 | 23.64 | 23.98 Mbytes
   Step          Temp           Fmax          Fnorm      c_thermo_temp   c_thermo_pe       Press      c_thermo_press[1] c_thermo_press[2] c_thermo_press[3] c_thermo_press[4] c_thermo_press[5] c_thermo_press[6]       Lx             Ly             Lz           Volume    
     10010   300.87254      2.3339939      260.18554      300.87254     -46929.188      3330.0641      3529.5489      3375.5556      3085.0878      333.94769     -358.77224     -390.13944      117.6618       117.6592       117.65384      1628799      
     10019   300.87254      2.3281727      260.21804      300.87254     -46929.66       3372.8058      3420.9085      3374.5832      3322.9258      134.85549     -108.56815     -126.76571      117.68199      117.66275      117.626        1628742.3    
Loop time of 8.21074 on 8 procs for 9 steps with 132255 atoms

95.6% CPU use with 8 MPI tasks x no OpenMP threads

Minimization stats:
  Stopping criterion = linesearch alpha is zero
  Energy initial, next-to-last, final = 
     -46929.1879789829   -46929.660001874   -46929.660001874
  Force two-norm initial, final = 760.93236 345.78397
  Force max component initial, final = 396.16818 141.47318
  Final line search alpha, max atom move = 8.4262818e-14 1.1920929e-11
  Iterations, force evaluations = 9 63

MPI task timing breakdown:
Section |  min time  |  avg time  |  max time  |%varavg| %total
---------------------------------------------------------------
Pair    | 4.1066     | 4.5775     | 4.8356     |  10.5 | 55.75
Neigh   | 3.1847     | 3.4237     | 3.8877     |  12.0 | 41.70
Comm    | 0.042845   | 0.14792    | 0.25413    |  17.3 |  1.80
Output  | 0          | 0          | 0          |   0.0 |  0.00
Modify  | 0          | 0          | 0          |   0.0 |  0.00
Other   |            | 0.06166    |            |       |  0.75

Nlocal:        16531.9 ave       16571 max       16472 min
Histogram: 1 0 0 1 1 0 1 2 1 1
Nghost:        17513.6 ave       17579 max       17456 min
Histogram: 1 1 1 1 0 0 2 1 0 1
Neighs:              0 ave           0 max           0 min
Histogram: 8 0 0 0 0 0 0 0 0 0
FullNghs:  2.87193e+06 ave 2.89158e+06 max 2.84837e+06 min
Histogram: 1 0 0 1 1 2 1 1 0 1

Total # of neighbors = 22975416
Ave neighs/atom = 173.72059
Neighbor list builds = 63
Dangerous builds not checked
unfix           1

timestep        0.0005
min_style       quickmin
min_modify      dmax 0.01 norm max
fix             2 all viscous 0.2
minimize        0.0 100 5000 5000
WARNING: Using 'neigh_modify every 1 delay 0 check yes' setting during minimization (../min.cpp:187)
Generated 0 of 0 mixed pair_coeff terms from geometric mixing rule
Per MPI rank memory allocation (min/avg/max) = 20.21 | 20.27 | 20.61 Mbytes
   Step          Temp           Fmax          Fnorm      c_thermo_temp   c_thermo_pe       Press      c_thermo_press[1] c_thermo_press[2] c_thermo_press[3] c_thermo_press[4] c_thermo_press[5] c_thermo_press[6]       Lx             Ly             Lz           Volume    
     10019   0              2.3281727      260.21804      0             -46929.66      -0.24389851     37.999513      5.0986841     -43.829893      139.1668      -106.99944     -126.3014       117.68199      117.66275      117.626        1628742.3    
     10020   0.075176907    2.2928228      256.267        0.075176907   -46929.66       0.5989017      38.846632      5.938402      -42.988329      139.16325     -107.00094     -126.299        117.68199      117.66275      117.626        1628742.3    
Loop time of 0.11883 on 8 procs for 1 steps with 132255 atoms

88.9% CPU use with 8 MPI tasks x no OpenMP threads

Minimization stats:
  Stopping criterion = force tolerance
  Energy initial, next-to-last, final = 
      -46929.660001874   -46929.660001874   -46929.660001874
  Force two-norm initial, final = 260.21804 256.267
  Force max component initial, final = 2.3281727 2.2928228
  Final line search alpha, max atom move = 0 0
  Iterations, force evaluations = 1 1

MPI task timing breakdown:
Section |  min time  |  avg time  |  max time  |%varavg| %total
---------------------------------------------------------------
Pair    | 0.11216    | 0.11487    | 0.11753    |   0.5 | 96.67
Neigh   | 0          | 0          | 0          |   0.0 |  0.00
Comm    | 0.00046371 | 0.0031232  | 0.0058279  |   3.1 |  2.63
Output  | 0          | 0          | 0          |   0.0 |  0.00
Modify  | 0.00015907 | 0.00016463 | 0.00016956 |   0.0 |  0.14
Other   |            | 0.0006727  |            |       |  0.57

Nlocal:        16531.9 ave       16571 max       16472 min
Histogram: 1 0 0 1 1 0 1 2 1 1
Nghost:        17513.6 ave       17579 max       17456 min
Histogram: 1 1 1 1 0 0 2 1 0 1
Neighs:              0 ave           0 max           0 min
Histogram: 8 0 0 0 0 0 0 0 0 0
FullNghs:  2.87193e+06 ave 2.89158e+06 max 2.84837e+06 min
Histogram: 1 0 0 1 1 2 1 1 0 1

Total # of neighbors = 22975416
Ave neighs/atom = 173.72059
Neighbor list builds = 0
Dangerous builds not checked
unfix           2

min_style       cg
min_modify      dmax 0.01 norm max
fix             1 all box/relax tri 0.0
minimize        1.000000e-13 5.000000e+1 1000 10000
WARNING: Using 'neigh_modify every 1 delay 0 check yes' setting during minimization (../min.cpp:187)
Generated 0 of 0 mixed pair_coeff terms from geometric mixing rule
Per MPI rank memory allocation (min/avg/max) = 23.59 | 23.64 | 23.98 Mbytes
   Step          Temp           Fmax          Fnorm      c_thermo_temp   c_thermo_pe       Press      c_thermo_press[1] c_thermo_press[2] c_thermo_press[3] c_thermo_press[4] c_thermo_press[5] c_thermo_press[6]       Lx             Ly             Lz           Volume    
     10020   0.075176907    2.3281727      260.21804      0.075176907   -46929.66       0.5989017      38.846632      5.938402      -42.988329      139.16325     -107.00094     -126.299        117.68199      117.66275      117.626        1628742.3    
     10021   0.075176907    2.3281727      260.21804      0.075176907   -46929.66       0.5989017      38.846632      5.938402      -42.988329      139.16325     -107.00094     -126.299        117.68199      117.66275      117.626        1628742.3    
Loop time of 3.13891 on 8 procs for 1 steps with 132255 atoms

95.5% CPU use with 8 MPI tasks x no OpenMP threads

Minimization stats:
  Stopping criterion = quadratic factors are zero
  Energy initial, next-to-last, final = 
      -46929.660001874   -46929.660001874   -46929.660001874
  Force two-norm initial, final = 345.80061 345.80061
  Force max component initial, final = 141.49746 141.49746
  Final line search alpha, max atom move = 3.3699344e-13 4.7683716e-11
  Iterations, force evaluations = 1 24

MPI task timing breakdown:
Section |  min time  |  avg time  |  max time  |%varavg| %total
---------------------------------------------------------------
Pair    | 1.5932     | 1.7567     | 1.8528     |   6.8 | 55.97
Neigh   | 1.2315     | 1.3077     | 1.507      |   8.9 | 41.66
Comm    | 0.017043   | 0.053099   | 0.095029   |  11.0 |  1.69
Output  | 0          | 0          | 0          |   0.0 |  0.00
Modify  | 0          | 0          | 0          |   0.0 |  0.00
Other   |            | 0.02146    |            |       |  0.68

Nlocal:        16531.9 ave       16571 max       16472 min
Histogram: 1 0 0 1 1 0 1 2 1 1
Nghost:        17513.6 ave       17579 max       17456 min
Histogram: 1 1 1 1 0 0 2 1 0 1
Neighs:              0 ave           0 max           0 min
Histogram: 8 0 0 0 0 0 0 0 0 0
FullNghs:  2.87193e+06 ave 2.89158e+06 max 2.84837e+06 min
Histogram: 1 0 0 1 1 2 1 1 0 1

Total # of neighbors = 22975416
Ave neighs/atom = 173.72059
Neighbor list builds = 24
Dangerous builds not checked
unfix           1

timestep        0.0005
min_style       quickmin
min_modify      dmax 0.01 norm max
fix             2 all viscous 0.2
minimize        0.0 2.0e+1 10000 10000
WARNING: Using 'neigh_modify every 1 delay 0 check yes' setting during minimization (../min.cpp:187)
Generated 0 of 0 mixed pair_coeff terms from geometric mixing rule
Per MPI rank memory allocation (min/avg/max) = 20.21 | 20.27 | 20.61 Mbytes
   Step          Temp           Fmax          Fnorm      c_thermo_temp   c_thermo_pe       Press      c_thermo_press[1] c_thermo_press[2] c_thermo_press[3] c_thermo_press[4] c_thermo_press[5] c_thermo_press[6]       Lx             Ly             Lz           Volume    
     10021   0              2.3281727      260.21804      0             -46929.66      -0.24389851     37.999513      5.0986841     -43.829893      139.1668      -106.99944     -126.3014       117.68199      117.66275      117.626        1628742.3    
     10022   0.075176907    2.2928228      256.267        0.075176907   -46929.66       0.5989017      38.846632      5.938402      -42.988329      139.16325     -107.00094     -126.299        117.68199      117.66275      117.626        1628742.3    
Loop time of 0.119155 on 8 procs for 1 steps with 132255 atoms

88.2% CPU use with 8 MPI tasks x no OpenMP threads

Minimization stats:
  Stopping criterion = force tolerance
  Energy initial, next-to-last, final = 
      -46929.660001874   -46929.660001874   -46929.660001874
  Force two-norm initial, final = 260.21804 256.267
  Force max component initial, final = 2.3281727 2.2928228
  Final line search alpha, max atom move = 0 0
  Iterations, force evaluations = 1 1

MPI task timing breakdown:
Section |  min time  |  avg time  |  max time  |%varavg| %total
---------------------------------------------------------------
Pair    | 0.10976    | 0.11404    | 0.11771    |   0.9 | 95.71
Neigh   | 0          | 0          | 0          |   0.0 |  0.00
Comm    | 0.00054403 | 0.0042303  | 0.0085165  |   4.5 |  3.55
Output  | 0          | 0          | 0          |   0.0 |  0.00
Modify  | 0.00015743 | 0.0001661  | 0.00017147 |   0.0 |  0.14
Other   |            | 0.0007202  |            |       |  0.60

Nlocal:        16531.9 ave       16571 max       16472 min
Histogram: 1 0 0 1 1 0 1 2 1 1
Nghost:        17513.6 ave       17579 max       17456 min
Histogram: 1 1 1 1 0 0 2 1 0 1
Neighs:              0 ave           0 max           0 min
Histogram: 8 0 0 0 0 0 0 0 0 0
FullNghs:  2.87193e+06 ave 2.89158e+06 max 2.84837e+06 min
Histogram: 1 0 0 1 1 2 1 1 0 1

Total # of neighbors = 22975416
Ave neighs/atom = 173.72059
Neighbor list builds = 0
Dangerous builds not checked
unfix           2

min_style       cg
min_modify      dmax 0.01 norm max
fix             1 all box/relax tri 0.0
minimize        1.000000e-13 1.000000e+1 10000 10000
WARNING: Using 'neigh_modify every 1 delay 0 check yes' setting during minimization (../min.cpp:187)
Generated 0 of 0 mixed pair_coeff terms from geometric mixing rule
Per MPI rank memory allocation (min/avg/max) = 23.59 | 23.64 | 23.98 Mbytes
   Step          Temp           Fmax          Fnorm      c_thermo_temp   c_thermo_pe       Press      c_thermo_press[1] c_thermo_press[2] c_thermo_press[3] c_thermo_press[4] c_thermo_press[5] c_thermo_press[6]       Lx             Ly             Lz           Volume    
     10022   0.075176907    2.3281727      260.21804      0.075176907   -46929.66       0.5989017      38.846632      5.938402      -42.988329      139.16325     -107.00094     -126.299        117.68199      117.66275      117.626        1628742.3    
     10023   0.075176907    2.3281727      260.21804      0.075176907   -46929.66       0.5989017      38.846632      5.938402      -42.988329      139.16325     -107.00094     -126.299        117.68199      117.66275      117.626        1628742.3    
Loop time of 3.1588 on 8 procs for 1 steps with 132255 atoms

95.7% CPU use with 8 MPI tasks x no OpenMP threads

Minimization stats:
  Stopping criterion = quadratic factors are zero
  Energy initial, next-to-last, final = 
      -46929.660001874   -46929.660001874   -46929.660001874
  Force two-norm initial, final = 345.80061 345.80061
  Force max component initial, final = 141.49746 141.49746
  Final line search alpha, max atom move = 3.3699344e-13 4.7683716e-11
  Iterations, force evaluations = 1 24

MPI task timing breakdown:
Section |  min time  |  avg time  |  max time  |%varavg| %total
---------------------------------------------------------------
Pair    | 1.198      | 1.7793     | 1.9093     |  16.6 | 56.33
Neigh   | 1.2112     | 1.3067     | 1.8828     |  19.1 | 41.37
Comm    | 0.015646   | 0.050405   | 0.086399   |  10.5 |  1.60
Output  | 0          | 0          | 0          |   0.0 |  0.00
Modify  | 0          | 0          | 0          |   0.0 |  0.00
Other   |            | 0.02239    |            |       |  0.71

Nlocal:        16531.9 ave       16571 max       16472 min
Histogram: 1 0 0 1 1 0 1 2 1 1
Nghost:        17513.6 ave       17579 max       17456 min
Histogram: 1 1 1 1 0 0 2 1 0 1
Neighs:              0 ave           0 max           0 min
Histogram: 8 0 0 0 0 0 0 0 0 0
FullNghs:  2.87193e+06 ave 2.89158e+06 max 2.84837e+06 min
Histogram: 1 0 0 1 1 2 1 1 0 1

Total # of neighbors = 22975416
Ave neighs/atom = 173.72059
Neighbor list builds = 24
Dangerous builds not checked
unfix           1

min_style       quickmin
min_modify      dmax 0.01 norm max
fix             2 all viscous 0.1
minimize        0.0 1.0e-0 20000 20000
WARNING: Using 'neigh_modify every 1 delay 0 check yes' setting during minimization (../min.cpp:187)
Generated 0 of 0 mixed pair_coeff terms from geometric mixing rule
Per MPI rank memory allocation (min/avg/max) = 20.21 | 20.27 | 20.61 Mbytes
   Step          Temp           Fmax          Fnorm      c_thermo_temp   c_thermo_pe       Press      c_thermo_press[1] c_thermo_press[2] c_thermo_press[3] c_thermo_press[4] c_thermo_press[5] c_thermo_press[6]       Lx             Ly             Lz           Volume    
     10023   0              2.3281727      260.21804      0             -46929.66      -0.24389851     37.999513      5.0986841     -43.829893      139.1668      -106.99944     -126.3014       117.68199      117.66275      117.626        1628742.3    
     10067   84.243314      0.90616115     120.60262      84.243314     -48705.359     -5449.2062     -5404.2305     -5446.7298     -5496.6581      145.64098     -118.42461     -129.94074      117.68199      117.66275      117.626        1628742.3    
Loop time of 6.01889 on 8 procs for 44 steps with 132255 atoms

95.1% CPU use with 8 MPI tasks x no OpenMP threads

Minimization stats:
  Stopping criterion = force tolerance
  Energy initial, next-to-last, final = 
      -46929.660001874  -48643.7666561604  -48705.3588265181
  Force two-norm initial, final = 260.21804 120.60262
  Force max component initial, final = 2.3281727 0.90616115
  Final line search alpha, max atom move = 0 0
  Iterations, force evaluations = 44 44

MPI task timing breakdown:
Section |  min time  |  avg time  |  max time  |%varavg| %total
---------------------------------------------------------------
Pair    | 3.1411     | 3.543      | 3.7921     |  10.1 | 58.86
Neigh   | 2.1744     | 2.3498     | 2.7027     |  10.4 | 39.04
Comm    | 0.030277   | 0.10389    | 0.18396    |  15.1 |  1.73
Output  | 0          | 0          | 0          |   0.0 |  0.00
Modify  | 0.0037334  | 0.0038386  | 0.0039082  |   0.1 |  0.06
Other   |            | 0.01842    |            |       |  0.31

Nlocal:        16531.9 ave       16567 max       16475 min
Histogram: 1 0 0 0 2 0 1 1 2 1
Nghost:        17511.1 ave       17588 max       17450 min
Histogram: 1 1 1 1 0 1 2 0 0 1
Neighs:              0 ave           0 max           0 min
Histogram: 8 0 0 0 0 0 0 0 0 0
FullNghs:  2.87111e+06 ave 2.88973e+06 max  2.8482e+06 min
Histogram: 1 0 0 1 0 3 1 1 0 1

Total # of neighbors = 22968872
Ave neighs/atom = 173.67111
Neighbor list builds = 43
Dangerous builds not checked
unfix           2

min_style       cg
min_modify      dmax 0.01 norm max
fix             1 all box/relax tri 0.0
minimize        1.000000e-13 5.000000e-1 20000 20000
WARNING: Using 'neigh_modify every 1 delay 0 check yes' setting during minimization (../min.cpp:187)
Generated 0 of 0 mixed pair_coeff terms from geometric mixing rule
Per MPI rank memory allocation (min/avg/max) = 23.59 | 23.64 | 23.98 Mbytes
   Step          Temp           Fmax          Fnorm      c_thermo_temp   c_thermo_pe       Press      c_thermo_press[1] c_thermo_press[2] c_thermo_press[3] c_thermo_press[4] c_thermo_press[5] c_thermo_press[6]       Lx             Ly             Lz           Volume    
     10067   84.243314      1.4038944      186.73239      84.243314     -48705.359     -5449.2062     -5404.2305     -5446.7298     -5496.6581      145.64098     -118.42461     -129.94074      117.68199      117.66275      117.626        1628742.3    
     10093   84.243314      1.4326744      190.47289      84.243314     -48722.796      876.61848      851.5782       866.09162      912.18562     -20.938237      70.664042      55.597736      117.49607      117.46804      117.41862      1620615.5    
Loop time of 10.0721 on 8 procs for 26 steps with 132255 atoms

94.9% CPU use with 8 MPI tasks x no OpenMP threads

Minimization stats:
  Stopping criterion = quadratic factors are zero
  Energy initial, next-to-last, final = 
     -48705.3588265181  -48722.7961916924  -48722.7961916924
  Force two-norm initial, final = 11261.936 251.56075
  Force max component initial, final = 6547.0356 103.3723
  Final line search alpha, max atom move = 2.3064068e-13 2.3841858e-11
  Iterations, force evaluations = 26 70

MPI task timing breakdown:
Section |  min time  |  avg time  |  max time  |%varavg| %total
---------------------------------------------------------------
Pair    | 5.275      | 6.0036     | 6.4063     |  15.4 | 59.61
Neigh   | 3.5404     | 3.8092     | 4.3901     |  16.3 | 37.82
Comm    | 0.050089   | 0.18858    | 0.33411    |  22.6 |  1.87
Output  | 0          | 0          | 0          |   0.0 |  0.00
Modify  | 0          | 0          | 0          |   0.0 |  0.00
Other   |            | 0.07073    |            |       |  0.70

Nlocal:        16531.9 ave       16567 max       16475 min
Histogram: 1 0 0 0 2 0 1 1 2 1
Nghost:        17540.5 ave       17612 max       17476 min
Histogram: 1 0 1 2 0 1 2 0 0 1
Neighs:              0 ave           0 max           0 min
Histogram: 8 0 0 0 0 0 0 0 0 0
FullNghs:  2.88327e+06 ave  2.9016e+06 max 2.86096e+06 min
Histogram: 1 0 0 1 0 3 1 1 0 1

Total # of neighbors = 23066122
Ave neighs/atom = 174.40643
Neighbor list builds = 70
Dangerous builds not checked
unfix           1

min_style       quickmin
min_modify      dmax 0.01 norm max
fix             2 all viscous 0.2
minimize        0.0 4.0e-1 20000 20000
WARNING: Using 'neigh_modify every 1 delay 0 check yes' setting during minimization (../min.cpp:187)
Generated 0 of 0 mixed pair_coeff terms from geometric mixing rule
Per MPI rank memory allocation (min/avg/max) = 20.21 | 20.27 | 20.61 Mbytes
   Step          Temp           Fmax          Fnorm      c_thermo_temp   c_thermo_pe       Press      c_thermo_press[1] c_thermo_press[2] c_thermo_press[3] c_thermo_press[4] c_thermo_press[5] c_thermo_press[6]       Lx             Ly             Lz           Volume    
     10093   0              1.4326744      190.47289      0             -48722.796     -72.560264     -102.03469     -79.508546     -36.137554     -16.956954      71.945243      52.869234      117.49607      117.46804      117.41862      1620615.5    
     10100   1.7965224      1.2763882      169.94273      1.7965224     -48750.919     -152.99173     -182.08578     -159.72373     -117.16567     -16.870398      71.646029      52.677761      117.49607      117.46804      117.41862      1620615.5    
     10143   38.721087      0.36941754     52.181401      38.721087     -49829.575     -3617.74       -3640.5929     -3620.7274     -3591.8998     -6.9666408      57.013102      45.555743      117.49607      117.46804      117.41862      1620615.5    
Loop time of 6.69212 on 8 procs for 50 steps with 132255 atoms

95.6% CPU use with 8 MPI tasks x no OpenMP threads

Minimization stats:
  Stopping criterion = force tolerance
  Energy initial, next-to-last, final = 
     -48722.7961916924  -49797.8758901358  -49829.5750050545
  Force two-norm initial, final = 190.47289 52.181401
  Force max component initial, final = 1.4326744 0.36941754
  Final line search alpha, max atom move = 0 0
  Iterations, force evaluations = 50 50

MPI task timing breakdown:
Section |  min time  |  avg time  |  max time  |%varavg| %total
---------------------------------------------------------------
Pair    | 2.8694     | 3.8757     | 4.113      |  19.6 | 57.91
Neigh   | 2.4707     | 2.6769     | 3.6086     |  22.0 | 40.00
Comm    | 0.034161   | 0.11417    | 0.18786    |  14.9 |  1.71
Output  | 0.00019289 | 0.00020201 | 0.00026371 |   0.0 |  0.00
Modify  | 0.0041181  | 0.0042506  | 0.0043719  |   0.1 |  0.06
Other   |            | 0.02083    |            |       |  0.31

Nlocal:        16531.9 ave       16567 max       16483 min
Histogram: 1 0 0 1 1 1 1 1 1 1
Nghost:        17540.8 ave       17610 max       17478 min
Histogram: 1 0 3 0 0 0 2 1 0 1
Neighs:              0 ave           0 max           0 min
Histogram: 8 0 0 0 0 0 0 0 0 0
FullNghs:  2.88154e+06 ave 2.89948e+06 max 2.86097e+06 min
Histogram: 1 0 0 1 1 2 1 1 0 1

Total # of neighbors = 23052326
Ave neighs/atom = 174.30211
Neighbor list builds = 49
Dangerous builds not checked
unfix           2

min_style       cg
min_modify      dmax 0.01 norm max
fix             1 all box/relax tri 0.0
minimize        1.000000e-13 2.000000e-1 20000 20000
WARNING: Using 'neigh_modify every 1 delay 0 check yes' setting during minimization (../min.cpp:187)
Generated 0 of 0 mixed pair_coeff terms from geometric mixing rule
Per MPI rank memory allocation (min/avg/max) = 23.59 | 23.64 | 23.98 Mbytes
   Step          Temp           Fmax          Fnorm      c_thermo_temp   c_thermo_pe       Press      c_thermo_press[1] c_thermo_press[2] c_thermo_press[3] c_thermo_press[4] c_thermo_press[5] c_thermo_press[6]       Lx             Ly             Lz           Volume    
     10143   38.721087      1.0059433      141.28247      38.721087     -49829.575     -3617.74       -3640.5929     -3620.7274     -3591.8998     -6.9666408      57.013102      45.555743      117.49607      117.46804      117.41862      1620615.5    
     10153   38.721087      1.0168438      142.77614      38.721087     -49836.267     -171.40378     -188.08446     -174.36595     -151.76093     -7.6744108      44.464862      35.291237      117.39032      117.36333      117.31525      1616289.5    
Loop time of 4.35512 on 8 procs for 10 steps with 132255 atoms

95.4% CPU use with 8 MPI tasks x no OpenMP threads

Minimization stats:
  Stopping criterion = quadratic factors are zero
  Energy initial, next-to-last, final = 
     -49829.5750050545   -49836.266919136   -49836.266919136
  Force two-norm initial, final = 7104.447 1076.1756
  Force max component initial, final = 4125.675 633.49489
  Final line search alpha, max atom move = 3.0108351e-13 1.9073486e-10
  Iterations, force evaluations = 10 32

MPI task timing breakdown:
Section |  min time  |  avg time  |  max time  |%varavg| %total
---------------------------------------------------------------
Pair    | 2.2638     | 2.487      | 2.6317     |   8.7 | 57.11
Neigh   | 1.6142     | 1.746      | 2.0309     |  10.9 | 40.09
Comm    | 0.024216   | 0.086052   | 0.14685    |  13.3 |  1.98
Output  | 0          | 0          | 0          |   0.0 |  0.00
Modify  | 0          | 0          | 0          |   0.0 |  0.00
Other   |            | 0.03599    |            |       |  0.83

Nlocal:        16531.9 ave       16567 max       16483 min
Histogram: 1 0 0 1 1 1 1 1 1 1
Nghost:        17559.9 ave       17629 max       17496 min
Histogram: 1 0 3 0 0 0 2 1 0 1
Neighs:              0 ave           0 max           0 min
Histogram: 8 0 0 0 0 0 0 0 0 0
FullNghs:  2.88793e+06 ave 2.90572e+06 max 2.86769e+06 min
Histogram: 1 0 0 1 1 2 1 1 0 1

Total # of neighbors = 23103414
Ave neighs/atom = 174.6884
Neighbor list builds = 32
Dangerous builds not checked
unfix           1

timestep        0.0005
min_style       quickmin
min_modify      dmax 0.01 norm max
fix             2 all viscous 0.2
minimize        0.0 1.0e-1 40000 40000
WARNING: Using 'neigh_modify every 1 delay 0 check yes' setting during minimization (../min.cpp:187)
Generated 0 of 0 mixed pair_coeff terms from geometric mixing rule
Per MPI rank memory allocation (min/avg/max) = 20.21 | 20.27 | 20.61 Mbytes
   Step          Temp           Fmax          Fnorm      c_thermo_temp   c_thermo_pe       Press      c_thermo_press[1] c_thermo_press[2] c_thermo_press[3] c_thermo_press[4] c_thermo_press[5] c_thermo_press[6]       Lx             Ly             Lz           Volume    
     10153   0              1.0168438      142.77614      0             -49836.267     -608.84624     -627.3982      -610.20956     -588.93096     -5.55637        44.671239      33.778863      117.39032      117.36333      117.31525      1616289.5    
     10200   21.752044      0.35320362     47.687855      21.752044     -50426.441     -2468.1176     -2480.6468     -2466.7791     -2456.9267      0.91467002     34.222787      28.549515      117.39032      117.36333      117.31525      1616289.5    
     10300   3.6141989      0.3130562      38.451599      3.6141989     -51383.1       -5977.9267     -5975.2759     -5967.7501     -5990.7542      21.605955      15.403314      16.919739      117.39032      117.36333      117.31525      1616289.5    
     10400   2.5365749      0.43612378     21.800278      2.5365749     -51758.41      -7195.6508     -7179.2675     -7182.0227     -7225.6623      36.452808      4.3034908      8.565098       117.39032      117.36333      117.31525      1616289.5    
     10500   1.1775199      0.65426437     16.921594      1.1775199     -51953.369     -7800.1149     -7773.6693     -7784.1071     -7842.5684      47.563906     -2.0582391      2.483755       117.39032      117.36333      117.31525      1616289.5    
     10600   0.68074044     0.45781113     13.176921      0.68074044    -52074.701     -8160.1774     -8125.1725     -8142.9663     -8212.3934      56.32259      -6.0628653     -3.6757354      117.39032      117.36333      117.31525      1616289.5    
     10700   0.47527297     0.37664475     10.280463      0.47527297    -52156.308     -8386.2645     -8344.7505     -8369.3481     -8444.695       64.887405     -7.3106838     -7.6152043      117.39032      117.36333      117.31525      1616289.5    
     10800   0.33687236     0.36971012     8.4876092      0.33687236    -52215.479     -8546.3201     -8499.7511     -8530.1532     -8609.0562      72.278414     -8.1092001     -11.685807      117.39032      117.36333      117.31525      1616289.5    
     10900   0.24247267     0.33104468     7.2952727      0.24247267    -52258.765     -8655.1799     -8604.9387     -8639.2655     -8721.3357      78.200552     -8.1242634     -15.47423       117.39032      117.36333      117.31525      1616289.5    
     11000   0.182469       0.28591299     6.3693804      0.182469      -52291.939     -8738.3774     -8684.4819     -8723.6247     -8807.0255      83.283204     -7.8325237     -19.532197      117.39032      117.36333      117.31525      1616289.5    
     11100   0.14256971     0.24149141     5.6300617      0.14256971    -52317.458     -8795.7912     -8738.1937     -8782.7912     -8866.3886      87.049021     -7.3728188     -22.392559      117.39032      117.36333      117.31525      1616289.5    
     11200   0.11403709     0.19872697     5.0439434      0.11403709    -52337.977     -8842.5027     -8782.3418     -8830.4367     -8914.7297      90.707246     -6.9102564     -25.292493      117.39032      117.36333      117.31525      1616289.5    
     11300   0.092141285    0.13220608     4.5897735      0.092141285   -52354.749     -8878.5359     -8815.1383     -8868.6363     -8951.8331      94.266071     -7.3859561     -28.275898      117.39032      117.36333      117.31525      1616289.5    
     11400   0.078352035    0.12990913     4.1484056      0.078352035   -52368.319     -8907.3142     -8841.295      -8898.4324     -8982.2153      96.95553      -7.9209383     -30.952951      117.39032      117.36333      117.31525      1616289.5    
     11500   0.066332756    0.1175896      3.7995091      0.066332756   -52379.856     -8931.7268     -8863.4956     -8923.9243     -9007.7606      99.987791     -7.6599938     -33.518597      117.39032      117.36333      117.31525      1616289.5    
     11600   0.056333416    0.11463432     3.5240464      0.056333416   -52389.417     -8949.2958     -8879.0783     -8942.3558     -9026.4534      102.25697     -7.9831245     -36.093319      117.39032      117.36333      117.31525      1616289.5    
     11672   0.050186023    0.080124902    3.3555393      0.050186023   -52395.8       -8960.2926     -8889.0347     -8954.0678     -9037.7754      104.30501     -8.2695335     -38.02146       117.39032      117.36333      117.31525      1616289.5    
Loop time of 200.866 on 8 procs for 1519 steps with 132255 atoms

95.6% CPU use with 8 MPI tasks x no OpenMP threads

Minimization stats:
  Stopping criterion = force tolerance
  Energy initial, next-to-last, final = 
      -49836.266919136  -52395.6692539454  -52395.8000673056
  Force two-norm initial, final = 142.77614 3.3555393
  Force max component initial, final = 1.0168438 0.080124902
  Final line search alpha, max atom move = 0 0
  Iterations, force evaluations = 1519 1519

MPI task timing breakdown:
Section |  min time  |  avg time  |  max time  |%varavg| %total
---------------------------------------------------------------
Pair    | 109.04     | 114.01     | 117.83     |  21.4 | 56.76
Neigh   | 80.438     | 82.538     | 85.433     |  21.0 | 41.09
Comm    | 1.1196     | 3.5462     | 5.9315     |  83.7 |  1.77
Output  | 0.0027539  | 0.0028135  | 0.003213   |   0.3 |  0.00
Modify  | 0.12281    | 0.12602    | 0.12757    |   0.5 |  0.06
Other   |            | 0.6382     |            |       |  0.32

Nlocal:        16531.9 ave       16564 max       16500 min
Histogram: 2 0 0 1 2 0 0 1 0 2
Nghost:        17554.2 ave       17625 max       17509 min
Histogram: 3 1 0 1 0 0 1 0 1 1
Neighs:              0 ave           0 max           0 min
Histogram: 8 0 0 0 0 0 0 0 0 0
FullNghs:   2.8776e+06 ave 2.89115e+06 max 2.86439e+06 min
Histogram: 1 1 0 1 2 0 0 2 0 1

Total # of neighbors = 23020828
Ave neighs/atom = 174.06395
Neighbor list builds = 1518
Dangerous builds not checked
unfix           2

min_style       cg
min_modify      dmax 0.01 norm max
fix             1 all box/relax tri 0.0
minimize        1.000000e-13 1.000000e-1 40000 40000
WARNING: Using 'neigh_modify every 1 delay 0 check yes' setting during minimization (../min.cpp:187)
Generated 0 of 0 mixed pair_coeff terms from geometric mixing rule
Per MPI rank memory allocation (min/avg/max) = 23.59 | 23.64 | 23.98 Mbytes
   Step          Temp           Fmax          Fnorm      c_thermo_temp   c_thermo_pe       Press      c_thermo_press[1] c_thermo_press[2] c_thermo_press[3] c_thermo_press[4] c_thermo_press[5] c_thermo_press[6]       Lx             Ly             Lz           Volume    
     11672   0.050186023    0.15111542     6.5578784      0.050186023   -52395.8       -8960.2926     -8889.0347     -8954.0678     -9037.7754      104.30501     -8.2695335     -38.02146       117.39032      117.36333      117.31525      1616289.5    
     11698   0.050186023    0.15680695     6.8511854      0.050186023   -52440.414      25.413989      47.908401      26.611687      1.72188        57.06987      -4.5830593     -20.345286      117.12366      117.09154      117.0374       1605073.2    
Loop time of 15.162 on 8 procs for 26 steps with 132255 atoms

95.8% CPU use with 8 MPI tasks x no OpenMP threads

Minimization stats:
  Stopping criterion = linesearch alpha is zero
  Energy initial, next-to-last, final = 
     -52395.8000673056   -52440.413771987   -52440.413771987
  Force two-norm initial, final = 15658.146 81.951726
  Force max component initial, final = 9117.963 57.315853
  Final line search alpha, max atom move = 1.6638927e-12 9.5367432e-11
  Iterations, force evaluations = 26 112

MPI task timing breakdown:
Section |  min time  |  avg time  |  max time  |%varavg| %total
---------------------------------------------------------------
Pair    | 7.1542     | 8.6927     | 9.3016     |  22.8 | 57.33
Neigh   | 5.635      | 6.0963     | 7.5017     |  25.0 | 40.21
Comm    | 0.073203   | 0.26807    | 0.45144    |  24.1 |  1.77
Output  | 0          | 0          | 0          |   0.0 |  0.00
Modify  | 0          | 0          | 0          |   0.0 |  0.00
Other   |            | 0.105      |            |       |  0.69

Nlocal:        16531.9 ave       16564 max       16500 min
Histogram: 2 0 0 1 2 0 0 1 0 2
Nghost:        17602.1 ave       17671 max       17551 min
Histogram: 3 0 1 0 1 0 0 1 1 1
Neighs:              0 ave           0 max           0 min
Histogram: 8 0 0 0 0 0 0 0 0 0
FullNghs:   2.8907e+06 ave 2.90336e+06 max 2.87908e+06 min
Histogram: 1 1 0 2 1 0 0 2 0 1

Total # of neighbors = 23125576
Ave neighs/atom = 174.85597
Neighbor list builds = 112
Dangerous builds not checked
unfix           1

min_style       quickmin
min_modify      dmax 0.01 norm max
fix             2 all viscous 0.2
minimize        0.0 5.0e-2 40000 40000
WARNING: Using 'neigh_modify every 1 delay 0 check yes' setting during minimization (../min.cpp:187)
Generated 0 of 0 mixed pair_coeff terms from geometric mixing rule
Per MPI rank memory allocation (min/avg/max) = 20.21 | 20.27 | 20.61 Mbytes
   Step          Temp           Fmax          Fnorm      c_thermo_temp   c_thermo_pe       Press      c_thermo_press[1] c_thermo_press[2] c_thermo_press[3] c_thermo_press[4] c_thermo_press[5] c_thermo_press[6]       Lx             Ly             Lz           Volume    
     11698   0              0.15680695     6.8511854      0             -52440.414      24.843063      47.347431      26.035696      1.1460603      57.066801     -4.5820917     -20.348914      117.12366      117.09154      117.0374       1605073.2    
     11700   0.00020529662  0.15209468     6.6444706      0.00020529662 -52440.414      24.840522      47.3534        26.032088      1.1360786      57.060244     -4.5826284     -20.354365      117.12366      117.09154      117.0374       1605073.2    
     11800   0.05247181     0.075963972    3.0669936      0.05247181    -52446.604     -1.320111       24.198223     -1.8849292     -26.273627      60.083201     -5.3442434     -23.361051      117.12366      117.09154      117.0374       1605073.2    
     11900   0.042886306    0.078942013    2.9478909      0.042886306   -52452.691     -21.774388      6.6500778     -24.426936     -47.546306      63.238263     -5.7003751     -26.408068      117.12366      117.09154      117.0374       1605073.2    
     12000   0.035407654    0.08117273     2.8459462      0.035407654   -52458.249     -39.705028     -8.9463745     -43.653613     -66.515096      65.534435     -6.0773091     -28.869778      117.12366      117.09154      117.0374       1605073.2    
     12100   0.032330848    0.080545658    2.6316566      0.032330848   -52463.203     -54.209333     -21.882034     -59.509336     -81.236627      67.937741     -6.7358119     -31.047797      117.12366      117.09154      117.0374       1605073.2    
     12200   0.027687411    0.082845721    2.5448491      0.027687411   -52467.496     -65.462984     -31.141364     -72.578427     -92.669161      69.752599     -7.099574      -33.537276      117.12366      117.09154      117.0374       1605073.2    
     12300   0.023953094    0.083430521    2.4507976      0.023953094   -52471.742     -79.251541     -43.107545     -88.347709     -106.29937      71.692267     -7.222701      -35.460266      117.12366      117.09154      117.0374       1605073.2    
     12400   0.022273762    0.082343347    2.2996498      0.022273762   -52475.339     -90.244637     -52.909201     -100.60886     -117.21585      73.455835     -7.8912274     -37.77826       117.12366      117.09154      117.0374       1605073.2    
     12500   0.020059526    0.082075124    2.1918692      0.020059526   -52478.487     -100.15725     -61.362426     -111.99278     -127.11653      75.195358     -8.1439531     -39.180001      117.12366      117.09154      117.0374       1605073.2    
     12600   0.017893353    0.082244138    2.1152172      0.017893353   -52481.292     -105.56884     -65.671267     -118.33938     -132.69587      76.941736     -9.0100159     -41.046688      117.12366      117.09154      117.0374       1605073.2    
     12700   0.016119282    0.081955637    2.0406617      0.016119282   -52484.013     -112.72223     -71.6762       -126.84695     -139.64355      78.732604     -9.7573072     -42.574594      117.12366      117.09154      117.0374       1605073.2    
     12800   0.014921292    0.079716624    1.9543126      0.014921292   -52486.149     -115.89264     -74.123764     -130.81635     -142.7378       80.450956     -10.646387     -44.216143      117.12366      117.09154      117.0374       1605073.2    
     12900   0.013759097    0.078154193    1.8767569      0.013759097   -52488.397     -121.50214     -78.794977     -137.51102     -148.20043      81.933942     -11.450195     -45.64298       117.12366      117.09154      117.0374       1605073.2    
     13000   0.012799976    0.076857657    1.8031178      0.012799976   -52490.472     -126.47025     -82.727195     -143.60259     -153.08096      83.253053     -12.097048     -47.101612      117.12366      117.09154      117.0374       1605073.2    
     13100   0.011888132    0.073786137    1.7393106      0.011888132   -52492.399     -129.77127     -85.285319     -147.83091     -156.1976       84.745543     -12.670955     -48.532821      117.12366      117.09154      117.0374       1605073.2    
     13200   0.011372216    0.069629378    1.6545059      0.011372216   -52493.932     -132.66574     -87.150424     -151.81974     -159.02706      86.192888     -13.529238     -49.961775      117.12366      117.09154      117.0374       1605073.2    
     13300   0.010258948    0.067726986    1.6234719      0.010258948   -52495.55      -136.94241     -90.846852     -156.82067     -163.15971      87.695727     -14.139552     -51.055775      117.12366      117.09154      117.0374       1605073.2    
     13400   0.0094970128   0.064679104    1.5745341      0.0094970128  -52497.084     -140.80733     -93.833119     -161.846       -166.74287      89.136774     -15.090713     -52.297839      117.12366      117.09154      117.0374       1605073.2    
     13500   0.0092031469   0.060436138    1.5035457      0.0092031469  -52498.636     -143.57432     -95.898759     -165.69158     -169.13263      90.590081     -15.589282     -53.67319       117.12366      117.09154      117.0374       1605073.2    
     13600   0.008339253    0.057640476    1.4829781      0.008339253   -52499.995     -145.42436     -96.958691     -168.46667     -170.84773      91.923964     -16.401757     -54.749595      117.12366      117.09154      117.0374       1605073.2    
     13700   0.0078101028   0.05448926     1.4388386      0.0078101028  -52501.08      -148.10033     -98.952422     -172.18608     -173.1625       93.099289     -17.144952     -55.882797      117.12366      117.09154      117.0374       1605073.2    
     13800   0.0071747793   0.055780496    1.4121618      0.0071747793  -52502.285     -151.06389     -101.05635     -176.07221     -176.06312      94.492184     -17.898986     -57.222218      117.12366      117.09154      117.0374       1605073.2    
     13900   0.0067428783   0.056738978    1.377787       0.0067428783  -52503.292     -152.30478     -102.10233     -178.43489     -176.37712      95.446562     -18.549631     -58.377464      117.12366      117.09154      117.0374       1605073.2    
     14000   0.0063580936   0.057689204    1.3414403      0.0063580936  -52504.207     -153.31678     -102.67628     -180.10707     -177.167        96.579637     -18.878599     -59.276178      117.12366      117.09154      117.0374       1605073.2    
     14100   0.0059969066   0.057702855    1.3081944      0.0059969066  -52505.082     -154.22679     -103.353       -181.59387     -177.73352      97.735018     -19.459277     -60.15713       117.12366      117.09154      117.0374       1605073.2    
     14200   0.0056504692   0.058118482    1.2786508      0.0056504692  -52506.005     -156.67527     -105.48133     -184.6009      -179.94357      98.836253     -19.626984     -60.894671      117.12366      117.09154      117.0374       1605073.2    
     14300   0.005490201    0.057386664    1.2338556      0.005490201   -52506.739     -158.03687     -105.83286     -186.9258      -181.35195      99.991415     -19.957581     -61.784752      117.12366      117.09154      117.0374       1605073.2    
     14400   0.0051030215   0.057188724    1.2178005      0.0051030215  -52507.348     -158.3959      -105.73176     -187.85211     -181.60384      101.08637     -20.454509     -62.828438      117.12366      117.09154      117.0374       1605073.2    
     14500   0.0046530012   0.056936984    1.2105589      0.0046530012  -52508.142     -159.89261     -106.71076     -190.17943     -182.78764      102.20012     -20.831976     -63.661656      117.12366      117.09154      117.0374       1605073.2    
     14600   0.0046751137   0.054606781    1.1561119      0.0046751137  -52508.883     -160.62726     -107.0775      -191.30801     -183.49627      103.38441     -21.500076     -64.505945      117.12366      117.09154      117.0374       1605073.2    
     14700   0.0043575264   0.053870258    1.1430607      0.0043575264  -52509.497     -161.90636     -107.91698     -193.23837     -184.56372      104.50384     -21.968809     -65.380961      117.12366      117.09154      117.0374       1605073.2    
     14800   0.0039973985   0.052376749    1.1359185      0.0039973985  -52510.093     -162.69965     -108.33659     -194.43219     -185.33018      105.5916      -22.506449     -66.104648      117.12366      117.09154      117.0374       1605073.2    
     14900   0.0037440215   0.050497952    1.1220221      0.0037440215  -52510.782     -164.06593     -109.49907     -196.36307     -186.33564      106.37635     -22.900771     -66.843127      117.12366      117.09154      117.0374       1605073.2    
     15000   0.0035594349   0.04894825     1.1017658      0.0035594349  -52511.442     -165.03577     -110.18655     -197.78233     -187.13844      107.31222     -23.312283     -67.606503      117.12366      117.09154      117.0374       1605073.2    
     15100   0.0034345802   0.048524162    1.078266       0.0034345802  -52512.155     -166.73385     -111.36738     -200.12911     -188.70506      108.02827     -23.672104     -68.406474      117.12366      117.09154      117.0374       1605073.2    
     15200   0.0032572212   0.047798453    1.0652471      0.0032572212  -52512.829     -167.77539     -112.33411     -201.57737     -189.4147       108.97836     -23.845054     -69.17017       117.12366      117.09154      117.0374       1605073.2    
     15300   0.0030868422   0.047175775    1.0484656      0.0030868422  -52513.374     -168.16103     -112.27534     -202.45988     -189.74785      109.81613     -24.470438     -69.956495      117.12366      117.09154      117.0374       1605073.2    
     15400   0.0030461944   0.045734765    1.0196416      0.0030461944  -52513.765     -168.91959     -112.71582     -203.58976     -190.4532       110.84676     -24.89459      -70.852243      117.12366      117.09154      117.0374       1605073.2    
     15500   0.003031397    0.044194296    0.98543213     0.003031397   -52514.338     -170.05373     -113.20521     -205.32951     -191.62648      111.61537     -25.145399     -71.524631      117.12366      117.09154      117.0374       1605073.2    
[...]
    267900   301.2153       2.3157234      253.66749      301.2153      -46504.263     -5716.7946     -406.24432      682.99386     -17427.133     -1224.2645      16.589783      478.01291      112.00745      111.97674      130.86918      1641391.2    
    268000   300.0852       2.16646        253.69207      300.0852      -46487.333     -6168.815      -779.29793      48.322727     -17775.47      -1252.3849     -128.42474      575.15697      112.01676      111.98605      130.8986       1642033.1    
    268100   299.89421      2.320364       253.91917      299.89421     -46497.577     -5549.609       125.1317       605.25255     -17379.211     -1333.1587     -53.499651      702.35231      111.97331      111.94261      130.92802      1641128.5    
    268200   298.76127      2.3122826      253.38863      298.76127     -46490.891     -6105.2973     -643.44968      179.03923     -17851.482     -1070.0757     -209.04523      573.38209      111.98743      111.95673      130.95744      1641911.2    
    268300   299.81469      2.2480125      253.65191      299.81469     -46498.523     -5791.2957     -301.04919      667.96521     -17740.803     -1418.539      -126.20179      565.08013      111.95812      111.92742      130.98686      1641420.5    
    268400   300.91006      2.4604855      253.96813      300.91006     -46479.34      -6018.7336     -415.70295      195.81539     -17836.313     -1359.6257     -19.542205      536.6588       111.96196      111.93126      131.01629      1641901.7    
    268500   302.03185      2.4576511      253.79282      302.03185     -46485.902     -5889.6427     -316.6748       336.71919     -17688.973     -1234.7194     -82.095045      553.26895      111.94152      111.91083      131.04571      1641671      
    268600   300.2124       2.1276245      254.36945      300.2124      -46468.188     -5885.1308     -377.98966      488.10606     -17765.509     -1302.167       91.3346        612.23465      111.93158      111.90089      131.07513      1641747.8    
    268700   300.26598      2.2686653      253.85228      300.26598     -46483.088     -5946.6981     -326.75865      329.80097     -17843.137     -1221.9493      58.435393      490.77329      111.91996      111.88927      131.10455      1641775.4    
    268800   299.66657      2.4185715      254.2814       299.66657     -46481.534     -5771.8823     -292.89696      655.01259     -17677.763     -1457.9543     -29.493146      637.95966      111.89889      111.86822      131.13397      1641525.9    
    268900   299.21787      2.2256966      253.86542      299.21787     -46481.377     -6022.0456     -644.96492      392.24782     -17813.42      -1170.6271     -149.13089      719.50648      111.89772      111.86704      131.16339      1641859.8    
    269000   299.13142      2.3402977      254.26816      299.13142     -46483.654     -5762.1836     -178.76419      709.08802     -17816.875     -1240.8715     -168.16848      700.2073       111.87321      111.84254      131.19282      1641508.6    
    269100   299.64623      2.4922543      252.81149      299.64623     -46516.378     -6152.1733     -692.88859      223.35007     -17986.981     -1142.2476     -133.68781      617.07991      111.87395      111.84328      131.22224      1641898.6    
    269200   299.59401      2.8431206      253.40203      299.59401     -46517.47      -5707.5444     -384.73595      899.42995     -17637.327     -1124.5323     -10.909207      640.83285      111.83891      111.80825      131.25166      1641238      
    269300   300.17944      2.0794334      253.26227      300.17944     -46503.099     -6127.4698     -719.02772      298.36578     -17961.747     -1107.4152     -90.353555      692.79889      111.85043      111.81977      131.28108      1641944.2    
    269400   299.31035      2.3490086      254.64606      299.31035     -46470.802     -5760.5909     -306.92797      450.21379     -17425.059     -1189.0728     -131.8295       594.24547      111.8235       111.79285      131.3105       1641521.5    
    269500   301.05853      2.1897545      253.80007      301.05853     -46502.243     -5889.4256     -331.07646      272.08528     -17609.286     -1146.5004     -98.357837      665.15818      111.81259      111.78194      131.33993      1641568.9    
    269600   299.80649      2.2868271      254.28722      299.80649     -46491.771     -5961.5151     -468.25731      259.88845     -17676.176     -1208.334       40.587367      673.30934      111.80605      111.77539      131.36935      1641744.4    
    269700   299.27632      2.1113758      254.17594      299.27632     -46489.526     -5702.5175     -231.28228      568.2261      -17444.496     -1197.6296      30.704577      613.11522      111.78242      111.75177      131.39877      1641418      
    269800   300.2857       2.3435993      253.61355      300.2857      -46508.572     -6139.907      -535.62474      57.435203     -17941.532     -1058.1306      42.384835      675.80426      111.78824      111.75759      131.42819      1641956.7    
    269900   300.05909      2.2101173      254.10594      300.05909     -46500.646     -5799.1463     -156.80714      441.52836     -17682.16      -1126.5123     -7.4584784      519.49591      111.75978      111.72914      131.45761      1641488.1    
    270000   300.312        2.0443897      253.6319       300.312       -46500.967     -6216.6027     -783.03012     -20.902379     -17845.876     -1144.2137      146.72597      668.16592      111.76552      111.73488      131.48703      1642024.1    
    270100   300.1335       2.3411674      253.15732      300.1335      -46493.65      -5741.9836     -136.19633      812.35653     -17902.111     -1158.7127      216.05292      665.33449      111.73269      111.70206      131.51646      1641426.9    
    270200   300.58561      2.0717354      253.52252      300.58561     -46503.553     -6228.0205     -767.88548      203.06443     -18119.241     -1289.1052      158.86624      697.17668      111.74171      111.71107      131.54588      1642059      
    270300   300.08426      2.142355       253.55083      300.08426     -46501.991     -5881.8381     -303.6452       779.17438     -18121.043     -1390.1754      177.96427      610.7978       111.71258      111.68195      131.5753       1641570.1    
    270400   299.47137      2.1062298      253.51268      299.47137     -46502.841     -6126.957      -664.01511      398.75376     -18115.61      -1361.2676      24.918603      723.04175      111.71126      111.68064      131.60472      1641898.5    
    270500   299.093        2.2793617      253.54854      299.093       -46505.713     -5916.7119     -404.00687      644.19562     -17990.324     -1398.8465      122.50854      607.32213      111.68843      111.65781      131.63414      1641594.5    
    270600   298.76951      2.1846027      253.61666      298.76951     -46511.02      -5995.9159     -530.08765      644.91137     -18102.571     -1412.5673      95.163161      634.4035       111.67941      111.6488       131.66357      1641696.2    
    270700   299.61123      2.0988941      253.42578      299.61123     -46517.402     -5890.1691     -398.27565      424.64914     -17696.881     -1424.6075      191.29711      610.11432      111.66014      111.62953      131.69299      1641496.3    
    270800   300.4238       2.3396492      253.9442       300.4238      -46497.479     -5880.5872     -486.02401      526.45715     -17682.195     -1224.1423      224.07023      620.22794      111.6495       111.61889      131.72241      1641550.2    
    270900   300.97965      2.425272       254.19304      300.97965     -46495.716     -6050.9041     -487.6355       246.21671     -17911.294     -1196.8174      385.17669      560.4033       111.64683      111.61621      131.75183      1641838.1    
    271000   301.02737      2.5411491      253.80143      301.02737     -46503.136     -5775.0439     -387.77347      615.51319     -17552.872     -1317.4003      76.190898      454.67375      111.62242      111.59181      131.78125      1641486.7    
    271100   299.38251      2.1947536      254.31996      299.38251     -46492.874     -5986.7996     -626.10108      340.1081      -17674.406     -1299.8428      248.15564      397.92097      111.61886      111.58825      131.81067      1641748.5    
    271200   299.69166      2.2529545      254.09404      299.69166     -46499.46      -5713.9245     -295.96221      702.3543      -17548.166     -1334.3581      187.21646      607.87213      111.59392      111.56332      131.8401       1641381.2    
    271300   300.51814      2.2392864      253.1357       300.51814     -46510.47      -6086.0188     -850.35652      366.40614     -17774.106     -1416.8048      279.44029      485.03522      111.59823      111.56764      131.86952      1641874.6    
    271400   300.40993      2.3075523      253.95701      300.40993     -46507.202     -5723.7462     -266.31416      714.06495     -17618.989     -1523.3688      212.57692      482.90093      111.57097      111.54038      131.89894      1641438.5    
    271500   299.7615       2.4015923      253.40332      299.7615      -46513.647     -6022.3911     -742.20609      327.47729     -17652.444     -1165.5614      316.94774      588.88717      111.57076      111.54017      131.92836      1641798.5    
    271600   298.74891      2.3133736      253.99729      298.74891     -46506.97      -5639.2601     -456.73772      892.89943     -17353.942     -1234.715       217.27728      473.59308      111.53831      111.50773      131.95778      1641209.6    
    271700   298.6538       2.0873089      254.12048      298.6538      -46493.404     -5903.1473     -683.08997      507.66173     -17534.014     -1155.7511      314.49708      403.04863      111.54052      111.50994      131.98721      1641640.6    
    271800   300.84902      2.2166157      254.22563      300.84902     -46495.06      -5854.2028     -585.9824       760.7427      -17737.369     -1133.0201      363.36381      382.60037      111.52527      111.4947       132.01663      1641557.6    
    271900   301.65068      2.1218872      253.97661      301.65068     -46500.495     -5831.2062     -503.88479      550.20414     -17539.938     -1109.1041      208.48806      419.16068      111.51318      111.48261      132.04605      1641567.5    
    272000   301.14921      2.2757587      254.12415      301.14921     -46503.448     -6045.5232     -692.92792      464.89021     -17908.532     -1210.0162      337.09765      488.54969      111.51002      111.47944      132.07547      1641840      
    272100   300.7424       2.5035648      253.48893      300.7424      -46511.832     -5807.7595     -329.33029      392.28548     -17486.234     -1153.3854      287.21242      466.81146      111.48502      111.45445      132.10489      1641469.5    
    272200   300.49748      2.6953621      253.59559      300.49748     -46516.2       -5935.0994     -706.23911      477.49519     -17576.554     -1112.7346      270.21854      449.88977      111.47711      111.44655      132.13432      1641602.3    
    272300   299.66965      2.14781        254.21914      299.66965     -46507.42      -5623.8468     -644.22461      810.61131     -17037.927     -1293.6813      306.92882      293.6928       111.45308      111.42252      132.16374      1641260      
    272400   299.43748      2.2640152      253.66923      299.43748     -46514.588     -5875.3298     -684.98791      629.31264     -17570.314     -1416.5652      466.98377      338.11873      111.44984      111.41928      132.19316      1641529.8    
    272500   298.37295      2.2439823      253.73454      298.37295     -46514.788     -5807.6645     -631.20262      748.6366      -17540.427     -1279.5772      575.05568      265.35129      111.43431      111.40375      132.22258      1641437.5    
    272600   299.45658      2.213129       253.32961      299.45658     -46554.996     -5756.5307     -660.72458      803.52024     -17412.388     -1443.6718      291.63425      237.61362      111.41557      111.38503      132.252        1641250.9    
    272700   298.7031       2.2919636      253.53119      298.7031      -46527.743     -5893.8508     -742.24453      457.73263     -17397.04      -1418.1558      312.24671      195.79799      111.4122       111.38165      132.28142      1641516.5    
    272800   300.24548      2.2730637      253.84372      300.24548     -46533.342     -5711.8065     -613.76668      911.07696     -17432.73      -1501.7863      267.69554      281.03797      111.39069      111.36015      132.31085      1641247.7    
    272900   300.51214      2.0775433      253.86578      300.51214     -46523.649     -6015.2449     -932.83858      426.50033     -17539.397     -1626.9249      411.25584      36.851114      111.39626      111.36572      132.34027      1641777      
    273000   300.12039      2.3172703      254.60277      300.12039     -46511.085     -5544.4557     -485.32803      919.67018     -17067.709     -1462.3789      457.61066      67.236406      111.36292      111.33239      132.36969      1641159.2    
    273100   299.39915      2.3203259      253.76419      299.39915     -46522.119     -5998.0499     -825.00267      397.45845     -17566.606     -1442.5898      407.87407      238.3683       111.36816      111.33763      132.39911      1641678.4    
    273200   299.94462      2.1405983      253.6148       299.94462     -46540.989     -5661.1368     -362.26534      672.65889     -17293.804     -1598.905       264.71184      202.27203      111.33799      111.30746      132.42853      1641153.5    
    273300   300.27952      2.3154068      253.22553      300.27952     -46540.675     -5866.6835     -634.90029      600.02251     -17565.173     -1487.0136      504.61209      180.97729      111.33691      111.30638      132.45796      1641486.3    
    273400   299.95015      2.0853977      254.02444      299.95015     -46519.438     -5870.4348     -654.64702      479.45932     -17436.117     -1380.6857      396.64779      205.26782      111.3261       111.29558      132.48738      1641532.3    
    273500   300.84388      2.5087337      254.1118       300.84388     -46512.456     -5702.908      -349.77029      637.30224     -17396.256     -1447.5288      396.33852     -53.812553      111.30704      111.27653      132.5168       1641334.7    
    273600   300.64286      2.4152393      254.17073      300.64286     -46497.818     -6154.9183     -712.52755     -37.3325       -17714.895     -1536.6382      323.39665      141.12428      111.31815      111.28762      132.54622      1642026.6    
    273700   300.30951      2.1624031      254.2448       300.30951     -46518.329     -5439.2938      99.097102      861.31632     -17278.295     -1612.512       326.70284      77.154818      111.26886      111.23835      132.57564      1640937.1    
    273800   300.06031      2.4291363      253.45741      300.06031     -46528.13      -6245.5383     -805.13441     -84.388056     -17847.093     -1483.7554      375.46684      42.784784      111.29242      111.26191      132.60506      1641996.5    
    273900   300.69321      2.4284191      253.3963       300.69321     -46543.227     -5626.6873     -354.24363      988.40112     -17514.219     -1506.9548      490.99561      155.46276      111.24965      111.21915      132.63449      1641098.7    
    274000   299.67281      2.3157101      253.65314      299.67281     -46531.806     -6248.1868     -973.57068      207.45891     -17978.449     -1546.7151      357.19571      268.85307      111.26685      111.23634      132.66391      1641970.2    
    274100   300.22464      2.2531509      253.75756      300.22464     -46543.173     -5644.3835     -141.65399      1020.2286     -17811.725     -1715.7532      494.89897      169.90481      111.22576      111.19527      132.69333      1641121.7    
    274200   299.16217      2.1737766      253.70644      299.16217     -46525.142     -6238.543      -725.55521      104.81934     -18094.893     -1498.3592      191.18739      272.81315      111.24164      111.21114      132.72275      1641954.1    
    274300   299.45919      2.0432491      254.41168      299.45919     -46518.564     -5707.3726     -219.43009      728.11618     -17630.804     -1481.683       388.35791      184.94307      111.20627      111.17578      132.75217      1641274.1    
    274400   300.62131      2.3236599      253.44543      300.62131     -46518.803     -6150.7041     -841.75596      374.66913     -17985.025     -1415.598       296.85323      188.52245      111.21459      111.18409      132.7816       1641883.3    
    274500   300.97438      2.60993        254.65826      300.97438     -46513.746     -5818.0036     -263.11173      492.41697     -17683.316     -1412.9334      294.48075      254.91769      111.18931      111.15882      132.81102      1641500.7    
    274600   300.75936      2.2156658      254.05945      300.75936     -46527.936     -5991.836      -772.03892      681.24734     -17884.717     -1527.2204      291.09399      118.42058      111.18203      111.15155      132.84044      1641649.4    
    274700   299.28987      2.1961765      253.70371      299.28987     -46517.108     -6013.6992     -695.37418      563.31646     -17909.04      -1540.2157      342.31296      272.43678      111.16982      111.13934      132.86986      1641652.2    
    274800   300.31888      2.1238117      253.37538      300.31888     -46531.735     -5892.6613     -461.7601       800.64591     -18016.87      -1402.2605      218.10972      153.37772      111.15092      111.12045      132.89928      1641457.6    
    274900   299.45479      2.3439426      253.88139      299.45479     -46507.902     -6196.9494     -738.93373      475.75064     -18327.665     -1447.6037      294.30021      282.2885       111.15705      111.12658      132.9287       1642002.2    
    275000   301.97623      2.8714676      253.59181      301.97623     -46529.46      -5834.3226     -684.01941      892.43792     -17711.386     -1507.0537      242.3636       241.32306      111.12406      111.09359      132.95813      1641390.7    
    275097   300.90745      2.4475193      254.32186      300.90745     -46498.126     -6124.0321     -802.80467      432.86364     -18002.155     -1570.8624      276.80508      322.68149      111.12983      111.09936      132.98667      1641913.5    
Loop time of 2960.55 on 8 procs for 52000 steps with 132255 atoms

Performance: 7.588 ns/day, 3.163 hours/ns, 17.564 timesteps/s
92.1% CPU use with 8 MPI tasks x no OpenMP threads

MPI task timing breakdown:
Section |  min time  |  avg time  |  max time  |%varavg| %total
---------------------------------------------------------------
Pair    | 2230.9     | 2423.5     | 2619.9     | 257.5 | 81.86
Neigh   | 275.76     | 282.99     | 289.36     |  25.3 |  9.56
Comm    | 19.613     | 213.88     | 405.43     | 862.9 |  7.22
Output  | 0.73599    | 0.73682    | 0.73954    |   0.1 |  0.02
Modify  | 36.922     | 37.273     | 37.652     |   3.8 |  1.26
Other   |            | 2.15       |            |       |  0.07

Nlocal:        16531.9 ave       16582 max       16490 min
Histogram: 2 0 1 0 1 1 1 1 0 1
Nghost:        17473.6 ave       17494 max       17427 min
Histogram: 1 0 0 0 0 1 2 1 0 3
Neighs:              0 ave           0 max           0 min
Histogram: 8 0 0 0 0 0 0 0 0 0
FullNghs:  2.82742e+06 ave 2.84248e+06 max 2.82118e+06 min
Histogram: 4 1 1 0 0 0 1 0 0 1

Total # of neighbors = 22619394
Ave neighs/atom = 171.02865
Neighbor list builds = 5200
Dangerous builds not checked
unfix 			strainstress
unfix           10
unfix			11

write_restart	restart.npt.21
System init for write_restart ...
Generated 0 of 0 mixed pair_coeff terms from geometric mixing rule
Total wall time: 6:42:17
