ITEM: TIMESTEP
0
ITEM: NUMBER OF ATOMS
48
ITEM: BOX BOUNDS xy xz yz pp pp pp
-4.5083389282226562e+00 8.6067802309989929e+00 2.5094206929206848e+00
-9.4973444938659668e-03 9.3236122131347656e+00 -4.4963018298149109e+00
-2.8691649436950684e-02 1.9545819282531738e+01 7.1304261684417725e-02
ITEM: ATOMS id type xs ys zs fx fy fz
1 1 0.945167 0.16703 0.0320218 0 0 1.72279
2 1 0.497107 0.0738739 0.0528103 0 0 -0.0718002
3 1 0.507243 0.125314 0.657023 0 0 0.000888824
4 1 0.683855 0.948847 0.927808 0 0 -1.72278
5 1 0.371558 0.157156 0.802805 0 0 0.00331116
6 1 0.131915 0.0420026 0.90702 0 0 0.071806
7 1 0.819615 0.250315 0.78202 0 0 -0.0028019
8 1 0.88229 0.208712 0.407029 0 0 0.00137329
9 1 0.0591881 0.0321465 0.677802 0 0 -0.00327682
10 1 0.746732 0.240498 0.552801 0 0 -0.00136566
11 1 0.809406 0.198895 0.17781 0 0 0.00279999
12 1 0.569834 0.0837297 0.282028 0 0 0.00327492
13 1 0.257463 0.292053 0.157025 0 0 -0.00331306
14 1 0.434235 0.115534 0.427803 0 0 -0.000123978
15 1 0.945167 0.500363 0.0320219 0 0 1.72277
16 1 0.497107 0.407207 0.0528103 0 0 -0.071804
17 1 0.507243 0.458648 0.657023 0 0 0.000890732
18 1 0.683854 0.28218 0.927808 0 0 -1.72279
19 1 0.371558 0.49049 0.802805 0 0 0.00331497
20 1 0.131915 0.375336 0.90702 0 0 0.0718079
21 1 0.819615 0.583648 0.78202 0 0 -0.00280571
22 1 0.194787 0.333676 0.532027 0 0 0.000120163
23 1 0.88229 0.542046 0.407029 0 0 0.00136757
24 1 0.0591881 0.36548 0.677802 0 0 -0.0032711
25 1 0.746732 0.573831 0.552801 0 0 -0.00136757
26 1 0.121778 0.323895 0.302807 0 0 -0.000886917
27 1 0.809406 0.532228 0.17781 0 0 0.0028038
28 1 0.569834 0.417063 0.282028 0 0 0.00327682
29 1 0.257463 0.625387 0.157025 0 0 -0.00331306
30 1 0.434235 0.448867 0.427803 0 0 -0.000123978
31 1 0.945167 0.833696 0.0320219 0 0 1.72277
32 1 0.497107 0.740541 0.0528104 0 0 -0.0718079
33 1 0.507243 0.791981 0.657023 0 0 0.000886917
34 1 0.683854 0.615514 0.927808 0 0 -1.72277
35 1 0.371558 0.823823 0.802805 0 0 0.00331306
36 1 0.131915 0.708669 0.90702 0 0 0.0718079
37 1 0.819615 0.916981 0.78202 0 0 -0.0028019
38 1 0.194787 0.667009 0.532027 0 0 0.000118256
39 1 0.88229 0.875379 0.407029 0 0 0.00136566
40 1 0.0591877 0.698813 0.677802 0 0 -0.00327682
41 1 0.746731 0.907164 0.552801 0 0 -0.00136185
42 1 0.121778 0.657228 0.302807 0 0 -0.000886917
43 1 0.809407 0.865562 0.17781 0 0 0.0028019
44 1 0.569834 0.750396 0.282028 0 0 0.0032711
45 1 0.257464 0.95872 0.157026 0 0 -0.00331497
46 1 0.434235 0.782201 0.427803 0 0 -0.000118256
47 1 0.194787 0.000342385 0.532027 0 0 0.000118256
48 1 0.121778 0.990562 0.302807 0 0 -0.000886917
ITEM: TIMESTEP
1
ITEM: NUMBER OF ATOMS
48
ITEM: BOX BOUNDS xy xz yz pp pp pp
-4.5083389282226562e+00 8.6067802309989929e+00 2.5094206929206848e+00
-9.4973444938659668e-03 9.3236122131347656e+00 -4.4963018298149109e+00
-2.8691649436950684e-02 1.9545819282531738e+01 7.1304261684417725e-02
ITEM: ATOMS id type xs ys zs fx fy fz
1 1 0.948943 0.16699 0.0371305 0 0 0.800446
2 1 0.496949 0.0738756 0.0525974 0 0 -0.119852
3 1 0.507245 0.125314 0.657026 0 0 -9.15527e-05
4 1 0.680079 0.948886 0.9227 0 0 -0.800434
5 1 0.371566 0.157156 0.802815 0 0 -0.0739136
6 1 0.132072 0.0420009 0.907233 0 0 0.119854
7 1 0.819609 0.250315 0.782012 0 0 -0.0541801
8 1 0.882293 0.208712 0.407033 0 0 4.3869e-05
9 1 0.0591809 0.0321466 0.677792 0 0 -0.00638199
10 1 0.746729 0.240498 0.552797 0 0 -4.3869e-05
11 1 0.809413 0.198895 0.177818 0 0 0.0541801
12 1 0.569841 0.0837296 0.282038 0 0 0.00637436
13 1 0.257456 0.292053 0.157016 0 0 0.0739117
14 1 0.434235 0.115534 0.427803 0 0 -0.00103188
15 1 0.948943 0.500324 0.0371306 0 0 0.800442
16 1 0.496949 0.407209 0.0525974 0 0 -0.119844
17 1 0.507245 0.458648 0.657025 0 0 -9.72748e-05
18 1 0.680078 0.28222 0.9227 0 0 -0.800442
19 1 0.371565 0.49049 0.802815 0 0 -0.0739117
20 1 0.132072 0.375334 0.907233 0 0 0.119856
21 1 0.819609 0.583648 0.782012 0 0 -0.054184
22 1 0.194787 0.333676 0.532027 0 0 0.00103188
23 1 0.882293 0.542045 0.407033 0 0 4.00543e-05
24 1 0.059181 0.36548 0.677792 0 0 -0.00637436
25 1 0.746729 0.573831 0.552797 0 0 -4.3869e-05
26 1 0.121776 0.323895 0.302805 0 0 8.96454e-05
27 1 0.809413 0.532228 0.177818 0 0 0.0541821
28 1 0.569841 0.417063 0.282038 0 0 0.00638008
29 1 0.257456 0.625387 0.157016 0 0 0.0739079
30 1 0.434234 0.448867 0.427803 0 0 -0.00103188
31 1 0.948943 0.833657 0.0371306 0 0 0.800436
32 1 0.496949 0.740542 0.0525975 0 0 -0.119852
33 1 0.507245 0.791981 0.657025 0 0 -9.15527e-05
34 1 0.680079 0.615553 0.9227 0 0 -0.800446
35 1 0.371566 0.823823 0.802814 0 0 -0.0739098
36 1 0.132072 0.708668 0.907233 0 0 0.119852
37 1 0.819609 0.916981 0.782012 0 0 -0.054184
38 1 0.194787 0.667009 0.532027 0 0 0.00103188
39 1 0.882293 0.875379 0.407033 0 0 4.00543e-05
40 1 0.0591805 0.698813 0.677792 0 0 -0.00637817
41 1 0.746728 0.907164 0.552797 0 0 -4.00543e-05
42 1 0.121776 0.657228 0.302805 0 0 9.53674e-05
43 1 0.809413 0.865561 0.177818 0 0 0.0541801
44 1 0.569841 0.750396 0.282038 0 0 0.00638008
45 1 0.257456 0.95872 0.157016 0 0 0.0739059
46 1 0.434235 0.782201 0.427803 0 0 -0.00103378
47 1 0.194787 0.000342383 0.532027 0 0 0.00103188
48 1 0.121776 0.990562 0.302805 0 0 0.000101089
ITEM: TIMESTEP
2
ITEM: NUMBER OF ATOMS
48
ITEM: BOX BOUNDS xy xz yz pp pp pp
-4.5083389282226562e+00 8.6067802309989929e+00 2.5094206929206848e+00
-9.4973444938659668e-03 9.3236122131347656e+00 -4.4963018298149109e+00
-2.8691649436950684e-02 1.9545819282531738e+01 7.1304261684417725e-02
ITEM: ATOMS id type xs ys zs fx fy fz
1 1 0.952719 0.166951 0.0422392 0 0 0.093256
2 1 0.496384 0.0738815 0.0518324 0 0 -0.127977
3 1 0.507245 0.125314 0.657025 0 0 -0.0101013
4 1 0.676303 0.948926 0.917591 0 0 -0.0932617
5 1 0.371217 0.15716 0.802343 0 0 -0.14521
6 1 0.132637 0.0419951 0.907998 0 0 0.127977
7 1 0.819353 0.250318 0.781666 0 0 -0.100578
8 1 0.882293 0.208712 0.407034 0 0 -5.72205e-05
9 1 0.0591508 0.0321469 0.677751 0 0 -0.0163784
10 1 0.746728 0.240498 0.552797 0 0 6.48499e-05
11 1 0.809668 0.198892 0.178164 0 0 0.100584
12 1 0.569871 0.0837293 0.282079 0 0 0.0163822
13 1 0.257805 0.29205 0.157487 0 0 0.14521
14 1 0.43423 0.115534 0.427796 0 0 -0.000514984
15 1 0.952719 0.500284 0.0422392 0 0 0.0932503
16 1 0.496384 0.407215 0.0518325 0 0 -0.127981
17 1 0.507245 0.458648 0.657025 0 0 -0.0100918
18 1 0.676303 0.282259 0.917591 0 0 -0.093256
19 1 0.371217 0.490494 0.802343 0 0 -0.145212
20 1 0.132637 0.375328 0.907998 0 0 0.127979
21 1 0.819353 0.583651 0.781666 0 0 -0.100584
22 1 0.194792 0.333676 0.532034 0 0 0.000509262
23 1 0.882293 0.542045 0.407034 0 0 -5.14984e-05
24 1 0.0591509 0.36548 0.677751 0 0 -0.0163727
25 1 0.746728 0.573831 0.552797 0 0 5.34058e-05
26 1 0.121777 0.323895 0.302805 0 0 0.0101013
27 1 0.809668 0.532225 0.178164 0 0 0.100584
28 1 0.569871 0.417063 0.282079 0 0 0.0163746
29 1 0.257805 0.625383 0.157487 0 0 0.14521
30 1 0.43423 0.448867 0.427796 0 0 -0.000513077
31 1 0.952719 0.833618 0.0422392 0 0 0.093256
32 1 0.496384 0.740548 0.0518325 0 0 -0.127977
33 1 0.507245 0.791981 0.657025 0 0 -0.0100956
34 1 0.676303 0.615592 0.917591 0 0 -0.0932541
35 1 0.371217 0.823827 0.802343 0 0 -0.14521
36 1 0.132637 0.708662 0.907998 0 0 0.127977
37 1 0.819353 0.916984 0.781666 0 0 -0.100584
38 1 0.194792 0.667009 0.532034 0 0 0.000509262
39 1 0.882293 0.875379 0.407034 0 0 -5.34058e-05
40 1 0.0591505 0.698814 0.677751 0 0 -0.0163765
41 1 0.746728 0.907164 0.552797 0 0 5.91278e-05
42 1 0.121777 0.657228 0.302805 0 0 0.0100956
43 1 0.809668 0.865559 0.178164 0 0 0.100584
44 1 0.569871 0.750396 0.282079 0 0 0.0163784
45 1 0.257805 0.958716 0.157487 0 0 0.145208
46 1 0.43423 0.782201 0.427796 0 0 -0.000513077
47 1 0.194792 0.000342332 0.532034 0 0 0.000507355
48 1 0.121777 0.990562 0.302805 0 0 0.0100937
ITEM: TIMESTEP
3
ITEM: NUMBER OF ATOMS
48
ITEM: BOX BOUNDS xy xz yz pp pp pp
-4.5083389282226562e+00 8.6067802309989929e+00 2.5094206929206848e+00
-9.4973444938659668e-03 9.3236122131347656e+00 -4.4963018298149109e+00
-2.8691649436950684e-02 1.9545819282531738e+01 7.1304261684417725e-02
ITEM: ATOMS id type xs ys zs fx fy fz
1 1 0.954123 0.166936 0.0441396 0 0 -0.0116634
2 1 0.494456 0.0739015 0.0492245 0 0 0.0220566
3 1 0.507093 0.125316 0.656819 0 0 -0.057106
4 1 0.674898 0.94894 0.915691 0 0 0.0116634
5 1 0.36903 0.157183 0.799384 0 0 -0.00819778
6 1 0.134565 0.041975 0.910606 0 0 -0.0220566
7 1 0.817838 0.250333 0.779616 0 0 -0.000635147
8 1 0.882292 0.208712 0.407032 0 0 0.00758362
9 1 0.0589041 0.0321494 0.677418 0 0 -0.0602894
10 1 0.746729 0.240498 0.552798 0 0 -0.00758553
11 1 0.811183 0.198876 0.180214 0 0 0.00063324
12 1 0.570118 0.0837267 0.282413 0 0 0.0602894
13 1 0.259992 0.292027 0.160446 0 0 0.00819778
14 1 0.434222 0.115534 0.427786 0 0 0.00772285
15 1 0.954123 0.50027 0.0441395 0 0 -0.0116501
16 1 0.494456 0.407235 0.0492245 0 0 0.0220566
17 1 0.507093 0.458649 0.656819 0 0 -0.0571022
18 1 0.674898 0.282274 0.915691 0 0 0.0116634
19 1 0.36903 0.490516 0.799384 0 0 -0.00819588
20 1 0.134565 0.375308 0.910606 0 0 -0.0220585
21 1 0.817838 0.583667 0.779616 0 0 -0.00063324
22 1 0.1948 0.333675 0.532044 0 0 -0.00771523
23 1 0.882293 0.542045 0.407033 0 0 0.0075798
24 1 0.0589043 0.365483 0.677418 0 0 -0.0602989
25 1 0.746729 0.573831 0.552798 0 0 -0.0075779
26 1 0.121929 0.323894 0.303011 0 0 0.0570984
27 1 0.811183 0.53221 0.180214 0 0 0.000635147
28 1 0.570117 0.41706 0.282412 0 0 0.0602989
29 1 0.259992 0.62536 0.160446 0 0 0.00819206
30 1 0.434222 0.448868 0.427786 0 0 0.00771713
31 1 0.954123 0.833603 0.0441396 0 0 -0.0116577
32 1 0.494456 0.740568 0.0492246 0 0 0.0220566
33 1 0.507093 0.791983 0.656819 0 0 -0.0571041
34 1 0.674898 0.615607 0.915691 0 0 0.0116501
35 1 0.36903 0.823849 0.799384 0 0 -0.00819588
36 1 0.134565 0.708642 0.910606 0 0 -0.0220547
37 1 0.817838 0.917 0.779616 0 0 -0.00063324
38 1 0.1948 0.667009 0.532044 0 0 -0.00771332
39 1 0.882292 0.875379 0.407033 0 0 0.0075798
40 1 0.0589038 0.698816 0.677418 0 0 -0.0602951
41 1 0.746729 0.907164 0.552798 0 0 -0.00758553
42 1 0.121929 0.657227 0.303011 0 0 0.057106
43 1 0.811183 0.865543 0.180214 0 0 0.00063324
44 1 0.570118 0.750393 0.282413 0 0 0.0602932
45 1 0.259992 0.958694 0.160446 0 0 0.00819206
46 1 0.434222 0.782201 0.427786 0 0 0.00771523
47 1 0.194799 0.000342252 0.532044 0 0 -0.00771141
48 1 0.121929 0.99056 0.303011 0 0 0.0571022
ITEM: TIMESTEP
4
ITEM: NUMBER OF ATOMS
48
ITEM: BOX BOUNDS xy xz yz pp pp pp
-4.5083389282226562e+00 8.6067802309989929e+00 2.5094206929206848e+00
-9.4973444938659668e-03 9.3236122131347656e+00 -4.4963018298149109e+00
-2.8691649436950684e-02 1.9545819282531738e+01 7.1304261684417725e-02
ITEM: ATOMS id type xs ys zs fx fy fz
1 1 0.954188 0.166936 0.0442268 0 0 0.00905418
2 1 0.494506 0.073901 0.0492918 0 0 0.0329647
3 1 0.505752 0.12533 0.655006 0 0 0.00766754
4 1 0.674834 0.948941 0.915603 0 0 -0.00904274
5 1 0.368327 0.15719 0.798433 0 0 -0.00669098
6 1 0.134515 0.0419755 0.910538 0 0 -0.0329666
7 1 0.817467 0.250337 0.779114 0 0 -0.0191727
8 1 0.882465 0.20871 0.407266 0 0 0.032402
9 1 0.0574688 0.0321644 0.675476 0 0 0.0102673
10 1 0.746556 0.240499 0.552564 0 0 -0.0323982
11 1 0.811555 0.198872 0.180716 0 0 0.0191669
12 1 0.571553 0.0837118 0.284354 0 0 -0.0102768
13 1 0.260694 0.29202 0.161397 0 0 0.00668907
14 1 0.434397 0.115532 0.428022 0 0 0.0339603
15 1 0.954188 0.500269 0.0442271 0 0 0.00901794
16 1 0.494506 0.407234 0.0492918 0 0 0.0329685
17 1 0.505753 0.458663 0.655006 0 0 0.007658
18 1 0.674833 0.282274 0.915603 0 0 -0.00905991
19 1 0.368327 0.490524 0.798433 0 0 -0.00668907
20 1 0.134515 0.375309 0.910538 0 0 -0.0329647
21 1 0.817467 0.583671 0.779114 0 0 -0.0191765
22 1 0.194625 0.333677 0.531808 0 0 -0.0339603
23 1 0.882466 0.542044 0.407267 0 0 0.0323925
24 1 0.0574688 0.365498 0.675476 0 0 0.0102787
25 1 0.746556 0.573832 0.552564 0 0 -0.0323982
26 1 0.123269 0.32388 0.304824 0 0 -0.0076561
27 1 0.811555 0.532206 0.180716 0 0 0.0191746
28 1 0.571553 0.417045 0.284355 0 0 -0.0102768
29 1 0.260694 0.625353 0.161397 0 0 0.00670624
30 1 0.434396 0.448866 0.428022 0 0 0.0339584
31 1 0.954188 0.833602 0.044227 0 0 0.00903511
32 1 0.494506 0.740568 0.0492918 0 0 0.0329609
33 1 0.505752 0.791997 0.655006 0 0 0.00765991
34 1 0.674833 0.615608 0.915603 0 0 -0.00901794
35 1 0.368327 0.823857 0.798433 0 0 -0.00669289
36 1 0.134515 0.708642 0.910538 0 0 -0.0329647
37 1 0.817467 0.917004 0.779114 0 0 -0.0191708
38 1 0.194625 0.667011 0.531808 0 0 -0.0339622
39 1 0.882465 0.875377 0.407267 0 0 0.0323944
40 1 0.0574683 0.698831 0.675476 0 0 0.0102806
41 1 0.746556 0.907166 0.552564 0 0 -0.0323982
42 1 0.123269 0.657213 0.304824 0 0 -0.00766563
43 1 0.811555 0.865539 0.180716 0 0 0.0191765
44 1 0.571553 0.750378 0.284355 0 0 -0.0102806
45 1 0.260694 0.958686 0.161397 0 0 0.00670052
46 1 0.434396 0.782199 0.428022 0 0 0.0339642
47 1 0.194625 0.000344068 0.531808 0 0 -0.0339584
48 1 0.123269 0.990546 0.304824 0 0 -0.007658
ITEM: TIMESTEP
5
ITEM: NUMBER OF ATOMS
48
ITEM: BOX BOUNDS xy xz yz pp pp pp
-4.5083389282226562e+00 8.6067802309989929e+00 2.5094206929206848e+00
-9.4973444938659668e-03 9.3236122131347656e+00 -4.4963018298149109e+00
-2.8691649436950684e-02 1.9545819282531738e+01 7.1304261684417725e-02
ITEM: ATOMS id type xs ys zs fx fy fz
1 1 0.954341 0.166934 0.0444347 0 0 -0.00291061
2 1 0.495006 0.0738958 0.049969 0 0 0.00871849
3 1 0.505439 0.125333 0.654581 0 0 -0.00110626
4 1 0.67468 0.948943 0.915396 0 0 0.00289917
5 1 0.368005 0.157193 0.797998 0 0 -0.00352478
6 1 0.134015 0.0419807 0.909861 0 0 -0.00871658
7 1 0.817067 0.250341 0.778573 0 0 -0.0118713
8 1 0.882997 0.208705 0.407986 0 0 -0.00813675
9 1 0.0571629 0.0321676 0.675062 0 0 0.00173569
10 1 0.746025 0.240505 0.551845 0 0 0.00813484
11 1 0.811955 0.198868 0.181258 0 0 0.0118694
12 1 0.571859 0.0837086 0.284768 0 0 -0.00172615
13 1 0.261016 0.292016 0.161833 0 0 0.00351715
14 1 0.434952 0.115527 0.428773 0 0 -0.00642395
15 1 0.954341 0.500267 0.0444344 0 0 -0.00287628
16 1 0.495007 0.407229 0.049969 0 0 0.00871849
17 1 0.505439 0.458667 0.654581 0 0 -0.00110817
18 1 0.67468 0.282276 0.915395 0 0 0.00291824
19 1 0.368005 0.490527 0.797998 0 0 -0.00352097
20 1 0.134015 0.375314 0.909861 0 0 -0.00871658
21 1 0.817067 0.583675 0.778572 0 0 -0.0118561
22 1 0.194071 0.333683 0.531058 0 0 0.00641441
23 1 0.882997 0.542038 0.407985 0 0 -0.00812721
24 1 0.057163 0.365501 0.675062 0 0 0.00173378
25 1 0.746025 0.573838 0.551845 0 0 0.00812721
26 1 0.123583 0.323876 0.305249 0 0 0.00110626
27 1 0.811955 0.532202 0.181258 0 0 0.0118542
28 1 0.571859 0.417042 0.284768 0 0 -0.00173759
29 1 0.261016 0.62535 0.161833 0 0 0.00350952
30 1 0.434951 0.44886 0.428773 0 0 -0.00640678
31 1 0.954341 0.833601 0.0444346 0 0 -0.00289154
32 1 0.495006 0.740562 0.049969 0 0 0.00872803
33 1 0.505438 0.792 0.654581 0 0 -0.00110626
34 1 0.67468 0.615609 0.915396 0 0 0.002882
35 1 0.368005 0.82386 0.797998 0 0 -0.00351524
36 1 0.134015 0.708647 0.909861 0 0 -0.00872231
37 1 0.817067 0.917008 0.778573 0 0 -0.0118656
38 1 0.19407 0.667017 0.531058 0 0 0.0064106
39 1 0.882997 0.875371 0.407985 0 0 -0.00812721
40 1 0.0571627 0.698834 0.675062 0 0 0.00172997
41 1 0.746024 0.907171 0.551845 0 0 0.00813866
42 1 0.123583 0.65721 0.305249 0 0 0.00111008
43 1 0.811955 0.865535 0.181258 0 0 0.0118523
44 1 0.571859 0.750375 0.284768 0 0 -0.00172997
45 1 0.261016 0.958683 0.161833 0 0 0.00351715
46 1 0.434951 0.782193 0.428773 0 0 -0.00641441
47 1 0.19407 0.000349847 0.531058 0 0 0.00640106
48 1 0.123583 0.990543 0.305249 0 0 0.00111198
ITEM: TIMESTEP
6
ITEM: NUMBER OF ATOMS
48
ITEM: BOX BOUNDS xy xz yz pp pp pp
-4.5083389282226562e+00 8.6067802309989929e+00 2.5094206929206848e+00
-9.4973444938659668e-03 9.3236122131347656e+00 -4.4963018298149109e+00
-2.8691649436950684e-02 1.9545819282531738e+01 7.1304261684417725e-02
ITEM: ATOMS id type xs ys zs fx fy fz
1 1 0.954308 0.166934 0.0443893 0 0 0.00683784
2 1 0.495189 0.0738939 0.0502159 0 0 0.00200653
3 1 0.505394 0.125334 0.654521 0 0 -0.00159454
4 1 0.674713 0.948942 0.915441 0 0 -0.00682068
5 1 0.367921 0.157194 0.797884 0 0 0.000993729
6 1 0.133832 0.0419826 0.909614 0 0 -0.00200844
7 1 0.816842 0.250344 0.778269 0 0 0.000757217
8 1 0.882912 0.208706 0.40787 0 0 -0.00019455
9 1 0.0571647 0.0321676 0.675064 0 0 -0.000587463
10 1 0.74611 0.240504 0.55196 0 0 0.00019455
11 1 0.812179 0.198866 0.181561 0 0 -0.000751495
12 1 0.571857 0.0837086 0.284766 0 0 0.000579834
13 1 0.2611 0.292015 0.161946 0 0 -0.000984192
14 1 0.434896 0.115527 0.428697 0 0 0.000328064
15 1 0.954308 0.500268 0.0443896 0 0 0.00679398
16 1 0.495189 0.407227 0.050216 0 0 0.00200844
17 1 0.505394 0.458667 0.654521 0 0 -0.00158882
18 1 0.674713 0.282276 0.915441 0 0 -0.00684357
19 1 0.367921 0.490528 0.797884 0 0 0.000988007
20 1 0.133832 0.375316 0.909614 0 0 -0.00200844
21 1 0.816842 0.583677 0.778269 0 0 0.000741959
22 1 0.194126 0.333682 0.531133 0 0 -0.000328064
23 1 0.882912 0.542039 0.40787 0 0 -0.000198364
24 1 0.0571648 0.365501 0.675064 0 0 -0.000581741
25 1 0.74611 0.573837 0.55196 0 0 0.00019455
26 1 0.123627 0.323876 0.305309 0 0 0.00159645
27 1 0.812179 0.532199 0.181561 0 0 -0.000740051
28 1 0.571857 0.417042 0.284766 0 0 0.000585556
29 1 0.2611 0.625349 0.161946 0 0 -0.000984192
30 1 0.434896 0.448861 0.428697 0 0 0.000326157
31 1 0.954308 0.833601 0.0443895 0 0 0.00680923
32 1 0.495189 0.740561 0.0502161 0 0 0.00200081
33 1 0.505394 0.792 0.654521 0 0 -0.00159073
34 1 0.674713 0.615609 0.915441 0 0 -0.00679779
35 1 0.367921 0.823861 0.797884 0 0 0.000986099
36 1 0.133832 0.708649 0.909614 0 0 -0.00200844
37 1 0.816842 0.91701 0.778269 0 0 0.000751495
38 1 0.194126 0.667016 0.531133 0 0 -0.000326157
39 1 0.882912 0.875372 0.40787 0 0 -0.000192642
40 1 0.0571643 0.698834 0.675064 0 0 -0.000583649
41 1 0.74611 0.907171 0.55196 0 0 0.00019455
42 1 0.123627 0.657209 0.305309 0 0 0.00158501
43 1 0.812179 0.865533 0.181561 0 0 -0.000740051
44 1 0.571857 0.750375 0.284766 0 0 0.000581741
45 1 0.2611 0.958682 0.161946 0 0 -0.000982285
46 1 0.434896 0.782194 0.428697 0 0 0.000328064
47 1 0.194125 0.000349271 0.531133 0 0 -0.000318527
48 1 0.123628 0.990543 0.305309 0 0 0.00158501
ITEM: TIMESTEP
7
ITEM: NUMBER OF ATOMS
48
ITEM: BOX BOUNDS xy xz yz pp pp pp
-4.5083389282226562e+00 8.6067802309989929e+00 2.5094206929206848e+00
-9.4973444938659668e-03 9.3236122131347656e+00 -4.4963018298149109e+00
-2.8691649436950684e-02 1.9545819282531738e+01 7.1304261684417725e-02
ITEM: ATOMS id type xs ys zs fx fy fz
1 1 0.954353 0.166934 0.0444512 0 0 -1.33514e-05
2 1 0.495219 0.0738936 0.0502571 0 0 -0.000196457
3 1 0.505379 0.125334 0.6545 0 0 -0.000822067
4 1 0.674668 0.948943 0.915379 0 0 1.33514e-05
5 1 0.367921 0.157194 0.797884 0 0 -0.000806808
6 1 0.133802 0.0419829 0.909573 0 0 0.000192642
7 1 0.816828 0.250344 0.778249 0 0 4.3869e-05
8 1 0.882903 0.208706 0.407858 0 0 0.000747681
9 1 0.0571607 0.0321676 0.675059 0 0 -0.000391006
10 1 0.746119 0.240504 0.551972 0 0 -0.000751495
11 1 0.812194 0.198866 0.181581 0 0 -4.19617e-05
12 1 0.571861 0.0837086 0.284771 0 0 0.000391006
13 1 0.261101 0.292015 0.161947 0 0 0.000810623
14 1 0.434893 0.115527 0.428694 0 0 0.000991821
15 1 0.954354 0.500267 0.0444512 0 0 -2.28882e-05
16 1 0.49522 0.407227 0.0502572 0 0 -0.000200272
17 1 0.505379 0.458667 0.6545 0 0 -0.000818253
18 1 0.674668 0.282276 0.915379 0 0 1.71661e-05
19 1 0.367921 0.490528 0.797884 0 0 -0.000812531
20 1 0.133802 0.375316 0.909573 0 0 0.000198364
21 1 0.816828 0.583677 0.778249 0 0 4.00543e-05
22 1 0.194129 0.333682 0.531136 0 0 -0.000988007
23 1 0.882903 0.542039 0.407858 0 0 0.000743866
24 1 0.0571608 0.365501 0.675059 0 0 -0.000392914
25 1 0.746119 0.573837 0.551972 0 0 -0.000747681
26 1 0.123643 0.323876 0.30533 0 0 0.000823975
27 1 0.812194 0.532199 0.181581 0 0 -4.00543e-05
28 1 0.571861 0.417042 0.284771 0 0 0.000398636
29 1 0.261101 0.625349 0.161946 0 0 0.000810623
30 1 0.434893 0.448861 0.428694 0 0 0.000984192
31 1 0.954354 0.833601 0.0444512 0 0 -1.52588e-05
32 1 0.49522 0.74056 0.0502573 0 0 -0.000198364
33 1 0.505379 0.792 0.6545 0 0 -0.00082016
34 1 0.674668 0.615609 0.915379 0 0 2.28882e-05
35 1 0.367921 0.823861 0.797884 0 0 -0.000812531
36 1 0.133802 0.70865 0.909573 0 0 0.000198364
37 1 0.816828 0.91701 0.778249 0 0 4.00543e-05
38 1 0.194128 0.667016 0.531136 0 0 -0.000991821
39 1 0.882903 0.875372 0.407858 0 0 0.000745773
40 1 0.0571603 0.698834 0.675059 0 0 -0.000394821
41 1 0.746119 0.90717 0.551972 0 0 -0.000745773
42 1 0.123643 0.657209 0.30533 0 0 0.000822067
43 1 0.812194 0.865532 0.181581 0 0 -3.8147e-05
44 1 0.571861 0.750375 0.284771 0 0 0.000392914
45 1 0.261101 0.958682 0.161947 0 0 0.000808716
46 1 0.434893 0.782194 0.428694 0 0 0.000993729
47 1 0.194128 0.000349243 0.531136 0 0 -0.000984192
48 1 0.123643 0.990542 0.30533 0 0 0.000814438
ITEM: TIMESTEP
8
ITEM: NUMBER OF ATOMS
48
ITEM: BOX BOUNDS xy xz yz pp pp pp
-4.5083389282226562e+00 8.6067802309989929e+00 2.5094206929206848e+00
-9.4973444938659668e-03 9.3236122131347656e+00 -4.4963018298149109e+00
-2.8691649436950684e-02 1.9545819282531738e+01 7.1304261684417725e-02
ITEM: ATOMS id type xs ys zs fx fy fz
1 1 0.95436 0.166934 0.0444601 0 0 -0.000444412
2 1 0.49522 0.0738936 0.0502574 0 0 -6.86646e-05
3 1 0.505358 0.125334 0.654472 0 0 -0.000337601
4 1 0.674661 0.948943 0.91537 0 0 0.00043869
5 1 0.367903 0.157195 0.797859 0 0 -0.000165939
6 1 0.133801 0.0419829 0.909573 0 0 7.24792e-05
7 1 0.816827 0.250344 0.778248 0 0 -0.000543594
8 1 0.882918 0.208706 0.407879 0 0 -0.000406265
9 1 0.0571513 0.0321677 0.675046 0 0 -0.000732422
10 1 0.746103 0.240504 0.551951 0 0 0.000408173
11 1 0.812195 0.198866 0.181583 0 0 0.000543594
12 1 0.57187 0.0837085 0.284784 0 0 0.000730515
13 1 0.261119 0.292015 0.161971 0 0 0.000167847
14 1 0.434915 0.115527 0.428723 0 0 -0.000394821
15 1 0.95436 0.500267 0.0444598 0 0 -0.000415802
16 1 0.49522 0.407227 0.0502573 0 0 -6.10352e-05
17 1 0.505358 0.458667 0.654472 0 0 -0.000350952
18 1 0.674661 0.282276 0.91537 0 0 0.00043869
19 1 0.367903 0.490528 0.797859 0 0 -0.00015831
20 1 0.133802 0.375316 0.909573 0 0 5.72205e-05
21 1 0.816827 0.583677 0.778248 0 0 -0.000535965
22 1 0.194107 0.333683 0.531107 0 0 0.000389099
23 1 0.882918 0.542039 0.407879 0 0 -0.000408173
24 1 0.0571514 0.365501 0.675046 0 0 -0.000734329
25 1 0.746103 0.573837 0.551951 0 0 0.000415802
26 1 0.123664 0.323876 0.305358 0 0 0.000339508
27 1 0.812195 0.532199 0.181583 0 0 0.000537872
28 1 0.571871 0.417042 0.284784 0 0 0.000720978
29 1 0.261119 0.625348 0.161971 0 0 0.00015831
30 1 0.434915 0.44886 0.428723 0 0 -0.000385284
31 1 0.95436 0.8336 0.04446 0 0 -0.000434875
32 1 0.49522 0.74056 0.0502575 0 0 -6.48499e-05
33 1 0.505358 0.792001 0.654472 0 0 -0.00034523
34 1 0.674661 0.615609 0.91537 0 0 0.000415802
35 1 0.367903 0.823861 0.797859 0 0 -0.000162125
36 1 0.133802 0.70865 0.909573 0 0 6.86646e-05
37 1 0.816827 0.91701 0.778248 0 0 -0.00053978
38 1 0.194107 0.667016 0.531107 0 0 0.000394821
39 1 0.882918 0.875372 0.407879 0 0 -0.000413895
40 1 0.0571509 0.698834 0.675046 0 0 -0.000717163
41 1 0.746103 0.907171 0.551951 0 0 0.000404358
42 1 0.123663 0.657209 0.305358 0 0 0.000347137
43 1 0.812195 0.865532 0.181583 0 0 0.00053978
44 1 0.57187 0.750375 0.284784 0 0 0.000730515
45 1 0.261119 0.958682 0.161971 0 0 0.000164032
46 1 0.434915 0.782194 0.428723 0 0 -0.000400543
47 1 0.194106 0.000349469 0.531107 0 0 0.000389099
48 1 0.123663 0.990542 0.305358 0 0 0.000349045
ITEM: TIMESTEP
9
ITEM: NUMBER OF ATOMS
48
ITEM: BOX BOUNDS xy xz yz pp pp pp
-4.5083389282226562e+00 8.6067802309989929e+00 2.5094206929206848e+00
-9.4973444938659668e-03 9.3236122131347656e+00 -4.4963018298149109e+00
-2.8691649436950684e-02 1.9545819282531738e+01 7.1304261684417725e-02
ITEM: ATOMS id type xs ys zs fx fy fz
1 1 0.954356 0.166934 0.0444547 0 0 0.00053978
2 1 0.495219 0.0738936 0.0502562 0 0 0.000225067
3 1 0.505348 0.125334 0.654458 0 0 7.82013e-05
4 1 0.674665 0.948943 0.915375 0 0 -0.000535965
5 1 0.367895 0.157195 0.797849 0 0 7.43866e-05
6 1 0.133802 0.0419829 0.909574 0 0 -0.000221252
7 1 0.816819 0.250344 0.778237 0 0 -0.000268936
8 1 0.882917 0.208706 0.407878 0 0 1.52588e-05
9 1 0.057139 0.0321678 0.67503 0 0 -0.000148773
10 1 0.746104 0.240504 0.551952 0 0 -3.8147e-06
11 1 0.812202 0.198866 0.181593 0 0 0.000267029
12 1 0.571883 0.0837083 0.284801 0 0 0.000144958
13 1 0.261126 0.292015 0.161981 0 0 -7.82013e-05
14 1 0.434916 0.115527 0.428725 0 0 -9.53674e-05
15 1 0.954356 0.500267 0.0444548 0 0 0.000530243
16 1 0.495219 0.407227 0.0502563 0 0 0.000228882
17 1 0.505348 0.458667 0.654458 0 0 8.2016e-05
18 1 0.674665 0.282276 0.915376 0 0 -0.000545502
19 1 0.367895 0.490528 0.797849 0 0 7.62939e-05
20 1 0.133802 0.375316 0.909574 0 0 -0.000219345
21 1 0.816819 0.583677 0.778238 0 0 -0.000265121
22 1 0.194106 0.333683 0.531105 0 0 9.53674e-05
23 1 0.882917 0.542039 0.407878 0 0 1.33514e-05
24 1 0.057139 0.365501 0.67503 0 0 -0.000144958
25 1 0.746104 0.573837 0.551953 0 0 -1.52588e-05
26 1 0.123674 0.323875 0.305372 0 0 -8.2016e-05
27 1 0.812202 0.532199 0.181593 0 0 0.000265121
28 1 0.571883 0.417042 0.284801 0 0 0.000139236
29 1 0.261126 0.625348 0.161981 0 0 -6.86646e-05
30 1 0.434916 0.44886 0.428725 0 0 -9.34601e-05
31 1 0.954356 0.833601 0.0444547 0 0 0.000541687
32 1 0.495219 0.74056 0.0502563 0 0 0.000228882
33 1 0.505348 0.792001 0.654458 0 0 8.2016e-05
34 1 0.674665 0.615609 0.915375 0 0 -0.00053215
35 1 0.367895 0.823861 0.797849 0 0 7.82013e-05
36 1 0.133802 0.70865 0.909574 0 0 -0.000228882
37 1 0.816819 0.917011 0.778237 0 0 -0.000265121
38 1 0.194106 0.667016 0.531105 0 0 9.72748e-05
39 1 0.882917 0.875372 0.407878 0 0 1.71661e-05
40 1 0.0571387 0.698835 0.67503 0 0 -0.000148773
41 1 0.746104 0.907171 0.551953 0 0 -1.33514e-05
42 1 0.123674 0.657209 0.305372 0 0 -8.2016e-05
43 1 0.812202 0.865532 0.181593 0 0 0.000255585
44 1 0.571883 0.750375 0.284801 0 0 0.000143051
45 1 0.261126 0.958682 0.161981 0 0 -7.43866e-05
46 1 0.434916 0.782194 0.428725 0 0 -0.000101089
47 1 0.194105 0.000349479 0.531106 0 0 9.34601e-05
48 1 0.123674 0.990542 0.305372 0 0 -8.01086e-05
ITEM: TIMESTEP
10
ITEM: NUMBER OF ATOMS
48
ITEM: BOX BOUNDS xy xz yz pp pp pp
-4.5083389282226562e+00 8.6067802309989929e+00 2.5094206929206848e+00
-9.4973444938659668e-03 9.3236122131347656e+00 -4.4963018298149109e+00
-2.8691649436950684e-02 1.9545819282531738e+01 7.1304261684417725e-02
ITEM: ATOMS id type xs ys zs fx fy fz
1 1 0.954356 0.166934 0.0444547 0 0 0.00053978
2 1 0.495219 0.0738936 0.0502562 0 0 0.000225067
3 1 0.505348 0.125334 0.654458 0 0 7.82013e-05
4 1 0.674665 0.948943 0.915375 0 0 -0.000535965
5 1 0.367895 0.157195 0.797849 0 0 7.43866e-05
6 1 0.133802 0.0419829 0.909574 0 0 -0.000221252
7 1 0.816819 0.250344 0.778237 0 0 -0.000268936
8 1 0.882917 0.208706 0.407878 0 0 1.52588e-05
9 1 0.057139 0.0321678 0.67503 0 0 -0.000148773
10 1 0.746104 0.240504 0.551952 0 0 -3.8147e-06
11 1 0.812202 0.198866 0.181593 0 0 0.000267029
12 1 0.571883 0.0837083 0.284801 0 0 0.000144958
13 1 0.261126 0.292015 0.161981 0 0 -7.82013e-05
14 1 0.434916 0.115527 0.428725 0 0 -9.53674e-05
15 1 0.954356 0.500267 0.0444548 0 0 0.000530243
16 1 0.495219 0.407227 0.0502563 0 0 0.000228882
17 1 0.505348 0.458667 0.654458 0 0 8.2016e-05
18 1 0.674665 0.282276 0.915376 0 0 -0.000545502
19 1 0.367895 0.490528 0.797849 0 0 7.62939e-05
20 1 0.133802 0.375316 0.909574 0 0 -0.000219345
21 1 0.816819 0.583677 0.778238 0 0 -0.000265121
22 1 0.194106 0.333683 0.531105 0 0 9.53674e-05
23 1 0.882917 0.542039 0.407878 0 0 1.33514e-05
24 1 0.057139 0.365501 0.67503 0 0 -0.000144958
25 1 0.746104 0.573837 0.551953 0 0 -1.52588e-05
26 1 0.123674 0.323875 0.305372 0 0 -8.2016e-05
27 1 0.812202 0.532199 0.181593 0 0 0.000265121
28 1 0.571883 0.417042 0.284801 0 0 0.000139236
29 1 0.261126 0.625348 0.161981 0 0 -6.86646e-05
30 1 0.434916 0.44886 0.428725 0 0 -9.34601e-05
31 1 0.954356 0.833601 0.0444547 0 0 0.000541687
32 1 0.495219 0.74056 0.0502563 0 0 0.000228882
33 1 0.505348 0.792001 0.654458 0 0 8.2016e-05
34 1 0.674665 0.615609 0.915375 0 0 -0.00053215
35 1 0.367895 0.823861 0.797849 0 0 7.82013e-05
36 1 0.133802 0.70865 0.909574 0 0 -0.000228882
37 1 0.816819 0.917011 0.778237 0 0 -0.000265121
38 1 0.194106 0.667016 0.531105 0 0 9.72748e-05
39 1 0.882917 0.875372 0.407878 0 0 1.71661e-05
40 1 0.0571387 0.698835 0.67503 0 0 -0.000148773
41 1 0.746104 0.907171 0.551953 0 0 -1.33514e-05
42 1 0.123674 0.657209 0.305372 0 0 -8.2016e-05
43 1 0.812202 0.865532 0.181593 0 0 0.000255585
44 1 0.571883 0.750375 0.284801 0 0 0.000143051
45 1 0.261126 0.958682 0.161981 0 0 -7.43866e-05
46 1 0.434916 0.782194 0.428725 0 0 -0.000101089
47 1 0.194105 0.000349479 0.531106 0 0 9.34601e-05
48 1 0.123674 0.990542 0.305372 0 0 -8.01086e-05
