ITEM: TIMESTEP
0
ITEM: NUMBER OF ATOMS
48
ITEM: BOX BOUNDS xy xz yz pp pp pp
-5.7843897938728333e+00 8.6109705567359924e+00 2.5110912919044495e+00
-1.0506033897399902e-02 9.6185076832771301e+00 -5.7698329687118530e+00
-2.6944518089294434e-02 1.9544072151184082e+01 3.6519104242324829e-01
ITEM: ATOMS id type xs ys zs fx fy fz
1 1 0.952336 0.165578 0.0319985 0 0 2.50312
2 1 0.509071 0.0752984 0.0528317 0 0 0.200644
3 1 0.654382 0.123911 0.656998 0 0 -0.00287461
4 1 0.891936 0.950298 0.927832 0 0 -2.50312
5 1 0.551527 0.158632 0.802832 0 0 0.00478816
6 1 0.335201 0.040578 0.906998 0 0 -0.200645
7 1 0.994792 0.248911 0.781998 0 0 0.0159914
8 1 0.973564 0.207245 0.406998 0 0 0.000474691
9 1 0.211117 0.0336318 0.677832 0 0 -0.00656879
10 1 0.870708 0.241965 0.552832 0 0 -0.000474334
11 1 0.84948 0.200298 0.177832 0 0 -0.015991
12 1 0.633155 0.0822446 0.281998 0 0 0.00656891
13 1 0.292746 0.290578 0.156998 0 0 -0.00478876
14 1 0.530299 0.116965 0.427832 0 0 0.00035274
15 1 0.952336 0.498911 0.0319984 0 0 2.50312
16 1 0.509071 0.408632 0.0528317 0 0 0.200644
17 1 0.654382 0.457245 0.656998 0 0 -0.00287485
18 1 0.891936 0.283632 0.927832 0 0 -2.50312
19 1 0.551527 0.491965 0.802832 0 0 0.0047884
20 1 0.335201 0.373911 0.906998 0 0 -0.200644
21 1 0.994792 0.582245 0.781998 0 0 0.0159909
22 1 0.313973 0.332245 0.531998 0 0 -0.000351787
23 1 0.973564 0.540578 0.406998 0 0 0.000474691
24 1 0.211117 0.366965 0.677832 0 0 -0.00656867
25 1 0.870708 0.575298 0.552832 0 0 -0.000474811
26 1 0.18989 0.325298 0.302832 0 0 0.00287449
27 1 0.84948 0.533632 0.177832 0 0 -0.0159916
28 1 0.633155 0.415578 0.281998 0 0 0.00656879
29 1 0.292746 0.623911 0.156998 0 0 -0.00478899
30 1 0.530299 0.450298 0.427832 0 0 0.000352144
31 1 0.952336 0.832245 0.0319985 0 0 2.50312
32 1 0.509071 0.741965 0.0528317 0 0 0.200645
33 1 0.654382 0.790578 0.656998 0 0 -0.00287473
34 1 0.891936 0.616965 0.927832 0 0 -2.50312
35 1 0.551527 0.825298 0.802832 0 0 0.00478852
36 1 0.335201 0.707245 0.906998 0 0 -0.200644
37 1 0.994792 0.915578 0.781998 0 0 0.0159906
38 1 0.313973 0.665578 0.531998 0 0 -0.000352979
39 1 0.973564 0.873911 0.406998 0 0 0.00047493
40 1 0.211117 0.700298 0.677832 0 0 -0.00656819
41 1 0.870708 0.908632 0.552832 0 0 -0.000475645
42 1 0.18989 0.658632 0.302832 0 0 0.00287485
43 1 0.84948 0.866965 0.177832 0 0 -0.0159912
44 1 0.633155 0.748911 0.281998 0 0 0.00656879
45 1 0.292745 0.957245 0.156998 0 0 -0.00478888
46 1 0.530299 0.783632 0.427832 0 0 0.00035274
47 1 0.313973 0.998911 0.531998 0 0 -0.000352502
48 1 0.18989 0.991965 0.302832 0 0 0.00287497
ITEM: TIMESTEP
1
ITEM: NUMBER OF ATOMS
48
ITEM: BOX BOUNDS xy xz yz pp pp pp
-5.7843897938728333e+00 8.6109705567359924e+00 2.5110912919044495e+00
-1.0506033897399902e-02 9.6185076832771301e+00 -5.7698329687118530e+00
-2.6944518089294434e-02 1.9544072151184082e+01 3.6519104242324829e-01
ITEM: ATOMS id type xs ys zs fx fy fz
1 1 0.957241 0.165377 0.037108 0 0 1.25185
2 1 0.509464 0.0752823 0.0532413 0 0 0.163064
3 1 0.654377 0.123912 0.656993 0 0 -0.00756824
4 1 0.887031 0.9505 0.922722 0 0 -1.25185
5 1 0.551536 0.158631 0.802841 0 0 -0.082197
6 1 0.334808 0.0405941 0.906589 0 0 -0.163064
7 1 0.994823 0.24891 0.782031 0 0 -0.0536954
8 1 0.973565 0.207245 0.406999 0 0 -0.000685334
9 1 0.211104 0.0336323 0.677818 0 0 -0.0112671
10 1 0.870707 0.241965 0.552831 0 0 0.000685573
11 1 0.849449 0.2003 0.177799 0 0 0.0536956
12 1 0.633168 0.0822441 0.282012 0 0 0.0112671
13 1 0.292736 0.290578 0.156989 0 0 0.0821964
14 1 0.530299 0.116965 0.427832 0 0 -0.000654936
15 1 0.957241 0.49871 0.037108 0 0 1.25185
16 1 0.509464 0.408616 0.0532413 0 0 0.163064
17 1 0.654377 0.457245 0.656993 0 0 -0.00756836
18 1 0.887031 0.283833 0.922722 0 0 -1.25185
19 1 0.551536 0.491965 0.802841 0 0 -0.082197
20 1 0.334808 0.373927 0.906589 0 0 -0.163064
21 1 0.994823 0.582243 0.782031 0 0 -0.0536959
22 1 0.313972 0.332245 0.531998 0 0 0.000655413
23 1 0.973565 0.540578 0.406999 0 0 -0.000685334
24 1 0.211104 0.366966 0.677818 0 0 -0.0112665
25 1 0.870707 0.575298 0.552831 0 0 0.000685453
26 1 0.189895 0.325298 0.302838 0 0 0.00756812
27 1 0.849449 0.533633 0.177799 0 0 0.0536951
28 1 0.633168 0.415577 0.282012 0 0 0.0112668
29 1 0.292736 0.623912 0.156989 0 0 0.0821964
30 1 0.5303 0.450298 0.427832 0 0 -0.000655293
31 1 0.957241 0.832043 0.037108 0 0 1.25185
32 1 0.509464 0.741949 0.0532413 0 0 0.163064
33 1 0.654377 0.790578 0.656993 0 0 -0.00756812
34 1 0.887031 0.617167 0.922722 0 0 -1.25185
35 1 0.551536 0.825298 0.802841 0 0 -0.0821967
36 1 0.334808 0.707261 0.906589 0 0 -0.163064
37 1 0.994823 0.915577 0.782031 0 0 -0.0536958
38 1 0.313972 0.665578 0.531998 0 0 0.000655174
39 1 0.973565 0.873911 0.406999 0 0 -0.000685096
40 1 0.211104 0.700299 0.677818 0 0 -0.0112661
41 1 0.870707 0.908632 0.552831 0 0 0.0006845
42 1 0.189895 0.658631 0.302838 0 0 0.00756824
43 1 0.849449 0.866966 0.177799 0 0 0.0536956
44 1 0.633168 0.748911 0.282012 0 0 0.0112671
45 1 0.292736 0.957245 0.156989 0 0 0.0821965
46 1 0.5303 0.783632 0.427832 0 0 -0.000654936
47 1 0.313972 0.998911 0.531998 0 0 0.000654936
48 1 0.189895 0.991965 0.302838 0 0 0.0075686
ITEM: TIMESTEP
2
ITEM: NUMBER OF ATOMS
48
ITEM: BOX BOUNDS xy xz yz pp pp pp
-5.7843897938728333e+00 8.6109705567359924e+00 2.5110912919044495e+00
-1.0506033897399902e-02 9.6185076832771301e+00 -5.7698329687118530e+00
-2.6944518089294434e-02 1.9544072151184082e+01 3.6519104242324829e-01
ITEM: ATOMS id type xs ys zs fx fy fz
1 1 0.962145 0.165175 0.0422176 0 0 0.334862
2 1 0.510103 0.075256 0.0539069 0 0 0.104234
3 1 0.654347 0.123913 0.656962 0 0 -0.013733
4 1 0.882127 0.950701 0.917613 0 0 -0.334861
5 1 0.551214 0.158645 0.802506 0 0 -0.171965
6 1 0.334169 0.0406204 0.905923 0 0 -0.104234
7 1 0.994613 0.248919 0.781812 0 0 -0.135138
8 1 0.973562 0.207245 0.406997 0 0 -0.000481486
9 1 0.21106 0.0336341 0.677772 0 0 -0.0191647
10 1 0.87071 0.241965 0.552834 0 0 0.000481129
11 1 0.849659 0.200291 0.178018 0 0 0.135137
12 1 0.633212 0.0822423 0.282058 0 0 0.0191644
13 1 0.293058 0.290565 0.157324 0 0 0.171965
14 1 0.530297 0.116965 0.42783 0 0 -0.000133514
15 1 0.962145 0.498508 0.0422176 0 0 0.334862
16 1 0.510103 0.408589 0.0539069 0 0 0.104234
17 1 0.654347 0.457246 0.656962 0 0 -0.0137334
18 1 0.882127 0.284035 0.917613 0 0 -0.334861
19 1 0.551214 0.491978 0.802506 0 0 -0.171965
20 1 0.334169 0.373954 0.905923 0 0 -0.104234
21 1 0.994613 0.582252 0.781812 0 0 -0.135138
22 1 0.313975 0.332245 0.532 0 0 0.000133991
23 1 0.973562 0.540578 0.406997 0 0 -0.000481486
24 1 0.21106 0.366967 0.677772 0 0 -0.0191641
25 1 0.87071 0.575298 0.552834 0 0 0.000481248
26 1 0.189925 0.325297 0.302868 0 0 0.0137329
27 1 0.849659 0.533624 0.178018 0 0 0.135137
28 1 0.633212 0.415576 0.282058 0 0 0.0191644
29 1 0.293058 0.623898 0.157324 0 0 0.171965
30 1 0.530297 0.450298 0.42783 0 0 -0.000133753
31 1 0.962145 0.831842 0.0422176 0 0 0.334862
32 1 0.510103 0.741923 0.0539069 0 0 0.104234
33 1 0.654347 0.790579 0.656962 0 0 -0.0137334
34 1 0.882127 0.617368 0.917613 0 0 -0.334861
35 1 0.551214 0.825311 0.802506 0 0 -0.171965
36 1 0.334169 0.707287 0.905923 0 0 -0.104234
37 1 0.994613 0.915585 0.781812 0 0 -0.135138
38 1 0.313975 0.665578 0.532 0 0 0.000133753
39 1 0.973562 0.873911 0.406997 0 0 -0.000480652
40 1 0.21106 0.700301 0.677772 0 0 -0.019164
41 1 0.87071 0.908632 0.552834 0 0 0.000481129
42 1 0.189925 0.65863 0.302868 0 0 0.013733
43 1 0.849659 0.866958 0.178018 0 0 0.135138
44 1 0.633212 0.748909 0.282058 0 0 0.0191646
45 1 0.293058 0.957232 0.157324 0 0 0.171965
46 1 0.530297 0.783632 0.42783 0 0 -0.000133753
47 1 0.313975 0.998911 0.532 0 0 0.000133514
48 1 0.189925 0.991964 0.302868 0 0 0.013733
ITEM: TIMESTEP
3
ITEM: NUMBER OF ATOMS
48
ITEM: BOX BOUNDS xy xz yz pp pp pp
-5.7843897938728333e+00 8.6109705567359924e+00 2.5110912919044495e+00
-1.0506033897399902e-02 9.6185076832771301e+00 -5.7698329687118530e+00
-2.6944518089294434e-02 1.9544072151184082e+01 3.6519104242324829e-01
ITEM: ATOMS id type xs ys zs fx fy fz
1 1 0.966102 0.165013 0.04634 0 0 -0.166842
2 1 0.511335 0.0752054 0.0551901 0 0 0.0303612
3 1 0.654185 0.123919 0.656793 0 0 -0.0516008
4 1 0.87817 0.950864 0.91349 0 0 0.166842
5 1 0.549182 0.158728 0.800389 0 0 -0.155621
6 1 0.332937 0.0406709 0.90464 0 0 -0.0303613
7 1 0.993016 0.248984 0.780148 0 0 -0.141231
8 1 0.973557 0.207245 0.406991 0 0 0.0062356
9 1 0.210834 0.0336434 0.677536 0 0 -0.0548494
10 1 0.870715 0.241965 0.552839 0 0 -0.0062356
11 1 0.851256 0.200225 0.179682 0 0 0.141231
12 1 0.633438 0.082233 0.282294 0 0 0.0548493
13 1 0.29509 0.290482 0.159441 0 0 0.155621
14 1 0.530295 0.116965 0.427828 0 0 0.00801158
15 1 0.966102 0.498346 0.04634 0 0 -0.166842
16 1 0.511335 0.408539 0.0551901 0 0 0.0303612
17 1 0.654185 0.457253 0.656793 0 0 -0.0516009
18 1 0.87817 0.284197 0.91349 0 0 0.166842
19 1 0.549182 0.492061 0.800389 0 0 -0.155621
20 1 0.332937 0.374004 0.90464 0 0 -0.0303612
21 1 0.993016 0.582318 0.780148 0 0 -0.141232
22 1 0.313977 0.332244 0.532002 0 0 -0.00801146
23 1 0.973557 0.540578 0.406991 0 0 0.00623524
24 1 0.210834 0.366977 0.677536 0 0 -0.0548494
25 1 0.870715 0.575298 0.552839 0 0 -0.00623536
26 1 0.190087 0.32529 0.303038 0 0 0.0516011
27 1 0.851256 0.533559 0.179682 0 0 0.141231
28 1 0.633438 0.415566 0.282294 0 0 0.0548494
29 1 0.29509 0.623815 0.159441 0 0 0.155621
30 1 0.530295 0.450299 0.427828 0 0 0.00801146
31 1 0.966102 0.831679 0.04634 0 0 -0.166842
32 1 0.511335 0.741872 0.0551901 0 0 0.0303612
33 1 0.654185 0.790586 0.656793 0 0 -0.0516008
34 1 0.87817 0.61753 0.91349 0 0 0.166842
35 1 0.549182 0.825395 0.800389 0 0 -0.155621
36 1 0.332937 0.707338 0.90464 0 0 -0.0303612
37 1 0.993016 0.915651 0.780148 0 0 -0.141232
38 1 0.313977 0.665578 0.532002 0 0 -0.0080117
39 1 0.973557 0.873912 0.406991 0 0 0.00623536
40 1 0.210834 0.70031 0.677536 0 0 -0.0548491
41 1 0.870715 0.908631 0.552839 0 0 -0.0062356
42 1 0.190087 0.658624 0.303038 0 0 0.0516009
43 1 0.851256 0.866892 0.179682 0 0 0.141231
44 1 0.633438 0.7489 0.282294 0 0 0.0548495
45 1 0.29509 0.957148 0.159441 0 0 0.155621
46 1 0.530295 0.783632 0.427828 0 0 0.00801182
47 1 0.313977 0.998911 0.532002 0 0 -0.00801146
48 1 0.190087 0.991957 0.303038 0 0 0.0516012
ITEM: TIMESTEP
4
ITEM: NUMBER OF ATOMS
48
ITEM: BOX BOUNDS xy xz yz pp pp pp
-5.7843897938728333e+00 8.6109705567359924e+00 2.5110912919044495e+00
-1.0506033897399902e-02 9.6185076832771301e+00 -5.7698329687118530e+00
-2.6944518089294434e-02 1.9544072151184082e+01 3.6519104242324829e-01
ITEM: ATOMS id type xs ys zs fx fy fz
1 1 0.966053 0.165015 0.0462889 0 0 -0.0106878
2 1 0.512615 0.0751528 0.0565245 0 0 0.00972474
3 1 0.653266 0.123957 0.655836 0 0 -0.102847
4 1 0.878219 0.950862 0.913541 0 0 0.0106877
5 1 0.545407 0.158883 0.796456 0 0 0.0449693
6 1 0.331657 0.0407235 0.903306 0 0 -0.00972497
7 1 0.989751 0.249118 0.776747 0 0 0.0174828
8 1 0.973651 0.207241 0.407089 0 0 0.023948
9 1 0.209822 0.0336849 0.676483 0 0 -0.0973166
10 1 0.870621 0.241969 0.552741 0 0 -0.0239478
11 1 0.854521 0.200091 0.183084 0 0 -0.0174828
12 1 0.63445 0.0821914 0.283348 0 0 0.097317
13 1 0.298865 0.290327 0.163374 0 0 -0.044969
14 1 0.530421 0.11696 0.427958 0 0 0.0280434
15 1 0.966053 0.498348 0.0462889 0 0 -0.0106878
16 1 0.512615 0.408486 0.0565245 0 0 0.00972497
17 1 0.653266 0.45729 0.655836 0 0 -0.102847
18 1 0.878219 0.284195 0.913541 0 0 0.0106876
19 1 0.545407 0.492216 0.796456 0 0 0.0449692
20 1 0.331657 0.374057 0.903306 0 0 -0.00972509
21 1 0.989751 0.582452 0.776747 0 0 0.0174834
22 1 0.313851 0.33225 0.531872 0 0 -0.0280436
23 1 0.973651 0.540574 0.407089 0 0 0.0239486
24 1 0.209822 0.367018 0.676483 0 0 -0.0973171
25 1 0.870621 0.575302 0.552741 0 0 -0.0239482
26 1 0.191006 0.325253 0.303994 0 0 0.102847
27 1 0.854521 0.533425 0.183084 0 0 -0.0174825
28 1 0.63445 0.415525 0.283348 0 0 0.0973165
29 1 0.298865 0.62366 0.163374 0 0 -0.0449688
30 1 0.530421 0.450293 0.427958 0 0 0.0280435
31 1 0.966053 0.831681 0.0462889 0 0 -0.0106878
32 1 0.512615 0.741819 0.0565245 0 0 0.00972462
33 1 0.653266 0.790624 0.655836 0 0 -0.102847
34 1 0.878219 0.617528 0.913541 0 0 0.0106875
35 1 0.545407 0.82555 0.796456 0 0 0.044969
36 1 0.331657 0.70739 0.903306 0 0 -0.00972509
37 1 0.989751 0.915785 0.776747 0 0 0.0174829
38 1 0.313851 0.665583 0.531872 0 0 -0.0280433
39 1 0.973651 0.873908 0.407089 0 0 0.023948
40 1 0.209822 0.700352 0.676483 0 0 -0.0973172
41 1 0.870621 0.908635 0.552741 0 0 -0.0239483
42 1 0.191006 0.658586 0.303994 0 0 0.102847
43 1 0.854521 0.866758 0.183084 0 0 -0.0174826
44 1 0.63445 0.748858 0.283348 0 0 0.0973169
45 1 0.298865 0.956993 0.163374 0 0 -0.0449685
46 1 0.530421 0.783627 0.427958 0 0 0.0280434
47 1 0.313851 0.998916 0.531872 0 0 -0.0280433
48 1 0.191006 0.991919 0.303994 0 0 0.102847
ITEM: TIMESTEP
5
ITEM: NUMBER OF ATOMS
48
ITEM: BOX BOUNDS xy xz yz pp pp pp
-5.7843897938728333e+00 8.6109705567359924e+00 2.5110912919044495e+00
-1.0506033897399902e-02 9.6185076832771301e+00 -5.7698329687118530e+00
-2.6944518089294434e-02 1.9544072151184082e+01 3.6519104242324829e-01
ITEM: ATOMS id type xs ys zs fx fy fz
1 1 0.965803 0.165025 0.0460286 0 0 0.0419977
2 1 0.513283 0.0751254 0.0572204 0 0 -0.0184503
3 1 0.650703 0.124062 0.653165 0 0 0.00616503
4 1 0.878469 0.950852 0.913802 0 0 -0.0419977
5 1 0.545039 0.158898 0.796073 0 0 -0.00665188
6 1 0.330989 0.040751 0.90261 0 0 0.0184504
7 1 0.988967 0.249151 0.77593 0 0 -0.00749683
8 1 0.974205 0.207218 0.407667 0 0 0.0380876
9 1 0.207346 0.0337866 0.673903 0 0 0.011575
10 1 0.870067 0.241991 0.552163 0 0 -0.0380878
11 1 0.855305 0.200059 0.1839 0 0 0.00749648
12 1 0.636926 0.0820897 0.285928 0 0 -0.0115747
13 1 0.299233 0.290311 0.163757 0 0 0.00665164
14 1 0.531075 0.116933 0.42864 0 0 0.0439106
15 1 0.965803 0.498358 0.0460286 0 0 0.0419974
16 1 0.513283 0.408459 0.0572204 0 0 -0.0184504
17 1 0.650703 0.457396 0.653165 0 0 0.00616491
18 1 0.878469 0.284185 0.913802 0 0 -0.0419973
19 1 0.545039 0.492232 0.796073 0 0 -0.00665188
20 1 0.330989 0.374084 0.90261 0 0 0.0184505
21 1 0.988967 0.582484 0.77593 0 0 -0.00749695
22 1 0.313197 0.332277 0.53119 0 0 -0.0439105
23 1 0.974205 0.540552 0.407667 0 0 0.0380877
24 1 0.207346 0.36712 0.673903 0 0 0.011575
25 1 0.870067 0.575325 0.552163 0 0 -0.0380876
26 1 0.193569 0.325147 0.306665 0 0 -0.00616455
27 1 0.855305 0.533392 0.1839 0 0 0.00749624
28 1 0.636926 0.415423 0.285928 0 0 -0.0115744
29 1 0.299233 0.623645 0.163757 0 0 0.0066514
30 1 0.531075 0.450267 0.42864 0 0 0.0439107
31 1 0.965803 0.831692 0.0460286 0 0 0.0419974
32 1 0.513283 0.741792 0.0572204 0 0 -0.0184504
33 1 0.650703 0.790729 0.653165 0 0 0.00616503
34 1 0.878469 0.617518 0.913802 0 0 -0.041997
35 1 0.545039 0.825565 0.796073 0 0 -0.00665188
36 1 0.330989 0.707418 0.90261 0 0 0.0184505
37 1 0.988967 0.915817 0.77593 0 0 -0.00749648
38 1 0.313197 0.66561 0.53119 0 0 -0.0439104
39 1 0.974205 0.873885 0.407667 0 0 0.0380878
40 1 0.207346 0.700453 0.673903 0 0 0.0115746
41 1 0.870067 0.908658 0.552163 0 0 -0.0380876
42 1 0.193569 0.658481 0.306665 0 0 -0.00616491
43 1 0.855305 0.866726 0.1839 0 0 0.00749671
44 1 0.636926 0.748756 0.285928 0 0 -0.011575
45 1 0.299233 0.956978 0.163757 0 0 0.00665092
46 1 0.531075 0.7836 0.42864 0 0 0.0439101
47 1 0.313197 0.998943 0.53119 0 0 -0.043911
48 1 0.193569 0.991814 0.306665 0 0 -0.00616419
ITEM: TIMESTEP
6
ITEM: NUMBER OF ATOMS
48
ITEM: BOX BOUNDS xy xz yz pp pp pp
-5.7843897938728333e+00 8.6109705567359924e+00 2.5110912919044495e+00
-1.0506033897399902e-02 9.6185076832771301e+00 -5.7698329687118530e+00
-2.6944518089294434e-02 1.9544072151184082e+01 3.6519104242324829e-01
ITEM: ATOMS id type xs ys zs fx fy fz
1 1 0.966264 0.165006 0.0465088 0 0 -0.00850511
2 1 0.513163 0.0751304 0.0570945 0 0 -0.00680709
3 1 0.650401 0.124075 0.65285 0 0 0.00330579
4 1 0.878008 0.95087 0.913321 0 0 0.00850487
5 1 0.544906 0.158904 0.795935 0 0 -0.0149643
6 1 0.331109 0.040746 0.902736 0 0 0.00680673
7 1 0.988764 0.249159 0.775718 0 0 -0.00987732
8 1 0.974738 0.207196 0.408221 0 0 0.000542283
9 1 0.207121 0.0337959 0.673668 0 0 0.00504184
10 1 0.869534 0.242013 0.551609 0 0 -0.000541806
11 1 0.855508 0.200051 0.184112 0 0 0.00987768
12 1 0.637151 0.0820805 0.286162 0 0 -0.00504231
13 1 0.299366 0.290306 0.163896 0 0 0.0149646
14 1 0.531691 0.116908 0.429282 0 0 0.00382185
15 1 0.966264 0.498339 0.0465088 0 0 -0.00850523
16 1 0.513162 0.408464 0.0570945 0 0 -0.00680661
17 1 0.650401 0.457408 0.65285 0 0 0.00330663
18 1 0.878008 0.284204 0.913321 0 0 0.00850511
19 1 0.544906 0.492237 0.795935 0 0 -0.0149643
20 1 0.331109 0.374079 0.902736 0 0 0.00680685
21 1 0.988764 0.582492 0.775718 0 0 -0.00987756
22 1 0.312581 0.332302 0.530548 0 0 -0.00382209
23 1 0.974738 0.54053 0.408221 0 0 0.000541687
24 1 0.207121 0.367129 0.673668 0 0 0.00504231
25 1 0.869534 0.575347 0.551609 0 0 -0.000542164
26 1 0.193871 0.325135 0.30698 0 0 -0.00330615
27 1 0.855508 0.533384 0.184112 0 0 0.00987768
28 1 0.637151 0.415414 0.286162 0 0 -0.00504255
29 1 0.299366 0.623639 0.163896 0 0 0.0149642
30 1 0.531691 0.450241 0.429282 0 0 0.00382221
31 1 0.966264 0.831673 0.0465088 0 0 -0.00850487
32 1 0.513162 0.741797 0.0570945 0 0 -0.00680649
33 1 0.650401 0.790742 0.65285 0 0 0.00330639
34 1 0.878008 0.617537 0.913321 0 0 0.00850499
35 1 0.544906 0.82557 0.795935 0 0 -0.0149642
36 1 0.331109 0.707413 0.902736 0 0 0.00680637
37 1 0.988764 0.915826 0.775718 0 0 -0.00987756
38 1 0.312581 0.665635 0.530548 0 0 -0.00382209
39 1 0.974738 0.873863 0.408221 0 0 0.000542164
40 1 0.207121 0.700463 0.673668 0 0 0.00504231
41 1 0.869534 0.90868 0.551609 0 0 -0.000541925
42 1 0.193871 0.658468 0.30698 0 0 -0.00330639
43 1 0.855508 0.866717 0.184112 0 0 0.00987768
44 1 0.637151 0.748747 0.286162 0 0 -0.00504255
45 1 0.299366 0.956973 0.163896 0 0 0.0149642
46 1 0.531691 0.783575 0.429282 0 0 0.00382245
47 1 0.312581 0.998968 0.530548 0 0 -0.00382185
48 1 0.193871 0.991802 0.30698 0 0 -0.00330627
ITEM: TIMESTEP
7
ITEM: NUMBER OF ATOMS
48
ITEM: BOX BOUNDS xy xz yz pp pp pp
-5.7843897938728333e+00 8.6109705567359924e+00 2.5110912919044495e+00
-1.0506033897399902e-02 9.6185076832771301e+00 -5.7698329687118530e+00
-2.6944518089294434e-02 1.9544072151184082e+01 3.6519104242324829e-01
ITEM: ATOMS id type xs ys zs fx fy fz
1 1 0.966198 0.165009 0.0464404 0 0 0.00451231
2 1 0.51309 0.0751334 0.0570187 0 0 0.00086844
3 1 0.650421 0.124074 0.652872 0 0 -0.00230384
4 1 0.878074 0.950868 0.91339 0 0 -0.00451219
5 1 0.544752 0.15891 0.795774 0 0 -0.00315988
6 1 0.331182 0.040743 0.902811 0 0 -0.000868201
7 1 0.988657 0.249163 0.775607 0 0 -0.00119627
8 1 0.974765 0.207195 0.40825 0 0 -0.00284815
9 1 0.207162 0.0337942 0.673711 0 0 -0.00163245
10 1 0.869507 0.242014 0.55158 0 0 0.00284863
11 1 0.855615 0.200046 0.184223 0 0 0.00119627
12 1 0.63711 0.0820821 0.28612 0 0 0.00163245
13 1 0.29952 0.2903 0.164056 0 0 0.00315976
14 1 0.531754 0.116905 0.429348 0 0 -0.00121963
15 1 0.966198 0.498342 0.0464404 0 0 0.00451243
16 1 0.51309 0.408467 0.0570187 0 0 0.000868082
17 1 0.650421 0.457407 0.652872 0 0 -0.0023036
18 1 0.878074 0.284201 0.91339 0 0 -0.00451243
19 1 0.544752 0.492243 0.795774 0 0 -0.00316
20 1 0.331182 0.374076 0.902811 0 0 -0.000867963
21 1 0.988657 0.582497 0.775607 0 0 -0.00119638
22 1 0.312518 0.332304 0.530482 0 0 0.00121999
23 1 0.974765 0.540529 0.40825 0 0 -0.00284851
24 1 0.207162 0.367128 0.673711 0 0 -0.00163221
25 1 0.869507 0.575348 0.55158 0 0 0.00284863
26 1 0.193851 0.325136 0.306959 0 0 0.00230348
27 1 0.855615 0.53338 0.184223 0 0 0.00119638
28 1 0.63711 0.415415 0.28612 0 0 0.00163233
29 1 0.29952 0.623633 0.164056 0 0 0.00315976
30 1 0.531754 0.450239 0.429348 0 0 -0.00121987
31 1 0.966198 0.831675 0.0464404 0 0 0.00451231
32 1 0.51309 0.7418 0.0570187 0 0 0.000868559
33 1 0.650421 0.790741 0.652872 0 0 -0.00230408
34 1 0.878074 0.617534 0.91339 0 0 -0.00451243
35 1 0.544752 0.825577 0.795774 0 0 -0.00315976
36 1 0.331182 0.70741 0.902811 0 0 -0.000868082
37 1 0.988657 0.91583 0.775607 0 0 -0.0011965
38 1 0.312518 0.665638 0.530482 0 0 0.00121963
39 1 0.974765 0.873862 0.40825 0 0 -0.00284922
40 1 0.207162 0.700461 0.673711 0 0 -0.00163209
41 1 0.869507 0.908681 0.55158 0 0 0.00284886
42 1 0.193851 0.658469 0.306959 0 0 0.00230372
43 1 0.855615 0.866713 0.184223 0 0 0.00119603
44 1 0.63711 0.748749 0.28612 0 0 0.00163245
45 1 0.29952 0.956966 0.164056 0 0 0.00315964
46 1 0.531754 0.783572 0.429348 0 0 -0.00121963
47 1 0.312518 0.998971 0.530482 0 0 0.00121951
48 1 0.193851 0.991802 0.306959 0 0 0.00230372
ITEM: TIMESTEP
8
ITEM: NUMBER OF ATOMS
48
ITEM: BOX BOUNDS xy xz yz pp pp pp
-5.7843897938728333e+00 8.6109705567359924e+00 2.5110912919044495e+00
-1.0506033897399902e-02 9.6185076832771301e+00 -5.7698329687118530e+00
-2.6944518089294434e-02 1.9544072151184082e+01 3.6519104242324829e-01
ITEM: ATOMS id type xs ys zs fx fy fz
1 1 0.966265 0.165006 0.0465096 0 0 -0.00100887
2 1 0.51309 0.0751333 0.057019 0 0 0.00211716
3 1 0.650385 0.124076 0.652833 0 0 -0.00146055
4 1 0.878007 0.95087 0.913321 0 0 0.00100911
5 1 0.544664 0.158914 0.795682 0 0 2.74181e-06
6 1 0.331182 0.040743 0.902811 0 0 -0.00211692
7 1 0.988614 0.249165 0.775562 0 0 -0.000676036
8 1 0.97472 0.207197 0.408203 0 0 0.000973463
9 1 0.207141 0.0337951 0.673689 0 0 -0.00158715
10 1 0.869552 0.242013 0.551627 0 0 -0.000973821
11 1 0.855658 0.200045 0.184268 0 0 0.000675797
12 1 0.637131 0.0820813 0.286141 0 0 0.00158691
13 1 0.299608 0.290296 0.164148 0 0 -3.33786e-06
14 1 0.531746 0.116906 0.429339 0 0 0.000887871
15 1 0.966265 0.498339 0.0465096 0 0 -0.00100911
16 1 0.51309 0.408467 0.057019 0 0 0.00211728
17 1 0.650385 0.457409 0.652833 0 0 -0.00146079
18 1 0.878007 0.284204 0.913321 0 0 0.00100899
19 1 0.544664 0.492247 0.795682 0 0 3.45707e-06
20 1 0.331182 0.374076 0.902811 0 0 -0.00211728
21 1 0.988614 0.582498 0.775562 0 0 -0.000675797
22 1 0.312526 0.332304 0.530491 0 0 -0.000888109
23 1 0.97472 0.54053 0.408203 0 0 0.000973582
24 1 0.207141 0.367128 0.673689 0 0 -0.00158715
25 1 0.869552 0.575346 0.551627 0 0 -0.000973225
26 1 0.193887 0.325134 0.306997 0 0 0.00146055
27 1 0.855658 0.533378 0.184268 0 0 0.000675917
28 1 0.637131 0.415415 0.286141 0 0 0.00158727
29 1 0.299608 0.623629 0.164148 0 0 -2.86102e-06
30 1 0.531746 0.450239 0.429339 0 0 0.000887871
31 1 0.966265 0.831673 0.0465096 0 0 -0.00100911
32 1 0.51309 0.7418 0.057019 0 0 0.00211656
33 1 0.650385 0.790742 0.652833 0 0 -0.00146043
34 1 0.878007 0.617537 0.913321 0 0 0.00100899
35 1 0.544664 0.82558 0.795682 0 0 2.74181e-06
36 1 0.331182 0.70741 0.902811 0 0 -0.00211668
37 1 0.988614 0.915832 0.775562 0 0 -0.000676155
38 1 0.312526 0.665637 0.530491 0 0 -0.00088799
39 1 0.97472 0.873864 0.408203 0 0 0.000974059
40 1 0.207141 0.700462 0.673689 0 0 -0.00158668
41 1 0.869552 0.908679 0.551627 0 0 -0.000973701
42 1 0.193887 0.658468 0.306997 0 0 0.00146055
43 1 0.855658 0.866711 0.184268 0 0 0.000676155
44 1 0.637131 0.748748 0.286141 0 0 0.00158703
45 1 0.299608 0.956963 0.164148 0 0 -2.6226e-06
46 1 0.531746 0.783572 0.429339 0 0 0.000887632
47 1 0.312526 0.998971 0.530491 0 0 -0.000887513
48 1 0.193887 0.991801 0.306997 0 0 0.00146019
ITEM: TIMESTEP
9
ITEM: NUMBER OF ATOMS
48
ITEM: BOX BOUNDS xy xz yz pp pp pp
-5.7843897938728333e+00 8.6109705567359924e+00 2.5110912919044495e+00
-1.0506033897399902e-02 9.6185076832771301e+00 -5.7698329687118530e+00
-2.6944518089294434e-02 1.9544072151184082e+01 3.6519104242324829e-01
ITEM: ATOMS id type xs ys zs fx fy fz
1 1 0.966262 0.165006 0.0465068 0 0 0.000496864
2 1 0.513148 0.075131 0.0570789 0 0 -0.000999212
3 1 0.650331 0.124078 0.652778 0 0 -3.57628e-07
4 1 0.87801 0.95087 0.913323 0 0 -0.000497937
5 1 0.544631 0.158915 0.795648 0 0 6.84261e-05
6 1 0.331124 0.0407454 0.902751 0 0 0.000999212
7 1 0.988579 0.249166 0.775526 0 0 -0.000766873
8 1 0.97473 0.207197 0.408213 0 0 0.00128603
9 1 0.207091 0.0337971 0.673636 0 0 -8.86917e-05
10 1 0.869542 0.242013 0.551617 0 0 -0.00128651
11 1 0.855693 0.200043 0.184304 0 0 0.000766993
12 1 0.637181 0.0820792 0.286194 0 0 8.91685e-05
13 1 0.299641 0.290295 0.164182 0 0 -6.78301e-05
14 1 0.531767 0.116905 0.429361 0 0 0.000809431
15 1 0.966262 0.498339 0.0465068 0 0 0.000497699
16 1 0.513148 0.408464 0.0570789 0 0 -0.000999451
17 1 0.650331 0.457411 0.652778 0 0 0
18 1 0.87801 0.284204 0.913323 0 0 -0.00049746
19 1 0.544631 0.492248 0.795648 0 0 6.75917e-05
20 1 0.331124 0.374079 0.902751 0 0 0.00099957
21 1 0.988579 0.5825 0.775526 0 0 -0.000766635
22 1 0.312505 0.332305 0.530469 0 0 -0.000809193
23 1 0.97473 0.54053 0.408213 0 0 0.00128639
24 1 0.207091 0.36713 0.673636 0 0 -8.89301e-05
25 1 0.869542 0.575346 0.551617 0 0 -0.00128686
26 1 0.193941 0.325132 0.307052 0 0 1.19209e-07
27 1 0.855693 0.533377 0.184304 0 0 0.000766754
28 1 0.637181 0.415413 0.286194 0 0 8.86917e-05
29 1 0.299641 0.623628 0.164182 0 0 -6.80685e-05
30 1 0.531767 0.450238 0.429361 0 0 0.000809431
31 1 0.966262 0.831673 0.0465068 0 0 0.000497699
32 1 0.513148 0.741798 0.0570789 0 0 -0.000998855
33 1 0.650331 0.790744 0.652778 0 0 1.19209e-07
34 1 0.87801 0.617537 0.913323 0 0 -0.00049758
35 1 0.544631 0.825582 0.795648 0 0 6.85453e-05
36 1 0.331124 0.707412 0.902751 0 0 0.000998735
37 1 0.988579 0.915833 0.775526 0 0 -0.000766397
38 1 0.312505 0.665638 0.530469 0 0 -0.000808835
39 1 0.97473 0.873863 0.408213 0 0 0.00128627
40 1 0.207091 0.700464 0.673637 0 0 -8.95262e-05
41 1 0.869542 0.90868 0.551617 0 0 -0.00128639
42 1 0.193941 0.658465 0.307052 0 0 1.19209e-07
43 1 0.855693 0.86671 0.184304 0 0 0.000766754
44 1 0.637181 0.748746 0.286194 0 0 8.90493e-05
45 1 0.299641 0.956961 0.164182 0 0 -6.86646e-05
46 1 0.531767 0.783571 0.429361 0 0 0.000809789
47 1 0.312505 0.998972 0.530469 0 0 -0.00080955
48 1 0.193941 0.991799 0.307052 0 0 3.57628e-07
ITEM: TIMESTEP
10
ITEM: NUMBER OF ATOMS
48
ITEM: BOX BOUNDS xy xz yz pp pp pp
-5.7843897938728333e+00 8.6109705567359924e+00 2.5110912919044495e+00
-1.0506033897399902e-02 9.6185076832771301e+00 -5.7698329687118530e+00
-2.6944518089294434e-02 1.9544072151184082e+01 3.6519104242324829e-01
ITEM: ATOMS id type xs ys zs fx fy fz
1 1 0.966269 0.165006 0.0465144 0 0 4.63724e-05
2 1 0.513143 0.0751312 0.0570742 0 0 -0.000397563
3 1 0.650321 0.124078 0.652767 0 0 -0.000259042
4 1 0.878003 0.950871 0.913316 0 0 -4.58956e-05
5 1 0.544626 0.158915 0.795642 0 0 -6.30617e-05
6 1 0.331129 0.0407452 0.902756 0 0 0.000397205
7 1 0.98856 0.249167 0.775506 0 0 -6.1512e-05
8 1 0.974752 0.207196 0.408236 0 0 -0.000169873
9 1 0.207079 0.0337976 0.673625 0 0 -0.00025034
10 1 0.86952 0.242014 0.551594 0 0 0.00017035
11 1 0.855711 0.200042 0.184324 0 0 6.1512e-05
12 1 0.637193 0.0820788 0.286205 0 0 0.00025034
13 1 0.299646 0.290295 0.164188 0 0 6.33001e-05
14 1 0.531784 0.116904 0.429379 0 0 -0.000315666
15 1 0.966269 0.498339 0.0465144 0 0 4.60148e-05
16 1 0.513143 0.408464 0.0570742 0 0 -0.000397444
17 1 0.650321 0.457411 0.652767 0 0 -0.000259042
18 1 0.878003 0.284204 0.913316 0 0 -4.62532e-05
19 1 0.544626 0.492249 0.795642 0 0 -6.34193e-05
20 1 0.331129 0.374079 0.902756 0 0 0.000397205
21 1 0.98856 0.582501 0.775506 0 0 -6.16312e-05
22 1 0.312488 0.332306 0.530452 0 0 0.000315189
23 1 0.974752 0.540529 0.408236 0 0 -0.000169992
24 1 0.207079 0.367131 0.673625 0 0 -0.000250936
25 1 0.86952 0.575347 0.551594 0 0 0.000169992
26 1 0.193951 0.325132 0.307063 0 0 0.000259519
27 1 0.855711 0.533376 0.184324 0 0 6.16312e-05
28 1 0.637193 0.415412 0.286205 0 0 0.000250578
29 1 0.299646 0.623628 0.164188 0 0 6.25849e-05
30 1 0.531784 0.450237 0.429379 0 0 -0.000315547
31 1 0.966269 0.831672 0.0465144 0 0 4.58956e-05
32 1 0.513143 0.741798 0.0570742 0 0 -0.000397086
33 1 0.650321 0.790745 0.652767 0 0 -0.000259042
34 1 0.878003 0.617537 0.913316 0 0 -4.58956e-05
35 1 0.544626 0.825582 0.795642 0 0 -6.30617e-05
36 1 0.331129 0.707412 0.902756 0 0 0.000397325
37 1 0.98856 0.915834 0.775506 0 0 -6.12736e-05
38 1 0.312488 0.665639 0.530452 0 0 0.00031507
39 1 0.974752 0.873862 0.408236 0 0 -0.000169992
40 1 0.207079 0.700464 0.673625 0 0 -0.000250816
41 1 0.86952 0.908681 0.551594 0 0 0.000169635
42 1 0.193951 0.658465 0.307063 0 0 0.000259519
43 1 0.855712 0.866709 0.184324 0 0 6.1512e-05
44 1 0.637193 0.748745 0.286205 0 0 0.000250697
45 1 0.299646 0.956961 0.164188 0 0 6.31809e-05
46 1 0.531784 0.783571 0.429379 0 0 -0.000315309
47 1 0.312488 0.998972 0.530452 0 0 0.00031507
48 1 0.193951 0.991798 0.307063 0 0 0.000259995
ITEM: TIMESTEP
11
ITEM: NUMBER OF ATOMS
48
ITEM: BOX BOUNDS xy xz yz pp pp pp
-5.7843897938728333e+00 8.6109705567359924e+00 2.5110912919044495e+00
-1.0506033897399902e-02 9.6185076832771301e+00 -5.7698329687118530e+00
-2.6944518089294434e-02 1.9544072151184082e+01 3.6519104242324829e-01
ITEM: ATOMS id type xs ys zs fx fy fz
1 1 0.96627 0.165006 0.0465157 0 0 -2.39611e-05
2 1 0.513137 0.0751314 0.0570682 0 0 3.95775e-05
3 1 0.650317 0.124078 0.652763 0 0 -2.5034e-05
4 1 0.878002 0.950871 0.913314 0 0 2.38419e-05
5 1 0.544625 0.158915 0.795641 0 0 -8.2016e-05
6 1 0.331135 0.040745 0.902762 0 0 -3.98159e-05
7 1 0.988558 0.249167 0.775504 0 0 2.24113e-05
8 1 0.974752 0.207196 0.408236 0 0 5.48363e-06
9 1 0.207075 0.0337978 0.67362 0 0 -1.94311e-05
10 1 0.86952 0.242014 0.551594 0 0 -5.60284e-06
11 1 0.855714 0.200042 0.184326 0 0 -2.25306e-05
12 1 0.637197 0.0820786 0.28621 0 0 1.93119e-05
13 1 0.299648 0.290294 0.164189 0 0 8.21352e-05
14 1 0.531781 0.116904 0.429376 0 0 -1.04904e-05
15 1 0.96627 0.498339 0.0465157 0 0 -2.36034e-05
16 1 0.513137 0.408465 0.0570682 0 0 3.95775e-05
17 1 0.650317 0.457412 0.652763 0 0 -2.52724e-05
18 1 0.878002 0.284204 0.913314 0 0 2.38419e-05
19 1 0.544625 0.492249 0.795641 0 0 -8.17776e-05
20 1 0.331135 0.374078 0.902762 0 0 -3.95775e-05
21 1 0.988558 0.582501 0.775504 0 0 2.22921e-05
22 1 0.312491 0.332306 0.530454 0 0 1.06096e-05
23 1 0.974752 0.540529 0.408236 0 0 5.60284e-06
24 1 0.207075 0.367131 0.67362 0 0 -1.89543e-05
25 1 0.86952 0.575347 0.551594 0 0 -5.84126e-06
26 1 0.193955 0.325131 0.307068 0 0 2.52724e-05
27 1 0.855714 0.533376 0.184326 0 0 -2.25306e-05
28 1 0.637197 0.415412 0.28621 0 0 1.93119e-05