ITEM: TIMESTEP
0
ITEM: NUMBER OF ATOMS
56
ITEM: BOX BOUNDS xy xz yz pp pp pp
-1.6239372334592954e+00 1.2163911692441133e+01 1.5526132515564727e-08
-3.0061665652343075e-03 5.5294143007778995e+00 -1.6451254148443228e+00
7.7232233150646462e-04 1.9019187752468508e+01 2.1812666742635317e-08
ITEM: ATOMS id type xs ys zs fx fy fz
1 1 0.568401 3.09294e-05 0.132367 0 0.0168723 0.635972
2 1 0.318401 0.166637 0.132367 0 -0.0168925 0.635969
3 1 0.225589 1.50434e-05 0.275226 0 -0.0016106 0.00056115
4 1 0.975588 0.166653 0.275226 0 0.00160056 0.000562687
5 1 0.882723 1.01858e-05 0.418082 0 -0.000925169 0.000339745
6 1 0.0684013 3.06084e-05 0.132367 0 0.0168815 0.635969
7 1 0.98978 0.500062 0.06094 0 -0.0790909 0.654484
8 1 0.818402 0.166637 0.132367 0 -0.0168844 0.635952
9 1 0.739782 0.666605 0.06094 0 0.0791019 0.654499
10 1 0.725589 1.49384e-05 0.275226 0 -0.00160664 0.000566015
11 1 0.632721 0.166657 0.418083 0 0.00092993 0.000338467
12 1 0.539846 1.60347e-05 0.560942 0 -0.00105496 -6.43325e-05
13 1 0.289847 0.166652 0.560941 0 0.00103718 -5.08104e-05
14 1 0.196977 1.61665e-05 0.703801 0 -0.00184141 0.00224271
15 1 0.946978 0.166652 0.703801 0 0.00181467 0.00223277
16 1 0.854123 1.72772e-05 0.846652 0 -0.00983341 -0.0259421
17 1 0.647011 0.500017 0.203801 0 -0.00982081 0.0259524
18 1 0.475588 0.166653 0.275226 0 0.0015819 0.000561553
19 1 0.397012 0.66665 0.203801 0 0.00983686 0.0259538
20 1 0.382723 1.09165e-05 0.418082 0 -0.000945767 0.000344943
21 1 0.304156 0.500016 0.346652 0 -0.00182759 -0.00223664
22 1 0.132722 0.166657 0.418082 0 0.000932727 0.000343017
23 1 0.0541562 0.666651 0.346652 0 0.00183923 -0.00224428
24 1 0.0398468 1.5722e-05 0.560941 0 -0.00104526 -4.77172e-05
25 1 0.961287 0.500016 0.489511 0 -0.00104235 4.88255e-05
26 1 0.789848 0.166652 0.560941 0 0.00103789 -3.40323e-05
27 1 0.711288 0.666651 0.489511 0 0.00104592 5.6756e-05
28 1 0.48978 0.500061 0.0609401 0 -0.0790719 0.654482
29 1 0.239781 0.666605 0.06094 0 0.0790975 0.654491
30 1 0.147012 0.500017 0.203801 0 -0.00982144 0.0259556
31 1 0.897012 0.66665 0.203801 0 0.0098181 0.0259561
32 1 0.804157 0.500016 0.346652 0 -0.00183903 -0.00224406
33 1 0.604122 0.16665 0.846652 0 0.00982846 -0.0259688
34 1 0.511354 6.23935e-05 0.989513 0 -0.0791018 -0.654485
35 1 0.261353 0.166605 0.989513 0 0.0790848 -0.65449
36 1 0.696977 1.60929e-05 0.703801 0 -0.00183956 0.00223696
37 1 0.61841 0.50001 0.632371 0 -0.000931124 -0.000362872
38 1 0.446978 0.166651 0.703801 0 0.00183241 0.00224557
39 1 0.368411 0.666656 0.63237 0 0.000939281 -0.000348173
40 1 0.354122 1.72431e-05 0.846652 0 -0.00983179 -0.025956
41 1 0.275545 0.500015 0.775227 0 -0.00159766 -0.000559276
42 1 0.104122 0.16665 0.846652 0 0.00981798 -0.0259538
43 1 0.0255448 0.666652 0.775227 0 0.00161276 -0.000563348
44 1 0.0113535 6.17797e-05 0.989513 0 -0.0790845 -0.654489
45 1 0.932733 0.50003 0.918085 0 0.0168849 -0.63595
46 1 0.554155 0.666651 0.346652 0 0.00184812 -0.00223395
47 1 0.461286 0.500015 0.489511 0 -0.00102116 5.63968e-05
48 1 0.211287 0.666651 0.489511 0 0.00104777 5.12657e-05
49 1 0.118411 0.500011 0.63237 0 -0.000930462 -0.00034675
50 1 0.868412 0.666656 0.63237 0 0.000949077 -0.00033491
51 1 0.775546 0.500015 0.775227 0 -0.00159607 -0.000555193
52 1 0.761352 0.166605 0.989513 0 0.0790895 -0.654485
53 1 0.682732 0.666636 0.918086 0 -0.0168827 -0.635982
54 1 0.525545 0.666653 0.775227 0 0.00159544 -0.000553011
55 1 0.432733 0.50003 0.918085 0 0.0168925 -0.63597
56 1 0.182733 0.666636 0.918085 0 -0.01688 -0.635973
ITEM: TIMESTEP
8
ITEM: NUMBER OF ATOMS
56
ITEM: BOX BOUNDS xy xz yz pp pp pp
-1.6239372334592954e+00 1.2163911692441133e+01 1.5526132515564727e-08
-3.0061665652343075e-03 5.5294143007778995e+00 -1.6451254148443228e+00
7.7232233150646462e-04 1.9019187752468508e+01 2.1812666742635317e-08
ITEM: ATOMS id type xs ys zs fx fy fz
1 1 0.569504 -0.00303068 0.140509 0 -1.81766e-05 0.000279931
2 1 0.319504 0.169698 0.140509 0 1.80048e-05 0.000279187
3 1 0.226223 -0.00232031 0.279911 0 6.23704e-05 7.89734e-05
4 1 0.976223 0.168987 0.279911 0 -6.22425e-05 7.83847e-05
5 1 0.882991 -0.00192638 0.420061 0 7.01308e-05 -0.000152335
6 1 0.0695043 -0.00303065 0.140509 0 -1.80074e-05 0.000280685
7 1 0.990668 0.488017 0.0674928 0 0.000393119 0.00031999
8 1 0.819505 0.169698 0.140509 0 1.74191e-05 0.000281603
9 1 0.740669 0.678651 0.0674927 0 -0.000392933 0.000317277
10 1 0.726224 -0.00232034 0.279911 0 6.25711e-05 7.84901e-05
11 1 0.632989 0.168594 0.420061 0 -6.89519e-05 -0.000152587
12 1 0.53978 -0.00180794 0.560452 0 7.54525e-05 -8.94712e-06
13 1 0.289781 0.168475 0.560452 0 -7.60651e-05 -1.21477e-05
14 1 0.196597 -0.00186791 0.70099 0 3.58867e-05 -9.2797e-05
15 1 0.946597 0.168534 0.70099 0 -3.78169e-05 -9.57608e-05
16 1 0.853453 -0.00221049 0.841707 0 -0.000100024 -9.42003e-05
17 1 0.647681 0.497789 0.208746 0 -9.99513e-05 9.93473e-05
18 1 0.476223 0.168987 0.279911 0 -6.17356e-05 7.77215e-05
19 1 0.397682 0.668877 0.208746 0 0.0001008 9.99216e-05
20 1 0.382991 -0.00192656 0.420061 0 6.86684e-05 -0.000151411
21 1 0.304537 0.498132 0.349463 0 3.722e-05 9.29352e-05
22 1 0.132991 0.168594 0.420061 0 -6.88005e-05 -0.000152319
23 1 0.054537 0.668535 0.349463 0 -3.6742e-05 9.34686e-05
24 1 0.0397806 -0.00180795 0.560452 0 7.56635e-05 -7.77666e-06
25 1 0.961353 0.498192 0.49 0 7.49677e-05 8.47504e-06
26 1 0.789782 0.168475 0.560453 0 -7.61142e-05 -1.09849e-05
27 1 0.711354 0.668475 0.49 0 -7.6086e-05 9.72674e-06
28 1 0.490668 0.488017 0.0674925 0 0.000393195 0.000320627
29 1 0.240668 0.67865 0.0674927 0 -0.000392732 0.000318787
30 1 0.147682 0.497789 0.208746 0 -0.000100218 9.9093e-05
31 1 0.897682 0.668877 0.208746 0 0.000101383 9.94638e-05
32 1 0.804538 0.498132 0.349463 0 3.67443e-05 9.41575e-05
33 1 0.603452 0.168877 0.841707 0 9.98282e-05 -9.585e-05
34 1 0.510466 -0.0119828 0.98296 0 0.000392464 -0.000322711
35 1 0.260466 0.17865 0.98296 0 -0.000392903 -0.000322502
36 1 0.696596 -0.00186795 0.70099 0 3.68306e-05 -9.43235e-05
37 1 0.618142 0.498073 0.630392 0 6.8865e-05 0.000150644
38 1 0.446597 0.168534 0.70099 0 -3.75568e-05 -9.62143e-05
39 1 0.368143 0.668594 0.630392 0 -6.9379e-05 0.000152025
40 1 0.353452 -0.00221044 0.841707 0 -0.000101014 -9.74364e-05
41 1 0.27491 0.49768 0.770541 0 6.31575e-05 -7.99383e-05
42 1 0.103452 0.168877 0.841707 0 0.000100146 -9.7189e-05
43 1 0.02491 0.668987 0.770541 0 -6.10588e-05 -8.05087e-05
44 1 0.0104657 -0.0119827 0.98296 0 0.000392286 -0.000322033
45 1 0.93163 0.49697 0.909944 0 -1.89296e-05 -0.000279523
46 1 0.554536 0.668535 0.349463 0 -3.75674e-05 9.25884e-05
47 1 0.461353 0.498192 0.49 0 7.60458e-05 1.28318e-05
48 1 0.211353 0.668475 0.49 0 -7.6183e-05 1.09063e-05
49 1 0.118143 0.498073 0.630392 0 7.00103e-05 0.000152345
50 1 0.868144 0.668594 0.630392 0 -6.87667e-05 0.000153983
51 1 0.774911 0.49768 0.770541 0 6.20441e-05 -7.9712e-05
52 1 0.760465 0.178651 0.98296 0 -0.000392818 -0.000326192
53 1 0.681628 0.669698 0.909944 0 1.88815e-05 -0.000274709
54 1 0.52491 0.668987 0.770541 0 -6.16524e-05 -7.77634e-05
55 1 0.43163 0.49697 0.909944 0 -1.82419e-05 -0.000279061
56 1 0.181629 0.669698 0.909944 0 1.84368e-05 -0.000276752
