ITEM: TIMESTEP
0
ITEM: NUMBER OF ATOMS
56
ITEM: BOX BOUNDS xy xz yz pp pp pp
-3.1262502670288086e+00 1.2206987559795380e+01 -4.7683715820312500e-07
-7.5370073318481445e-03 5.5339480042457581e+00 -3.1043620705604553e+00
-3.2569408416748047e-02 1.9052529454231262e+01 2.8610229492187500e-06
ITEM: ATOMS id type xs ys zs fx fy fz
1 1 0.583173 1 0.132369 0 0.0404893 0.294197
2 1 0.333173 0.166667 0.132369 0 -0.0404897 0.294197
3 1 0.256332 1 0.275226 0 0.00151432 -0.00124335
4 1 0.00633205 0.166667 0.275226 0 -0.00151467 -0.00124359
5 1 0.929493 5.00995e-07 0.418084 0 -0.00021255 0.00039649
6 1 0.0831727 1 0.132369 0 0.0404896 0.294197
7 1 0.996593 0.5 0.0609408 0 0.831959 0.776964
8 1 0.833173 0.166667 0.132369 0 -0.0404893 0.294197
9 1 0.746593 0.666667 0.0609408 0 -0.831959 0.776964
10 1 0.756332 1 0.275226 0 0.00151443 -0.00124371
11 1 0.679493 0.166667 0.418084 0 0.000213027 0.000396848
12 1 0.602654 5.53965e-07 0.560941 0 -4.00543e-05 -0.000228882
13 1 0.352654 0.166667 0.560941 0 4.01735e-05 -0.00022912
14 1 0.275815 1.60387e-07 0.703798 0 -0.000593662 -0.000438571
15 1 0.0258146 0.166667 0.703798 0 0.00059402 -0.00043869
16 1 0.948975 1 0.846655 0 0.00869131 -0.00958574
17 1 0.669752 0.5 0.203798 0 0.00869167 0.00958586
18 1 0.506332 0.166667 0.275226 0 -0.00151443 -0.00124347
19 1 0.419752 0.666667 0.203798 0 -0.00869071 0.00958586
20 1 0.429493 5.02326e-07 0.418084 0 -0.000212669 0.000396252
21 1 0.342912 0.5 0.346655 0 -0.000593901 0.000438571
22 1 0.179493 0.166667 0.418084 0 0.000213027 0.000396609
23 1 0.0929123 0.666667 0.346655 0 0.000593543 0.000438452
24 1 0.102654 5.42012e-07 0.560941 0 -3.95775e-05 -0.000229239
25 1 0.0160731 0.500001 0.489512 0 -4.02927e-05 0.000229478
26 1 0.852654 0.166667 0.560941 0 4.02927e-05 -0.000229955
27 1 0.766073 0.666667 0.489512 0 3.98159e-05 0.000229359
28 1 0.496593 0.5 0.0609408 0 0.831959 0.776964
29 1 0.246593 0.666667 0.0609408 0 -0.831959 0.776965
30 1 0.169752 0.5 0.203798 0 0.00869155 0.00958574
31 1 0.919752 0.666667 0.203798 0 -0.00869119 0.00958574
32 1 0.842912 0.5 0.346655 0 -0.000593781 0.000438809
33 1 0.698975 0.166667 0.846655 0 -0.00869167 -0.00958586
34 1 0.622134 1 0.989512 0 0.831959 -0.776964
35 1 0.372134 0.166667 0.989512 0 -0.831959 -0.776964
36 1 0.775815 1.92026e-07 0.703798 0 -0.000593543 -0.000438571
37 1 0.689234 0.500001 0.632369 0 -0.000213265 -0.000396609
38 1 0.525815 0.166667 0.703798 0 0.000593901 -0.000438929
39 1 0.439234 0.666667 0.632369 0 0.00021255 -0.000396609
40 1 0.448975 1 0.846655 0 0.00869143 -0.0095855
41 1 0.362395 0.5 0.775226 0 0.00151479 0.00124371
42 1 0.198975 0.166667 0.846655 0 -0.00869143 -0.00958586
43 1 0.112395 0.666667 0.775226 0 -0.00151432 0.00124371
44 1 0.122134 1 0.989512 0 0.831959 -0.776964
45 1 0.0355542 0.5 0.918083 0 0.0404894 -0.294197
46 1 0.592912 0.666667 0.346655 0 0.000593185 0.000438333
47 1 0.516073 0.500001 0.489512 0 -4.00543e-05 0.000229239
48 1 0.266073 0.666667 0.489512 0 3.96967e-05 0.000229239
49 1 0.189234 0.5 0.632369 0 -0.000213265 -0.00039649
50 1 0.939234 0.666667 0.632369 0 0.00021255 -0.00039649
51 1 0.862395 0.5 0.775226 0 0.00151455 0.00124359
52 1 0.872134 0.166667 0.989512 0 -0.831959 -0.776964
53 1 0.785554 0.666667 0.918083 0 -0.0404894 -0.294196
54 1 0.612395 0.666667 0.775226 0 -0.0015142 0.00124311
55 1 0.535554 0.5 0.918083 0 0.0404893 -0.294196
56 1 0.285554 0.666667 0.918083 0 -0.0404894 -0.294197
ITEM: TIMESTEP
1
ITEM: NUMBER OF ATOMS
56
ITEM: BOX BOUNDS xy xz yz pp pp pp
-3.1262502670288086e+00 1.2206987559795380e+01 -4.7683715820312500e-07
-7.5370073318481445e-03 5.5339480042457581e+00 -3.1043620705604553e+00
-3.2569408416748047e-02 1.9052529454231262e+01 2.8610229492187500e-06
ITEM: ATOMS id type xs ys zs fx fy fz
1 1 0.583643 1.00088 0.134222 0 0.114082 0.0649567
2 1 0.333643 0.165789 0.134222 0 -0.114082 0.064957
3 1 0.25633 1.00003 0.275219 0 -0.00399554 0.0379667
4 1 0.00633006 0.166634 0.275219 0 0.00399542 0.0379672
5 1 0.929493 -4.10935e-06 0.418086 0 -0.000997901 -0.000522971
6 1 0.083643 1.00088 0.134222 0 0.114082 0.0649568
7 1 0.997835 0.518045 0.0658341 0 0.224904 0.0744416
8 1 0.833643 0.165789 0.134222 0 -0.114082 0.0649573
9 1 0.747835 0.648622 0.0658341 0 -0.224904 0.0744417
10 1 0.75633 1.00003 0.275219 0 -0.00399506 0.0379668
11 1 0.679493 0.166671 0.418086 0 0.000997663 -0.000522971
12 1 0.602653 -3.14837e-07 0.560939 0 0.000145555 0.000951409
13 1 0.352653 0.166667 0.560939 0 -0.000145674 0.000951529
14 1 0.275814 -1.27165e-05 0.703795 0 -0.00232112 -0.0104179
15 1 0.0258139 0.16668 0.703795 0 0.00232172 -0.0104181
16 1 0.948959 1.00019 0.846595 0 -0.00788093 -0.122897
17 1 0.669768 0.500188 0.203858 0 -0.00788057 0.122897
18 1 0.50633 0.166634 0.275219 0 0.00399554 0.0379674
19 1 0.419768 0.666479 0.203858 0 0.00788081 0.122897
20 1 0.429493 -4.1106e-06 0.418086 0 -0.000997543 -0.000522971
21 1 0.342913 0.499987 0.346658 0 -0.0023216 0.0104181
22 1 0.179493 0.166671 0.418086 0 0.000997305 -0.000522971
23 1 0.092913 0.66668 0.346658 0 0.00232148 0.0104181
24 1 0.102653 -3.16448e-07 0.560939 0 0.000145435 0.000951529
25 1 0.0160735 0.5 0.489514 0 0.000145793 -0.000951409
26 1 0.852653 0.166667 0.560939 0 -0.000145674 0.000951052
27 1 0.766073 0.666667 0.489514 0 -0.000145435 -0.000951409
28 1 0.497835 0.518045 0.0658341 0 0.224904 0.0744417
29 1 0.247835 0.648622 0.0658341 0 -0.224904 0.0744414
30 1 0.169768 0.500188 0.203858 0 -0.00788069 0.122897
31 1 0.919768 0.666479 0.203858 0 0.00788093 0.122898
32 1 0.842913 0.499987 0.346658 0 -0.0023216 0.0104179
33 1 0.698959 0.166479 0.846595 0 0.00788045 -0.122897
34 1 0.620891 1.01805 0.984619 0 0.224904 -0.0744419
35 1 0.370891 0.148622 0.984619 0 -0.224904 -0.0744416
36 1 0.775814 -1.26823e-05 0.703795 0 -0.0023216 -0.0104179
37 1 0.689234 0.499996 0.632367 0 -0.000997543 0.00052321
38 1 0.525814 0.16668 0.703795 0 0.00232172 -0.0104185
39 1 0.439234 0.666671 0.632367 0 0.000997543 0.00052321
40 1 0.448959 1.00019 0.846595 0 -0.00788116 -0.122897
41 1 0.362397 0.500033 0.775234 0 -0.0039953 -0.0379672
42 1 0.198959 0.166479 0.846595 0 0.00788116 -0.122898
43 1 0.112397 0.666634 0.775234 0 0.00399542 -0.037967
44 1 0.120891 1.01805 0.984619 0 0.224904 -0.0744414
45 1 0.0350838 0.500878 0.916231 0 0.114082 -0.064957
46 1 0.592913 0.66668 0.346658 0 0.00232124 0.0104178
47 1 0.516073 0.5 0.489514 0 0.000145674 -0.000951767
48 1 0.266073 0.666667 0.489514 0 -0.000145316 -0.000951648
49 1 0.189234 0.499996 0.632367 0 -0.000997543 0.00052321
50 1 0.939234 0.666671 0.632367 0 0.000997543 0.00052321
51 1 0.862397 0.500033 0.775234 0 -0.0039953 -0.0379671
52 1 0.870891 0.148622 0.984619 0 -0.224904 -0.0744417
53 1 0.785084 0.665789 0.916231 0 -0.114082 -0.0649567
54 1 0.612397 0.666634 0.775234 0 0.0039953 -0.0379668
55 1 0.535084 0.500878 0.916231 0 0.114082 -0.0649569
56 1 0.285084 0.665789 0.916231 0 -0.114082 -0.0649567
ITEM: TIMESTEP
2
ITEM: NUMBER OF ATOMS
56
ITEM: BOX BOUNDS xy xz yz pp pp pp
-3.1262502670288086e+00 1.2206987559795380e+01 -4.7683715820312500e-07
-7.5370073318481445e-03 5.5339480042457581e+00 -3.1043620705604553e+00
-3.2569408416748047e-02 1.9052529454231262e+01 2.8610229492187500e-06
ITEM: ATOMS id type xs ys zs fx fy fz
1 1 0.583998 1.00933 0.13562 0 0.0741826 -0.0188365
2 1 0.333998 0.157334 0.13562 0 -0.0741817 -0.0188363
3 1 0.256537 0.999737 0.276036 0 -0.00217366 0.0480413
4 1 0.00653746 0.16693 0.276036 0 0.00217414 0.0480411
5 1 0.92949 -7.80653e-05 0.418075 0 -0.00383711 0.0184969
6 1 0.0839979 1.00933 0.13562 0 0.0741823 -0.0188364
7 1 0.998242 0.534713 0.067436 0 -0.0207206 -0.141354
8 1 0.833998 0.157334 0.13562 0 -0.0741814 -0.0188365
9 1 0.748242 0.631954 0.067436 0 0.02072 -0.141354
10 1 0.756537 0.999737 0.276036 0 -0.00217414 0.0480415
11 1 0.67949 0.166745 0.418075 0 0.00383699 0.018497
12 1 0.602659 1.04724e-05 0.56096 0 -0.0022583 -0.00653529
13 1 0.352659 0.166657 0.56096 0 0.0022589 -0.00653577
14 1 0.275757 -0.000184738 0.703571 0 -0.00647306 -0.0534011
15 1 0.025757 0.166852 0.703571 0 0.00647271 -0.0534011
16 1 0.948288 0.999604 0.84395 0 0.0244565 -0.0363145
17 1 0.670439 0.499604 0.206503 0 0.0244564 0.0363148
18 1 0.506537 0.16693 0.276036 0 0.0021739 0.0480407
19 1 0.420439 0.667063 0.206503 0 -0.0244564 0.0363147
20 1 0.42949 -7.804e-05 0.418075 0 -0.00383735 0.018497
21 1 0.34297 0.499815 0.346882 0 -0.00647271 0.053401
22 1 0.17949 0.166745 0.418075 0 0.0038377 0.0184968
23 1 0.0929699 0.666852 0.346882 0 0.00647247 0.0534016
24 1 0.102659 1.0462e-05 0.56096 0 -0.0022583 -0.00653589
25 1 0.0160683 0.50001 0.489493 0 -0.0022589 0.00653565
26 1 0.852659 0.166657 0.56096 0 0.00225878 -0.00653553
27 1 0.766068 0.666657 0.489493 0 0.00225842 0.00653565
28 1 0.498242 0.534713 0.067436 0 -0.020721 -0.141354
29 1 0.248242 0.631954 0.067436 0 0.0207199 -0.141354
30 1 0.170439 0.499604 0.206503 0 0.0244564 0.0363145
31 1 0.920439 0.667063 0.206503 0 -0.0244565 0.0363144
32 1 0.84297 0.499815 0.346882 0 -0.00647259 0.0534012
33 1 0.698288 0.167063 0.84395 0 -0.0244563 -0.036315
34 1 0.620485 1.03471 0.983017 0 -0.0207204 0.141354
35 1 0.370485 0.131954 0.983017 0 0.0207204 0.141355
36 1 0.775757 -0.00018474 0.703571 0 -0.00647247 -0.0534012
37 1 0.689236 0.499922 0.632378 0 -0.00383735 -0.0184972
38 1 0.525757 0.166852 0.703571 0 0.00647211 -0.0534006
39 1 0.439236 0.666745 0.632378 0 0.00383747 -0.0184972
40 1 0.448288 0.999604 0.84395 0 0.024457 -0.0363148
41 1 0.362189 0.499737 0.774417 0 -0.00217402 -0.0480409
42 1 0.198288 0.167063 0.84395 0 -0.024457 -0.0363145
43 1 0.112189 0.66693 0.774417 0 0.00217414 -0.0480416
44 1 0.120485 1.03471 0.983017 0 -0.0207202 0.141354
45 1 0.034729 0.509333 0.914833 0 0.0741822 0.0188364
46 1 0.59297 0.666852 0.346882 0 0.00647306 0.0534011
47 1 0.516068 0.50001 0.489493 0 -0.0022589 0.00653577
48 1 0.266068 0.666657 0.489493 0 0.0022583 0.00653601
49 1 0.189236 0.499922 0.632378 0 -0.00383723 -0.018497
50 1 0.939236 0.666745 0.632378 0 0.00383735 -0.018497
51 1 0.862189 0.499737 0.774417 0 -0.00217438 -0.0480412
52 1 0.870485 0.131954 0.983017 0 0.0207204 0.141355
53 1 0.784729 0.657334 0.914833 0 -0.0741824 0.0188365
54 1 0.612189 0.66693 0.774417 0 0.00217414 -0.0480413
55 1 0.534729 0.509333 0.914833 0 0.0741817 0.0188365
56 1 0.284729 0.657334 0.914833 0 -0.0741819 0.0188363
ITEM: TIMESTEP
3
ITEM: NUMBER OF ATOMS
56
ITEM: BOX BOUNDS xy xz yz pp pp pp
-3.1262502670288086e+00 1.2206987559795380e+01 -4.7683715820312500e-07
-7.5370073318481445e-03 5.5339480042457581e+00 -3.1043620705604553e+00
-3.2569408416748047e-02 1.9052529454231262e+01 2.8610229492187500e-06
ITEM: ATOMS id type xs ys zs fx fy fz
1 1 0.584031 1.01756 0.13575 0 -0.0174106 0.0302119
2 1 0.334031 0.14911 0.13575 0 0.0174099 0.0302117
3 1 0.256859 0.999478 0.277301 0 0.00696492 0.0141292
4 1 0.00685856 0.167189 0.277301 0 -0.00696504 0.014129
5 1 0.929584 -0.000371084 0.418443 0 -0.00459909 0.0300297
6 1 0.0840309 1.01756 0.13575 0 -0.0174104 0.0302117
7 1 0.997668 0.539348 0.0651735 0 0.027122 0.0120664
8 1 0.834031 0.14911 0.13575 0 0.0174102 0.0302116
9 1 0.747668 0.627319 0.0651735 0 -0.0271217 0.0120656
10 1 0.756859 0.999478 0.277301 0 0.00696504 0.0141289
11 1 0.679584 0.167038 0.418443 0 0.00459909 0.0300294
12 1 0.602627 -0.000142196 0.560836 0 -0.00670302 -0.0163403
13 1 0.352627 0.166809 0.560836 0 0.0067035 -0.0163398
14 1 0.275463 -0.000696266 0.702414 0 -0.00309157 -0.0387317
15 1 0.0254633 0.167363 0.702414 0 0.0030911 -0.0387315
16 1 0.947858 1.00109 0.842255 0 0.0424236 0.0654323
17 1 0.670869 0.501087 0.208197 0 0.0424242 -0.065432
18 1 0.506859 0.167189 0.277301 0 -0.00696516 0.0141289
19 1 0.420869 0.66558 0.208197 0 -0.0424236 -0.0654327
20 1 0.429584 -0.000371066 0.418443 0 -0.00459921 0.0300292
21 1 0.343264 0.499304 0.348039 0 -0.00309122 0.0387313
22 1 0.179584 0.167038 0.418443 0 0.00459886 0.0300294
23 1 0.0932635 0.667363 0.348039 0 0.00309205 0.0387307
24 1 0.102627 -0.00014221 0.560836 0 -0.00670302 -0.0163401
25 1 0.0160998 0.499858 0.489617 0 -0.00670362 0.01634
26 1 0.852627 0.166809 0.560836 0 0.00670338 -0.0163399
27 1 0.7661 0.666809 0.489617 0 0.00670302 0.0163398
28 1 0.497668 0.539348 0.0651735 0 0.0271219 0.0120664
29 1 0.247668 0.627319 0.0651735 0 -0.0271217 0.0120662
30 1 0.170869 0.501087 0.208197 0 0.0424242 -0.0654323
31 1 0.920869 0.66558 0.208197 0 -0.0424235 -0.0654321
32 1 0.843264 0.499304 0.348039 0 -0.00309134 0.0387311
33 1 0.697858 0.16558 0.842255 0 -0.042424 0.0654321
34 1 0.621059 1.03935 0.985279 0 0.0271217 -0.0120659
35 1 0.371059 0.127319 0.985279 0 -0.0271219 -0.0120664
36 1 0.775463 -0.000696239 0.702414 0 -0.00309181 -0.0387315
37 1 0.689143 0.499629 0.63201 0 -0.00459933 -0.0300291
38 1 0.525463 0.167363 0.702414 0 0.00309169 -0.0387316
39 1 0.439143 0.667038 0.63201 0 0.00459886 -0.0300294
40 1 0.447858 1.00109 0.842255 0 0.042424 0.0654327
41 1 0.361868 0.499478 0.773152 0 0.00696528 -0.0141287
42 1 0.197858 0.16558 0.842255 0 -0.0424237 0.0654322
43 1 0.111868 0.667189 0.773152 0 -0.00696504 -0.0141286
44 1 0.121059 1.03935 0.985279 0 0.0271218 -0.0120659
45 1 0.034696 0.517557 0.914703 0 -0.0174103 -0.0302117
46 1 0.593264 0.667363 0.348039 0 0.00309134 0.0387315
47 1 0.5161 0.499858 0.489617 0 -0.00670314 0.0163401
48 1 0.2661 0.666809 0.489617 0 0.00670314 0.0163403
49 1 0.189143 0.499629 0.63201 0 -0.00459933 -0.0300292
50 1 0.939143 0.667038 0.63201 0 0.00459933 -0.0300295
51 1 0.861868 0.499478 0.773152 0 0.00696528 -0.0141286
52 1 0.871059 0.127319 0.985279 0 -0.027122 -0.0120662
53 1 0.784696 0.64911 0.914703 0 0.0174104 -0.030212
54 1 0.611868 0.667189 0.773152 0 -0.0069654 -0.0141288
55 1 0.534696 0.517557 0.914703 0 -0.0174104 -0.0302118
56 1 0.284696 0.64911 0.914703 0 0.0174104 -0.0302123
ITEM: TIMESTEP
4
ITEM: NUMBER OF ATOMS
56
ITEM: BOX BOUNDS xy xz yz pp pp pp
-3.1262502670288086e+00 1.2206987559795380e+01 -4.7683715820312500e-07
-7.5370073318481445e-03 5.5339480042457581e+00 -3.1043620705604553e+00
-3.2569408416748047e-02 1.9052529454231262e+01 2.8610229492187500e-06
ITEM: ATOMS id type xs ys zs fx fy fz
1 1 0.58423 1.01994 0.136534 0 -0.0191439 0.0177411
2 1 0.33423 0.146727 0.136534 0 0.0191442 0.0177405
3 1 0.257094 0.999933 0.278227 0 0.00959373 0.00274217
4 1 0.00709365 0.166734 0.278227 0 -0.00959408 0.00274229
5 1 0.92981 -0.00088672 0.419334 0 -0.00306761 0.00545001
6 1 0.0842299 1.01994 0.136534 0 -0.0191436 0.0177411
7 1 0.997474 0.54374 0.0644117 0 0.00655401 0.000900865
8 1 0.83423 0.146727 0.136534 0 0.0191437 0.017741
9 1 0.747474 0.622928 0.0644117 0 -0.00655437 0.000901103
10 1 0.757094 0.999933 0.278227 0 0.00959432 0.00274229
11 1 0.67981 0.167554 0.419334 0 0.00306749 0.00545084
12 1 0.602513 -0.000766262 0.560386 0 -0.00672078 -0.0050391
13 1 0.352513 0.167433 0.560386 0 0.00671911 -0.00503922
14 1 0.275091 -0.00118899 0.700949 0 0.00592387 0.0276128
15 1 0.0250913 0.167856 0.700949 0 -0.00592351 0.0276127
16 1 0.948056 1.00528 0.843036 0 0.008582 0.00188875
17 1 0.670671 0.505277 0.207417 0 0.00858176 -0.00188935
18 1 0.507094 0.166734 0.278227 0 -0.00959384 0.00274253
19 1 0.420671 0.66139 0.207417 0 -0.00858247 -0.00188839
20 1 0.42981 -0.000886715 0.419334 0 -0.00306749 0.00545096
21 1 0.343636 0.498811 0.349504 0 0.00592351 -0.0276127
22 1 0.17981 0.167554 0.419334 0 0.00306785 0.00545084
23 1 0.0936355 0.667856 0.349504 0 -0.00592387 -0.0276119
24 1 0.102513 -0.000766278 0.560386 0 -0.00672042 -0.0050385
25 1 0.0162138 0.499234 0.490066 0 -0.00671899 0.00503898
26 1 0.852513 0.167433 0.560386 0 0.00671971 -0.00503922
27 1 0.766214 0.667433 0.490066 0 0.00671983 0.00503981
28 1 0.497474 0.54374 0.0644117 0 0.00655425 0.000900984
29 1 0.247474 0.622928 0.0644117 0 -0.0065546 0.000900984
30 1 0.170671 0.505277 0.207417 0 0.00858223 -0.00188851
31 1 0.920671 0.66139 0.207417 0 -0.00858212 -0.00188863
32 1 0.843636 0.498811 0.349504 0 0.00592351 -0.0276121
33 1 0.698056 0.16139 0.843036 0 -0.008582 0.00188935
34 1 0.621253 1.04374 0.986041 0 0.00655413 -0.000901341
35 1 0.371253 0.122928 0.986041 0 -0.00655377 -0.000901222
36 1 0.775091 -0.00118897 0.700949 0 0.00592339 0.0276127
37 1 0.688917 0.499113 0.631119 0 -0.00306678 -0.00545073
38 1 0.525091 0.167856 0.700949 0 -0.00592375 0.0276124
39 1 0.438917 0.667554 0.631119 0 0.00306761 -0.00545025
40 1 0.448056 1.00528 0.843036 0 0.008582 0.00188828
41 1 0.361633 0.499933 0.772226 0 0.00959384 -0.00274324
42 1 0.198056 0.16139 0.843036 0 -0.00858212 0.00188887
43 1 0.111633 0.666734 0.772226 0 -0.00959384 -0.00274312
44 1 0.121253 1.04374 0.986041 0 0.00655448 -0.000901103
45 1 0.0344969 0.51994 0.913919 0 -0.0191438 -0.0177406
46 1 0.593636 0.667856 0.349504 0 -0.00592375 -0.0276121
47 1 0.516214 0.499234 0.490066 0 -0.00671935 0.00503886
48 1 0.266214 0.667433 0.490066 0 0.0067203 0.00503874
49 1 0.188917 0.499113 0.631119 0 -0.00306737 -0.00545096
50 1 0.938917 0.667554 0.631119 0 0.00306714 -0.00545108
51 1 0.861633 0.499933 0.772226 0 0.00959408 -0.00274324
52 1 0.871253 0.122928 0.986041 0 -0.00655401 -0.000901222
53 1 0.784497 0.646727 0.913919 0 0.0191438 -0.0177406
54 1 0.611633 0.666734 0.772226 0 -0.00959361 -0.00274277
55 1 0.534497 0.51994 0.913919 0 -0.0191439 -0.0177406
56 1 0.284497 0.646727 0.913919 0 0.0191439 -0.01774
ITEM: TIMESTEP
5
ITEM: NUMBER OF ATOMS
56
ITEM: BOX BOUNDS xy xz yz pp pp pp
-3.1262502670288086e+00 1.2206987559795380e+01 -4.7683715820312500e-07
-7.5370073318481445e-03 5.5339480042457581e+00 -3.1043620705604553e+00
-3.2569408416748047e-02 1.9052529454231262e+01 2.8610229492187500e-06
ITEM: ATOMS id type xs ys zs fx fy fz
1 1 0.584334 1.01879 0.136944 0 -0.00159228 0.000313163
2 1 0.334334 0.147878 0.136944 0 0.0015924 0.000313997
3 1 0.257124 1.00063 0.278346 0 0.00442183 0.00421584
4 1 0.00712408 0.166042 0.278346 0 -0.00442088 0.00421584
5 1 0.929854 -0.00113411 0.419505 0 -0.00202918 -0.00406325
6 1 0.084334 1.01879 0.136944 0 -0.00159216 0.000313282
7 1 0.997465 0.544499 0.0643762 0 -0.00529337 -0.0150961
8 1 0.834334 0.147878 0.136944 0 0.00159276 0.00031352
9 1 0.747465 0.622168 0.0643762 0 0.00529349 -0.0150968
10 1 0.757124 1.00063 0.278346 0 0.00442147 0.00421572
11 1 0.679854 0.167801 0.419505 0 0.00202954 -0.00406373
12 1 0.602479 -0.00127275 0.560254 0 -0.000453234 0.0118129
13 1 0.352479 0.16794 0.560254 0 0.000454545 0.0118129
14 1 0.275205 -0.000815789 0.701398 0 0.00234294 0.00270951
15 1 0.0252053 0.167483 0.701398 0 -0.00234306 0.00270927
16 1 0.948079 1.00616 0.843129 0 -0.00483596 0.00301981
17 1 0.670647 0.506162 0.207324 0 -0.00483644 -0.00301921
18 1 0.507124 0.166042 0.278346 0 -0.00442135 0.00421584
19 1 0.420647 0.660505 0.207324 0 0.0048362 -0.00301993
20 1 0.429854 -0.0011341 0.419505 0 -0.00202906 -0.00406396
21 1 0.343522 0.499184 0.349055 0 0.0023433 -0.00270927
22 1 0.179854 0.167801 0.419505 0 0.00202906 -0.00406361
23 1 0.0935216 0.667483 0.349055 0 -0.00234306 -0.00270975
24 1 0.102479 -0.00127275 0.560254 0 -0.000453472 0.0118127
25 1 0.0162474 0.498727 0.490199 0 -0.000454426 -0.0118132
26 1 0.852479 0.16794 0.560254 0 0.000454187 0.011813
27 1 0.766247 0.66794 0.490199 0 0.000453711 -0.0118133
28 1 0.497465 0.544499 0.0643762 0 -0.00529349 -0.0150964
29 1 0.247465 0.622168 0.0643762 0 0.00529361 -0.0150964
30 1 0.170647 0.506162 0.207324 0 -0.00483668 -0.00302017
31 1 0.920647 0.660505 0.207324 0 0.00483572 -0.00302052
32 1 0.843522 0.499184 0.349055 0 0.00234365 -0.00270951
33 1 0.698079 0.160505 0.843129 0 0.00483632 0.00301993
34 1 0.621262 1.0445 0.986077 0 -0.00529349 0.015097
35 1 0.371262 0.122168 0.986077 0 0.00529325 0.0150959
36 1 0.775205 -0.000815801 0.701398 0 0.00234365 0.00270903
37 1 0.688873 0.498866 0.630948 0 -0.00202978 0.00406384
38 1 0.525205 0.167483 0.701398 0 -0.0023433 0.00270939
39 1 0.438873 0.667801 0.630948 0 0.00202894 0.00406337
40 1 0.448079 1.00616 0.843129 0 -0.0048362 0.00302017
41 1 0.361603 0.500625 0.772106 0 0.004421 -0.00421536
42 1 0.198079 0.160505 0.843129 0 0.00483668 0.00301993
43 1 0.111603 0.666042 0.772106 0 -0.00442135 -0.00421476
44 1 0.121262 1.0445 0.986077 0 -0.00529361 0.0150969
45 1 0.0343929 0.51879 0.913509 0 -0.0015924 -0.000314116
46 1 0.593522 0.667483 0.349055 0 -0.00234354 -0.00270987
47 1 0.516247 0.498727 0.490199 0 -0.000454664 -0.0118128
48 1 0.266247 0.66794 0.490199 0 0.000453234 -0.0118128
49 1 0.188873 0.498866 0.630948 0 -0.00202906 0.00406396
50 1 0.938873 0.667801 0.630948 0 0.00202894 0.00406384
51 1 0.861603 0.500625 0.772106 0 0.004421 -0.00421512
52 1 0.871262 0.122168 0.986077 0 0.00529337 0.0150963
53 1 0.784393 0.647878 0.913509 0 0.00159252 -0.00031364
54 1 0.611603 0.666042 0.772106 0 -0.00442159 -0.00421512
55 1 0.534393 0.51879 0.913509 0 -0.0015924 -0.000313997
56 1 0.284393 0.647878 0.913509 0 0.00159216 -0.000314355
ITEM: TIMESTEP
6
ITEM: NUMBER OF ATOMS
56
ITEM: BOX BOUNDS xy xz yz pp pp pp
-3.1262502670288086e+00 1.2206987559795380e+01 -4.7683715820312500e-07
-7.5370073318481445e-03 5.5339480042457581e+00 -3.1043620705604553e+00
-3.2569408416748047e-02 1.9052529454231262e+01 2.8610229492187500e-06
ITEM: ATOMS id type xs ys zs fx fy fz
1 1 0.584364 1.01836 0.137062 0 -0.000770688 0.0012536
2 1 0.334364 0.148304 0.137062 0 0.000770211 0.00125277
3 1 0.257154 1.00113 0.278466 0 -0.0024451 -0.00178587
4 1 0.00715439 0.16554 0.278466 0 0.00244462 -0.00178623
5 1 0.929844 -0.00134532 0.419468 0 0.00160813 0.00208271
6 1 0.0843639 1.01836 0.137062 0 -0.000771046 0.00125349
7 1 0.997384 0.544331 0.064056 0 0.00280857 0.000976562
8 1 0.834364 0.148304 0.137062 0 0.000770092 0.00125313
9 1 0.747384 0.622336 0.064056 0 -0.00280833 0.000977516
10 1 0.757154 1.00113 0.278466 0 -0.00244582 -0.00178611
11 1 0.679844 0.168012 0.419468 0 -0.0016073 0.00208306
12 1 0.602532 -0.00144298 0.560461 0 0.000778913 0.0026294
13 1 0.352532 0.16811 0.560461 0 -0.000779152 0.00262952
14 1 0.275251 -0.000548048 0.701576 0 -0.000165462 -0.000885367
15 1 0.0252506 0.167215 0.701576 0 0.000165701 -0.000885248
16 1 0.948102 1.00606 0.843216 0 -0.00232756 0.00638282
17 1 0.670625 0.506061 0.207237 0 -0.00232685 -0.00638318
18 1 0.507154 0.16554 0.278466 0 0.00244462 -0.00178623
19 1 0.420625 0.660606 0.207237 0 0.00232804 -0.0063827
20 1 0.429844 -0.00134529 0.419468 0 0.00160742 0.00208259
21 1 0.343476 0.499452 0.348877 0 -0.000165701 0.000885606
22 1 0.179844 0.168012 0.419468 0 -0.00160766 0.00208294
23 1 0.0934763 0.667215 0.348877 0 0.000165582 0.000884652
24 1 0.102532 -0.00144298 0.560461 0 0.000778913 0.00262916
25 1 0.0161949 0.498557 0.489992 0 0.000778794 -0.00262904
26 1 0.852532 0.16811 0.560461 0 -0.00077939 0.00262952
27 1 0.766195 0.66811 0.489992 0 -0.000778556 -0.00262988
28 1 0.497384 0.544331 0.064056 0 0.00280833 0.000976562
29 1 0.247384 0.622336 0.064056 0 -0.00280833 0.000976801
30 1 0.170625 0.506061 0.207237 0 -0.00232685 -0.00638247
31 1 0.920625 0.660606 0.207237 0 0.00232828 -0.00638223
32 1 0.843476 0.499452 0.348877 0 -0.000165939 0.000885248
33 1 0.698102 0.160606 0.843216 0 0.00232697 0.00638258
34 1 0.621343 1.04433 0.986397 0 0.00280833 -0.000977516
35 1 0.371343 0.122336 0.986397 0 -0.00280809 -0.000976205
36 1 0.775251 -0.000548019 0.701576 0 -0.000165939 -0.000884771
37 1 0.688883 0.498655 0.630984 0 0.00160718 -0.00208306
38 1 0.525251 0.167215 0.701576 0 0.00016582 -0.000885248
39 1 0.438883 0.668012 0.630984 0 -0.00160778 -0.00208282
40 1 0.448102 1.00606 0.843216 0 -0.00232792 0.00638282
41 1 0.361572 0.501127 0.771987 0 -0.00244462 0.00178611
42 1 0.198102 0.160606 0.843216 0 0.00232708 0.00638282
43 1 0.111572 0.66554 0.771987 0 0.00244486 0.00178552
44 1 0.121343 1.04433 0.986397 0 0.00280833 -0.000977278
45 1 0.0343629 0.518363 0.913391 0 -0.00077045 -0.00125277
46 1 0.593476 0.667215 0.348877 0 0.000166178 0.000885248
47 1 0.516195 0.498557 0.489992 0 0.000779271 -0.00262964
48 1 0.266195 0.66811 0.489992 0 -0.000778675 -0.00262928
49 1 0.188883 0.498655 0.630984 0 0.00160718 -0.00208271
50 1 0.938883 0.668012 0.630984 0 -0.00160706 -0.00208247
51 1 0.861572 0.501127 0.771987 0 -0.00244486 0.00178635
52 1 0.871343 0.122336 0.986397 0 -0.00280797 -0.000976443
53 1 0.784363 0.648304 0.913391 0 0.000770807 -0.0012536
54 1 0.611572 0.66554 0.771987 0 0.0024451 0.00178564
55 1 0.534363 0.518363 0.913391 0 -0.000770569 -0.00125313
56 1 0.284363 0.648304 0.913391 0 0.00077033 -0.00125325
ITEM: TIMESTEP
7
ITEM: NUMBER OF ATOMS
56
ITEM: BOX BOUNDS xy xz yz pp pp pp
-3.1262502670288086e+00 1.2206987559795380e+01 -4.7683715820312500e-07
-7.5370073318481445e-03 5.5339480042457581e+00 -3.1043620705604553e+00
-3.2569408416748047e-02 1.9052529454231262e+01 2.8610229492187500e-06
ITEM: ATOMS id type xs ys zs fx fy fz
1 1 0.584375 1.01824 0.137107 0 -2.72989e-05 -0.00139725
2 1 0.334375 0.148429 0.137107 0 2.80142e-05 -0.00139725
3 1 0.25715 1.00103 0.278448 0 -0.00211561 -0.000257611
4 1 0.00714992 0.165633 0.278448 0 0.00211596 -0.00025773
5 1 0.929854 -0.00126479 0.419506 0 0.00119066 0.000631928
6 1 0.0843755 1.01824 0.137107 0 -2.72989e-05 -0.00139713
7 1 0.997376 0.544505 0.064024 0 0.000896692 -0.00180984
8 1 0.834375 0.148429 0.137107 0 2.76566e-05 -0.00139737
9 1 0.747376 0.622162 0.064024 0 -0.000896335 -0.00181091
10 1 0.75715 1.00103 0.278448 0 -0.00211525 -0.000257134
11 1 0.679854 0.167932 0.419506 0 -0.00119138 0.000631571
12 1 0.602554 -0.00141508 0.56055 0 0.000599265 -0.00128651
13 1 0.352554 0.168082 0.56055 0 -0.000600338 -0.0012871
14 1 0.275253 -0.000516122 0.701587 0 -0.000563025 0.00258887
15 1 0.0252533 0.167183 0.701586 0 0.000562549 0.00258946
16 1 0.948139 1.00588 0.843363 0 -1.81198e-05 -0.000459552
17 1 0.670588 0.505878 0.20709 0 -1.88351e-05 0.000459552
18 1 0.50715 0.165633 0.278448 0 0.00211632 -0.000257969
19 1 0.420588 0.660789 0.20709 0 1.77622e-05 0.000459433
20 1 0.429854 -0.00126482 0.419506 0 0.00119078 0.000632405
21 1 0.343474 0.499484 0.348866 0 -0.000562668 -0.00258946
22 1 0.179854 0.167932 0.419506 0 -0.00119066 0.000631809
23 1 0.0934736 0.667183 0.348866 0 0.000562668 -0.00258875
24 1 0.102554 -0.00141508 0.56055 0 0.000599384 -0.00128639
25 1 0.0161724 0.498585 0.489903 0 0.0006001 0.0012871
26 1 0.852554 0.168082 0.56055 0 -0.000599742 -0.0012871
27 1 0.766172 0.668082 0.489903 0 -0.000599504 0.0012871
28 1 0.497376 0.544505 0.064024 0 0.00089705 -0.00180948
29 1 0.247376 0.622162 0.064024 0 -0.000896573 -0.00180995
30 1 0.170588 0.505878 0.20709 0 -1.85966e-05 0.000459909
31 1 0.920588 0.660789 0.20709 0 1.78814e-05 0.000459552
32 1 0.843474 0.499484 0.348866 0 -0.000562906 -0.00258946
33 1 0.698139 0.160789 0.843363 0 1.87159e-05 -0.000459909
34 1 0.621351 1.0445 0.986429 0 0.000896811 0.00181055
35 1 0.371351 0.122162 0.986429 0 -0.000897288 0.00180984
36 1 0.775253 -0.00051612 0.701587 0 -0.000562906 0.00258899
37 1 0.688873 0.498735 0.630947 0 0.00119138 -0.000631928
38 1 0.525253 0.167183 0.701586 0 0.000562668 0.00258923
39 1 0.438873 0.667932 0.630947 0 -0.00119054 -0.000631928
40 1 0.448139 1.00588 0.843363 0 -1.83582e-05 -0.000459909
41 1 0.361577 0.501034 0.772005 0 -0.00211585 0.000258088
42 1 0.198139 0.160789 0.843363 0 1.84774e-05 -0.000459909
43 1 0.111577 0.665633 0.772005 0 0.00211561 0.00025773
44 1 0.121351 1.0445 0.986429 0 0.000896335 0.00181055
45 1 0.0343514 0.518238 0.913345 0 -2.75373e-05 0.00139725
46 1 0.593474 0.667183 0.348866 0 0.000562668 -0.00258899
47 1 0.516172 0.498585 0.489903 0 0.000600219 0.00128734
48 1 0.266172 0.668082 0.489903 0 -0.000599384 0.00128627
49 1 0.188873 0.498735 0.630947 0 0.00119114 -0.000632524
50 1 0.938873 0.667932 0.630947 0 -0.00119078 -0.000632286
51 1 0.861577 0.501034 0.772005 0 -0.00211573 0.000257254
52 1 0.871351 0.122162 0.986429 0 -0.000896811 0.00180972
53 1 0.784351 0.648429 0.913345 0 2.70605e-05 0.00139773
54 1 0.611577 0.665633 0.772005 0 0.00211561 0.000257492
55 1 0.534351 0.518238 0.913345 0 -2.77758e-05 0.00139725
56 1 0.284351 0.648429 0.913345 0 2.76566e-05 0.00139737
ITEM: TIMESTEP
8
ITEM: NUMBER OF ATOMS
56
ITEM: BOX BOUNDS xy xz yz pp pp pp
-3.1262502670288086e+00 1.2206987559795380e+01 -4.7683715820312500e-07
-7.5370073318481445e-03 5.5339480042457581e+00 -3.1043620705604553e+00
-3.2569408416748047e-02 1.9052529454231262e+01 2.8610229492187500e-06
ITEM: ATOMS id type xs ys zs fx fy fz
1 1 0.584371 1.0182 0.137091 0 0.000448823 0.0003016
2 1 0.334371 0.148463 0.137091 0 -0.000448942 0.000302196
3 1 0.257147 1.00086 0.278438 0 0.000109553 -0.000220776
4 1 0.00714744 0.165805 0.278438 0 -0.000109196 -0.000219941
5 1 0.929859 -0.00116084 0.419528 0 -0.000283122 -0.00115597
6 1 0.0843713 1.0182 0.137091 0 0.000449181 0.000301719
7 1 0.997364 0.544612 0.063979 0 0.000448585 -0.000149727
8 1 0.834371 0.148463 0.137091 0 -0.000448823 0.000301838
9 1 0.747364 0.622055 0.063979 0 -0.000448823 -0.000149608
10 1 0.757147 1.00086 0.278438 0 0.000109315 -0.000220656
11 1 0.679859 0.167828 0.419528 0 0.000282884 -0.00115621
12 1 0.602554 -0.00136604 0.560546 0 0.000603437 0.000254512
13 1 0.352554 0.168033 0.560546 0 -0.000602722 0.000254989
14 1 0.275267 -0.000547076 0.701642 0 -0.000319839 0.000298977
15 1 0.0252673 0.167214 0.701642 0 0.000320077 0.000298381
16 1 0.948146 1.00583 0.843392 0 -3.38554e-05 -3.5882e-05
17 1 0.670581 0.505829 0.207061 0 -3.39746e-05 3.62396e-05
18 1 0.507147 0.165805 0.278438 0 -0.000109315 -0.00022006
19 1 0.420581 0.660838 0.207061 0 3.40939e-05 3.5882e-05
20 1 0.429859 -0.00116087 0.419528 0 -0.000282407 -0.00115597
21 1 0.34346 0.499453 0.348811 0 -0.000320196 -0.000298381
22 1 0.179859 0.167828 0.419528 0 0.000283003 -0.00115621
23 1 0.0934596 0.667214 0.348811 0 0.000319839 -0.000298262
24 1 0.102554 -0.00136604 0.560546 0 0.000603199 0.000254393
25 1 0.0161732 0.498634 0.489906 0 0.000602722 -0.000255108
26 1 0.852554 0.168033 0.560546 0 -0.000602603 0.000254989
27 1 0.766173 0.668033 0.489906 0 -0.00060308 -0.00025475
28 1 0.497364 0.544612 0.063979 0 0.000448823 -0.000150323
29 1 0.247364 0.622055 0.063979 0 -0.000448823 -0.000149846
30 1 0.170581 0.505829 0.207061 0 -3.44515e-05 3.50475e-05
31 1 0.920581 0.660838 0.207061 0 3.38554e-05 3.5882e-05