ITEM: TIMESTEP
0
ITEM: NUMBER OF ATOMS
48
ITEM: BOX BOUNDS xy xz yz pp pp pp
-5.1180748939514160e+00 8.6067802309989929e+00 2.5094206929206848e+00
-9.4973444938659668e-03 9.3236122131347656e+00 -5.1060377955436707e+00
-2.8691649436950684e-02 1.9545819282531738e+01 7.1304261684417725e-02
ITEM: ATOMS id type xs ys zs fx fy fz
1 1 0.948362 0.16703 0.0320218 0 0 2.69179
2 1 0.502377 0.0738739 0.0528103 0 0 -0.0379829
3 1 0.572816 0.125314 0.657023 0 0 0.000406265
4 1 0.776453 0.948847 0.927808 0 0 -2.69176
5 1 0.451681 0.157156 0.802805 0 0 -0.00416565
6 1 0.222438 0.0420026 0.90702 0 0 0.0379829
7 1 0.897663 0.250315 0.78202 0 0 0.00139236
8 1 0.922913 0.208712 0.407029 0 0 0.00127792
9 1 0.126835 0.0321465 0.677802 0 0 -0.00407028
10 1 0.801903 0.240498 0.552801 0 0 -0.00127029
11 1 0.827152 0.198895 0.17781 0 0 -0.00139618
12 1 0.597981 0.0837297 0.282028 0 0 0.00406837
13 1 0.273135 0.292053 0.157025 0 0 0.00416374
14 1 0.476931 0.115534 0.427803 0 0 0.000146866
15 1 0.948363 0.500363 0.0320219 0 0 2.69176
16 1 0.502377 0.407207 0.0528103 0 0 -0.0379829
17 1 0.572816 0.458648 0.657023 0 0 0.00041008
18 1 0.776452 0.28218 0.927808 0 0 -2.69179
19 1 0.45168 0.49049 0.802805 0 0 -0.00415802
20 1 0.222438 0.375336 0.90702 0 0 0.0379887
21 1 0.897663 0.583648 0.78202 0 0 0.00138855
22 1 0.247885 0.333676 0.532027 0 0 -0.000150681
23 1 0.922913 0.542046 0.407029 0 0 0.0012722
24 1 0.126835 0.36548 0.677802 0 0 -0.00406456
25 1 0.801903 0.573831 0.552801 0 0 -0.00127411
26 1 0.151999 0.323895 0.302807 0 0 -0.000404358
27 1 0.827152 0.532228 0.17781 0 0 -0.00139618
28 1 0.597981 0.417063 0.282028 0 0 0.0040741
29 1 0.273135 0.625387 0.157025 0 0 0.00415993
30 1 0.476931 0.448867 0.427803 0 0 0.000146866
31 1 0.948363 0.833696 0.0320219 0 0 2.69175
32 1 0.502377 0.740541 0.0528104 0 0 -0.0379829
33 1 0.572816 0.791981 0.657023 0 0 0.000408173
34 1 0.776452 0.615514 0.927808 0 0 -2.69176
35 1 0.451681 0.823823 0.802805 0 0 -0.00415802
36 1 0.222438 0.708669 0.90702 0 0 0.0379829
37 1 0.897663 0.916981 0.78202 0 0 0.00139236
38 1 0.247885 0.667009 0.532027 0 0 -0.000152588
39 1 0.922913 0.875379 0.407029 0 0 0.0012722
40 1 0.126834 0.698813 0.677802 0 0 -0.00407028
41 1 0.801902 0.907164 0.552801 0 0 -0.00126839
42 1 0.151999 0.657228 0.302807 0 0 -0.00041008
43 1 0.827153 0.865562 0.17781 0 0 -0.00139427
44 1 0.597981 0.750396 0.282028 0 0 0.00407028
45 1 0.273135 0.95872 0.157026 0 0 0.00415802
46 1 0.476931 0.782201 0.427803 0 0 0.000152588
47 1 0.247884 0.000342385 0.532027 0 0 -0.000152588
48 1 0.151999 0.990562 0.302807 0 0 -0.000408173
ITEM: TIMESTEP
1
ITEM: NUMBER OF ATOMS
48
ITEM: BOX BOUNDS xy xz yz pp pp pp
-5.1180748939514160e+00 8.6067802309989929e+00 2.5094206929206848e+00
-9.4973444938659668e-03 9.3236122131347656e+00 -5.1060377955436707e+00
-2.8691649436950684e-02 1.9545819282531738e+01 7.1304261684417725e-02
ITEM: ATOMS id type xs ys zs fx fy fz
1 1 0.952648 0.16699 0.0371305 0 0 1.37879
2 1 0.502317 0.0738745 0.0527382 0 0 -0.0447845
3 1 0.572817 0.125314 0.657024 0 0 -0.000595093
4 1 0.772167 0.948886 0.9227 0 0 -1.37879
5 1 0.451674 0.157157 0.802797 0 0 -0.0834026
6 1 0.222498 0.042002 0.907092 0 0 0.0447865
7 1 0.897665 0.250315 0.782023 0 0 -0.0539017
8 1 0.922915 0.208712 0.407032 0 0 0
9 1 0.126828 0.0321465 0.677794 0 0 -0.00709724
10 1 0.801901 0.240498 0.552798 0 0 7.62939e-06
11 1 0.82715 0.198895 0.177807 0 0 0.0539036
12 1 0.597987 0.0837296 0.282036 0 0 0.00710106
13 1 0.273142 0.292053 0.157033 0 0 0.0834026
14 1 0.476931 0.115534 0.427804 0 0 -0.000818253
15 1 0.952649 0.500324 0.0371306 0 0 1.37879
16 1 0.502317 0.407208 0.0527382 0 0 -0.0447903
17 1 0.572817 0.458648 0.657024 0 0 -0.000591278
18 1 0.772167 0.28222 0.9227 0 0 -1.37879
19 1 0.451674 0.49049 0.802797 0 0 -0.0833988
20 1 0.222498 0.375335 0.907092 0 0 0.0447941
21 1 0.897665 0.583648 0.782023 0 0 -0.0539036
22 1 0.247885 0.333676 0.532027 0 0 0.000810623
23 1 0.922915 0.542045 0.407032 0 0 -3.8147e-06
24 1 0.126828 0.36548 0.677794 0 0 -0.00709915
25 1 0.801901 0.573831 0.552798 0 0 7.62939e-06
26 1 0.151999 0.323895 0.302806 0 0 0.000595093
27 1 0.82715 0.532228 0.177807 0 0 0.0539036
28 1 0.597987 0.417063 0.282036 0 0 0.00709915
29 1 0.273142 0.625386 0.157033 0 0 0.0834007
30 1 0.476931 0.448867 0.427803 0 0 -0.000818253
31 1 0.952648 0.833657 0.0371306 0 0 1.37879
32 1 0.502317 0.740541 0.0527383 0 0 -0.0447922
33 1 0.572817 0.791981 0.657024 0 0 -0.000595093
34 1 0.772167 0.615553 0.9227 0 0 -1.3788
35 1 0.451674 0.823823 0.802797 0 0 -0.0834007
36 1 0.222498 0.708669 0.907092 0 0 0.0447922
37 1 0.897665 0.916981 0.782023 0 0 -0.0539055
38 1 0.247884 0.667009 0.532027 0 0 0.000810623
39 1 0.922915 0.875379 0.407032 0 0 -1.33514e-05
40 1 0.126828 0.698813 0.677794 0 0 -0.00709343
41 1 0.8019 0.907164 0.552798 0 0 3.8147e-06
42 1 0.151999 0.657228 0.302806 0 0 0.000598907
43 1 0.82715 0.865562 0.177807 0 0 0.0539017
44 1 0.597987 0.750396 0.282036 0 0 0.00709915
45 1 0.273142 0.95872 0.157033 0 0 0.0833969
46 1 0.476931 0.782201 0.427804 0 0 -0.000814438
47 1 0.247884 0.000342388 0.532027 0 0 0.000810623
48 1 0.151999 0.990562 0.302807 0 0 0.000598907
ITEM: TIMESTEP
2
ITEM: NUMBER OF ATOMS
48
ITEM: BOX BOUNDS xy xz yz pp pp pp
-5.1180748939514160e+00 8.6067802309989929e+00 2.5094206929206848e+00
-9.4973444938659668e-03 9.3236122131347656e+00 -5.1060377955436707e+00
-2.8691649436950684e-02 1.9545819282531738e+01 7.1304261684417725e-02
ITEM: ATOMS id type xs ys zs fx fy fz
1 1 0.956934 0.166951 0.0422392 0 0 0.404915
2 1 0.502177 0.0738758 0.0525723 0 0 -0.042902
3 1 0.572815 0.125314 0.657021 0 0 -0.00779533
4 1 0.767881 0.948926 0.917591 0 0 -0.404907
5 1 0.451415 0.157159 0.802488 0 0 -0.168396
6 1 0.222638 0.0420008 0.907258 0 0 0.0429001
7 1 0.897498 0.250316 0.781823 0 0 -0.11746
8 1 0.922915 0.208712 0.407032 0 0 -0.000570297
9 1 0.126806 0.0321468 0.677768 0 0 -0.0142708
10 1 0.801901 0.240498 0.552798 0 0 0.000577927
11 1 0.827318 0.198893 0.178007 0 0 0.117464
12 1 0.598009 0.0837294 0.282062 0 0 0.0142708
13 1 0.273401 0.292051 0.157342 0 0 0.168392
14 1 0.476929 0.115534 0.4278 0 0 -0.000921249
15 1 0.956934 0.500284 0.0422392 0 0 0.404911
16 1 0.502178 0.407209 0.0525723 0 0 -0.0429001
17 1 0.572815 0.458648 0.657021 0 0 -0.0077858
18 1 0.767881 0.282259 0.917591 0 0 -0.404921
19 1 0.451415 0.490492 0.802488 0 0 -0.168392
20 1 0.222638 0.375334 0.907258 0 0 0.042902
21 1 0.897498 0.58365 0.781823 0 0 -0.117464
22 1 0.247887 0.333676 0.53203 0 0 0.000919342
23 1 0.922915 0.542045 0.407032 0 0 -0.000576019
24 1 0.126806 0.36548 0.677768 0 0 -0.014267
25 1 0.801901 0.573831 0.552798 0 0 0.000574112
26 1 0.152001 0.323895 0.302809 0 0 0.00779343
27 1 0.827318 0.532227 0.178007 0 0 0.117462
28 1 0.598009 0.417063 0.282062 0 0 0.0142708
29 1 0.273401 0.625384 0.157342 0 0 0.16839
30 1 0.476928 0.448867 0.4278 0 0 -0.000925064
31 1 0.956934 0.833618 0.0422392 0 0 0.404915
32 1 0.502178 0.740542 0.0525723 0 0 -0.0428982
33 1 0.572815 0.791981 0.657021 0 0 -0.00778961
34 1 0.767881 0.615592 0.917591 0 0 -0.404913
35 1 0.451415 0.823826 0.802488 0 0 -0.16839
36 1 0.222638 0.708667 0.907258 0 0 0.0429001
37 1 0.897498 0.916983 0.781823 0 0 -0.11746
38 1 0.247887 0.667009 0.53203 0 0 0.000926971
39 1 0.922915 0.875379 0.407032 0 0 -0.000576019
40 1 0.126806 0.698814 0.677768 0 0 -0.014267
41 1 0.8019 0.907164 0.552798 0 0 0.000576019
42 1 0.152 0.657228 0.302809 0 0 0.00778961
43 1 0.827318 0.86556 0.178007 0 0 0.117458
44 1 0.59801 0.750396 0.282062 0 0 0.014267
45 1 0.273401 0.958717 0.157342 0 0 0.168386
46 1 0.476929 0.782201 0.4278 0 0 -0.000925064
47 1 0.247887 0.000342364 0.53203 0 0 0.000919342
48 1 0.152001 0.990562 0.302809 0 0 0.00779152
ITEM: TIMESTEP
3
ITEM: NUMBER OF ATOMS
48
ITEM: BOX BOUNDS xy xz yz pp pp pp
-5.1180748939514160e+00 8.6067802309989929e+00 2.5094206929206848e+00
-9.4973444938659668e-03 9.3236122131347656e+00 -5.1060377955436707e+00
-2.8691649436950684e-02 1.9545819282531738e+01 7.1304261684417725e-02
ITEM: ATOMS id type xs ys zs fx fy fz
1 1 0.960244 0.166921 0.0461851 0 0 -0.125309
2 1 0.501827 0.073879 0.0521542 0 0 0.00233841
3 1 0.572751 0.125315 0.656946 0 0 -0.0387115
4 1 0.764571 0.948956 0.913645 0 0 0.125301
5 1 0.450038 0.157172 0.800847 0 0 -0.163029
6 1 0.222988 0.0419975 0.907676 0 0 -0.00233841
7 1 0.896537 0.250325 0.780678 0 0 -0.125509
8 1 0.92291 0.208712 0.407026 0 0 0.00231934
9 1 0.12669 0.0321478 0.677629 0 0 -0.0424938
10 1 0.801905 0.240498 0.552804 0 0 -0.00231743
11 1 0.828278 0.198885 0.179152 0 0 0.125509
12 1 0.598126 0.0837283 0.282201 0 0 0.0424919
13 1 0.274778 0.292038 0.158983 0 0 0.163025
14 1 0.476921 0.115534 0.427791 0 0 0.00253868
15 1 0.960245 0.500254 0.0461851 0 0 -0.125307
16 1 0.501827 0.407212 0.0521542 0 0 0.00233841
17 1 0.572751 0.458648 0.656946 0 0 -0.0387058
18 1 0.76457 0.282289 0.913645 0 0 0.125319
19 1 0.450038 0.490505 0.800847 0 0 -0.163029
20 1 0.222988 0.375331 0.907676 0 0 -0.00233841
21 1 0.896537 0.583659 0.780678 0 0 -0.125504
22 1 0.247895 0.333676 0.532039 0 0 -0.00253487
23 1 0.92291 0.542046 0.407026 0 0 0.00232315
24 1 0.12669 0.365481 0.677629 0 0 -0.0424881
25 1 0.801905 0.573831 0.552804 0 0 -0.00232315
26 1 0.152064 0.323895 0.302885 0 0 0.0387058
27 1 0.828278 0.532218 0.179152 0 0 0.125509
28 1 0.598126 0.417062 0.282201 0 0 0.0424938
29 1 0.274777 0.625371 0.158983 0 0 0.163025
30 1 0.476921 0.448868 0.427791 0 0 0.00253868
31 1 0.960245 0.833587 0.0461852 0 0 -0.125313
32 1 0.501827 0.740546 0.0521543 0 0 0.00233459
33 1 0.572751 0.791982 0.656945 0 0 -0.038702
34 1 0.764571 0.615623 0.913645 0 0 0.125305
35 1 0.450038 0.823838 0.800847 0 0 -0.163025
36 1 0.222988 0.708664 0.907676 0 0 -0.0023365
37 1 0.896537 0.916992 0.780678 0 0 -0.125505
38 1 0.247895 0.667009 0.532039 0 0 -0.00253868
39 1 0.92291 0.875379 0.407026 0 0 0.00232124
40 1 0.126689 0.698815 0.677629 0 0 -0.04249
41 1 0.801905 0.907164 0.552804 0 0 -0.00231934
42 1 0.152064 0.657228 0.302885 0 0 0.0387058
43 1 0.828278 0.865551 0.179152 0 0 0.125504
44 1 0.598126 0.750395 0.282201 0 0 0.0424919
45 1 0.274778 0.958705 0.158983 0 0 0.163027
46 1 0.476921 0.782201 0.427791 0 0 0.00253487
47 1 0.247894 0.000342295 0.532039 0 0 -0.00253677
48 1 0.152064 0.990561 0.302885 0 0 0.0387039
ITEM: TIMESTEP
4
ITEM: NUMBER OF ATOMS
48
ITEM: BOX BOUNDS xy xz yz pp pp pp
-5.1180748939514160e+00 8.6067802309989929e+00 2.5094206929206848e+00
-9.4973444938659668e-03 9.3236122131347656e+00 -5.1060377955436707e+00
-2.8691649436950684e-02 1.9545819282531738e+01 7.1304261684417725e-02
ITEM: ATOMS id type xs ys zs fx fy fz
1 1 0.960369 0.166919 0.046333 0 0 -0.0103207
2 1 0.501664 0.0738805 0.0519599 0 0 0.0765476
3 1 0.572186 0.12532 0.656271 0 0 -0.0841084
4 1 0.764447 0.948957 0.913497 0 0 0.0103283
5 1 0.447039 0.157199 0.797272 0 0 0.0289345
6 1 0.223151 0.041996 0.90787 0 0 -0.0765457
7 1 0.894284 0.250346 0.777993 0 0 0.0045433
8 1 0.922939 0.208712 0.407061 0 0 0.016058
9 1 0.126043 0.0321538 0.676858 0 0 -0.0851917
10 1 0.801876 0.240498 0.552769 0 0 -0.0160599
11 1 0.830531 0.198864 0.181838 0 0 -0.00454903
12 1 0.598773 0.0837224 0.282973 0 0 0.0851917
13 1 0.277776 0.292011 0.162558 0 0 -0.0289364
14 1 0.476952 0.115534 0.427828 0 0 0.017374
15 1 0.960369 0.500253 0.046333 0 0 -0.0103264
16 1 0.501664 0.407214 0.05196 0 0 0.0765476
17 1 0.572186 0.458654 0.656271 0 0 -0.0841179
18 1 0.764446 0.28229 0.913497 0 0 0.0103188
19 1 0.447039 0.490533 0.797272 0 0 0.0289421
20 1 0.223151 0.375329 0.90787 0 0 -0.0765457
21 1 0.894284 0.583679 0.777993 0 0 0.0045414
22 1 0.247864 0.333676 0.532002 0 0 -0.0173759
23 1 0.92294 0.542045 0.407061 0 0 0.016058
24 1 0.126043 0.365487 0.676858 0 0 -0.0851974
25 1 0.801876 0.573831 0.552769 0 0 -0.016058
26 1 0.15263 0.323889 0.303559 0 0 0.0841064
27 1 0.830531 0.532197 0.181838 0 0 -0.00453758
28 1 0.598773 0.417056 0.282973 0 0 0.0851917
29 1 0.277776 0.625344 0.162558 0 0 -0.0289345
30 1 0.476951 0.448867 0.427828 0 0 0.0173702
31 1 0.960369 0.833586 0.046333 0 0 -0.0103226
32 1 0.501664 0.740547 0.05196 0 0 0.0765438
33 1 0.572186 0.791987 0.656271 0 0 -0.0841084
34 1 0.764446 0.615624 0.913497 0 0 0.0103302
35 1 0.447039 0.823866 0.797273 0 0 0.0289364
36 1 0.223151 0.708663 0.90787 0 0 -0.0765457
37 1 0.894284 0.917012 0.777993 0 0 0.00453568
38 1 0.247864 0.667009 0.532002 0 0 -0.017374
39 1 0.922939 0.875379 0.407061 0 0 0.016058
40 1 0.126042 0.698821 0.676858 0 0 -0.0851955
41 1 0.801876 0.907164 0.552769 0 0 -0.0160561
42 1 0.15263 0.657223 0.303559 0 0 0.0841103
43 1 0.830531 0.86553 0.181837 0 0 -0.00453377
44 1 0.598773 0.750389 0.282973 0 0 0.0851974
45 1 0.277776 0.958677 0.162558 0 0 -0.0289364
46 1 0.476952 0.782201 0.427828 0 0 0.0173721
47 1 0.247864 0.000342576 0.532002 0 0 -0.017374
48 1 0.15263 0.990556 0.303559 0 0 0.0841141
ITEM: TIMESTEP
5
ITEM: NUMBER OF ATOMS
48
ITEM: BOX BOUNDS xy xz yz pp pp pp
-5.1180748939514160e+00 8.6067802309989929e+00 2.5094206929206848e+00
-9.4973444938659668e-03 9.3236122131347656e+00 -5.1060377955436707e+00
-2.8691649436950684e-02 1.9545819282531738e+01 7.1304261684417725e-02
ITEM: ATOMS id type xs ys zs fx fy fz
1 1 0.960205 0.166921 0.0461383 0 0 0.0538826
2 1 0.503236 0.073866 0.0538344 0 0 -0.0138607
3 1 0.570103 0.125339 0.653789 0 0 0.00174522
4 1 0.76461 0.948956 0.913692 0 0 -0.0538921
5 1 0.446234 0.157206 0.796313 0 0 0.00553131
6 1 0.221579 0.0420105 0.905996 0 0 0.0138645
7 1 0.893309 0.250355 0.77683 0 0 -0.0119934
8 1 0.923299 0.208709 0.40749 0 0 0.0425072
9 1 0.123898 0.0321734 0.674301 0 0 0.00681686
10 1 0.801516 0.240501 0.55234 0 0 -0.0425072
11 1 0.831507 0.198855 0.183 0 0 0.0119972
12 1 0.600918 0.0837027 0.285529 0 0 -0.00681686
13 1 0.278581 0.292003 0.163517 0 0 -0.00553131
14 1 0.477341 0.11553 0.428292 0 0 0.046381
15 1 0.960205 0.500254 0.0461381 0 0 0.0539017
16 1 0.503236 0.407199 0.0538344 0 0 -0.0138683
17 1 0.570103 0.458673 0.653789 0 0 0.00175476
18 1 0.76461 0.282289 0.913692 0 0 -0.0538864
19 1 0.446235 0.49054 0.796313 0 0 0.00552368
20 1 0.221579 0.375344 0.905996 0 0 0.0138626
21 1 0.893309 0.583688 0.77683 0 0 -0.0119972
22 1 0.247475 0.333679 0.531538 0 0 -0.0463829
23 1 0.9233 0.542042 0.40749 0 0 0.0424995
24 1 0.123898 0.365507 0.674301 0 0 0.00682068
25 1 0.801516 0.573834 0.55234 0 0 -0.0425053
26 1 0.154712 0.32387 0.306041 0 0 -0.00173569
27 1 0.831507 0.532188 0.183001 0 0 0.0119781
28 1 0.600918 0.417036 0.285529 0 0 -0.00681877
29 1 0.278581 0.625337 0.163517 0 0 -0.00553322
30 1 0.47734 0.448864 0.428292 0 0 0.0463886
31 1 0.960205 0.833588 0.0461382 0 0 0.0538902
32 1 0.503236 0.740533 0.0538343 0 0 -0.0138531
33 1 0.570103 0.792006 0.653789 0 0 0.00173759
34 1 0.76461 0.615622 0.913692 0 0 -0.053896
35 1 0.446235 0.823873 0.796313 0 0 0.00553131
36 1 0.221579 0.708677 0.905996 0 0 0.013855
37 1 0.893309 0.917021 0.77683 0 0 -0.0119858
38 1 0.247475 0.667013 0.531539 0 0 -0.0463867
39 1 0.923299 0.875375 0.40749 0 0 0.0425091
40 1 0.123897 0.69884 0.674301 0 0 0.00682259
41 1 0.801516 0.907168 0.55234 0 0 -0.0425091
42 1 0.154712 0.657204 0.306041 0 0 -0.00173378
43 1 0.831507 0.865522 0.183 0 0 0.0119858
44 1 0.600918 0.750369 0.285529 0 0 -0.0068264
45 1 0.278581 0.95867 0.163517 0 0 -0.0055275
46 1 0.477341 0.782197 0.428292 0 0 0.0463867
47 1 0.247474 0.000346147 0.531538 0 0 -0.046381
48 1 0.154713 0.990537 0.306042 0 0 -0.00174522
ITEM: TIMESTEP
6
ITEM: NUMBER OF ATOMS
48
ITEM: BOX BOUNDS xy xz yz pp pp pp
-5.1180748939514160e+00 8.6067802309989929e+00 2.5094206929206848e+00
-9.4973444938659668e-03 9.3236122131347656e+00 -5.1060377955436707e+00
-2.8691649436950684e-02 1.9545819282531738e+01 7.1304261684417725e-02
ITEM: ATOMS id type xs ys zs fx fy fz
1 1 0.960748 0.166916 0.0467851 0 0 -0.01717
2 1 0.503376 0.0738648 0.0540004 0 0 -0.0196648
3 1 0.569742 0.125343 0.653358 0 0 0.000581741
4 1 0.764067 0.948961 0.913045 0 0 0.017168
5 1 0.446147 0.157207 0.796208 0 0 -0.0137253
6 1 0.221439 0.0420117 0.90583 0 0 0.0196629
7 1 0.893003 0.250358 0.776466 0 0 -0.015686
8 1 0.923817 0.208704 0.408107 0 0 0.00727844
9 1 0.123579 0.0321764 0.673922 0 0 0.00468445
10 1 0.800999 0.240506 0.551724 0 0 -0.00728035
11 1 0.831812 0.198852 0.183364 0 0 0.0156918
12 1 0.601236 0.0836998 0.285909 0 0 -0.00468445
13 1 0.278669 0.292002 0.163622 0 0 0.0137367
14 1 0.477905 0.115525 0.428964 0 0 0.0104713
15 1 0.960748 0.500249 0.0467852 0 0 -0.0171795
16 1 0.503376 0.407198 0.0540004 0 0 -0.0196705
17 1 0.569742 0.458676 0.653358 0 0 0.000581741
18 1 0.764067 0.282294 0.913045 0 0 0.0171661
19 1 0.446147 0.490541 0.796208 0 0 -0.0137367
20 1 0.22144 0.375345 0.90583 0 0 0.0196648
21 1 0.893003 0.583691 0.776466 0 0 -0.0156841
22 1 0.246911 0.333685 0.530867 0 0 -0.0104675
23 1 0.923817 0.542037 0.408107 0 0 0.00727844
24 1 0.12358 0.36551 0.673922 0 0 0.00468445
25 1 0.800999 0.573839 0.551724 0 0 -0.00728226
26 1 0.155074 0.323867 0.306472 0 0 -0.000583649
27 1 0.831812 0.532185 0.183364 0 0 0.0156918
28 1 0.601236 0.417033 0.285909 0 0 -0.00468445
29 1 0.278669 0.625336 0.163622 0 0 0.0137386
30 1 0.477904 0.448859 0.428964 0 0 0.0104713
31 1 0.960748 0.833583 0.0467851 0 0 -0.01717
32 1 0.503376 0.740531 0.0540004 0 0 -0.0196667
33 1 0.569742 0.792009 0.653358 0 0 0.000579834
34 1 0.764067 0.615627 0.913045 0 0 0.0171719
35 1 0.446147 0.823874 0.796208 0 0 -0.0137367
36 1 0.221439 0.708678 0.90583 0 0 0.0196705
37 1 0.893003 0.917024 0.776466 0 0 -0.0156841
38 1 0.246911 0.667018 0.530867 0 0 -0.0104694
39 1 0.923817 0.87537 0.408107 0 0 0.00728798
40 1 0.123579 0.698843 0.673922 0 0 0.00468063
41 1 0.800999 0.907172 0.551724 0 0 -0.00728798
42 1 0.155073 0.6572 0.306472 0 0 -0.000581741
43 1 0.831812 0.865519 0.183364 0 0 0.0156898
44 1 0.601236 0.750367 0.285909 0 0 -0.00469017
45 1 0.278669 0.958669 0.163622 0 0 0.0137367
46 1 0.477904 0.782192 0.428964 0 0 0.0104713
47 1 0.246911 0.000351319 0.530867 0 0 -0.0104752
48 1 0.155074 0.990534 0.306472 0 0 -0.000579834
ITEM: TIMESTEP
7
ITEM: NUMBER OF ATOMS
48
ITEM: BOX BOUNDS xy xz yz pp pp pp
-5.1180748939514160e+00 8.6067802309989929e+00 2.5094206929206848e+00
-9.4973444938659668e-03 9.3236122131347656e+00 -5.1060377955436707e+00
-2.8691649436950684e-02 1.9545819282531738e+01 7.1304261684417725e-02
ITEM: ATOMS id type xs ys zs fx fy fz
1 1 0.960653 0.166917 0.0466726 0 0 0.0039444
2 1 0.503208 0.0738663 0.0538008 0 0 -0.00446129
3 1 0.569703 0.125343 0.653312 0 0 -0.00592995
4 1 0.764162 0.94896 0.913158 0 0 -0.0039463
5 1 0.446007 0.157209 0.796042 0 0 -0.0013485
6 1 0.221607 0.0420102 0.906029 0 0 0.00445747
7 1 0.892819 0.250359 0.776246 0 0 -0.00113106
8 1 0.923948 0.208703 0.408264 0 0 -0.00427246
9 1 0.123584 0.0321763 0.673927 0 0 -0.00401115
10 1 0.800867 0.240507 0.551566 0 0 0.00427246
11 1 0.831997 0.19885 0.183584 0 0 0.00113106
12 1 0.601231 0.0836998 0.285903 0 0 0.00401115
13 1 0.278809 0.292001 0.163788 0 0 0.00135422
14 1 0.478072 0.115524 0.429163 0 0 -0.00229645
15 1 0.960654 0.50025 0.0466726 0 0 0.00394821
16 1 0.503208 0.4072 0.0538007 0 0 -0.00445175
17 1 0.569703 0.458676 0.653312 0 0 -0.00592804
18 1 0.764161 0.282293 0.913157 0 0 -0.00395203
19 1 0.446007 0.490542 0.796042 0 0 -0.00134468
20 1 0.221607 0.375344 0.906029 0 0 0.00445366
21 1 0.892819 0.583693 0.776246 0 0 -0.00112724
22 1 0.246744 0.333686 0.530667 0 0 0.00229454
23 1 0.923949 0.542036 0.408264 0 0 -0.00427246
24 1 0.123584 0.36551 0.673927 0 0 -0.00401306
25 1 0.800867 0.57384 0.551566 0 0 0.00427628
26 1 0.155112 0.323867 0.306518 0 0 0.00593567
27 1 0.831997 0.532184 0.183584 0 0 0.00113297
28 1 0.601231 0.417033 0.285903 0 0 0.00400734
29 1 0.278809 0.625334 0.163788 0 0 0.00134659
30 1 0.478072 0.448857 0.429163 0 0 -0.00228691
31 1 0.960654 0.833583 0.0466727 0 0 0.00395012
32 1 0.503208 0.740533 0.0538008 0 0 -0.00445938
33 1 0.569703 0.79201 0.653312 0 0 -0.00593758
34 1 0.764162 0.615626 0.913158 0 0 -0.00395012
35 1 0.446007 0.823875 0.796042 0 0 -0.0013485
36 1 0.221607 0.708677 0.906029 0 0 0.00445938
37 1 0.892819 0.917026 0.776246 0 0 -0.00113106
38 1 0.246743 0.66702 0.530667 0 0 0.00229073
39 1 0.923949 0.875369 0.408264 0 0 -0.00428009
40 1 0.123584 0.698843 0.673927 0 0 -0.00400543
41 1 0.800867 0.907174 0.551566 0 0 0.00427437
42 1 0.155112 0.6572 0.306518 0 0 0.00592232
43 1 0.831997 0.865517 0.183584 0 0 0.00112152
44 1 0.601231 0.750367 0.285903 0 0 0.00401115
45 1 0.278809 0.958668 0.163788 0 0 0.0013504
46 1 0.478072 0.78219 0.429163 0 0 -0.0022831
47 1 0.246743 0.000352858 0.530667 0 0 0.00229645
48 1 0.155113 0.990533 0.306518 0 0 0.00592613
ITEM: TIMESTEP
8
ITEM: NUMBER OF ATOMS
48
ITEM: BOX BOUNDS xy xz yz pp pp pp
-5.1180748939514160e+00 8.6067802309989929e+00 2.5094206929206848e+00
-9.4973444938659668e-03 9.3236122131347656e+00 -5.1060377955436707e+00
-2.8691649436950684e-02 1.9545819282531738e+01 7.1304261684417725e-02
ITEM: ATOMS id type xs ys zs fx fy fz
1 1 0.960694 0.166916 0.0467211 0 0 0.000436783
2 1 0.50312 0.0738671 0.0536956 0 0 0.00250435
3 1 0.569614 0.125344 0.653206 0 0 -0.00138474
4 1 0.764121 0.94896 0.913109 0 0 -0.000432968
5 1 0.445967 0.157209 0.795994 0 0 -0.00102806
6 1 0.221695 0.0420094 0.906134 0 0 -0.00250626
7 1 0.892774 0.25036 0.776193 0 0 -0.000154495
8 1 0.923909 0.208703 0.408217 0 0 0.000511169
9 1 0.123529 0.0321768 0.673861 0 0 -0.00111198
10 1 0.800907 0.240507 0.551613 0 0 -0.000505447
11 1 0.832041 0.19885 0.183637 0 0 0.000148773
12 1 0.601287 0.0836993 0.285969 0 0 0.0011158
13 1 0.278849 0.292001 0.163837 0 0 0.00101852
14 1 0.478066 0.115524 0.429156 0 0 0.00104713
15 1 0.960694 0.50025 0.0467211 0 0 0.000436783
16 1 0.50312 0.4072 0.0536957 0 0 0.00250435
17 1 0.569614 0.458677 0.653206 0 0 -0.00138092
18 1 0.764121 0.282293 0.913109 0 0 -0.000421524
19 1 0.445966 0.490542 0.795994 0 0 -0.00102425
20 1 0.221695 0.375343 0.906134 0 0 -0.00250435
21 1 0.892774 0.583693 0.776193 0 0 -0.00015831
22 1 0.24675 0.333686 0.530674 0 0 -0.00104713
23 1 0.923909 0.542036 0.408217 0 0 0.00050354
24 1 0.123529 0.36551 0.673861 0 0 -0.00110054
25 1 0.800906 0.57384 0.551613 0 0 -0.000505447
26 1 0.155202 0.323866 0.306624 0 0 0.00137901
27 1 0.832041 0.532183 0.183637 0 0 0.000148773
28 1 0.601287 0.417033 0.285969 0 0 0.00111198
29 1 0.278849 0.625334 0.163837 0 0 0.00102425
30 1 0.478066 0.448857 0.429156 0 0 0.00104523
31 1 0.960694 0.833583 0.0467212 0 0 0.000427246
32 1 0.50312 0.740534 0.0536957 0 0 0.00250626
33 1 0.569614 0.79201 0.653206 0 0 -0.00138664
34 1 0.764121 0.615627 0.913109 0 0 -0.000436783
35 1 0.445967 0.823876 0.795994 0 0 -0.00101852
36 1 0.221695 0.708676 0.906135 0 0 -0.00251007
37 1 0.892774 0.917026 0.776193 0 0 -0.000152588
38 1 0.24675 0.667019 0.530674 0 0 -0.00104332
39 1 0.923909 0.87537 0.408217 0 0 0.000505447
40 1 0.123529 0.698844 0.673861 0 0 -0.0011158
41 1 0.800906 0.907173 0.551613 0 0 -0.000501633
42 1 0.155201 0.657199 0.306624 0 0 0.00138474
43 1 0.832041 0.865517 0.183637 0 0 0.000162125
44 1 0.601287 0.750366 0.285969 0 0 0.00111389
45 1 0.278849 0.958667 0.163837 0 0 0.00101662
46 1 0.478066 0.78219 0.429156 0 0 0.00104141
47 1 0.246749 0.0003528 0.530674 0 0 -0.00104523
48 1 0.155202 0.990532 0.306624 0 0 0.00138283
ITEM: TIMESTEP
9
ITEM: NUMBER OF ATOMS
48
ITEM: BOX BOUNDS xy xz yz pp pp pp
-5.1180748939514160e+00 8.6067802309989929e+00 2.5094206929206848e+00
-9.4973444938659668e-03 9.3236122131347656e+00 -5.1060377955436707e+00
-2.8691649436950684e-02 1.9545819282531738e+01 7.1304261684417725e-02
ITEM: ATOMS id type xs ys zs fx fy fz
1 1 0.960714 0.166916 0.0467446 0 0 -0.00132942
2 1 0.503169 0.0738667 0.0537543 0 0 -0.000364304
3 1 0.569559 0.125344 0.653141 0 0 0.000570297
4 1 0.764101 0.94896 0.913086 0 0 0.00132942
5 1 0.445931 0.157209 0.795951 0 0 -0.000947952
6 1 0.221646 0.0420099 0.906076 0 0 0.000366211
7 1 0.892761 0.25036 0.776178 0 0 -0.00179863
8 1 0.923915 0.208703 0.408224 0 0 0.000917435
9 1 0.123488 0.0321772 0.673813 0 0 6.29425e-05
10 1 0.800901 0.240507 0.551607 0 0 -0.000923157
11 1 0.832054 0.19885 0.183653 0 0 0.00181198
12 1 0.601328 0.083699 0.286018 0 0 -7.05719e-05
13 1 0.278884 0.292 0.163879 0 0 0.000967026
14 1 0.478093 0.115523 0.429188 0 0 0.000545502
15 1 0.960714 0.50025 0.0467447 0 0 -0.0013485
16 1 0.503169 0.4072 0.0537544 0 0 -0.000362396
17 1 0.56956 0.458678 0.653141 0 0 0.000562668
18 1 0.764101 0.282294 0.913086 0 0 0.00131798
19 1 0.445931 0.490543 0.795952 0 0 -0.000959396
20 1 0.221646 0.375343 0.906076 0 0 0.000362396
21 1 0.892761 0.583693 0.776177 0 0 -0.00179863
22 1 0.246723 0.333686 0.530642 0 0 -0.00053978
23 1 0.923915 0.542036 0.408223 0 0 0.000930786
24 1 0.123488 0.365511 0.673813 0 0 4.76837e-05
25 1 0.800901 0.57384 0.551607 0 0 -0.000930786
26 1 0.155256 0.323865 0.306689 0 0 -0.00056076
27 1 0.832054 0.532183 0.183653 0 0 0.00180435
28 1 0.601327 0.417032 0.286017 0 0 -5.34058e-05
29 1 0.278884 0.625334 0.163879 0 0 0.000955582
30 1 0.478092 0.448857 0.429188 0 0 0.000535965
31 1 0.960714 0.833583 0.0467445 0 0 -0.00131989
32 1 0.503169 0.740533 0.0537544 0 0 -0.000362396
33 1 0.569559 0.792011 0.653141 0 0 0.000574112
34 1 0.764101 0.615627 0.913085 0 0 0.00134659
35 1 0.445931 0.823876 0.795952 0 0 -0.000974655
36 1 0.221646 0.708677 0.906076 0 0 0.000366211
37 1 0.892762 0.917026 0.776178 0 0 -0.00180626
38 1 0.246723 0.66702 0.530642 0 0 -0.000551224
39 1 0.923915 0.87537 0.408224 0 0 0.000934601
40 1 0.123488 0.698844 0.673813 0 0 6.29425e-05
41 1 0.800901 0.907173 0.551607 0 0 -0.000934601
42 1 0.155256 0.657199 0.306689 0 0 -0.000566483
43 1 0.832054 0.865517 0.183653 0 0 0.00179291
44 1 0.601328 0.750366 0.286017 0 0 -6.48499e-05
45 1 0.278884 0.958667 0.163879 0 0 0.000972748
46 1 0.478092 0.78219 0.429188 0 0 0.000543594
47 1 0.246723 0.000353045 0.530642 0 0 -0.000551224
48 1 0.155256 0.990532 0.306689 0 0 -0.000562668
ITEM: TIMESTEP
10
ITEM: NUMBER OF ATOMS
48
ITEM: BOX BOUNDS xy xz yz pp pp pp
-5.1180748939514160e+00 8.6067802309989929e+00 2.5094206929206848e+00
-9.4973444938659668e-03 9.3236122131347656e+00 -5.1060377955436707e+00
-2.8691649436950684e-02 1.9545819282531738e+01 7.1304261684417725e-02
ITEM: ATOMS id type xs ys zs fx fy fz
1 1 0.960705 0.166916 0.0467337 0 0 0.0008564
2 1 0.503178 0.0738666 0.0537645 0 0 -0.000442505
3 1 0.569552 0.125344 0.653131 0 0 6.10352e-05
4 1 0.764111 0.94896 0.913097 0 0 -0.000862122
5 1 0.445912 0.157209 0.795929 0 0 0.000179291
6 1 0.221637 0.0420099 0.906065 0 0 0.000448227
7 1 0.892739 0.25036 0.776151 0 0 -0.000627518
8 1 0.923926 0.208703 0.408237 0 0 0.000164032
9 1 0.123478 0.0321773 0.673801 0 0 -0.000276566
10 1 0.80089 0.240507 0.551593 0 0 -0.000171661
11 1 0.832076 0.19885 0.183679 0 0 0.00063324
12 1 0.601337 0.0836989 0.286029 0 0 0.00028038
13 1 0.278904 0.292 0.163902 0 0 -0.000164032
14 1 0.478105 0.115523 0.429203 0 0 -0.000238419
15 1 0.960705 0.50025 0.0467335 0 0 0.000862122
16 1 0.503178 0.4072 0.0537646 0 0 -0.000453949
17 1 0.569552 0.458678 0.653132 0 0 5.72205e-05
18 1 0.764111 0.282294 0.913097 0 0 -0.000869751
19 1 0.445912 0.490543 0.795929 0 0 0.000171661
20 1 0.221637 0.375343 0.906065 0 0 0.000448227
21 1 0.892739 0.583693 0.776151 0 0 -0.000623703
22 1 0.246711 0.333686 0.530627 0 0 0.000238419
23 1 0.923926 0.542036 0.408237 0 0 0.000173569
24 1 0.123479 0.365511 0.673802 0 0 -0.00028801
25 1 0.800889 0.57384 0.551593 0 0 -0.000165939
26 1 0.155264 0.323865 0.306699 0 0 -5.91278e-05
27 1 0.832076 0.532183 0.183679 0 0 0.00063324
28 1 0.601337 0.417032 0.286029 0 0 0.000276566
29 1 0.278903 0.625334 0.163902 0 0 -0.000165939
30 1 0.478105 0.448857 0.429203 0 0 -0.000240326
31 1 0.960705 0.833583 0.0467335 0 0 0.000862122
32 1 0.503178 0.740533 0.0537647 0 0 -0.000452042
33 1 0.569551 0.792011 0.653131 0 0 6.29425e-05
34 1 0.76411 0.615627 0.913097 0 0 -0.000867844
35 1 0.445912 0.823876 0.795929 0 0 0.000162125
36 1 0.221637 0.708677 0.906065 0 0 0.000455856
37 1 0.892739 0.917027 0.776151 0 0 -0.000631332
38 1 0.24671 0.66702 0.530627 0 0 0.000240326
39 1 0.923926 0.875369 0.408237 0 0 0.000162125
40 1 0.123478 0.698844 0.673801 0 0 -0.000276566
41 1 0.800889 0.907173 0.551593 0 0 -0.000175476
42 1 0.155264 0.657199 0.306699 0 0 -5.72205e-05
43 1 0.832077 0.865516 0.18368 0 0 0.00062561
44 1 0.601337 0.750366 0.286029 0 0 0.000278473
45 1 0.278904 0.958667 0.163902 0 0 -0.000167847
46 1 0.478105 0.78219 0.429203 0 0 -0.000234604
47 1 0.24671 0.000353161 0.530627 0 0 0.000238419
48 1 0.155264 0.990532 0.306699 0 0 -5.91278e-05
ITEM: TIMESTEP
11
ITEM: NUMBER OF ATOMS
48
ITEM: BOX BOUNDS xy xz yz pp pp pp
-5.1180748939514160e+00 8.6067802309989929e+00 2.5094206929206848e+00
-9.4973444938659668e-03 9.3236122131347656e+00 -5.1060377955436707e+00
-2.8691649436950684e-02 1.9545819282531738e+01 7.1304261684417725e-02
ITEM: ATOMS id type xs ys zs fx fy fz
1 1 0.960714 0.166916 0.0467446 0 0 -8.7738e-05
2 1 0.503174 0.0738666 0.05376 0 0 0
3 1 0.56955 0.125344 0.65313 0 0 -0.000200272
4 1 0.764101 0.94896 0.913086 0 0 8.2016e-05
5 1 0.44591 0.157209 0.795926 0 0 0
6 1 0.221641 0.0420099 0.90607 0 0 0
7 1 0.892725 0.25036 0.776134 0 0 1.52588e-05
8 1 0.923931 0.208703 0.408243 0 0 -7.24792e-05
9 1 0.123472 0.0321773 0.673794 0 0 -0.000179291
10 1 0.800885 0.240507 0.551587 0 0 7.24792e-05
11 1 0.832091 0.19885 0.183696 0 0 -1.14441e-05
12 1 0.601343 0.0836988 0.286036 0 0 0.000173569
13 1 0.278906 0.292 0.163905 0 0 -7.62939e-06
14 1 0.478105 0.115523 0.429203 0 0 -0.000219345
15 1 0.960714 0.50025 0.0467444 0 0 -7.82013e-05
16 1 0.503174 0.4072 0.05376 0 0 3.8147e-06
17 1 0.569551 0.458678 0.65313 0 0 -0.000204086
18 1 0.764101 0.282294 0.913086 0 0 8.96454e-05
19 1 0.445909 0.490543 0.795926 0 0 0
20 1 0.221641 0.375343 0.90607 0 0 0
21 1 0.892725 0.583694 0.776134 0 0 1.14441e-05
22 1 0.246711 0.333686 0.530628 0 0 0.000209808
23 1 0.923931 0.542036 0.408243 0 0 -8.58307e-05
24 1 0.123473 0.365511 0.673794 0 0 -0.000169754
25 1 0.800884 0.57384 0.551587 0 0 8.01086e-05
26 1 0.155265 0.323865 0.3067 0 0 0.000205994
27 1 0.832091 0.532183 0.183696 0 0 -1.33514e-05
28 1 0.601343 0.417032 0.286036 0 0 0.000177383