ITEM: TIMESTEP
0
ITEM: NUMBER OF ATOMS
48
ITEM: BOX BOUNDS xy xz yz pp pp pp
-4.8725550770759583e+00 8.5982638597488403e+00 2.5251476168632507e+00
-1.1132121086120605e-02 9.5149352550506592e+00 -4.8847612738609314e+00
-4.7147274017333984e-03 1.9521842360496521e+01 2.6099252700805664e-01
ITEM: ATOMS id type xs ys zs fx fy fz
1 1 0.946654 0.166857 0.0318549 0 0 2.83961
2 1 0.50108 0.0743484 0.0530456 0 0 -0.0322132
3 1 0.57785 0.124689 0.656895 0 0 -0.00239944
4 1 0.780455 0.949019 0.927975 0 0 -2.83961
5 1 0.45817 0.157245 0.802828 0 0 0.00159264
6 1 0.226029 0.041528 0.906785 0 0 0.0322113
7 1 0.903646 0.249629 0.781799 0 0 -0.0117302
8 1 0.922199 0.208292 0.407038 0 0 -0.00110245
9 1 0.132496 0.032398 0.677762 0 0 0.00444603
10 1 0.80491 0.240917 0.552793 0 0 0.00110817
11 1 0.823463 0.199581 0.178031 0 0 0.0117321
12 1 0.594613 0.0834783 0.282068 0 0 -0.00445175
13 1 0.268939 0.291965 0.157002 0 0 -0.00159264
14 1 0.476872 0.116061 0.427856 0 0 -0.00250626
15 1 0.946654 0.50019 0.0318549 0 0 2.83961
16 1 0.50108 0.407682 0.0530456 0 0 -0.0322189
17 1 0.57785 0.458022 0.656895 0 0 -0.00239754
18 1 0.780455 0.282353 0.927975 0 0 -2.83961
19 1 0.45817 0.490578 0.802828 0 0 0.00158882
20 1 0.226029 0.374861 0.906785 0 0 0.032217
21 1 0.903646 0.582962 0.781799 0 0 -0.011734
22 1 0.250238 0.333148 0.531974 0 0 0.00250626
23 1 0.922199 0.541626 0.407038 0 0 -0.00110626
24 1 0.132496 0.365731 0.677762 0 0 0.00444603
25 1 0.80491 0.574251 0.552793 0 0 0.00110626
26 1 0.149259 0.324521 0.302936 0 0 0.00239563
27 1 0.823463 0.532914 0.178031 0 0 0.0117321
28 1 0.594613 0.416812 0.282068 0 0 -0.00444412
29 1 0.268939 0.625298 0.157002 0 0 -0.00158882
30 1 0.476872 0.449395 0.427856 0 0 -0.00249863
31 1 0.946654 0.833524 0.031855 0 0 2.83961
32 1 0.50108 0.741015 0.0530456 0 0 -0.0322132
33 1 0.57785 0.791356 0.656895 0 0 -0.00239563
34 1 0.780455 0.615686 0.927975 0 0 -2.83961
35 1 0.458171 0.823911 0.802828 0 0 0.00159073
36 1 0.226029 0.708195 0.906785 0 0 0.0322151
37 1 0.903646 0.916296 0.781799 0 0 -0.0117321
38 1 0.250238 0.666482 0.531974 0 0 0.00249863
39 1 0.922199 0.874959 0.407038 0 0 -0.00110626
40 1 0.132496 0.699065 0.677762 0 0 0.00444603
41 1 0.80491 0.907584 0.552793 0 0 0.00110817
42 1 0.149259 0.657854 0.302936 0 0 0.00239563
43 1 0.823463 0.866247 0.178031 0 0 0.011734
44 1 0.594613 0.750145 0.282068 0 0 -0.00444412
45 1 0.268939 0.958632 0.157002 0 0 -0.00159264
46 1 0.476872 0.782728 0.427856 0 0 -0.00250626
47 1 0.250238 0.999815 0.531974 0 0 0.00250435
48 1 0.149259 0.991187 0.302936 0 0 0.00239944
ITEM: TIMESTEP
1
ITEM: NUMBER OF ATOMS
48
ITEM: BOX BOUNDS xy xz yz pp pp pp
-4.8725550770759583e+00 8.5982638597488403e+00 2.5251476168632507e+00
-1.1132121086120605e-02 9.5149352550506592e+00 -4.8847612738609314e+00
-4.7147274017333984e-03 1.9521842360496521e+01 2.6099252700805664e-01
ITEM: ATOMS id type xs ys zs fx fy fz
1 1 0.950841 0.166713 0.0369762 0 0 1.45647
2 1 0.501032 0.07435 0.0529875 0 0 -0.0395432
3 1 0.577846 0.124689 0.65689 0 0 -0.00569344
4 1 0.776268 0.949164 0.922854 0 0 -1.45647
5 1 0.458173 0.157245 0.802831 0 0 -0.0851593
6 1 0.226077 0.0415264 0.906843 0 0 0.039547
7 1 0.903629 0.24963 0.781778 0 0 -0.0719185
8 1 0.922197 0.208292 0.407036 0 0 -0.000631332
9 1 0.132503 0.0323978 0.67777 0 0 0.0050602
10 1 0.804912 0.240917 0.552795 0 0 0.000635147
11 1 0.82348 0.19958 0.178052 0 0 0.0719223
12 1 0.594606 0.0834785 0.28206 0 0 -0.0050602
13 1 0.268936 0.291965 0.157 0 0 0.085165
14 1 0.476868 0.116061 0.427852 0 0 -0.00165176
15 1 0.950841 0.500046 0.0369762 0 0 1.45646
16 1 0.501032 0.407683 0.0529875 0 0 -0.0395489
17 1 0.577846 0.458022 0.65689 0 0 -0.00569534
18 1 0.776268 0.282497 0.922854 0 0 -1.45647
19 1 0.458173 0.490578 0.802831 0 0 -0.0851612
20 1 0.226077 0.37486 0.906843 0 0 0.039547
21 1 0.903629 0.582963 0.781778 0 0 -0.0719204
22 1 0.250242 0.333148 0.531978 0 0 0.00164604
23 1 0.922197 0.541626 0.407036 0 0 -0.000635147
24 1 0.132503 0.365731 0.67777 0 0 0.0050602
25 1 0.804912 0.574251 0.552795 0 0 0.00063324
26 1 0.149263 0.324521 0.30294 0 0 0.00569344
27 1 0.82348 0.532913 0.178052 0 0 0.0719223
28 1 0.594606 0.416812 0.28206 0 0 -0.0050621
29 1 0.268936 0.625299 0.157 0 0 0.0851574
30 1 0.476868 0.449395 0.427852 0 0 -0.00164986
31 1 0.950841 0.83338 0.0369762 0 0 1.45647
32 1 0.501032 0.741017 0.0529875 0 0 -0.0395432
33 1 0.577846 0.791356 0.65689 0 0 -0.00569153
34 1 0.776268 0.61583 0.922854 0 0 -1.45647
35 1 0.458173 0.823911 0.802831 0 0 -0.085165
36 1 0.226077 0.708193 0.906843 0 0 0.0395451
37 1 0.903629 0.916296 0.781778 0 0 -0.0719185
38 1 0.250242 0.666481 0.531978 0 0 0.00164604
39 1 0.922197 0.874959 0.407036 0 0 -0.00063324
40 1 0.132503 0.699064 0.67777 0 0 0.0050602
41 1 0.804912 0.907584 0.552795 0 0 0.000635147
42 1 0.149263 0.657854 0.30294 0 0 0.00569534
43 1 0.82348 0.866247 0.178052 0 0 0.0719223
44 1 0.594606 0.750145 0.28206 0 0 -0.0050621
45 1 0.268936 0.958632 0.157 0 0 0.0851631
46 1 0.476868 0.782728 0.427852 0 0 -0.00164795
47 1 0.250241 0.999815 0.531978 0 0 0.00164986
48 1 0.149263 0.991187 0.30294 0 0 0.00569153
ITEM: TIMESTEP
2
ITEM: NUMBER OF ATOMS
48
ITEM: BOX BOUNDS xy xz yz pp pp pp
-4.8725550770759583e+00 8.5982638597488403e+00 2.5251476168632507e+00
-1.1132121086120605e-02 9.5149352550506592e+00 -4.8847612738609314e+00
-4.7147274017333984e-03 1.9521842360496521e+01 2.6099252700805664e-01
ITEM: ATOMS id type xs ys zs fx fy fz
1 1 0.955029 0.166569 0.0420974 0 0 0.437933
2 1 0.500919 0.0743539 0.0528484 0 0 -0.0351429
3 1 0.57783 0.12469 0.65687 0 0 -0.0157642
4 1 0.77208 0.949308 0.917733 0 0 -0.437933
5 1 0.457928 0.157253 0.802531 0 0 -0.171227
6 1 0.226191 0.0415225 0.906982 0 0 0.0351448
7 1 0.903422 0.249637 0.781525 0 0 -0.138424
8 1 0.922196 0.208292 0.407033 0 0 -0.000385284
9 1 0.132518 0.0323973 0.677788 0 0 -0.00364304
10 1 0.804914 0.240917 0.552797 0 0 0.000383377
11 1 0.823687 0.199573 0.178305 0 0 0.138422
12 1 0.594592 0.083479 0.282042 0 0 0.00364304
13 1 0.269181 0.291957 0.157299 0 0 0.171227
14 1 0.476863 0.116062 0.427846 0 0 -0.000247955
15 1 0.955029 0.499902 0.0420974 0 0 0.437931
16 1 0.500918 0.407687 0.0528484 0 0 -0.0351429
17 1 0.57783 0.458023 0.65687 0 0 -0.0157623
18 1 0.77208 0.282641 0.917733 0 0 -0.437931
19 1 0.457928 0.490586 0.802531 0 0 -0.171228
20 1 0.226191 0.374856 0.906982 0 0 0.035141
21 1 0.903422 0.58297 0.781525 0 0 -0.138424
22 1 0.250246 0.333148 0.531984 0 0 0.000244141
23 1 0.922196 0.541626 0.407033 0 0 -0.000379562
24 1 0.132517 0.365731 0.677788 0 0 -0.00364494
25 1 0.804914 0.574251 0.552797 0 0 0.000385284
26 1 0.149279 0.32452 0.30296 0 0 0.0157642
27 1 0.823687 0.532906 0.178305 0 0 0.13842
28 1 0.594592 0.416812 0.282042 0 0 0.00364494
29 1 0.269181 0.62529 0.157299 0 0 0.171228
30 1 0.476863 0.449395 0.427846 0 0 -0.000247955
31 1 0.955029 0.833235 0.0420974 0 0 0.437929
32 1 0.500919 0.741021 0.0528485 0 0 -0.035141
33 1 0.57783 0.791356 0.65687 0 0 -0.0157642
34 1 0.77208 0.615974 0.917733 0 0 -0.437929
35 1 0.457928 0.82392 0.802531 0 0 -0.171228
36 1 0.226191 0.708189 0.906982 0 0 0.035141
37 1 0.903422 0.916304 0.781525 0 0 -0.138422
38 1 0.250246 0.666481 0.531984 0 0 0.000246048
39 1 0.922196 0.874959 0.407033 0 0 -0.000387192
40 1 0.132518 0.699064 0.677788 0 0 -0.00364304
41 1 0.804914 0.907584 0.552797 0 0 0.000383377
42 1 0.149279 0.657853 0.30296 0 0 0.0157642
43 1 0.823687 0.866239 0.178305 0 0 0.138426
44 1 0.594592 0.750146 0.282042 0 0 0.00364876
45 1 0.269181 0.958623 0.157299 0 0 0.171227
46 1 0.476863 0.782728 0.427846 0 0 -0.000244141
47 1 0.250246 0.999815 0.531984 0 0 0.000246048
48 1 0.149279 0.991187 0.30296 0 0 0.0157642
ITEM: TIMESTEP
3
ITEM: NUMBER OF ATOMS
48
ITEM: BOX BOUNDS xy xz yz pp pp pp
-4.8725550770759583e+00 8.5982638597488403e+00 2.5251476168632507e+00
-1.1132121086120605e-02 9.5149352550506592e+00 -4.8847612738609314e+00
-4.7147274017333984e-03 1.9521842360496521e+01 2.6099252700805664e-01
ITEM: ATOMS id type xs ys zs fx fy fz
1 1 0.958351 0.166454 0.0461598 0 0 -0.126511
2 1 0.500652 0.0743631 0.0525224 0 0 0.0110626
3 1 0.57771 0.124694 0.656724 0 0 -0.0503502
4 1 0.768758 0.949422 0.91367 0 0 0.126511
5 1 0.456629 0.157298 0.800943 0 0 -0.162268
6 1 0.226457 0.0415133 0.907308 0 0 -0.0110569
7 1 0.902372 0.249673 0.780241 0 0 -0.1359
8 1 0.922193 0.208292 0.40703 0 0 0.00195694
9 1 0.13249 0.0323983 0.677754 0 0 -0.0428581
10 1 0.804917 0.240917 0.5528 0 0 -0.00195503
11 1 0.824737 0.199537 0.179589 0 0 0.135904
12 1 0.594619 0.0834781 0.282076 0 0 0.0428524
13 1 0.27048 0.291912 0.158887 0 0 0.162268
14 1 0.476861 0.116062 0.427844 0 0 0.00424385
15 1 0.958351 0.499788 0.0461598 0 0 -0.126513
16 1 0.500652 0.407696 0.0525224 0 0 0.0110569
17 1 0.57771 0.458027 0.656724 0 0 -0.0503502
18 1 0.768758 0.282756 0.91367 0 0 0.126513
19 1 0.456629 0.490631 0.800943 0 0 -0.162266
20 1 0.226457 0.374847 0.907308 0 0 -0.0110588
21 1 0.902372 0.583006 0.780241 0 0 -0.135904
22 1 0.250248 0.333148 0.531986 0 0 -0.00424194
23 1 0.922193 0.541626 0.40703 0 0 0.00195503
24 1 0.13249 0.365732 0.677754 0 0 -0.0428505
25 1 0.804917 0.574251 0.5528 0 0 -0.00195503
26 1 0.149399 0.324516 0.303106 0 0 0.0503464
27 1 0.824737 0.53287 0.179589 0 0 0.135902
28 1 0.594619 0.416811 0.282076 0 0 0.0428543
29 1 0.27048 0.625245 0.158887 0 0 0.16227
30 1 0.476861 0.449395 0.427844 0 0 0.00424576
31 1 0.958351 0.833121 0.0461598 0 0 -0.126511
32 1 0.500652 0.74103 0.0525225 0 0 0.0110531
33 1 0.57771 0.79136 0.656724 0 0 -0.0503445
34 1 0.768758 0.616089 0.91367 0 0 0.126509
35 1 0.456629 0.823964 0.800943 0 0 -0.162268
36 1 0.226457 0.70818 0.907308 0 0 -0.0110569
37 1 0.902372 0.91634 0.780241 0 0 -0.135906
38 1 0.250248 0.666481 0.531986 0 0 -0.00424385
39 1 0.922193 0.874959 0.40703 0 0 0.00195312
40 1 0.13249 0.699065 0.677754 0 0 -0.0428543
41 1 0.804917 0.907584 0.5528 0 0 -0.00195122
42 1 0.149399 0.657849 0.303106 0 0 0.050354
43 1 0.824737 0.866203 0.179589 0 0 0.135902
44 1 0.594619 0.750145 0.282076 0 0 0.0428505
45 1 0.27048 0.958579 0.158887 0 0 0.162268
46 1 0.476861 0.782728 0.427844 0 0 0.00424385
47 1 0.250248 0.999815 0.531986 0 0 -0.00424576
48 1 0.149399 0.991183 0.303106 0 0 0.0503445
ITEM: TIMESTEP
4
ITEM: NUMBER OF ATOMS
48
ITEM: BOX BOUNDS xy xz yz pp pp pp
-4.8725550770759583e+00 8.5982638597488403e+00 2.5251476168632507e+00
-1.1132121086120605e-02 9.5149352550506592e+00 -4.8847612738609314e+00
-4.7147274017333984e-03 1.9521842360496521e+01 2.6099252700805664e-01
ITEM: ATOMS id type xs ys zs fx fy fz
1 1 0.958436 0.166451 0.0462643 0 0 -0.00655746
2 1 0.500657 0.074363 0.0525281 0 0 0.0749416
3 1 0.577013 0.124718 0.655871 0 0 -0.0910492
4 1 0.768673 0.949425 0.913566 0 0 0.00655937
5 1 0.453916 0.157391 0.797625 0 0 0.0336761
6 1 0.226453 0.0415134 0.907302 0 0 -0.0749454
7 1 0.900119 0.249751 0.777486 0 0 0.0154533
8 1 0.922216 0.208292 0.407058 0 0 0.0192871
9 1 0.131934 0.0324174 0.677074 0 0 -0.0937767
10 1 0.804893 0.240918 0.552772 0 0 -0.0192871
11 1 0.82699 0.199459 0.182345 0 0 -0.0154591
12 1 0.595176 0.0834589 0.282756 0 0 0.0937786
13 1 0.273193 0.291819 0.162205 0 0 -0.0336781
14 1 0.476914 0.11606 0.427908 0 0 0.023819
15 1 0.958436 0.499785 0.0462643 0 0 -0.00654984
16 1 0.500656 0.407696 0.0525281 0 0 0.0749474
17 1 0.577013 0.458051 0.655871 0 0 -0.0910549
18 1 0.768673 0.282758 0.913566 0 0 0.00655746
19 1 0.453916 0.490725 0.797625 0 0 0.0336781
20 1 0.226452 0.374847 0.907302 0 0 -0.0749454
21 1 0.900119 0.583084 0.777486 0 0 0.0154552
22 1 0.250195 0.33315 0.531922 0 0 -0.0238228
23 1 0.922216 0.541625 0.407058 0 0 0.0192871
24 1 0.131934 0.365751 0.677074 0 0 -0.0937767
25 1 0.804893 0.574251 0.552772 0 0 -0.0192814
26 1 0.150096 0.324492 0.30396 0 0 0.091053
27 1 0.82699 0.532792 0.182345 0 0 -0.0154533
28 1 0.595176 0.416792 0.282756 0 0 0.0937805
29 1 0.273193 0.625152 0.162205 0 0 -0.0336838
30 1 0.476914 0.449393 0.427908 0 0 0.0238209
31 1 0.958436 0.833118 0.0462643 0 0 -0.00656128
32 1 0.500657 0.74103 0.0525281 0 0 0.0749454
33 1 0.577013 0.791384 0.655871 0 0 -0.0910492
34 1 0.768673 0.616092 0.913566 0 0 0.00655174
35 1 0.453916 0.824058 0.797625 0 0 0.0336761
36 1 0.226453 0.70818 0.907302 0 0 -0.0749416
37 1 0.900119 0.916417 0.777486 0 0 0.0154572
38 1 0.250195 0.666483 0.531922 0 0 -0.0238285
39 1 0.922216 0.874958 0.407058 0 0 0.0192909
40 1 0.131934 0.699084 0.677074 0 0 -0.0937767
41 1 0.804893 0.907585 0.552772 0 0 -0.0192909
42 1 0.150097 0.657825 0.30396 0 0 0.0910511
43 1 0.82699 0.866126 0.182345 0 0 -0.0154552
44 1 0.595176 0.750126 0.282756 0 0 0.0937805
45 1 0.273193 0.958485 0.162205 0 0 -0.0336761
46 1 0.476914 0.782727 0.427908 0 0 0.0238228
47 1 0.250195 0.999816 0.531922 0 0 -0.0238247
48 1 0.150096 0.991159 0.303959 0 0 0.0910549
ITEM: TIMESTEP
5
ITEM: NUMBER OF ATOMS
48
ITEM: BOX BOUNDS xy xz yz pp pp pp
-4.8725550770759583e+00 8.5982638597488403e+00 2.5251476168632507e+00
-1.1132121086120605e-02 9.5149352550506592e+00 -4.8847612738609314e+00
-4.7147274017333984e-03 1.9521842360496521e+01 2.6099252700805664e-01
ITEM: ATOMS id type xs ys zs fx fy fz
1 1 0.958361 0.166454 0.0461729 0 0 0.040926
2 1 0.501975 0.0743176 0.05414 0 0 -0.0041256
3 1 0.575085 0.124784 0.653513 0 0 0.0119114
4 1 0.768748 0.949423 0.913657 0 0 -0.0409336
5 1 0.453227 0.157415 0.796782 0 0 0.00291061
6 1 0.225135 0.0415588 0.90569 0 0 0.0041275
7 1 0.899327 0.249778 0.776517 0 0 -0.0107708
8 1 0.922566 0.20828 0.407486 0 0 0.0446835
9 1 0.130024 0.0324832 0.674739 0 0 0.00958443
10 1 0.804544 0.24093 0.552344 0 0 -0.0446835
11 1 0.827782 0.199432 0.183313 0 0 0.0107765
12 1 0.597085 0.0833931 0.285091 0 0 -0.0095787
13 1 0.273882 0.291795 0.163048 0 0 -0.0029068
14 1 0.477357 0.116045 0.42845 0 0 0.0478153
15 1 0.958361 0.499787 0.0461729 0 0 0.0409088
16 1 0.501975 0.407651 0.05414 0 0 -0.00413322
17 1 0.575085 0.458117 0.653513 0 0 0.0119228
18 1 0.768748 0.282756 0.913657 0 0 -0.040926
19 1 0.453227 0.490748 0.796782 0 0 0.0029068
20 1 0.225134 0.374892 0.90569 0 0 0.00413513
21 1 0.899327 0.583111 0.776517 0 0 -0.0107651
22 1 0.249752 0.333165 0.53138 0 0 -0.0478134
23 1 0.922566 0.541613 0.407486 0 0 0.0446835
24 1 0.130025 0.365817 0.674739 0 0 0.0095768
25 1 0.804544 0.574263 0.552345 0 0 -0.0446892
26 1 0.152024 0.324426 0.306317 0 0 -0.0119209
27 1 0.827782 0.532765 0.183313 0 0 0.0107765
28 1 0.597085 0.416727 0.285091 0 0 -0.00959015
29 1 0.273882 0.625128 0.163048 0 0 -0.00290489
30 1 0.477357 0.449378 0.42845 0 0 0.0478096
31 1 0.958361 0.83312 0.0461727 0 0 0.0409393
32 1 0.501975 0.740984 0.0541399 0 0 -0.00412369
33 1 0.575085 0.791451 0.653513 0 0 0.0119076
34 1 0.768748 0.616089 0.913657 0 0 -0.0409145
35 1 0.453227 0.824082 0.796782 0 0 0.00291443
36 1 0.225135 0.708225 0.90569 0 0 0.0041256
37 1 0.899327 0.916445 0.776517 0 0 -0.010767
38 1 0.249752 0.666498 0.53138 0 0 -0.0478001
39 1 0.922566 0.874946 0.407486 0 0 0.0446854
40 1 0.130025 0.69915 0.674739 0 0 0.0095787
41 1 0.804544 0.907597 0.552344 0 0 -0.0446815
42 1 0.152025 0.657759 0.306318 0 0 -0.0119267
43 1 0.827782 0.866098 0.183313 0 0 0.0107651
44 1 0.597085 0.75006 0.285091 0 0 -0.00958443
45 1 0.273882 0.958462 0.163048 0 0 -0.00291443
46 1 0.477357 0.782711 0.42845 0 0 0.0478077
47 1 0.249752 0.999832 0.53138 0 0 -0.0478058
48 1 0.152024 0.991092 0.306317 0 0 -0.011919
ITEM: TIMESTEP
6
ITEM: NUMBER OF ATOMS
48
ITEM: BOX BOUNDS xy xz yz pp pp pp
-4.8725550770759583e+00 8.5982638597488403e+00 2.5251476168632507e+00
-1.1132121086120605e-02 9.5149352550506592e+00 -4.8847612738609314e+00
-4.7147274017333984e-03 1.9521842360496521e+01 2.6099252700805664e-01
ITEM: ATOMS id type xs ys zs fx fy fz
1 1 0.958703 0.166442 0.0465902 0 0 -0.00668907
2 1 0.502118 0.0743126 0.0543157 0 0 -0.0113506
3 1 0.574925 0.12479 0.653317 0 0 0.00250816
4 1 0.768406 0.949434 0.91324 0 0 0.00668907
5 1 0.453158 0.157417 0.796698 0 0 -0.00907326
6 1 0.224991 0.0415638 0.905515 0 0 0.0113525
7 1 0.899127 0.249785 0.776272 0 0 -0.0116539
8 1 0.922997 0.208265 0.408013 0 0 0.00286484
9 1 0.129847 0.0324893 0.674523 0 0 0.00252914
10 1 0.804113 0.240945 0.551817 0 0 -0.00286484
11 1 0.827982 0.199425 0.183558 0 0 0.0116596
12 1 0.597262 0.083387 0.285308 0 0 -0.00253296
13 1 0.273951 0.291792 0.163132 0 0 0.00907135
14 1 0.477828 0.116028 0.429026 0 0 0.00412941
15 1 0.958703 0.499775 0.0465901 0 0 -0.00667572
16 1 0.502118 0.407646 0.0543156 0 0 -0.0113525
17 1 0.574925 0.458123 0.653317 0 0 0.00251007
18 1 0.768407 0.282768 0.91324 0 0 0.00667763
19 1 0.453158 0.490751 0.796698 0 0 -0.00907326
20 1 0.224991 0.374897 0.905515 0 0 0.0113487
21 1 0.899127 0.583118 0.776272 0 0 -0.0116596
22 1 0.249281 0.333181 0.530804 0 0 -0.0041256
23 1 0.922997 0.541598 0.408013 0 0 0.00286102
24 1 0.129847 0.365823 0.674523 0 0 0.00253105
25 1 0.804113 0.574278 0.551817 0 0 -0.00287056
26 1 0.152184 0.32442 0.306513 0 0 -0.00250435
27 1 0.827982 0.532758 0.183558 0 0 0.0116539
28 1 0.597262 0.41672 0.285308 0 0 -0.00252914
29 1 0.273951 0.625126 0.163132 0 0 0.00907707
30 1 0.477828 0.449362 0.429026 0 0 0.0041275
31 1 0.958703 0.833109 0.0465902 0 0 -0.00669289
32 1 0.502118 0.740979 0.0543156 0 0 -0.0113487
33 1 0.574925 0.791456 0.653318 0 0 0.00250244
34 1 0.768406 0.616101 0.91324 0 0 0.00668526
35 1 0.453159 0.824084 0.796698 0 0 -0.00907326
36 1 0.224991 0.70823 0.905515 0 0 0.0113487
37 1 0.899127 0.916452 0.776272 0 0 -0.0116615
38 1 0.249281 0.666515 0.530804 0 0 -0.00412369
39 1 0.922997 0.874931 0.408013 0 0 0.00286484
40 1 0.129847 0.699156 0.674523 0 0 0.00253296
41 1 0.804113 0.907612 0.551817 0 0 -0.00286865
42 1 0.152184 0.657753 0.306513 0 0 -0.00251007
43 1 0.827982 0.866092 0.183558 0 0 0.0116634
44 1 0.597262 0.750054 0.285308 0 0 -0.00252914
45 1 0.273951 0.958459 0.163132 0 0 0.00907326
46 1 0.477828 0.782695 0.429026 0 0 0.0041256
47 1 0.249281 0.999848 0.530804 0 0 -0.00411987
48 1 0.152184 0.991087 0.306513 0 0 -0.00250435
ITEM: TIMESTEP
7
ITEM: NUMBER OF ATOMS
48
ITEM: BOX BOUNDS xy xz yz pp pp pp
-4.8725550770759583e+00 8.5982638597488403e+00 2.5251476168632507e+00
-1.1132121086120605e-02 9.5149352550506592e+00 -4.8847612738609314e+00
-4.7147274017333984e-03 1.9521842360496521e+01 2.6099252700805664e-01
ITEM: ATOMS id type xs ys zs fx fy fz
1 1 0.958657 0.166444 0.0465347 0 0 0.00478745
2 1 0.50203 0.0743157 0.0542074 0 0 -0.00270081
3 1 0.574941 0.124789 0.653337 0 0 -0.00329018
4 1 0.768452 0.949433 0.913295 0 0 -0.00478935
5 1 0.453083 0.15742 0.796606 0 0 -0.000585556
6 1 0.225079 0.0415607 0.905623 0 0 0.00270271
7 1 0.899027 0.249788 0.77615 0 0 -0.00132561
8 1 0.923032 0.208264 0.408056 0 0 -0.0017128
9 1 0.129863 0.0324888 0.674542 0 0 -0.00305557
10 1 0.804078 0.240946 0.551775 0 0 0.0017128
11 1 0.828082 0.199421 0.18368 0 0 0.0013237
12 1 0.597246 0.0833876 0.285288 0 0 0.00305367
13 1 0.274026 0.29179 0.163224 0 0 0.000585556
14 1 0.477874 0.116027 0.429082 0 0 -0.00111771
15 1 0.958657 0.499777 0.0465348 0 0 0.00478172
16 1 0.50203 0.407649 0.0542073 0 0 -0.00270653
17 1 0.574941 0.458122 0.653337 0 0 -0.00329399
18 1 0.768452 0.282766 0.913295 0 0 -0.00478363
19 1 0.453083 0.490753 0.796606 0 0 -0.000581741
20 1 0.225079 0.374894 0.905623 0 0 0.00270462
21 1 0.899027 0.583122 0.77615 0 0 -0.00132751
22 1 0.249235 0.333183 0.530748 0 0 0.00112152
23 1 0.923031 0.541597 0.408056 0 0 -0.00171089
24 1 0.129863 0.365822 0.674542 0 0 -0.00305557
25 1 0.804078 0.574279 0.551775 0 0 0.00170898
26 1 0.152168 0.324421 0.306493 0 0 0.00329399
27 1 0.828082 0.532755 0.18368 0 0 0.00131989
28 1 0.597246 0.416721 0.285288 0 0 0.00305367
29 1 0.274026 0.625123 0.163224 0 0 0.000585556
30 1 0.477874 0.44936 0.429082 0 0 -0.00111771
31 1 0.958657 0.83311 0.0465347 0 0 0.00479126
32 1 0.50203 0.740982 0.0542074 0 0 -0.00270271
33 1 0.574941 0.791456 0.653337 0 0 -0.00328636
34 1 0.768452 0.616099 0.913295 0 0 -0.00478745
35 1 0.453083 0.824087 0.796606 0 0 -0.000583649
36 1 0.22508 0.708227 0.905623 0 0 0.00270271
37 1 0.899027 0.916455 0.77615 0 0 -0.00132561
38 1 0.249235 0.666516 0.530748 0 0 0.00112152
39 1 0.923032 0.87493 0.408056 0 0 -0.00171471
40 1 0.129863 0.699155 0.674542 0 0 -0.00305748
41 1 0.804078 0.907613 0.551774 0 0 0.0017128
42 1 0.152168 0.657754 0.306493 0 0 0.0032959
43 1 0.828082 0.866088 0.18368 0 0 0.00132179
44 1 0.597246 0.750054 0.285288 0 0 0.00305367
45 1 0.274026 0.958457 0.163224 0 0 0.000585556
46 1 0.477874 0.782693 0.429082 0 0 -0.00111961
47 1 0.249235 0.99985 0.530748 0 0 0.00111771
48 1 0.152168 0.991087 0.306493 0 0 0.00329399
ITEM: TIMESTEP
8
ITEM: NUMBER OF ATOMS
48
ITEM: BOX BOUNDS xy xz yz pp pp pp
-4.8725550770759583e+00 8.5982638597488403e+00 2.5251476168632507e+00
-1.1132121086120605e-02 9.5149352550506592e+00 -4.8847612738609314e+00
-4.7147274017333984e-03 1.9521842360496521e+01 2.6099252700805664e-01
ITEM: ATOMS id type xs ys zs fx fy fz
1 1 0.958704 0.166442 0.0465914 0 0 -0.000823975
2 1 0.50198 0.0743174 0.0541462 0 0 0.00141907
3 1 0.574906 0.12479 0.653294 0 0 -0.00160027
4 1 0.768405 0.949434 0.913239 0 0 0.000833511
5 1 0.45306 0.157421 0.796578 0 0 -0.000761032
6 1 0.22513 0.041559 0.905684 0 0 -0.00141144
7 1 0.898991 0.24979 0.776105 0 0 -3.24249e-05
8 1 0.923019 0.208264 0.40804 0 0 0.000656128
9 1 0.129831 0.0324899 0.674502 0 0 -0.00139427
10 1 0.80409 0.240946 0.55179 0 0 -0.000658035
11 1 0.828118 0.19942 0.183725 0 0 3.43323e-05
12 1 0.597278 0.0833865 0.285328 0 0 0.00139618
13 1 0.274049 0.291789 0.163252 0 0 0.000766754
14 1 0.477871 0.116027 0.429078 0 0 0.000671387
15 1 0.958704 0.499775 0.0465914 0 0 -0.000829697
16 1 0.501979 0.407651 0.054146 0 0 0.00142288
17 1 0.574906 0.458124 0.653294 0 0 -0.00159454
18 1 0.768405 0.282768 0.913239 0 0 0.000829697
19 1 0.45306 0.490754 0.796578 0 0 -0.000770569
20 1 0.225129 0.374892 0.905684 0 0 -0.0014267
21 1 0.898991 0.583123 0.776105 0 0 -3.62396e-05
22 1 0.249239 0.333183 0.530752 0 0 -0.000677109
23 1 0.923019 0.541597 0.40804 0 0 0.000656128
24 1 0.129831 0.365823 0.674502 0 0 -0.00139999
25 1 0.80409 0.574279 0.55179 0 0 -0.000656128
26 1 0.152203 0.324419 0.306536 0 0 0.00159645
27 1 0.828118 0.532753 0.183725 0 0 3.05176e-05
28 1 0.597278 0.41672 0.285328 0 0 0.00139427
29 1 0.274049 0.625122 0.163252 0 0 0.000764847
30 1 0.477871 0.44936 0.429078 0 0 0.000673294
31 1 0.958704 0.833109 0.0465914 0 0 -0.000831604
32 1 0.50198 0.740984 0.0541462 0 0 0.00141716
33 1 0.574906 0.791457 0.653295 0 0 -0.00160027
34 1 0.768405 0.616101 0.913239 0 0 0.000833511
35 1 0.45306 0.824087 0.796578 0 0 -0.000766754
36 1 0.22513 0.708226 0.905684 0 0 -0.00141525
37 1 0.898991 0.916456 0.776105 0 0 -3.62396e-05
38 1 0.249239 0.666516 0.530752 0 0 -0.000675201
39 1 0.923019 0.874931 0.40804 0 0 0.000652313
40 1 0.129831 0.699157 0.674502 0 0 -0.00139809
41 1 0.80409 0.907612 0.55179 0 0 -0.000658035
42 1 0.152203 0.657753 0.306536 0 0 0.00160027
43 1 0.828118 0.866087 0.183725 0 0 3.24249e-05
44 1 0.597278 0.750053 0.285328 0 0 0.00139618
45 1 0.274049 0.958456 0.163252 0 0 0.000772476
46 1 0.477871 0.782694 0.429078 0 0 0.000680923
47 1 0.249239 0.999849 0.530752 0 0 -0.000675201
48 1 0.152203 0.991086 0.306536 0 0 0.00159836
ITEM: TIMESTEP
9
ITEM: NUMBER OF ATOMS
48
ITEM: BOX BOUNDS xy xz yz pp pp pp
-4.8725550770759583e+00 8.5982638597488403e+00 2.5251476168632507e+00
-1.1132121086120605e-02 9.5149352550506592e+00 -4.8847612738609314e+00
-4.7147274017333984e-03 1.9521842360496521e+01 2.6099252700805664e-01
ITEM: ATOMS id type xs ys zs fx fy fz
1 1 0.958698 0.166442 0.0465851 0 0 0.00082016
2 1 0.501997 0.0743168 0.054167 0 0 0.000635147
3 1 0.574862 0.124792 0.653241 0 0 0.000684738
4 1 0.768411 0.949434 0.913245 0 0 -0.000833511
5 1 0.453038 0.157421 0.79655 0 0 -0.00056076
6 1 0.225113 0.0415596 0.905664 0 0 -0.000646591
7 1 0.89898 0.24979 0.776092 0 0 -0.000865936
8 1 0.92303 0.208264 0.408053 0 0 0.000804901
9 1 0.129792 0.0324912 0.674455 0 0 0.000478745
10 1 0.80408 0.240946 0.551777 0 0 -0.000801086
11 1 0.828129 0.19942 0.183738 0 0 0.000858307
12 1 0.597317 0.0833851 0.285375 0 0 -0.000476837
13 1 0.274072 0.291788 0.16328 0 0 0.000555038
14 1 0.477884 0.116026 0.429095 0 0 0.000806808
15 1 0.958698 0.499776 0.0465849 0 0 0.000831604
16 1 0.501996 0.40765 0.0541669 0 0 0.000631332
17 1 0.574862 0.458125 0.653241 0 0 0.000663757
18 1 0.768411 0.282768 0.913245 0 0 -0.000818253
19 1 0.453037 0.490755 0.79655 0 0 -0.000545502
20 1 0.225112 0.374893 0.905663 0 0 -0.000621796
21 1 0.89898 0.583123 0.776092 0 0 -0.000858307
22 1 0.249225 0.333183 0.530735 0 0 -0.000808716
23 1 0.923029 0.541597 0.408053 0 0 0.000799179
24 1 0.129792 0.365825 0.674455 0 0 0.000482559
25 1 0.80408 0.574279 0.551777 0 0 -0.000799179
26 1 0.152247 0.324418 0.306589 0 0 -0.000669479
27 1 0.828129 0.532753 0.183738 0 0 0.000869751
28 1 0.597317 0.416719 0.285375 0 0 -0.000478745
29 1 0.274072 0.625122 0.16328 0 0 0.000551224
30 1 0.477884 0.44936 0.429095 0 0 0.000810623
31 1 0.958698 0.833109 0.0465849 0 0 0.000837326
32 1 0.501997 0.740983 0.0541669 0 0 0.000640869
33 1 0.574862 0.791459 0.653241 0 0 0.000669479
34 1 0.768411 0.616101 0.913245 0 0 -0.000839233
35 1 0.453038 0.824088 0.79655 0 0 -0.000556946
36 1 0.225113 0.708226 0.905663 0 0 -0.000642776
37 1 0.89898 0.916457 0.776092 0 0 -0.000850677
38 1 0.249225 0.666517 0.530735 0 0 -0.000808716
39 1 0.923029 0.87493 0.408053 0 0 0.000810623
40 1 0.129792 0.699158 0.674455 0 0 0.000478745
41 1 0.80408 0.907613 0.551777 0 0 -0.000799179
42 1 0.152247 0.657751 0.30659 0 0 -0.000680923
43 1 0.828129 0.866086 0.183738 0 0 0.000862122
44 1 0.597317 0.750052 0.285375 0 0 -0.000478745
45 1 0.274072 0.958455 0.16328 0 0 0.00053978
46 1 0.477884 0.782693 0.429095 0 0 0.000797272
47 1 0.249225 0.99985 0.530735 0 0 -0.000804901
48 1 0.152247 0.991085 0.30659 0 0 -0.000673294
ITEM: TIMESTEP
10
ITEM: NUMBER OF ATOMS
48
ITEM: BOX BOUNDS xy xz yz pp pp pp
-4.8725550770759583e+00 8.5982638597488403e+00 2.5251476168632507e+00
-1.1132121086120605e-02 9.5149352550506592e+00 -4.8847612738609314e+00
-4.7147274017333984e-03 1.9521842360496521e+01 2.6099252700805664e-01
ITEM: ATOMS id type xs ys zs fx fy fz
1 1 0.958706 0.166442 0.0465949 0 0 0.000167847
2 1 0.502008 0.0743164 0.0541809 0 0 0.000116348
3 1 0.574859 0.124792 0.653237 0 0 3.8147e-05
4 1 0.768403 0.949435 0.913235 0 0 -0.000165939
5 1 0.453026 0.157422 0.796536 0 0 -0.000102997
6 1 0.225101 0.04156 0.905649 0 0 -0.000123978
7 1 0.898968 0.24979 0.776077 0 0 -0.000419617
8 1 0.923041 0.208263 0.408068 0 0 -0.000387192
9 1 0.129788 0.0324913 0.67445 0 0 -4.95911e-05
10 1 0.804068 0.240946 0.551763 0 0 0.000377655
11 1 0.828141 0.199419 0.183753 0 0 0.000421524
12 1 0.597321 0.083385 0.28538 0 0 5.34058e-05
13 1 0.274084 0.291788 0.163295 0 0 9.91821e-05
14 1 0.477897 0.116026 0.42911 0 0 -0.00037384
15 1 0.958706 0.499775 0.0465948 0 0 0.000162125
16 1 0.502008 0.40765 0.0541808 0 0 0.000120163
17 1 0.574859 0.458125 0.653237 0 0 5.91278e-05
18 1 0.768403 0.282768 0.913235 0 0 -0.000171661
19 1 0.453026 0.490755 0.796536 0 0 -0.000104904
20 1 0.225101 0.374893 0.905649 0 0 -0.00012207
21 1 0.898968 0.583124 0.776077 0 0 -0.000415802
22 1 0.249213 0.333184 0.53072 0 0 0.000391006
23 1 0.923041 0.541597 0.408068 0 0 -0.000375748
24 1 0.129788 0.365825 0.67445 0 0 -5.14984e-05
25 1 0.804068 0.57428 0.551763 0 0 0.000377655
26 1 0.15225 0.324418 0.306594 0 0 -4.95911e-05
27 1 0.828141 0.532753 0.183753 0 0 0.000421524
28 1 0.597321 0.416718 0.28538 0 0 5.72205e-05
29 1 0.274083 0.625121 0.163294 0 0 0.000108719
30 1 0.477897 0.449359 0.42911 0 0 -0.000391006
31 1 0.958707 0.833109 0.0465949 0 0 0.000160217
32 1 0.502008 0.740983 0.0541809 0 0 0.000120163
33 1 0.574859 0.791459 0.653237 0 0 5.14984e-05
34 1 0.768403 0.616101 0.913235 0 0 -0.000164032
35 1 0.453026 0.824088 0.796536 0 0 -0.000110626
36 1 0.225101 0.708227 0.905649 0 0 -0.000123978
37 1 0.898968 0.916457 0.776077 0 0 -0.000417709
38 1 0.249213 0.666517 0.53072 0 0 0.000389099
39 1 0.923041 0.87493 0.408068 0 0 -0.000377655
40 1 0.129788 0.699158 0.67445 0 0 -4.57764e-05
41 1 0.804068 0.907613 0.551763 0 0 0.000385284
42 1 0.15225 0.657751 0.306594 0 0 -5.34058e-05
43 1 0.828141 0.866086 0.183753 0 0 0.000432968
44 1 0.597321 0.750052 0.285381 0 0 4.76837e-05
45 1 0.274084 0.958455 0.163294 0 0 0.000106812
46 1 0.477897 0.782693 0.42911 0 0 -0.000389099
47 1 0.249213 0.99985 0.53072 0 0 0.000379562
48 1 0.15225 0.991084 0.306594 0 0 -5.72205e-05
ITEM: TIMESTEP
11
ITEM: NUMBER OF ATOMS
48
ITEM: BOX BOUNDS xy xz yz pp pp pp
-4.8725550770759583e+00 8.5982638597488403e+00 2.5251476168632507e+00
-1.1132121086120605e-02 9.5149352550506592e+00 -4.8847612738609314e+00
-4.7147274017333984e-03 1.9521842360496521e+01 2.6099252700805664e-01
ITEM: ATOMS id type xs ys zs fx fy fz
1 1 0.95871 0.166442 0.0465989 0 0 -0.000118256
2 1 0.502011 0.0743163 0.0541847 0 0 4.57764e-05
3 1 0.574859 0.124792 0.653237 0 0 -2.47955e-05
4 1 0.768399 0.949435 0.913231 0 0 0.000108719
5 1 0.453023 0.157422 0.796532 0 0 -3.05176e-05
6 1 0.225098 0.0415601 0.905646 0 0 -4.57764e-05
7 1 0.898961 0.249791 0.776068 0 0 -3.05176e-05
8 1 0.923038 0.208263 0.408064 0 0 1.33514e-05
9 1 0.129787 0.0324914 0.674448 0 0 -3.8147e-06
10 1 0.804071 0.240946 0.551767 0 0 -1.90735e-06
11 1 0.828149 0.199419 0.183762 0 0 3.24249e-05
12 1 0.597323 0.0833849 0.285382 0 0 5.72205e-06
13 1 0.274086 0.291788 0.163298 0 0 3.8147e-05
14 1 0.477894 0.116026 0.429106 0 0 -3.43323e-05
15 1 0.95871 0.499775 0.0465988 0 0 -0.000110626
16 1 0.502011 0.40765 0.0541846 0 0 4.57764e-05
17 1 0.574859 0.458125 0.653237 0 0 -3.62396e-05
18 1 0.7684 0.282768 0.913231 0 0 0.000106812
19 1 0.453023 0.490755 0.796532 0 0 -3.05176e-05
20 1 0.225098 0.374893 0.905645 0 0 -4.76837e-05
21 1 0.898961 0.583124 0.776068 0 0 -2.86102e-05
22 1 0.249216 0.333183 0.530724 0 0 3.05176e-05
23 1 0.923038 0.541597 0.408064 0 0 0
24 1 0.129786 0.365825 0.674448 0 0 -1.90735e-06
25 1 0.804071 0.57428 0.551767 0 0 0
26 1 0.15225 0.324418 0.306593 0 0 1.90735e-05
27 1 0.828149 0.532752 0.183762 0 0 3.05176e-05
28 1 0.597323 0.416718 0.285382 0 0 1.90735e-06