ITEM: TIMESTEP
0
ITEM: NUMBER OF ATOMS
48
ITEM: BOX BOUNDS xy xz yz pp pp pp
-7.0997167229652405e+00 8.6067802309989929e+00 2.5094206929206848e+00
-9.4973444938659668e-03 9.3236122131347656e+00 -7.0876796245574951e+00
-2.8691649436950684e-02 1.9545819282531738e+01 7.1304261684417725e-02
ITEM: ATOMS id type xs ys zs fx fy fz
1 1 0.958749 0.16703 0.0320218 0 0 0.246222
2 1 0.519507 0.0738739 0.0528103 0 0 0.0145111
3 1 0.785928 0.125314 0.657023 0 0 0.00144958
4 1 0.0773963 0.948847 0.927808 0 0 -0.246222
5 1 0.712078 0.157156 0.802805 0 0 0.00634575
6 1 0.516638 0.0420026 0.90702 0 0 -0.0145035
7 1 0.151319 0.250315 0.78202 0 0 0.00942802
8 1 0.0549365 0.208712 0.407029 0 0 -6.86646e-05
9 1 0.346686 0.0321465 0.677802 0 0 0.000368118
10 1 0.981209 0.240498 0.552801 0 0 7.43866e-05
11 1 0.884827 0.198895 0.17781 0 0 -0.00942993
12 1 0.68946 0.0837297 0.282028 0 0 -0.000366211
13 1 0.324068 0.292053 0.157025 0 0 -0.00634766
14 1 0.615693 0.115534 0.427803 0 0 -0.000572205
15 1 0.958749 0.500363 0.0320219 0 0 0.246218
16 1 0.519507 0.407207 0.0528103 0 0 0.0145054
17 1 0.785928 0.458648 0.657023 0 0 0.00145149
18 1 0.0773961 0.28218 0.927808 0 0 -0.246222
19 1 0.712078 0.49049 0.802805 0 0 0.00634766
20 1 0.516639 0.375336 0.90702 0 0 -0.0145035
21 1 0.151319 0.583648 0.78202 0 0 0.00942802
22 1 0.420453 0.333676 0.532027 0 0 0.00056839
23 1 0.0549369 0.542046 0.407029 0 0 -7.24792e-05
24 1 0.346686 0.36548 0.677802 0 0 0.000371933
25 1 0.981209 0.573831 0.552801 0 0 7.05719e-05
26 1 0.250218 0.323895 0.302807 0 0 -0.00144958
27 1 0.884827 0.532228 0.17781 0 0 -0.00942421
28 1 0.689459 0.417063 0.282028 0 0 -0.000364304
29 1 0.324068 0.625387 0.157025 0 0 -0.00634766
30 1 0.615693 0.448867 0.427803 0 0 -0.000570297
31 1 0.958749 0.833696 0.0320219 0 0 0.246216
32 1 0.519507 0.740541 0.0528104 0 0 0.0145092
33 1 0.785928 0.791981 0.657023 0 0 0.00145149
34 1 0.0773961 0.615514 0.927808 0 0 -0.24622
35 1 0.712078 0.823823 0.802805 0 0 0.00634766
36 1 0.516639 0.708669 0.90702 0 0 -0.0145092
37 1 0.151319 0.916981 0.78202 0 0 0.00942802
38 1 0.420453 0.667009 0.532027 0 0 0.000566483
39 1 0.0549367 0.875379 0.407029 0 0 -7.24792e-05
40 1 0.346686 0.698813 0.677802 0 0 0.000364304
41 1 0.981209 0.907164 0.552801 0 0 7.62939e-05
42 1 0.250218 0.657228 0.302807 0 0 -0.00145149
43 1 0.884827 0.865562 0.17781 0 0 -0.00942802
44 1 0.68946 0.750396 0.282028 0 0 -0.000368118
45 1 0.324068 0.95872 0.157026 0 0 -0.00635529
46 1 0.615693 0.782201 0.427803 0 0 -0.000566483
47 1 0.420452 0.000342385 0.532027 0 0 0.000564575
48 1 0.250218 0.990562 0.302807 0 0 -0.00144958
ITEM: TIMESTEP
1
ITEM: NUMBER OF ATOMS
48
ITEM: BOX BOUNDS xy xz yz pp pp pp
-7.0997167229652405e+00 8.6067802309989929e+00 2.5094206929206848e+00
-9.4973444938659668e-03 9.3236122131347656e+00 -7.0876796245574951e+00
-2.8691649436950684e-02 1.9545819282531738e+01 7.1304261684417725e-02
ITEM: ATOMS id type xs ys zs fx fy fz
1 1 0.962251 0.167006 0.0350322 0 0 -0.00574493
2 1 0.519713 0.0738726 0.0529877 0 0 -0.0122986
3 1 0.785949 0.125314 0.657041 0 0 0.00146294
4 1 0.0738943 0.94887 0.924798 0 0 0.00574684
5 1 0.712168 0.157156 0.802882 0 0 -0.0423069
6 1 0.516432 0.0420039 0.906842 0 0 0.0122986
7 1 0.151453 0.250314 0.782135 0 0 -0.029253
8 1 0.0549356 0.208712 0.407028 0 0 -0.000860214
9 1 0.346692 0.0321465 0.677806 0 0 -0.000642776
10 1 0.98121 0.240498 0.552802 0 0 0.000864029
11 1 0.884693 0.198896 0.177695 0 0 0.029253
12 1 0.689454 0.0837297 0.282024 0 0 0.000642776
13 1 0.323977 0.292054 0.156948 0 0 0.0423069
14 1 0.615685 0.115534 0.427796 0 0 -0.0012722
15 1 0.962251 0.50034 0.0350323 0 0 -0.00574303
16 1 0.519713 0.407206 0.0529877 0 0 -0.0122967
17 1 0.785948 0.458648 0.657041 0 0 0.00146675
18 1 0.0738941 0.282203 0.924798 0 0 0.00574303
19 1 0.712168 0.490489 0.802882 0 0 -0.042305
20 1 0.516432 0.375337 0.906842 0 0 0.0122986
21 1 0.151453 0.583647 0.782135 0 0 -0.0292568
22 1 0.420461 0.333676 0.532034 0 0 0.00126648
23 1 0.0549359 0.542046 0.407028 0 0 -0.000862122
24 1 0.346692 0.36548 0.677806 0 0 -0.000642776
25 1 0.98121 0.573831 0.552802 0 0 0.000860214
26 1 0.250197 0.323895 0.30279 0 0 -0.00146675
27 1 0.884693 0.532229 0.177695 0 0 0.029253
28 1 0.689454 0.417063 0.282024 0 0 0.000640869
29 1 0.323977 0.625387 0.156948 0 0 0.042305
30 1 0.615685 0.448867 0.427796 0 0 -0.00126839
31 1 0.962251 0.833673 0.0350323 0 0 -0.00574875
32 1 0.519713 0.740539 0.0529878 0 0 -0.0123043
33 1 0.785948 0.791981 0.657041 0 0 0.00147057
34 1 0.0738941 0.615537 0.924798 0 0 0.00574303
35 1 0.712168 0.823823 0.802882 0 0 -0.042305
36 1 0.516432 0.708671 0.906842 0 0 0.0123062
37 1 0.151453 0.916981 0.782135 0 0 -0.029253
38 1 0.420461 0.667009 0.532034 0 0 0.00126457
39 1 0.0549357 0.875379 0.407028 0 0 -0.000862122
40 1 0.346691 0.698813 0.677806 0 0 -0.000638962
41 1 0.98121 0.907164 0.552802 0 0 0.0008564
42 1 0.250197 0.657229 0.30279 0 0 -0.00146294
43 1 0.884693 0.865562 0.177695 0 0 0.0292568
44 1 0.689454 0.750396 0.282024 0 0 0.000642776
45 1 0.323977 0.95872 0.156948 0 0 0.0423088
46 1 0.615685 0.782201 0.427796 0 0 -0.00127029
47 1 0.420461 0.000342332 0.532034 0 0 0.0012722
48 1 0.250197 0.990562 0.30279 0 0 -0.00146484
ITEM: TIMESTEP
2
ITEM: NUMBER OF ATOMS
48
ITEM: BOX BOUNDS xy xz yz pp pp pp
-7.0997167229652405e+00 8.6067802309989929e+00 2.5094206929206848e+00
-9.4973444938659668e-03 9.3236122131347656e+00 -7.0876796245574951e+00
-2.8691649436950684e-02 1.9545819282531738e+01 7.1304261684417725e-02
ITEM: ATOMS id type xs ys zs fx fy fz
1 1 0.962582 0.167004 0.0353165 0 0 -0.00802803
2 1 0.519456 0.0738743 0.0527672 0 0 0.0158424
3 1 0.785985 0.125314 0.657072 0 0 -0.0136032
4 1 0.0735637 0.948872 0.924514 0 0 0.00802803
5 1 0.711204 0.157162 0.802053 0 0 -0.00527954
6 1 0.516689 0.0420023 0.907063 0 0 -0.0158443
7 1 0.150795 0.250318 0.78157 0 0 -0.00325394
8 1 0.0549156 0.208712 0.407011 0 0 0.00105095
9 1 0.346677 0.0321465 0.677794 0 0 -0.0149536
10 1 0.98123 0.240497 0.552819 0 0 -0.00104523
11 1 0.88535 0.198891 0.17826 0 0 0.00325394
12 1 0.689468 0.0837296 0.282036 0 0 0.0149479
13 1 0.324942 0.292047 0.157777 0 0 0.00528145
14 1 0.615655 0.115534 0.42777 0 0 0.000982285
15 1 0.962582 0.500338 0.0353165 0 0 -0.00802612
16 1 0.519457 0.407208 0.0527672 0 0 0.0158443
17 1 0.785985 0.458647 0.657072 0 0 -0.0136032
18 1 0.0735634 0.282206 0.924514 0 0 0.00802994
19 1 0.711204 0.490496 0.802053 0 0 -0.00527954
20 1 0.516689 0.375336 0.907063 0 0 -0.0158424
21 1 0.150795 0.583652 0.78157 0 0 -0.00325012
22 1 0.420491 0.333675 0.53206 0 0 -0.000980377
23 1 0.0549158 0.542046 0.407011 0 0 0.00104332
24 1 0.346678 0.36548 0.677794 0 0 -0.0149517
25 1 0.98123 0.57383 0.552819 0 0 -0.00104523
26 1 0.250161 0.323896 0.302758 0 0 0.0136089
27 1 0.88535 0.532225 0.17826 0 0 0.00325012
28 1 0.689468 0.417063 0.282036 0 0 0.0149517
29 1 0.324942 0.625381 0.157777 0 0 0.00527573
30 1 0.615654 0.448868 0.42777 0 0 0.000976562
31 1 0.962582 0.833671 0.0353164 0 0 -0.00801849
32 1 0.519456 0.740541 0.0527671 0 0 0.0158501
33 1 0.785985 0.791981 0.657072 0 0 -0.0136108
34 1 0.0735634 0.615539 0.924514 0 0 0.00802612
35 1 0.711204 0.823829 0.802053 0 0 -0.00527763
36 1 0.516689 0.708669 0.907063 0 0 -0.0158577
37 1 0.150795 0.916985 0.78157 0 0 -0.00325203
38 1 0.420491 0.667009 0.53206 0 0 -0.000976562
39 1 0.0549156 0.875379 0.407011 0 0 0.00103951
40 1 0.346677 0.698813 0.677794 0 0 -0.0149517
41 1 0.98123 0.907164 0.552819 0 0 -0.00104141
42 1 0.250161 0.657229 0.302758 0 0 0.0136089
43 1 0.88535 0.865558 0.17826 0 0 0.00324821
44 1 0.689468 0.750396 0.282036 0 0 0.0149555
45 1 0.324942 0.958714 0.157777 0 0 0.00527763
46 1 0.615655 0.782201 0.42777 0 0 0.000972748
47 1 0.420491 0.000342131 0.53206 0 0 -0.000976562
48 1 0.250161 0.990562 0.302758 0 0 0.0136032
ITEM: TIMESTEP
3
ITEM: NUMBER OF ATOMS
48
ITEM: BOX BOUNDS xy xz yz pp pp pp
-7.0997167229652405e+00 8.6067802309989929e+00 2.5094206929206848e+00
-9.4973444938659668e-03 9.3236122131347656e+00 -7.0876796245574951e+00
-2.8691649436950684e-02 1.9545819282531738e+01 7.1304261684417725e-02
ITEM: ATOMS id type xs ys zs fx fy fz
1 1 0.962416 0.167005 0.035174 0 0 0.0105762
2 1 0.519906 0.0738713 0.053154 0 0 -0.00342751
3 1 0.785542 0.125317 0.656691 0 0 -0.00460052
4 1 0.0737294 0.948871 0.924656 0 0 -0.0105743
5 1 0.710728 0.157165 0.801644 0 0 0.00385857
6 1 0.516239 0.0420052 0.906676 0 0 0.00341988
7 1 0.150483 0.25032 0.781301 0 0 -0.00235367
8 1 0.0549445 0.208712 0.407036 0 0 0.00788689
9 1 0.346173 0.0321499 0.677361 0 0 -0.0035038
10 1 0.981201 0.240498 0.552794 0 0 -0.0078907
11 1 0.885663 0.198889 0.178529 0 0 0.00235558
12 1 0.689973 0.0837263 0.282469 0 0 0.00350761
13 1 0.325418 0.292044 0.158186 0 0 -0.00385475
14 1 0.615678 0.115534 0.42779 0 0 0.00831985
15 1 0.962416 0.500339 0.0351741 0 0 0.0105667
16 1 0.519907 0.407205 0.0531541 0 0 -0.00342369
17 1 0.785542 0.45865 0.656691 0 0 -0.00459862
18 1 0.0737292 0.282205 0.924656 0 0 -0.0105782
19 1 0.710728 0.490499 0.801644 0 0 0.00385666
20 1 0.516239 0.375339 0.906676 0 0 0.00342178
21 1 0.150483 0.583654 0.781301 0 0 -0.00235939
22 1 0.420468 0.333675 0.53204 0 0 -0.00831032
23 1 0.0549445 0.542045 0.407036 0 0 0.00789261
24 1 0.346173 0.365483 0.677361 0 0 -0.00351143
25 1 0.981201 0.573831 0.552794 0 0 -0.00789261
26 1 0.250604 0.323893 0.303139 0 0 0.00459862
27 1 0.885663 0.532223 0.178529 0 0 0.00235558
28 1 0.689973 0.41706 0.282469 0 0 0.00351143
29 1 0.325418 0.625378 0.158186 0 0 -0.00385284
30 1 0.615678 0.448868 0.42779 0 0 0.00831413
31 1 0.962416 0.833672 0.0351742 0 0 0.0105648
32 1 0.519907 0.740538 0.0531541 0 0 -0.00342751
33 1 0.785541 0.791984 0.656691 0 0 -0.0045948
34 1 0.0737291 0.615538 0.924656 0 0 -0.0105648
35 1 0.710728 0.823832 0.801644 0 0 0.00385857
36 1 0.516238 0.708672 0.906676 0 0 0.00343132
37 1 0.150483 0.916987 0.781301 0 0 -0.00235367
38 1 0.420468 0.667009 0.53204 0 0 -0.00831985
39 1 0.0549442 0.875379 0.407036 0 0 0.00789452
40 1 0.346173 0.698817 0.677361 0 0 -0.00350571
41 1 0.981201 0.907164 0.552794 0 0 -0.00789261
42 1 0.250604 0.657226 0.30314 0 0 0.0045948
43 1 0.885663 0.865556 0.178529 0 0 0.00235748
44 1 0.689973 0.750393 0.28247 0 0 0.0035038
45 1 0.325418 0.958711 0.158186 0 0 -0.00385475
46 1 0.615678 0.782201 0.42779 0 0 0.00832748
47 1 0.420468 0.000342284 0.53204 0 0 -0.00832748
48 1 0.250604 0.990559 0.303139 0 0 0.00459862
ITEM: TIMESTEP
4
ITEM: NUMBER OF ATOMS
48
ITEM: BOX BOUNDS xy xz yz pp pp pp
-7.0997167229652405e+00 8.6067802309989929e+00 2.5094206929206848e+00
-9.4973444938659668e-03 9.3236122131347656e+00 -7.0876796245574951e+00
-2.8691649436950684e-02 1.9545819282531738e+01 7.1304261684417725e-02
ITEM: ATOMS id type xs ys zs fx fy fz
1 1 0.962643 0.167004 0.0353688 0 0 -0.00183678
2 1 0.51997 0.0738709 0.0532087 0 0 -0.00551033
3 1 0.785265 0.125319 0.656453 0 0 -0.000509262
4 1 0.0735028 0.948873 0.924461 0 0 0.00183487
5 1 0.710667 0.157166 0.801592 0 0 -0.00228691
6 1 0.516175 0.0420057 0.906621 0 0 0.0055275
7 1 0.150311 0.250322 0.781154 0 0 -0.0033226
8 1 0.0551663 0.208711 0.407227 0 0 -5.14984e-05
9 1 0.345905 0.0321517 0.67713 0 0 0.000736237
10 1 0.98098 0.240499 0.552604 0 0 4.57764e-05
11 1 0.885835 0.198888 0.178676 0 0 0.00331879
12 1 0.690241 0.0837245 0.2827 0 0 -0.000736237
13 1 0.325479 0.292044 0.158239 0 0 0.00227737
14 1 0.61591 0.115533 0.427989 0 0 0.000442505
15 1 0.962643 0.500337 0.0353688 0 0 -0.00181961
16 1 0.51997 0.407204 0.0532088 0 0 -0.00551987
17 1 0.785265 0.458652 0.656453 0 0 -0.000513077
18 1 0.0735025 0.282206 0.924461 0 0 0.00183487
19 1 0.710667 0.490499 0.801592 0 0 -0.0022831
20 1 0.516175 0.375339 0.906621 0 0 0.00551796
21 1 0.150311 0.583655 0.781154 0 0 -0.0033226
22 1 0.420237 0.333677 0.531841 0 0 -0.00044632
23 1 0.0551664 0.542044 0.407227 0 0 -4.19617e-05
24 1 0.345905 0.365485 0.67713 0 0 0.000738144
25 1 0.980979 0.573832 0.552603 0 0 4.76837e-05
26 1 0.250881 0.323891 0.303377 0 0 0.000509262
27 1 0.885834 0.532221 0.178676 0 0 0.00331879
28 1 0.690241 0.417058 0.2827 0 0 -0.000740051
29 1 0.325479 0.625377 0.158239 0 0 0.002285
30 1 0.615909 0.448866 0.427989 0 0 0.000459671
31 1 0.962643 0.83367 0.0353689 0 0 -0.00183296
32 1 0.51997 0.740538 0.0532089 0 0 -0.00552559
33 1 0.785264 0.791985 0.656453 0 0 -0.000511169
34 1 0.0735027 0.615539 0.924461 0 0 0.00182152
35 1 0.710667 0.823832 0.801592 0 0 -0.00228691
36 1 0.516175 0.708672 0.906621 0 0 0.00553131
37 1 0.150311 0.916988 0.781154 0 0 -0.00332642
38 1 0.420236 0.66701 0.531841 0 0 -0.000442505
39 1 0.055166 0.875377 0.407226 0 0 -4.00543e-05
40 1 0.345904 0.698818 0.67713 0 0 0.000734329
41 1 0.980979 0.907166 0.552604 0 0 4.00543e-05
42 1 0.250881 0.657224 0.303377 0 0 0.000507355
43 1 0.885835 0.865555 0.178676 0 0 0.00332451
44 1 0.690241 0.750391 0.2827 0 0 -0.000745773
45 1 0.325479 0.958711 0.158239 0 0 0.00228119
46 1 0.615909 0.782199 0.427989 0 0 0.000442505
47 1 0.420236 0.000343817 0.531841 0 0 -0.000442505
48 1 0.250881 0.990557 0.303377 0 0 0.000516891
ITEM: TIMESTEP
5
ITEM: NUMBER OF ATOMS
48
ITEM: BOX BOUNDS xy xz yz pp pp pp
-7.0997167229652405e+00 8.6067802309989929e+00 2.5094206929206848e+00
-9.4973444938659668e-03 9.3236122131347656e+00 -7.0876796245574951e+00
-2.8691649436950684e-02 1.9545819282531738e+01 7.1304261684417725e-02
ITEM: ATOMS id type xs ys zs fx fy fz
1 1 0.962635 0.167004 0.0353623 0 0 7.24792e-05
2 1 0.519889 0.0738714 0.0531394 0 0 0.000259399
3 1 0.785231 0.125319 0.656424 0 0 -0.000648499
4 1 0.0735104 0.948873 0.924468 0 0 -7.43866e-05
5 1 0.710625 0.157166 0.801556 0 0 -0.000389099
6 1 0.516256 0.0420051 0.906691 0 0 -0.000261307
7 1 0.150243 0.250322 0.781095 0 0 -0.00019455
8 1 0.0551862 0.208711 0.407244 0 0 -0.000846863
9 1 0.345891 0.0321518 0.677118 0 0 -9.53674e-05
10 1 0.98096 0.240499 0.552586 0 0 0.000844955
11 1 0.885903 0.198888 0.178735 0 0 0.000196457
12 1 0.690255 0.0837244 0.282712 0 0 9.53674e-05
13 1 0.325521 0.292044 0.158274 0 0 0.000385284
14 1 0.615938 0.115532 0.428014 0 0 -0.00053215
15 1 0.962635 0.500337 0.0353624 0 0 5.91278e-05
16 1 0.51989 0.407205 0.0531394 0 0 0.000257492
17 1 0.785231 0.458652 0.656424 0 0 -0.000640869
18 1 0.0735101 0.282206 0.924468 0 0 -6.48499e-05
19 1 0.710625 0.4905 0.801556 0 0 -0.000392914
20 1 0.516256 0.375338 0.906691 0 0 -0.000255585
21 1 0.150243 0.583655 0.781095 0 0 -0.000192642
22 1 0.420208 0.333677 0.531817 0 0 0.000534058
23 1 0.0551864 0.542044 0.407244 0 0 -0.000843048
24 1 0.345891 0.365485 0.677118 0 0 -8.96454e-05
25 1 0.980959 0.573832 0.552586 0 0 0.000843048
26 1 0.250915 0.323891 0.303407 0 0 0.000640869
27 1 0.885903 0.532221 0.178735 0 0 0.000205994
28 1 0.690255 0.417058 0.282712 0 0 9.15527e-05
29 1 0.32552 0.625377 0.158274 0 0 0.000392914
30 1 0.615938 0.448866 0.428014 0 0 -0.000537872
31 1 0.962635 0.833671 0.0353623 0 0 7.05719e-05
32 1 0.51989 0.740538 0.0531394 0 0 0.000261307
33 1 0.785231 0.791986 0.656424 0 0 -0.000642776
34 1 0.0735101 0.615539 0.924468 0 0 -7.24792e-05
35 1 0.710625 0.823833 0.801556 0 0 -0.000385284
36 1 0.516256 0.708672 0.906691 0 0 -0.000259399
37 1 0.150243 0.916989 0.781095 0 0 -0.000198364
38 1 0.420208 0.667011 0.531816 0 0 0.00053978
39 1 0.0551862 0.875377 0.407244 0 0 -0.000841141
40 1 0.345891 0.698819 0.677118 0 0 -9.34601e-05
41 1 0.980959 0.907166 0.552586 0 0 0.000843048
42 1 0.250915 0.657224 0.303407 0 0 0.000640869
43 1 0.885903 0.865554 0.178735 0 0 0.00019455
44 1 0.690255 0.750391 0.282712 0 0 9.15527e-05
45 1 0.325521 0.95871 0.158274 0 0 0.000389099
46 1 0.615938 0.782199 0.428014 0 0 -0.000534058
47 1 0.420207 0.000344007 0.531816 0 0 0.000537872
48 1 0.250915 0.990557 0.303407 0 0 0.000638962
ITEM: TIMESTEP
6
ITEM: NUMBER OF ATOMS
48
ITEM: BOX BOUNDS xy xz yz pp pp pp
-7.0997167229652405e+00 8.6067802309989929e+00 2.5094206929206848e+00
-9.4973444938659668e-03 9.3236122131347656e+00 -7.0876796245574951e+00
-2.8691649436950684e-02 1.9545819282531738e+01 7.1304261684417725e-02
ITEM: ATOMS id type xs ys zs fx fy fz
1 1 0.962636 0.167004 0.0353632 0 0 0.000171661
2 1 0.519891 0.0738714 0.0531409 0 0 0.00028801
3 1 0.785217 0.125319 0.656412 0 0 -4.76837e-05
4 1 0.0735093 0.948873 0.924467 0 0 -0.000165939
5 1 0.710616 0.157166 0.801548 0 0 -0.000164032
6 1 0.516254 0.0420051 0.906689 0 0 -0.000286102
7 1 0.150237 0.250322 0.78109 0 0 -0.000131607
8 1 0.0551709 0.208711 0.407231 0 0 9.34601e-05
9 1 0.345889 0.0321518 0.677116 0 0 5.91278e-05
10 1 0.980975 0.240499 0.5526 0 0 -9.34601e-05
11 1 0.885909 0.198888 0.17874 0 0 0.000127792
12 1 0.690257 0.0837244 0.282714 0 0 -6.10352e-05
13 1 0.32553 0.292044 0.158282 0 0 0.000164032
14 1 0.615929 0.115532 0.428006 0 0 0.000221252
15 1 0.962636 0.500337 0.0353632 0 0 0.000169754
16 1 0.519891 0.407205 0.053141 0 0 0.000289917
17 1 0.785217 0.458652 0.656412 0 0 -5.91278e-05
18 1 0.0735092 0.282206 0.924467 0 0 -0.000169754
19 1 0.710616 0.4905 0.801548 0 0 -0.000160217
20 1 0.516254 0.375338 0.906689 0 0 -0.00028801
21 1 0.150236 0.583655 0.78109 0 0 -0.0001297
22 1 0.420217 0.333677 0.531824 0 0 -0.000226974
23 1 0.0551711 0.542044 0.407231 0 0 9.34601e-05
24 1 0.345889 0.365485 0.677116 0 0 6.67572e-05
25 1 0.980975 0.573832 0.552599 0 0 -8.7738e-05
26 1 0.250929 0.32389 0.303418 0 0 5.72205e-05
27 1 0.885909 0.532221 0.17874 0 0 0.000123978
28 1 0.690257 0.417058 0.282714 0 0 -6.48499e-05
29 1 0.32553 0.625377 0.158282 0 0 0.000160217
30 1 0.615929 0.448866 0.428006 0 0 0.000225067
31 1 0.962636 0.83367 0.0353633 0 0 0.000165939
32 1 0.519891 0.740538 0.053141 0 0 0.00028801
33 1 0.785217 0.791986 0.656412 0 0 -6.10352e-05
34 1 0.073509 0.615539 0.924467 0 0 -0.000165939
35 1 0.710616 0.823833 0.801548 0 0 -0.000167847
36 1 0.516254 0.708672 0.906689 0 0 -0.000289917
37 1 0.150237 0.916989 0.78109 0 0 -0.0001297
38 1 0.420217 0.667011 0.531824 0 0 -0.000225067
39 1 0.0551709 0.875377 0.407231 0 0 8.96454e-05
40 1 0.345888 0.698819 0.677116 0 0 6.29425e-05
41 1 0.980974 0.907166 0.552599 0 0 -8.7738e-05
42 1 0.250928 0.657224 0.303418 0 0 5.53131e-05
43 1 0.885909 0.865554 0.17874 0 0 0.000123978
44 1 0.690257 0.750391 0.282714 0 0 -6.29425e-05
45 1 0.32553 0.95871 0.158282 0 0 0.000162125
46 1 0.615929 0.782199 0.428006 0 0 0.000226974
47 1 0.420217 0.000343946 0.531824 0 0 -0.00021553
48 1 0.250929 0.990557 0.303418 0 0 5.53131e-05
ITEM: TIMESTEP
7
ITEM: NUMBER OF ATOMS
48
ITEM: BOX BOUNDS xy xz yz pp pp pp
-7.0997167229652405e+00 8.6067802309989929e+00 2.5094206929206848e+00
-9.4973444938659668e-03 9.3236122131347656e+00 -7.0876796245574951e+00
-2.8691649436950684e-02 1.9545819282531738e+01 7.1304261684417725e-02
ITEM: ATOMS id type xs ys zs fx fy fz
1 1 0.962641 0.167004 0.0353674 0 0 -5.34058e-05
2 1 0.519899 0.0738713 0.0531479 0 0 -0.000116348
3 1 0.785213 0.125319 0.656409 0 0 -6.29425e-05
4 1 0.0735046 0.948873 0.924463 0 0 4.57764e-05
5 1 0.71061 0.157166 0.801543 0 0 -4.19617e-05
6 1 0.516246 0.0420052 0.906682 0 0 0.000112534
7 1 0.150232 0.250322 0.781086 0 0 -0.000101089
8 1 0.0551707 0.208711 0.40723 0 0 5.72205e-05
9 1 0.34589 0.0321518 0.677117 0 0 -0.000118256
10 1 0.980975 0.240499 0.5526 0 0 -5.34058e-05
11 1 0.885914 0.198888 0.178744 0 0 0.000110626
12 1 0.690256 0.0837244 0.282713 0 0 0.000123978
13 1 0.325536 0.292044 0.158287 0 0 4.3869e-05
14 1 0.615933 0.115532 0.42801 0 0 6.29425e-05
15 1 0.962641 0.500337 0.0353672 0 0 -4.95911e-05
16 1 0.5199 0.407205 0.053148 0 0 -0.00012207
17 1 0.785213 0.458652 0.656409 0 0 -6.29425e-05
18 1 0.0735044 0.282206 0.924463 0 0 4.57764e-05
19 1 0.71061 0.4905 0.801543 0 0 -4.57764e-05
20 1 0.516246 0.375339 0.906682 0 0 0.000106812
21 1 0.150232 0.583655 0.781086 0 0 -0.000101089
22 1 0.420213 0.333677 0.53182 0 0 -5.72205e-05
23 1 0.055171 0.542044 0.407231 0 0 4.57764e-05
24 1 0.34589 0.365485 0.677117 0 0 -0.000125885
25 1 0.980975 0.573832 0.5526 0 0 -5.14984e-05
26 1 0.250933 0.32389 0.303422 0 0 5.72205e-05
27 1 0.885914 0.532221 0.178744 0 0 0.000106812
28 1 0.690256 0.417058 0.282713 0 0 0.000135422
29 1 0.325536 0.625377 0.158287 0 0 4.3869e-05
30 1 0.615933 0.448866 0.42801 0 0 6.10352e-05
31 1 0.962641 0.83367 0.0353673 0 0 -4.76837e-05
32 1 0.5199 0.740538 0.0531479 0 0 -0.00012207
33 1 0.785213 0.791986 0.656408 0 0 -5.72205e-05
34 1 0.0735043 0.615539 0.924463 0 0 5.14984e-05
35 1 0.71061 0.823833 0.801543 0 0 -4.3869e-05
36 1 0.516246 0.708672 0.906682 0 0 0.000116348
37 1 0.150232 0.916989 0.781086 0 0 -0.000104904
38 1 0.420212 0.667011 0.53182 0 0 -5.72205e-05
39 1 0.0551706 0.875377 0.40723 0 0 5.53131e-05
40 1 0.34589 0.698819 0.677117 0 0 -0.000127792
41 1 0.980975 0.907166 0.5526 0 0 -5.14984e-05
42 1 0.250932 0.657224 0.303422 0 0 6.48499e-05
43 1 0.885914 0.865554 0.178744 0 0 0.000110626
44 1 0.690256 0.750391 0.282713 0 0 0.0001297
45 1 0.325536 0.95871 0.158287 0 0 4.00543e-05
46 1 0.615933 0.782199 0.42801 0 0 5.72205e-05
47 1 0.420212 0.000343974 0.531821 0 0 -7.05719e-05
48 1 0.250932 0.990557 0.303422 0 0 6.10352e-05
ITEM: TIMESTEP
8
ITEM: NUMBER OF ATOMS
48
ITEM: BOX BOUNDS xy xz yz pp pp pp
-7.0997167229652405e+00 8.6067802309989929e+00 2.5094206929206848e+00
-9.4973444938659668e-03 9.3236122131347656e+00 -7.0876796245574951e+00
-2.8691649436950684e-02 1.9545819282531738e+01 7.1304261684417725e-02
ITEM: ATOMS id type xs ys zs fx fy fz
1 1 0.962641 0.167004 0.0353674 0 0 -5.34058e-05
2 1 0.519899 0.0738713 0.0531479 0 0 -0.000116348
3 1 0.785213 0.125319 0.656409 0 0 -6.29425e-05
4 1 0.0735046 0.948873 0.924463 0 0 4.57764e-05
5 1 0.71061 0.157166 0.801543 0 0 -4.19617e-05
6 1 0.516246 0.0420052 0.906682 0 0 0.000112534
7 1 0.150232 0.250322 0.781086 0 0 -0.000101089
8 1 0.0551707 0.208711 0.40723 0 0 5.72205e-05
9 1 0.34589 0.0321518 0.677117 0 0 -0.000118256
10 1 0.980975 0.240499 0.5526 0 0 -5.34058e-05
11 1 0.885914 0.198888 0.178744 0 0 0.000110626
12 1 0.690256 0.0837244 0.282713 0 0 0.000123978
13 1 0.325536 0.292044 0.158287 0 0 4.3869e-05
14 1 0.615933 0.115532 0.42801 0 0 6.29425e-05
15 1 0.962641 0.500337 0.0353672 0 0 -4.95911e-05
16 1 0.5199 0.407205 0.053148 0 0 -0.00012207
17 1 0.785213 0.458652 0.656409 0 0 -6.29425e-05
18 1 0.0735044 0.282206 0.924463 0 0 4.57764e-05
19 1 0.71061 0.4905 0.801543 0 0 -4.57764e-05
20 1 0.516246 0.375339 0.906682 0 0 0.000106812
21 1 0.150232 0.583655 0.781086 0 0 -0.000101089
22 1 0.420213 0.333677 0.53182 0 0 -5.72205e-05
23 1 0.055171 0.542044 0.407231 0 0 4.57764e-05
24 1 0.34589 0.365485 0.677117 0 0 -0.000125885
25 1 0.980975 0.573832 0.5526 0 0 -5.14984e-05
26 1 0.250933 0.32389 0.303422 0 0 5.72205e-05
27 1 0.885914 0.532221 0.178744 0 0 0.000106812
28 1 0.690256 0.417058 0.282713 0 0 0.000135422
29 1 0.325536 0.625377 0.158287 0 0 4.3869e-05
30 1 0.615933 0.448866 0.42801 0 0 6.10352e-05
31 1 0.962641 0.83367 0.0353673 0 0 -4.76837e-05
32 1 0.5199 0.740538 0.0531479 0 0 -0.00012207
33 1 0.785213 0.791986 0.656408 0 0 -5.72205e-05
34 1 0.0735043 0.615539 0.924463 0 0 5.14984e-05
35 1 0.71061 0.823833 0.801543 0 0 -4.3869e-05
36 1 0.516246 0.708672 0.906682 0 0 0.000116348
37 1 0.150232 0.916989 0.781086 0 0 -0.000104904
38 1 0.420212 0.667011 0.53182 0 0 -5.72205e-05
39 1 0.0551706 0.875377 0.40723 0 0 5.53131e-05
40 1 0.34589 0.698819 0.677117 0 0 -0.000127792
41 1 0.980975 0.907166 0.5526 0 0 -5.14984e-05
42 1 0.250932 0.657224 0.303422 0 0 6.48499e-05
43 1 0.885914 0.865554 0.178744 0 0 0.000110626
44 1 0.690256 0.750391 0.282713 0 0 0.0001297
45 1 0.325536 0.95871 0.158287 0 0 4.00543e-05
46 1 0.615933 0.782199 0.42801 0 0 5.72205e-05
47 1 0.420212 0.000343974 0.531821 0 0 -7.05719e-05
48 1 0.250932 0.990557 0.303422 0 0 6.10352e-05
