ITEM: TIMESTEP
0
ITEM: NUMBER OF ATOMS
48
ITEM: BOX BOUNDS xy xz yz pp pp pp
-6.8463178277015686e+00 8.5982638597488403e+00 2.5251476168632507e+00
-1.1132121086120605e-02 9.5149352550506592e+00 -6.8585240244865417e+00
-4.7147274017333984e-03 1.9521842360496521e+01 2.6099252700805664e-01
ITEM: ATOMS id type xs ys zs fx fy fz
1 1 0.957027 0.166857 0.0318549 0 0 0.244215
2 1 0.518354 0.0743484 0.0530456 0 0 0.015379
3 1 0.791771 0.124689 0.656895 0 0 0.00115204
4 1 0.0826545 0.949019 0.927975 0 0 -0.244225
5 1 0.719615 0.157245 0.802828 0 0 0.00355148
6 1 0.521328 0.041528 0.906785 0 0 -0.015379
7 1 0.158243 0.249629 0.781799 0 0 0.00087738
8 1 0.0547526 0.208292 0.407038 0 0 3.43323e-05
9 1 0.353213 0.032398 0.677762 0 0 0.00251961
10 1 0.98493 0.240917 0.552793 0 0 -3.43323e-05
11 1 0.881439 0.199581 0.178031 0 0 -0.00087738
12 1 0.68647 0.0834783 0.282068 0 0 -0.00252151
13 1 0.320067 0.291965 0.157002 0 0 -0.00355148
14 1 0.616205 0.116061 0.427856 0 0 -0.00113678
15 1 0.957028 0.50019 0.0318549 0 0 0.244223
16 1 0.518354 0.407682 0.0530456 0 0 0.015377
17 1 0.791771 0.458022 0.656895 0 0 0.00115204
18 1 0.0826545 0.282353 0.927975 0 0 -0.244215
19 1 0.719615 0.490578 0.802828 0 0 0.00354958
20 1 0.521328 0.374861 0.906785 0 0 -0.015379
21 1 0.158243 0.582962 0.781799 0 0 0.000881195
22 1 0.423477 0.333148 0.531974 0 0 0.00114059
23 1 0.0547526 0.541626 0.407038 0 0 3.24249e-05
24 1 0.353213 0.365731 0.677762 0 0 0.00251961
25 1 0.98493 0.574251 0.552793 0 0 -3.43323e-05
26 1 0.247911 0.324521 0.302936 0 0 -0.00114822
27 1 0.881439 0.532914 0.178031 0 0 -0.000879288
28 1 0.68647 0.416812 0.282068 0 0 -0.00251579
29 1 0.320067 0.625298 0.157002 0 0 -0.00355339
30 1 0.616205 0.449395 0.427856 0 0 -0.00113487
31 1 0.957028 0.833524 0.031855 0 0 0.244221
32 1 0.518354 0.741015 0.0530456 0 0 0.015379
33 1 0.791771 0.791356 0.656895 0 0 0.00115204
34 1 0.0826545 0.615686 0.927975 0 0 -0.244221
35 1 0.719615 0.823911 0.802828 0 0 0.00355339
36 1 0.521328 0.708195 0.906785 0 0 -0.015379
37 1 0.158243 0.916296 0.781799 0 0 0.000881195
38 1 0.423477 0.666482 0.531974 0 0 0.00113297
39 1 0.0547527 0.874959 0.407038 0 0 3.05176e-05
40 1 0.353213 0.699065 0.677762 0 0 0.00251961
41 1 0.98493 0.907584 0.552793 0 0 -3.05176e-05
42 1 0.247912 0.657854 0.302936 0 0 -0.00115204
43 1 0.88144 0.866247 0.178031 0 0 -0.000883102
44 1 0.68647 0.750145 0.282068 0 0 -0.00251579
45 1 0.320067 0.958632 0.157002 0 0 -0.0035553
46 1 0.616205 0.782728 0.427856 0 0 -0.00114059
47 1 0.423477 0.999815 0.531974 0 0 0.00113678
48 1 0.247912 0.991187 0.302936 0 0 -0.00114822
ITEM: TIMESTEP
1
ITEM: NUMBER OF ATOMS
48
ITEM: BOX BOUNDS xy xz yz pp pp pp
-6.8463178277015686e+00 8.5982638597488403e+00 2.5251476168632507e+00
-1.1132121086120605e-02 9.5149352550506592e+00 -6.8585240244865417e+00
-4.7147274017333984e-03 1.9521842360496521e+01 2.6099252700805664e-01
ITEM: ATOMS id type xs ys zs fx fy fz
1 1 0.960282 0.166777 0.0347015 0 0 -0.0040226
2 1 0.518559 0.0743433 0.0532248 0 0 -0.0151424
3 1 0.791786 0.124688 0.656908 0 0 -0.00109673
4 1 0.0793997 0.949099 0.925129 0 0 0.00402641
5 1 0.719662 0.157243 0.802869 0 0 -0.0452003
6 1 0.521123 0.0415331 0.906605 0 0 0.0151463
7 1 0.158254 0.249629 0.781809 0 0 -0.036211
8 1 0.0547531 0.208292 0.407038 0 0 -0.000324249
9 1 0.353246 0.0323972 0.677792 0 0 0.00165367
10 1 0.984929 0.240917 0.552792 0 0 0.000324249
11 1 0.881428 0.199581 0.178021 0 0 0.0362148
12 1 0.686436 0.0834791 0.282039 0 0 -0.00165939
13 1 0.32002 0.291966 0.156961 0 0 0.0451984
14 1 0.61619 0.116062 0.427843 0 0 -0.0007267
15 1 0.960282 0.50011 0.0347016 0 0 -0.00402451
16 1 0.518559 0.407677 0.0532248 0 0 -0.0151501
17 1 0.791786 0.458022 0.656908 0 0 -0.00109482
18 1 0.0793999 0.282433 0.925129 0 0 0.00402832
19 1 0.719662 0.490577 0.802869 0 0 -0.0451984
20 1 0.521123 0.374866 0.906605 0 0 0.0151463
21 1 0.158254 0.582962 0.781809 0 0 -0.0362244
22 1 0.423493 0.333148 0.531987 0 0 0.000728607
23 1 0.054753 0.541626 0.407038 0 0 -0.00031662
24 1 0.353246 0.365731 0.677792 0 0 0.00165558
25 1 0.984929 0.574251 0.552792 0 0 0.000326157
26 1 0.247896 0.324521 0.302922 0 0 0.001091
27 1 0.881428 0.532914 0.178021 0 0 0.0362186
28 1 0.686436 0.416812 0.282039 0 0 -0.00166702
29 1 0.32002 0.6253 0.156961 0 0 0.0452023
30 1 0.61619 0.449395 0.427843 0 0 -0.000730515
31 1 0.960282 0.833444 0.0347016 0 0 -0.00402641
32 1 0.518559 0.74101 0.0532249 0 0 -0.0151482
33 1 0.791786 0.791355 0.656908 0 0 -0.00109291
34 1 0.0793998 0.615766 0.925129 0 0 0.00402451
35 1 0.719662 0.82391 0.802869 0 0 -0.0452042
36 1 0.521123 0.7082 0.906605 0 0 0.0151463
37 1 0.158254 0.916296 0.781809 0 0 -0.0362148
38 1 0.423493 0.666481 0.531987 0 0 0.000730515
39 1 0.0547531 0.874959 0.407038 0 0 -0.000322342
40 1 0.353246 0.699064 0.677792 0 0 0.00165939
41 1 0.984929 0.907584 0.552792 0 0 0.000328064
42 1 0.247896 0.657855 0.302922 0 0 0.00109482
43 1 0.881428 0.866247 0.178021 0 0 0.0362206
44 1 0.686436 0.750146 0.282039 0 0 -0.00166512
45 1 0.32002 0.958633 0.156961 0 0 0.0452023
46 1 0.61619 0.782728 0.427843 0 0 -0.000728607
47 1 0.423493 0.999815 0.531987 0 0 0.000732422
48 1 0.247896 0.991188 0.302922 0 0 0.00109291
ITEM: TIMESTEP
2
ITEM: NUMBER OF ATOMS
48
ITEM: BOX BOUNDS xy xz yz pp pp pp
-6.8463178277015686e+00 8.5982638597488403e+00 2.5251476168632507e+00
-1.1132121086120605e-02 9.5149352550506592e+00 -6.8585240244865417e+00
-4.7147274017333984e-03 1.9521842360496521e+01 2.6099252700805664e-01
ITEM: ATOMS id type xs ys zs fx fy fz
1 1 0.960585 0.16677 0.0349668 0 0 -0.00514984
2 1 0.518303 0.0743496 0.0530007 0 0 0.0169716
3 1 0.791768 0.124689 0.656892 0 0 -0.0175381
4 1 0.0790965 0.949107 0.924863 0 0 0.00515175
5 1 0.718832 0.157264 0.802143 0 0 -0.00514221
6 1 0.521379 0.0415268 0.906829 0 0 -0.0169697
7 1 0.157586 0.249645 0.781225 0 0 -0.00297737
8 1 0.0547471 0.208292 0.407033 0 0 9.53674e-05
9 1 0.353281 0.0323964 0.677822 0 0 -0.0173092
10 1 0.984935 0.240917 0.552797 0 0 -9.91821e-05
11 1 0.882096 0.199564 0.178606 0 0 0.00296974
12 1 0.686401 0.08348 0.282008 0 0 0.017313
13 1 0.32085 0.291946 0.157687 0 0 0.00514221
14 1 0.616175 0.116062 0.42783 0 0 0.000753403
15 1 0.960586 0.500103 0.0349669 0 0 -0.00515366
16 1 0.518303 0.407683 0.0530006 0 0 0.0169735
17 1 0.791767 0.458022 0.656892 0 0 -0.0175381
18 1 0.0790967 0.28244 0.924863 0 0 0.00514221
19 1 0.718832 0.490597 0.802143 0 0 -0.0051403
20 1 0.521379 0.37486 0.90683 0 0 -0.0169735
21 1 0.157586 0.582979 0.781224 0 0 -0.00296974
22 1 0.423508 0.333148 0.532 0 0 -0.000753403
23 1 0.0547472 0.541626 0.407033 0 0 8.96454e-05
24 1 0.353281 0.36573 0.677822 0 0 -0.0173092
25 1 0.984935 0.574251 0.552797 0 0 -9.72748e-05
26 1 0.247915 0.324521 0.302938 0 0 0.0175438
27 1 0.882096 0.532898 0.178606 0 0 0.00296783
28 1 0.686401 0.416813 0.282008 0 0 0.0173168
29 1 0.32085 0.625279 0.157687 0 0 0.00514221
30 1 0.616175 0.449395 0.42783 0 0 0.00075531
31 1 0.960586 0.833436 0.0349669 0 0 -0.00515366
32 1 0.518303 0.741016 0.0530007 0 0 0.0169773
33 1 0.791768 0.791356 0.656892 0 0 -0.01754
34 1 0.0790966 0.615774 0.924863 0 0 0.00515556
35 1 0.718832 0.823931 0.802143 0 0 -0.00514221
36 1 0.521379 0.708193 0.90683 0 0 -0.0169754
37 1 0.157586 0.916312 0.781225 0 0 -0.00296783
38 1 0.423508 0.666481 0.532 0 0 -0.000749588
39 1 0.0547471 0.874959 0.407033 0 0 9.53674e-05
40 1 0.353281 0.699063 0.677822 0 0 -0.0173149
41 1 0.984935 0.907584 0.552798 0 0 -0.000102997
42 1 0.247915 0.657854 0.302938 0 0 0.0175381
43 1 0.882096 0.866231 0.178606 0 0 0.00297165
44 1 0.686401 0.750147 0.282008 0 0 0.0173225
45 1 0.32085 0.958613 0.157687 0 0 0.0051403
46 1 0.616174 0.782729 0.42783 0 0 0.000759125
47 1 0.423508 0.999814 0.532 0 0 -0.000762939
48 1 0.247915 0.991187 0.302938 0 0 0.0175419
ITEM: TIMESTEP
3
ITEM: NUMBER OF ATOMS
48
ITEM: BOX BOUNDS xy xz yz pp pp pp
-6.8463178277015686e+00 8.5982638597488403e+00 2.5251476168632507e+00
-1.1132121086120605e-02 9.5149352550506592e+00 -6.8585240244865417e+00
-4.7147274017333984e-03 1.9521842360496521e+01 2.6099252700805664e-01
ITEM: ATOMS id type xs ys zs fx fy fz
1 1 0.960548 0.16677 0.0349344 0 0 0.00697136
2 1 0.518719 0.0743394 0.053365 0 0 -0.00180054
3 1 0.791225 0.124702 0.656417 0 0 -0.000787735
4 1 0.0791337 0.949106 0.924896 0 0 -0.00697708
5 1 0.718346 0.157276 0.801718 0 0 0.00345802
6 1 0.520963 0.041537 0.906465 0 0 0.00180626
7 1 0.157231 0.249654 0.780914 0 0 -0.00238037
8 1 0.0547477 0.208292 0.407033 0 0 0.01157
9 1 0.352766 0.032409 0.677372 0 0 -0.00216103
10 1 0.984935 0.240917 0.552797 0 0 -0.0115604
11 1 0.882451 0.199556 0.178916 0 0 0.00238991
12 1 0.686916 0.0834673 0.282458 0 0 0.0021534
13 1 0.321336 0.291934 0.158112 0 0 -0.0034523
14 1 0.616192 0.116062 0.427845 0 0 0.0124187
15 1 0.960548 0.500104 0.0349343 0 0 0.00697708
16 1 0.518719 0.407673 0.0533649 0 0 -0.00179863
17 1 0.791225 0.458036 0.656417 0 0 -0.00078392
18 1 0.0791337 0.282439 0.924896 0 0 -0.00697517
19 1 0.718347 0.490609 0.801718 0 0 0.00345039
20 1 0.520963 0.37487 0.906465 0 0 0.00179863
21 1 0.157231 0.582987 0.780914 0 0 -0.00237846
22 1 0.423491 0.333148 0.531986 0 0 -0.0124226
23 1 0.0547476 0.541626 0.407033 0 0 0.0115776
24 1 0.352766 0.365742 0.677372 0 0 -0.00215912
25 1 0.984935 0.574251 0.552797 0 0 -0.0115776
26 1 0.248457 0.324507 0.303413 0 0 0.000778198
27 1 0.882451 0.532889 0.178916 0 0 0.002388
28 1 0.686916 0.416801 0.282458 0 0 0.0021534
29 1 0.321336 0.625267 0.158112 0 0 -0.00345993
30 1 0.616192 0.449395 0.427845 0 0 0.0124187
31 1 0.960548 0.833437 0.0349343 0 0 0.00698662
32 1 0.518719 0.741006 0.053365 0 0 -0.00180054
33 1 0.791225 0.791369 0.656417 0 0 -0.00078392
34 1 0.0791339 0.615773 0.924896 0 0 -0.0069828
35 1 0.718346 0.823942 0.801718 0 0 0.00345421
36 1 0.520963 0.708204 0.906465 0 0 0.00180244
37 1 0.157231 0.916321 0.780914 0 0 -0.00239754
38 1 0.423491 0.666481 0.531986 0 0 -0.0124207
39 1 0.0547477 0.874959 0.407033 0 0 0.0115719
40 1 0.352766 0.699076 0.677372 0 0 -0.0021553
41 1 0.984935 0.907584 0.552797 0 0 -0.01157
42 1 0.248457 0.657841 0.303413 0 0 0.000785828
43 1 0.882451 0.866222 0.178916 0 0 0.00238991
44 1 0.686916 0.750134 0.282459 0 0 0.00214767
45 1 0.321336 0.958601 0.158112 0 0 -0.00344658
46 1 0.616192 0.782728 0.427845 0 0 0.0124149
47 1 0.423491 0.999815 0.531985 0 0 -0.0124073
48 1 0.248457 0.991174 0.303413 0 0 0.000776291
ITEM: TIMESTEP
4
ITEM: NUMBER OF ATOMS
48
ITEM: BOX BOUNDS xy xz yz pp pp pp
-6.8463178277015686e+00 8.5982638597488403e+00 2.5251476168632507e+00
-1.1132121086120605e-02 9.5149352550506592e+00 -6.8585240244865417e+00
-4.7147274017333984e-03 1.9521842360496521e+01 2.6099252700805664e-01
ITEM: ATOMS id type xs ys zs fx fy fz
1 1 0.960668 0.166767 0.0350388 0 0 0.000411987
2 1 0.518786 0.0743378 0.0534228 0 0 -0.00458908
3 1 0.791081 0.124706 0.656292 0 0 -0.0011425
4 1 0.0790142 0.949109 0.924791 0 0 -0.00041008
5 1 0.718294 0.157277 0.801673 0 0 -8.7738e-05
6 1 0.520897 0.0415386 0.906408 0 0 0.00458336
7 1 0.157102 0.249657 0.780802 0 0 -0.00173569
8 1 0.0549607 0.208287 0.407219 0 0 -0.000720978
9 1 0.352604 0.032413 0.67723 0 0 -0.00115585
10 1 0.984722 0.240923 0.552611 0 0 0.000724792
11 1 0.88258 0.199552 0.179029 0 0 0.00174141
12 1 0.687078 0.0834633 0.2826 0 0 0.00116348
13 1 0.321388 0.291933 0.158157 0 0 7.82013e-05
14 1 0.616424 0.116056 0.428048 0 0 -0.000429153
15 1 0.960668 0.500101 0.0350388 0 0 0.000400543
16 1 0.518785 0.407671 0.0534227 0 0 -0.00458717
17 1 0.791081 0.458039 0.656292 0 0 -0.00115585
18 1 0.0790142 0.282442 0.924791 0 0 -0.000396729
19 1 0.718294 0.49061 0.801673 0 0 -8.01086e-05
20 1 0.520897 0.374872 0.906407 0 0 0.00458908
21 1 0.157102 0.582991 0.780802 0 0 -0.00174141
22 1 0.423258 0.333154 0.531782 0 0 0.000425339
23 1 0.0549607 0.54162 0.40722 0 0 -0.000732422
24 1 0.352604 0.365746 0.67723 0 0 -0.00115967
25 1 0.984722 0.574256 0.552611 0 0 0.000736237
26 1 0.248601 0.324504 0.303538 0 0 0.00114632
27 1 0.88258 0.532886 0.179029 0 0 0.00174332
28 1 0.687078 0.416797 0.2826 0 0 0.00115776
29 1 0.321388 0.625266 0.158157 0 0 8.2016e-05
30 1 0.616424 0.449389 0.428048 0 0 -0.000429153
31 1 0.960668 0.833434 0.0350389 0 0 0.00041008
32 1 0.518786 0.741004 0.0534229 0 0 -0.0045948
33 1 0.791081 0.791373 0.656292 0 0 -0.00115204
34 1 0.0790143 0.615776 0.924791 0 0 -0.000411987
35 1 0.718294 0.823944 0.801673 0 0 -7.43866e-05
36 1 0.520897 0.708205 0.906407 0 0 0.00459671
37 1 0.157102 0.916324 0.780802 0 0 -0.00174332
38 1 0.423259 0.666487 0.531782 0 0 0.000427246
39 1 0.0549607 0.874954 0.40722 0 0 -0.000730515
40 1 0.352604 0.69908 0.67723 0 0 -0.00115585
41 1 0.984722 0.907589 0.552611 0 0 0.000736237
42 1 0.248601 0.657837 0.303538 0 0 0.00114822
43 1 0.88258 0.866219 0.179029 0 0 0.00173378
44 1 0.687078 0.75013 0.2826 0 0 0.00115585
45 1 0.321388 0.958599 0.158158 0 0 7.62939e-05
46 1 0.616424 0.782723 0.428048 0 0 -0.000427246
47 1 0.423258 0.99982 0.531782 0 0 0.000425339
48 1 0.248601 0.991171 0.303538 0 0 0.00115013
ITEM: TIMESTEP
5
ITEM: NUMBER OF ATOMS
48
ITEM: BOX BOUNDS xy xz yz pp pp pp
-6.8463178277015686e+00 8.5982638597488403e+00 2.5251476168632507e+00
-1.1132121086120605e-02 9.5149352550506592e+00 -6.8585240244865417e+00
-4.7147274017333984e-03 1.9521842360496521e+01 2.6099252700805664e-01
ITEM: ATOMS id type xs ys zs fx fy fz
1 1 0.960681 0.166767 0.03505 0 0 0.000278473
2 1 0.518718 0.0743394 0.0533633 0 0 0.000282288
3 1 0.791056 0.124706 0.656269 0 0 -0.000461578
4 1 0.0790014 0.949109 0.92478 0 0 -0.00028038
5 1 0.71829 0.157277 0.801669 0 0 -6.29425e-05
6 1 0.520965 0.041537 0.906467 0 0 -0.000284195
7 1 0.157068 0.249658 0.780772 0 0 6.67572e-05
8 1 0.0549609 0.208287 0.40722 0 0 -0.00021553
9 1 0.352577 0.0324137 0.677206 0 0 -0.000282288
10 1 0.984722 0.240923 0.552611 0 0 0.000209808
11 1 0.882614 0.199552 0.179058 0 0 -7.43866e-05
12 1 0.687105 0.0834626 0.282624 0 0 0.000286102
13 1 0.321392 0.291933 0.158161 0 0 6.86646e-05
14 1 0.61643 0.116056 0.428053 0 0 -0.00015831
15 1 0.96068 0.5001 0.0350499 0 0 0.000291824
16 1 0.518717 0.407673 0.0533632 0 0 0.00028038
17 1 0.791056 0.45804 0.656269 0 0 -0.000450134
18 1 0.0790015 0.282443 0.92478 0 0 -0.000284195
19 1 0.71829 0.490611 0.801669 0 0 -7.24792e-05
20 1 0.520965 0.37487 0.906467 0 0 -0.000276566
21 1 0.157068 0.582991 0.780772 0 0 6.29425e-05
22 1 0.423253 0.333154 0.531777 0 0 0.000156403
23 1 0.0549608 0.54162 0.40722 0 0 -0.000211716
24 1 0.352577 0.365747 0.677206 0 0 -0.00028038
25 1 0.984722 0.574256 0.552611 0 0 0.00021553
26 1 0.248626 0.324503 0.303561 0 0 0.000453949
27 1 0.882614 0.532885 0.179058 0 0 -6.86646e-05
28 1 0.687105 0.416796 0.282624 0 0 0.000286102
29 1 0.321392 0.625266 0.158161 0 0 6.67572e-05
30 1 0.61643 0.449389 0.428053 0 0 -0.000156403
31 1 0.960681 0.833434 0.0350501 0 0 0.000274658
32 1 0.518718 0.741006 0.0533633 0 0 0.00028038
33 1 0.791056 0.791373 0.656269 0 0 -0.000448227
34 1 0.0790015 0.615776 0.92478 0 0 -0.000276566
35 1 0.71829 0.823944 0.801669 0 0 -7.62939e-05
36 1 0.520965 0.708204 0.906467 0 0 -0.00028038
37 1 0.157068 0.916325 0.780772 0 0 7.24792e-05
38 1 0.423253 0.666487 0.531777 0 0 0.000148773
39 1 0.0549608 0.874954 0.40722 0 0 -0.000207901
40 1 0.352577 0.69908 0.677206 0 0 -0.000278473
41 1 0.984722 0.907589 0.552611 0 0 0.000209808
42 1 0.248626 0.657837 0.303561 0 0 0.000453949
43 1 0.882614 0.866218 0.179058 0 0 -6.86646e-05
44 1 0.687105 0.750129 0.282624 0 0 0.000284195
45 1 0.321392 0.958599 0.158161 0 0 7.05719e-05
46 1 0.61643 0.782722 0.428053 0 0 -0.000160217
47 1 0.423252 0.999821 0.531777 0 0 0.000160217
48 1 0.248626 0.99117 0.303561 0 0 0.000455856
ITEM: TIMESTEP
6
ITEM: NUMBER OF ATOMS
48
ITEM: BOX BOUNDS xy xz yz pp pp pp
-6.8463178277015686e+00 8.5982638597488403e+00 2.5251476168632507e+00
-1.1132121086120605e-02 9.5149352550506592e+00 -6.8585240244865417e+00
-4.7147274017333984e-03 1.9521842360496521e+01 2.6099252700805664e-01
ITEM: ATOMS id type xs ys zs fx fy fz
1 1 0.960681 0.166767 0.03505 0 0 0.000278473
2 1 0.518718 0.0743394 0.0533633 0 0 0.000282288
3 1 0.791056 0.124706 0.656269 0 0 -0.000461578
4 1 0.0790014 0.949109 0.92478 0 0 -0.00028038
5 1 0.71829 0.157277 0.801669 0 0 -6.29425e-05
6 1 0.520965 0.041537 0.906467 0 0 -0.000284195
7 1 0.157068 0.249658 0.780772 0 0 6.67572e-05
8 1 0.0549609 0.208287 0.40722 0 0 -0.00021553
9 1 0.352577 0.0324137 0.677206 0 0 -0.000282288
10 1 0.984722 0.240923 0.552611 0 0 0.000209808
11 1 0.882614 0.199552 0.179058 0 0 -7.43866e-05
12 1 0.687105 0.0834626 0.282624 0 0 0.000286102
13 1 0.321392 0.291933 0.158161 0 0 6.86646e-05
14 1 0.61643 0.116056 0.428053 0 0 -0.00015831
15 1 0.96068 0.5001 0.0350499 0 0 0.000291824
16 1 0.518717 0.407673 0.0533632 0 0 0.00028038
17 1 0.791056 0.45804 0.656269 0 0 -0.000450134
18 1 0.0790015 0.282443 0.92478 0 0 -0.000284195
19 1 0.71829 0.490611 0.801669 0 0 -7.24792e-05
20 1 0.520965 0.37487 0.906467 0 0 -0.000276566
21 1 0.157068 0.582991 0.780772 0 0 6.29425e-05
22 1 0.423253 0.333154 0.531777 0 0 0.000156403
23 1 0.0549608 0.54162 0.40722 0 0 -0.000211716
24 1 0.352577 0.365747 0.677206 0 0 -0.00028038
25 1 0.984722 0.574256 0.552611 0 0 0.00021553
26 1 0.248626 0.324503 0.303561 0 0 0.000453949
27 1 0.882614 0.532885 0.179058 0 0 -6.86646e-05
28 1 0.687105 0.416796 0.282624 0 0 0.000286102
29 1 0.321392 0.625266 0.158161 0 0 6.67572e-05
30 1 0.61643 0.449389 0.428053 0 0 -0.000156403
31 1 0.960681 0.833434 0.0350501 0 0 0.000274658
32 1 0.518718 0.741006 0.0533633 0 0 0.00028038
33 1 0.791056 0.791373 0.656269 0 0 -0.000448227
34 1 0.0790015 0.615776 0.92478 0 0 -0.000276566
35 1 0.71829 0.823944 0.801669 0 0 -7.62939e-05
36 1 0.520965 0.708204 0.906467 0 0 -0.00028038
37 1 0.157068 0.916325 0.780772 0 0 7.24792e-05
38 1 0.423253 0.666487 0.531777 0 0 0.000148773
39 1 0.0549608 0.874954 0.40722 0 0 -0.000207901
40 1 0.352577 0.69908 0.677206 0 0 -0.000278473
41 1 0.984722 0.907589 0.552611 0 0 0.000209808
42 1 0.248626 0.657837 0.303561 0 0 0.000453949
43 1 0.882614 0.866218 0.179058 0 0 -6.86646e-05
44 1 0.687105 0.750129 0.282624 0 0 0.000284195
45 1 0.321392 0.958599 0.158161 0 0 7.05719e-05
46 1 0.61643 0.782722 0.428053 0 0 -0.000160217
47 1 0.423252 0.999821 0.531777 0 0 0.000160217
48 1 0.248626 0.99117 0.303561 0 0 0.000455856
