ITEM: TIMESTEP
0
ITEM: NUMBER OF ATOMS
56
ITEM: BOX BOUNDS xy xz yz pp pp pp
-5.7292574244182957e+00 1.2163911692441133e+01 1.5526132515564727e-08
-3.0061665652343075e-03 5.5294143007778995e+00 -5.7504456058033231e+00
7.7232233150646462e-04 1.9019187752468508e+01 2.1812666742635317e-08
ITEM: ATOMS id type xs ys zs fx fy fz
4 1 0.0686391 0.166653 0.275226 0 0.00266702 0.00243982
5 1 0.0240717 1.01858e-05 0.418082 0 -0.000922477 7.33565e-05
6 1 0.113153 3.06084e-05 0.132367 0 -0.0742703 0.180664
7 1 0.0103836 0.500062 0.06094 0 0.474142 0.501467
15 1 0.184925 0.166652 0.703801 0 0.00217096 0.00153701
16 1 0.140367 1.72772e-05 0.846652 0 -0.00697506 0.00120975
23 1 0.171356 0.666651 0.346652 0 0.00219552 -0.00154784
24 1 0.229495 1.5722e-05 0.560941 0 -0.00114797 -0.000146505
25 1 0.126785 0.500016 0.489511 0 -0.00114509 0.000147701
30 1 0.215914 0.500017 0.203801 0 -0.00696322 -0.00119548
50 1 0.0822092 0.666656 0.63237 0 0.000946428 -6.8711e-05
51 1 0.0376417 0.500015 0.775227 0 -0.00266305 -0.0024321
52 1 0.0958957 0.166605 0.989513 0 -0.474139 -0.501472
1 1 0.613152 3.09294e-05 0.132367 0 -0.0742776 0.180659
2 1 0.363153 0.166637 0.132367 0 0.0742576 0.180661
3 1 0.318639 1.50434e-05 0.275226 0 -0.00267704 0.0024381
8 1 0.863154 0.166637 0.132367 0 0.0742658 0.180661
9 1 0.760385 0.666605 0.06094 0 -0.474127 0.50147
10 1 0.81864 1.49384e-05 0.275226 0 -0.0026733 0.00244333
11 1 0.774071 0.166657 0.418083 0 0.000927381 7.22667e-05
12 1 0.729494 1.60347e-05 0.560942 0 -0.00115778 -0.000163189
13 1 0.479495 0.166652 0.560941 0 0.00113991 -0.000149648
14 1 0.434925 1.61665e-05 0.703801 0 -0.0021977 0.00154629
17 1 0.715913 0.500017 0.203801 0 -0.00696302 -0.00119986
18 1 0.568639 0.166653 0.275226 0 0.00264836 0.00243861
19 1 0.465915 0.66665 0.203801 0 0.00697845 -0.00119738
20 1 0.524072 1.09165e-05 0.418082 0 -0.000943219 7.86671e-05
21 1 0.421356 0.500016 0.346652 0 -0.00218374 -0.00154013
22 1 0.274072 0.166657 0.418082 0 0.000930053 7.67992e-05
26 1 0.979496 0.166652 0.560941 0 0.00114084 -0.00013282
27 1 0.876786 0.666651 0.489511 0 0.00114858 0.000155536
28 1 0.510384 0.500061 0.0609401 0 0.474144 0.501445
29 1 0.260384 0.666605 0.06094 0 -0.474125 0.501442
31 1 0.965915 0.66665 0.203801 0 0.00695965 -0.00119477
32 1 0.921356 0.500016 0.346652 0 -0.0021952 -0.00154829
33 1 0.890365 0.16665 0.846652 0 0.00697038 0.00118221
34 1 0.845897 6.23935e-05 0.989513 0 0.474134 -0.501446
35 1 0.595897 0.166605 0.989513 0 -0.474136 -0.501453
36 1 0.934924 1.60929e-05 0.703801 0 -0.00219551 0.00154055
37 1 0.832208 0.50001 0.632371 0 -0.000928581 -9.68492e-05
38 1 0.684925 0.166651 0.703801 0 0.00218863 0.00154939
39 1 0.582209 0.666656 0.63237 0 0.000936703 -8.20882e-05
40 1 0.640366 1.72431e-05 0.846652 0 -0.00697352 0.00119505
41 1 0.537641 0.500015 0.775227 0 -0.00266418 -0.00243656
42 1 0.390366 0.16665 0.846652 0 0.0069596 0.00119718
43 1 0.28764 0.666652 0.775227 0 0.00267905 -0.00244012
44 1 0.345897 6.17797e-05 0.989513 0 0.474132 -0.501446
45 1 0.243128 0.50003 0.918085 0 -0.0742627 -0.180642
46 1 0.671355 0.666651 0.346652 0 0.00220427 -0.00153781
47 1 0.626785 0.500015 0.489511 0 -0.00112386 0.000155049
48 1 0.376785 0.666651 0.489511 0 0.00115052 0.000149897
49 1 0.332209 0.500011 0.63237 0 -0.000927922 -8.05678e-05
53 1 0.993126 0.666636 0.918086 0 0.0742702 -0.180685
54 1 0.78764 0.666653 0.775227 0 0.00266187 -0.00242962
55 1 0.743127 0.50003 0.918085 0 -0.0742603 -0.180669
56 1 0.493127 0.666636 0.918085 0 0.0742703 -0.180663
ITEM: TIMESTEP
8
ITEM: NUMBER OF ATOMS
56
ITEM: BOX BOUNDS xy xz yz pp pp pp
-5.7292574244182957e+00 1.2163911692441133e+01 1.5526132515564727e-08
-3.0061665652343075e-03 5.5294143007778995e+00 -5.7504456058033231e+00
7.7232233150646462e-04 1.9019187752468508e+01 2.1812666742635317e-08
ITEM: ATOMS id type xs ys zs fx fy fz
4 1 0.0699422 0.167766 0.277977 0 0.000114387 -1.42312e-05
5 1 0.0246326 -0.00116372 0.419267 0 -8.25884e-05 1.19345e-05
6 1 0.115086 0.00548084 0.136449 0 0.000167049 -0.000102404
7 1 0.012658 0.522957 0.0657427 0 2.26765e-06 -0.000328381
15 1 0.184007 0.167892 0.701862 0 0.000262393 7.26014e-05
16 1 0.138694 -7.2046e-05 0.84312 0 -9.76474e-05 9.41843e-05
23 1 0.172274 0.667893 0.348591 0 0.00026243 -7.04182e-05
24 1 0.229315 -0.00116736 0.560561 0 0.000173055 0.000139998
25 1 0.126965 0.498833 0.489892 0 0.000172989 -0.000142831
30 1 0.217587 0.499928 0.207333 0 -9.94235e-05 -9.92769e-05
50 1 0.0816484 0.667831 0.631186 0 8.30101e-05 -1.07082e-05
51 1 0.0363387 0.498901 0.772476 0 -0.000114656 1.41003e-05
52 1 0.0936211 0.143711 0.98471 0 -1.77498e-06 0.000331884
1 1 0.615086 0.005481 0.136449 0 0.000166192 -0.000102956
2 1 0.365086 0.161187 0.136449 0 -0.000165289 -0.000100793
3 1 0.319942 -0.00109886 0.277977 0 -0.000112941 -1.39744e-05
8 1 0.865087 0.161186 0.136449 0 -0.000165823 -0.000100665
9 1 0.762659 0.643711 0.0657431 0 -3.08712e-06 -0.000326063
10 1 0.819943 -0.00109893 0.277977 0 -0.000113802 -1.42302e-05
11 1 0.774631 0.167832 0.419267 0 8.3243e-05 1.1891e-05
12 1 0.729314 -0.00116731 0.560561 0 0.000172764 0.000140937
13 1 0.479315 0.167835 0.560561 0 -0.000173178 0.000141472
14 1 0.434006 -0.00122605 0.701862 0 -0.000263294 6.88561e-05
17 1 0.717586 0.499928 0.207333 0 -9.73402e-05 -9.97224e-05
18 1 0.569942 0.167765 0.277977 0 0.00011438 -1.36026e-05
19 1 0.467587 0.666739 0.207333 0 9.82832e-05 -9.92942e-05
20 1 0.524633 -0.00116391 0.419267 0 -8.35449e-05 1.16207e-05
21 1 0.422274 0.498774 0.348591 0 -0.000262101 -7.07265e-05
22 1 0.274632 0.167831 0.419267 0 8.35473e-05 1.33822e-05
26 1 0.979316 0.167835 0.560561 0 -0.000173212 0.000139968
27 1 0.876966 0.667835 0.489892 0 -0.000173483 -0.000141755
28 1 0.512658 0.522957 0.0657426 0 3.72401e-06 -0.000327518
29 1 0.262658 0.643711 0.0657429 0 -4.11919e-06 -0.000328339
31 1 0.967587 0.666739 0.207333 0 9.8527e-05 -9.95551e-05
32 1 0.922275 0.498774 0.348591 0 -0.000263342 -7.06661e-05
33 1 0.888693 0.166739 0.84312 0 9.70497e-05 9.40416e-05
34 1 0.843622 0.0229568 0.98471 0 2.32383e-06 0.00032675
35 1 0.593622 0.143711 0.98471 0 -4.47376e-06 0.000327735
36 1 0.934005 -0.00122619 0.701862 0 -0.000262138 7.3968e-05
37 1 0.831647 0.498836 0.631186 0 -8.35964e-05 -1.20128e-05
38 1 0.684007 0.167893 0.701862 0 0.0002629 7.13811e-05
39 1 0.581648 0.667831 0.631186 0 8.27809e-05 -1.1449e-05
40 1 0.638693 -7.21029e-05 0.84312 0 -9.74279e-05 0.000102616
41 1 0.536338 0.498901 0.772476 0 -0.000114907 1.43869e-05
42 1 0.388693 0.166739 0.84312 0 9.79613e-05 0.000102102
43 1 0.286337 0.667765 0.772476 0 0.000114834 1.13973e-05
44 1 0.343622 0.0229569 0.98471 0 3.98904e-06 0.000327034
45 1 0.241195 0.505481 0.914004 0 0.000165035 0.000103458
46 1 0.672273 0.667893 0.348591 0 0.000262484 -7.00784e-05
47 1 0.626965 0.498833 0.489892 0 0.000173193 -0.000141943
48 1 0.376965 0.667835 0.489892 0 -0.0001735 -0.00014409
49 1 0.331648 0.498836 0.631186 0 -8.32276e-05 -1.07017e-05
53 1 0.991193 0.661186 0.914003 0 -0.000165966 0.00010275
54 1 0.786337 0.667765 0.772475 0 0.000113658 1.67387e-05
55 1 0.741194 0.505481 0.914004 0 0.000166676 9.90439e-05
56 1 0.491194 0.661187 0.914003 0 -0.000164956 0.00010222
